<event>
 7    1  0.2974434E-011  0.5052885E+02  0.7816164E-02  0.1300439E+00
        -11   -1    0    0    0    0  0.00000000000E+00  0.00000000000E+00  0.45593999997E+02  0.45594000000E+02  0.51100000000E-03 0.  1.
         11   -1    0    0    0    0 -0.00000000000E+00 -0.00000000000E+00 -0.45593999997E+02  0.45594000000E+02  0.51100000000E-03 0. -1.
    9900012    2    1    2    0    0 -0.26530122557E+02 -0.20745263444E+02 -0.22780541416E+02  0.50528850656E+02  0.29999972053E+02 0.  0.
        -12    1    1    2    0    0  0.26530122557E+02  0.20745263444E+02  0.22780541416E+02  0.40659149344E+02  0.00000000000E+00 0.  1.
         11    1    3    3    0    0 -0.10305424509E+02  0.11662218594E+01  0.88523741434E-01  0.10371580614E+02  0.51100000000E-03 0. -1.
        -11    1    3    3    0    0  0.33315267791E+01 -0.35493184408E+01  0.59023269520E-01  0.48682867707E+01  0.51100000000E-03 0.  1.
         12    1    3    3    0    0 -0.19556224827E+02 -0.18362166862E+02 -0.22928088426E+02  0.35288983271E+02  0.00000000000E+00 0. -1.
</event>
<event>
 7    1  0.2974434E-011  0.5052887E+02  0.7816164E-02  0.1300439E+00
        -11   -1    0    0    0    0  0.00000000000E+00  0.00000000000E+00  0.45593999997E+02  0.45594000000E+02  0.51100000000E-03 0.  1.
         11   -1    0    0    0    0 -0.00000000000E+00 -0.00000000000E+00 -0.45593999997E+02  0.45594000000E+02  0.51100000000E-03 0. -1.
    9900012    2    1    2    0    0  0.24288165316E+02 -0.12363598281E+02 -0.30172696094E+02  0.50528866630E+02  0.30000020608E+02 0.  0.
        -12    1    1    2    0    0 -0.24288165316E+02  0.12363598281E+02  0.30172696094E+02  0.40659133370E+02  0.00000000000E+00 0.  1.
         11    1    3    3    0    0  0.87729430226E+01  0.26807242310E+01  0.15436096004E+01  0.93023407022E+01  0.51100000000E-03 0.  1.
        -11    1    3    3    0    0  0.85326444688E+01  0.42017292156E+00 -0.60880794323E+01  0.10490342146E+02  0.51100000000E-03 0. -1.
         12    1    3    3    0    0  0.69825778244E+01 -0.15464495434E+02 -0.25628226262E+02  0.30736183781E+02  0.00000000000E+00 0. -1.
</event>
<event>
 7    1  0.2974434E-011  0.5052884E+02  0.7816164E-02  0.1300439E+00
        -11   -1    0    0    0    0  0.00000000000E+00  0.00000000000E+00  0.45593999997E+02  0.45594000000E+02  0.51100000000E-03 0.  1.
         11   -1    0    0    0    0 -0.00000000000E+00 -0.00000000000E+00 -0.45593999997E+02  0.45594000000E+02  0.51100000000E-03 0. -1.
    9900012    2    1    2    0    0 -0.17809488785E+01  0.36855908503E+02 -0.17077404358E+02  0.50528837317E+02  0.29999931508E+02 0.  0.
        -12    1    1    2    0    0  0.17809488785E+01 -0.36855908503E+02  0.17077404358E+02  0.40659162683E+02  0.00000000000E+00 0.  1.
         11    1    3    3    0    0 -0.63265695861E+01  0.19831627480E+02 -0.18090278270E+02  0.27578562316E+02  0.51100000000E-03 0.  1.
        -11    1    3    3    0    0  0.67212829926E+01  0.17027969903E+01 -0.19311622972E+01  0.71975378246E+01  0.51100000000E-03 0. -1.
        -12    1    3    3    0    0 -0.21756622850E+01  0.15321484033E+02  0.29440362097E+01  0.15752737177E+02  0.00000000000E+00 0.  1.
</event>
<event>
 7    1  0.2974434E-011  0.5052889E+02  0.7816164E-02  0.1300439E+00
        -11   -1    0    0    0    0  0.00000000000E+00  0.00000000000E+00  0.45593999997E+02  0.45594000000E+02  0.51100000000E-03 0.  1.
         11   -1    0    0    0    0 -0.00000000000E+00 -0.00000000000E+00 -0.45593999997E+02  0.45594000000E+02  0.51100000000E-03 0. -1.
    9900012    2    1    2    0    0  0.35762445076E+02 -0.18953781883E+02  0.38684869163E+01  0.50528886428E+02  0.30000080787E+02 0.  0.
        -12    1    1    2    0    0 -0.35762445076E+02  0.18953781883E+02 -0.38684869163E+01  0.40659113572E+02  0.00000000000E+00 0.  1.
         11    1    3    3    0    0  0.29481159555E+02 -0.99425531761E+01  0.95407689708E+01  0.32542578343E+02  0.51100000000E-03 0. -1.
        -11    1    3    3    0    0  0.50597113588E+01 -0.37818014670E+01  0.36003582325E+01  0.72708514655E+01  0.51100000000E-03 0.  1.
         12    1    3    3    0    0  0.12215741618E+01 -0.52294272394E+01 -0.92726402870E+01  0.10715456620E+02  0.00000000000E+00 0. -1.
</event>
<event>
 7    1  0.2974434E-011  0.5052886E+02  0.7816164E-02  0.1300439E+00
        -11   -1    0    0    0    0  0.00000000000E+00  0.00000000000E+00  0.45593999997E+02  0.45594000000E+02  0.51100000000E-03 0. -1.
         11   -1    0    0    0    0 -0.00000000000E+00 -0.00000000000E+00 -0.45593999997E+02  0.45594000000E+02  0.51100000000E-03 0.  1.
    9900012    2    1    2    0    0 -0.21928073356E+02 -0.23663947813E+02  0.24745557583E+02  0.50528862683E+02  0.30000008613E+02 0.  0.
        -12    1    1    2    0    0  0.21928073356E+02  0.23663947813E+02 -0.24745557583E+02  0.40659137317E+02  0.00000000000E+00 0.  1.
         11    1    3    3    0    0 -0.92872775253E+01 -0.17117907954E+02  0.96873482528E+01  0.21751345085E+02  0.51100000000E-03 0. -1.
        -11    1    3    3    0    0 -0.13678639463E+02 -0.10890807558E+02  0.56705254976E+01  0.18381232997E+02  0.51100000000E-03 0.  1.
        -12    1    3    3    0    0  0.10378436319E+01  0.43447676995E+01  0.93876838327E+01  0.10396284601E+02  0.00000000000E+00 0.  1.
</event>
<event>
 7    1  0.2974434E-011  0.5052886E+02  0.7816164E-02  0.1300439E+00
        -11   -1    0    0    0    0  0.00000000000E+00  0.00000000000E+00  0.45593999997E+02  0.45594000000E+02  0.51100000000E-03 0.  1.
         11   -1    0    0    0    0 -0.00000000000E+00 -0.00000000000E+00 -0.45593999997E+02  0.45594000000E+02  0.51100000000E-03 0. -1.
    9900012    2    1    2    0    0 -0.36722755254E+01 -0.12132792096E+02 -0.38632574567E+02  0.50528855035E+02  0.29999985366E+02 0.  0.
        -12    1    1    2    0    0  0.36722755254E+01  0.12132792096E+02  0.38632574567E+02  0.40659144965E+02  0.00000000000E+00 0.  1.
         11    1    3    3    0    0 -0.50533578821E+01  0.33194569496E+01 -0.55296268158E+01  0.81934115793E+01  0.51100000000E-03 0. -1.
        -11    1    3    3    0    0  0.86321350929E+01 -0.93565534831E+01 -0.69155296769E+01  0.14487353116E+02  0.51100000000E-03 0.  1.
         12    1    3    3    0    0 -0.72510527363E+01 -0.60956955629E+01 -0.26187418074E+02  0.27848090340E+02  0.00000000000E+00 0. -1.
</event>
<event>
 7    1  0.2974434E-011  0.5052886E+02  0.7816164E-02  0.1300439E+00
        -11   -1    0    0    0    0  0.00000000000E+00  0.00000000000E+00  0.45593999997E+02  0.45594000000E+02  0.51100000000E-03 0.  1.
         11   -1    0    0    0    0 -0.00000000000E+00 -0.00000000000E+00 -0.45593999997E+02  0.45594000000E+02  0.51100000000E-03 0. -1.
    9900012    2    1    2    0    0  0.68814059919E+01 -0.48424008233E+00 -0.40069657710E+02  0.50528859504E+02  0.29999998947E+02 0.  0.
        -12    1    1    2    0    0 -0.68814059919E+01  0.48424008233E+00  0.40069657710E+02  0.40659140496E+02  0.00000000000E+00 0.  1.
         11    1    3    3    0    0  0.21128769726E+01 -0.77355605866E+01 -0.33511821583E+02  0.34457877659E+02  0.51100000000E-03 0. -1.
        -11    1    3    3    0    0  0.26710347109E+01  0.18416440260E+01 -0.91559355699E+01  0.97137652620E+01  0.51100000000E-03 0.  1.
        -12    1    3    3    0    0  0.20974943084E+01  0.54096764783E+01  0.25980994421E+01  0.63572165831E+01  0.00000000000E+00 0.  1.
</event>
<event>
 7    1  0.2974434E-011  0.5052886E+02  0.7816164E-02  0.1300439E+00
        -11   -1    0    0    0    0  0.00000000000E+00  0.00000000000E+00  0.45593999997E+02  0.45594000000E+02  0.51100000000E-03 0.  1.
         11   -1    0    0    0    0 -0.00000000000E+00 -0.00000000000E+00 -0.45593999997E+02  0.45594000000E+02  0.51100000000E-03 0. -1.
    9900012    2    1    2    0    0  0.73209091387E+01  0.19677843595E+02 -0.34818850666E+02  0.50528860795E+02  0.30000002872E+02 0.  0.
        -12    1    1    2    0    0 -0.73209091387E+01 -0.19677843595E+02  0.34818850666E+02  0.40659139205E+02  0.00000000000E+00 0.  1.
         11    1    3    3    0    0 -0.57816385787E+00  0.76219726310E+01 -0.99520992232E+01  0.12548825421E+02  0.51100000000E-03 0. -1.
        -11    1    3    3    0    0  0.11021289652E+02  0.18269032564E+02 -0.15777212948E+02  0.26535765018E+02  0.51100000000E-03 0.  1.
        -12    1    3    3    0    0 -0.31222166557E+01 -0.62131616005E+01 -0.90895384952E+01  0.11444270356E+02  0.00000000000E+00 0.  1.
</event>
<event>
 7    1  0.2974434E-011  0.5052886E+02  0.7816164E-02  0.1300439E+00
        -11   -1    0    0    0    0  0.00000000000E+00  0.00000000000E+00  0.45593999997E+02  0.45594000000E+02  0.51100000000E-03 0. -1.
         11   -1    0    0    0    0 -0.00000000000E+00 -0.00000000000E+00 -0.45593999997E+02  0.45594000000E+02  0.51100000000E-03 0.  1.
    9900012    2    1    2    0    0  0.25709793627E+02 -0.26042795327E+02 -0.17718489617E+02  0.50528861407E+02  0.30000004733E+02 0.  0.
        -12    1    1    2    0    0 -0.25709793627E+02  0.26042795327E+02  0.17718489617E+02  0.40659138593E+02  0.00000000000E+00 0.  1.
         11    1    3    3    0    0  0.19207398380E+02 -0.13275654808E+02 -0.19593080501E+01  0.23430878161E+02  0.51100000000E-03 0. -1.
        -11    1    3    3    0    0 -0.45204108778E+01 -0.89432693132E+01 -0.48814323119E+01  0.11146504483E+02  0.51100000000E-03 0.  1.
        -12    1    3    3    0    0  0.11022806125E+02 -0.38238712058E+01 -0.10877749255E+02  0.15951478763E+02  0.00000000000E+00 0.  1.
</event>
<event>
 7    1  0.2974434E-011  0.5052886E+02  0.7816164E-02  0.1300439E+00
        -11   -1    0    0    0    0  0.00000000000E+00  0.00000000000E+00  0.45593999997E+02  0.45594000000E+02  0.51100000000E-03 0.  1.
         11   -1    0    0    0    0 -0.00000000000E+00 -0.00000000000E+00 -0.45593999997E+02  0.45594000000E+02  0.51100000000E-03 0. -1.
    9900012    2    1    2    0    0 -0.23742811724E+02 -0.92781029338E+01 -0.31675882451E+02  0.50528857957E+02  0.29999994246E+02 0.  0.
        -12    1    1    2    0    0  0.23742811724E+02  0.92781029338E+01  0.31675882451E+02  0.40659142043E+02  0.00000000000E+00 0.  1.
         11    1    3    3    0    0 -0.94295325538E+01 -0.71439471178E+01  0.93654580836E+00  0.11867147211E+02  0.51100000000E-03 0. -1.
        -11    1    3    3    0    0 -0.16234920202E+02 -0.44215301027E+01 -0.22365511666E+02  0.27988188129E+02  0.51100000000E-03 0.  1.
        -12    1    3    3    0    0  0.19216410319E+01  0.22873742868E+01 -0.10246916593E+02  0.10673522617E+02  0.00000000000E+00 0.  1.
</event>
<event>
 7    1  0.2974434E-011  0.5052886E+02  0.7816164E-02  0.1300439E+00
        -11   -1    0    0    0    0  0.00000000000E+00  0.00000000000E+00  0.45593999997E+02  0.45594000000E+02  0.51100000000E-03 0.  1.
         11   -1    0    0    0    0 -0.00000000000E+00 -0.00000000000E+00 -0.45593999997E+02  0.45594000000E+02  0.51100000000E-03 0. -1.
    9900012    2    1    2    0    0  0.11380619156E+02  0.11588955997E+02 -0.37273892859E+02  0.50528862253E+02  0.30000007303E+02 0.  0.
        -12    1    1    2    0    0 -0.11380619156E+02 -0.11588955997E+02  0.37273892859E+02  0.40659137747E+02  0.00000000000E+00 0.  1.
         11    1    3    3    0    0  0.50518829679E+01  0.24488662833E+01 -0.16372517535E+02  0.17308315871E+02  0.51100000000E-03 0. -1.
        -11    1    3    3    0    0  0.33401549219E+01  0.79010536537E+01 -0.25890341854E+02  0.27274403482E+02  0.51100000000E-03 0.  1.
        -12    1    3    3    0    0  0.29885812663E+01  0.12390360602E+01  0.49889665297E+01  0.59461428993E+01  0.00000000000E+00 0.  1.
</event>
<event>
 7    1  0.2974434E-011  0.5052885E+02  0.7816164E-02  0.1300439E+00
        -11   -1    0    0    0    0  0.00000000000E+00  0.00000000000E+00  0.45593999997E+02  0.45594000000E+02  0.51100000000E-03 0.  1.
         11   -1    0    0    0    0 -0.00000000000E+00 -0.00000000000E+00 -0.45593999997E+02  0.45594000000E+02  0.51100000000E-03 0. -1.
    9900012    2    1    2    0    0 -0.28855127011E+02  0.25131414367E+02  0.13746282231E+02  0.50528848286E+02  0.29999964850E+02 0.  0.
        -12    1    1    2    0    0  0.28855127011E+02 -0.25131414367E+02 -0.13746282231E+02  0.40659151714E+02  0.00000000000E+00 0.  1.
         11    1    3    3    0    0  0.21552625131E+01  0.56740818229E+01  0.86640357917E+00  0.61311513157E+01  0.51100000000E-03 0. -1.
        -11    1    3    3    0    0 -0.75889100429E+01  0.13601857729E+02  0.12948885976E+02  0.20255264442E+02  0.51100000000E-03 0.  1.
        -12    1    3    3    0    0 -0.23421479481E+02  0.58554748154E+01 -0.69007323931E-01  0.24142432529E+02  0.00000000000E+00 0.  1.
</event>
<event>
 7    1  0.2974434E-011  0.5052886E+02  0.7816164E-02  0.1300439E+00
        -11   -1    0    0    0    0  0.00000000000E+00  0.00000000000E+00  0.45593999997E+02  0.45594000000E+02  0.51100000000E-03 0.  1.
         11   -1    0    0    0    0 -0.00000000000E+00 -0.00000000000E+00 -0.45593999997E+02  0.45594000000E+02  0.51100000000E-03 0. -1.
    9900012    2    1    2    0    0  0.48478976566E+01 -0.26455326646E+02 -0.30492275941E+02  0.50528864351E+02  0.30000013681E+02 0.  0.
        -12    1    1    2    0    0 -0.48478976566E+01  0.26455326646E+02  0.30492275941E+02  0.40659135649E+02  0.00000000000E+00 0.  1.
         11    1    3    3    0    0  0.56513010020E+01 -0.17421532202E+02 -0.16841826837E+02  0.24881602013E+02  0.51100000000E-03 0. -1.
        -11    1    3    3    0    0 -0.91783987818E+01 -0.96441733976E+01 -0.82015837537E+01  0.15637105264E+02  0.51100000000E-03 0.  1.
        -12    1    3    3    0    0  0.83749954364E+01  0.61037895334E+00 -0.54488653508E+01  0.10010157074E+02  0.00000000000E+00 0.  1.
</event>
<event>
 7    1  0.2974434E-011  0.5052886E+02  0.7816164E-02  0.1300439E+00
        -11   -1    0    0    0    0  0.00000000000E+00  0.00000000000E+00  0.45593999997E+02  0.45594000000E+02  0.51100000000E-03 0.  1.
         11   -1    0    0    0    0 -0.00000000000E+00 -0.00000000000E+00 -0.45593999997E+02  0.45594000000E+02  0.51100000000E-03 0. -1.
    9900012    2    1    2    0    0  0.34864124946E+02 -0.74421016102E+00 -0.20907045736E+02  0.50528860580E+02  0.30000002219E+02 0.  0.
        -12    1    1    2    0    0 -0.34864124946E+02  0.74421016102E+00  0.20907045736E+02  0.40659139420E+02  0.00000000000E+00 0.  1.
         11    1    3    3    0    0  0.11015983759E+02 -0.76820865575E+01 -0.53309296504E+01  0.14449400100E+02  0.51100000000E-03 0. -1.
        -11    1    3    3    0    0  0.66829628458E+01 -0.29397860507E+01  0.39218829478E+01  0.82876715994E+01  0.51100000000E-03 0.  1.
         12    1    3    3    0    0  0.17165178340E+02  0.98776624471E+01 -0.19497999033E+02  0.27791788880E+02  0.00000000000E+00 0. -1.
</event>
<event>
 7    1  0.2974434E-011  0.5052886E+02  0.7816164E-02  0.1300439E+00
        -11   -1    0    0    0    0  0.00000000000E+00  0.00000000000E+00  0.45593999997E+02  0.45594000000E+02  0.51100000000E-03 0.  1.
         11   -1    0    0    0    0 -0.00000000000E+00 -0.00000000000E+00 -0.45593999997E+02  0.45594000000E+02  0.51100000000E-03 0. -1.
    9900012    2    1    2    0    0  0.18623389950E+02  0.31208834852E+02 -0.18230293146E+02  0.50528860631E+02  0.30000002373E+02 0.  0.
        -12    1    1    2    0    0 -0.18623389950E+02 -0.31208834852E+02  0.18230293146E+02  0.40659139369E+02  0.00000000000E+00 0.  1.
         11    1    3    3    0    0  0.37174904050E+01  0.84221069051E+00 -0.13049600189E+02  0.13594893126E+02  0.51100000000E-03 0. -1.
        -11    1    3    3    0    0 -0.21134925528E+01  0.21475686004E+01  0.14108564308E+01  0.33270734578E+01  0.51100000000E-03 0.  1.
         12    1    3    3    0    0  0.17019392098E+02  0.28219055561E+02 -0.65915493881E+01  0.33606894047E+02  0.00000000000E+00 0. -1.
</event>
<event>
 7    1  0.2974434E-011  0.5052885E+02  0.7816164E-02  0.1300439E+00
        -11   -1    0    0    0    0  0.00000000000E+00  0.00000000000E+00  0.45593999997E+02  0.45594000000E+02  0.51100000000E-03 0.  1.
         11   -1    0    0    0    0 -0.00000000000E+00 -0.00000000000E+00 -0.45593999997E+02  0.45594000000E+02  0.51100000000E-03 0. -1.
    9900012    2    1    2    0    0 -0.20124995542E+02 -0.35988059406E+01 -0.35145405799E+02  0.50528850987E+02  0.29999973059E+02 0.  0.
        -12    1    1    2    0    0  0.20124995542E+02  0.35988059406E+01  0.35145405799E+02  0.40659149013E+02  0.00000000000E+00 0.  1.
         11    1    3    3    0    0 -0.18940935847E+02 -0.49434025442E+01 -0.15629283851E+02  0.25049367126E+02  0.51100000000E-03 0. -1.
        -11    1    3    3    0    0 -0.47910533650E+01 -0.61156658637E+01 -0.69309659079E+01  0.10411236717E+02  0.51100000000E-03 0.  1.
         12    1    3    3    0    0  0.36069936704E+01  0.74602624673E+01 -0.12585156040E+02  0.15068247143E+02  0.00000000000E+00 0. -1.
</event>
<event>
 7    1  0.2974434E-011  0.5052888E+02  0.7816164E-02  0.1300439E+00
        -11   -1    0    0    0    0  0.00000000000E+00  0.00000000000E+00  0.45593999997E+02  0.45594000000E+02  0.51100000000E-03 0. -1.
         11   -1    0    0    0    0 -0.00000000000E+00 -0.00000000000E+00 -0.45593999997E+02  0.45594000000E+02  0.51100000000E-03 0.  1.
    9900012    2    1    2    0    0  0.24766697021E+01  0.39196976220E+02  0.10517950380E+02  0.50528879033E+02  0.30000058308E+02 0.  0.
        -12    1    1    2    0    0 -0.24766697021E+01 -0.39196976220E+02 -0.10517950380E+02  0.40659120967E+02  0.00000000000E+00 0.  1.
         11    1    3    3    0    0  0.95498781475E+01  0.54617907542E+01 -0.44629511462E+01  0.11872205527E+02  0.51100000000E-03 0.  1.
        -11    1    3    3    0    0  0.50898844117E-01  0.19441586771E+02  0.10366836674E+02  0.22032911513E+02  0.51100000000E-03 0. -1.
        -12    1    3    3    0    0 -0.71241072896E+01  0.14293598695E+02  0.46140648521E+01  0.16623761993E+02  0.00000000000E+00 0.  1.
</event>
<event>
 7    1  0.2974434E-011  0.5052886E+02  0.7816164E-02  0.1300439E+00
        -11   -1    0    0    0    0  0.00000000000E+00  0.00000000000E+00  0.45593999997E+02  0.45594000000E+02  0.51100000000E-03 0.  1.
         11   -1    0    0    0    0 -0.00000000000E+00 -0.00000000000E+00 -0.45593999997E+02  0.45594000000E+02  0.51100000000E-03 0. -1.
    9900012    2    1    2    0    0  0.13850880178E+02  0.18470135706E+02 -0.33468987081E+02  0.50528857228E+02  0.29999992031E+02 0.  0.
        -12    1    1    2    0    0 -0.13850880178E+02 -0.18470135706E+02  0.33468987081E+02  0.40659142772E+02  0.00000000000E+00 0.  1.
         11    1    3    3    0    0 -0.28275934364E+01 -0.32749365109E+01 -0.16986225232E+01  0.46482053020E+01  0.51100000000E-03 0. -1.
        -11    1    3    3    0    0 -0.26450046646E+01  0.96215513202E+01 -0.12675158268E+02  0.16131643960E+02  0.51100000000E-03 0.  1.
         12    1    3    3    0    0  0.19323478279E+02  0.12123520897E+02 -0.19095206290E+02  0.29749007966E+02  0.00000000000E+00 0. -1.
</event>
<event>
 7    1  0.2974434E-011  0.5052887E+02  0.7816164E-02  0.1300439E+00
        -11   -1    0    0    0    0  0.00000000000E+00  0.00000000000E+00  0.45593999997E+02  0.45594000000E+02  0.51100000000E-03 0.  1.
         11   -1    0    0    0    0 -0.00000000000E+00 -0.00000000000E+00 -0.45593999997E+02  0.45594000000E+02  0.51100000000E-03 0. -1.
    9900012    2    1    2    0    0  0.10782462313E+02  0.12786725064E+02 -0.37059457607E+02  0.50528865362E+02  0.30000016753E+02 0.  0.
        -12    1    1    2    0    0 -0.10782462313E+02 -0.12786725064E+02  0.37059457607E+02  0.40659134638E+02  0.00000000000E+00 0.  1.
         11    1    3    3    0    0  0.11308874402E+02  0.10219051194E+02 -0.40153428587E+01  0.15762062876E+02  0.51100000000E-03 0. -1.
        -11    1    3    3    0    0  0.70188972030E+00 -0.14212294761E+01 -0.13143794698E+00  0.15905403479E+01  0.51100000000E-03 0.  1.
         12    1    3    3    0    0 -0.12283018093E+01  0.39889033464E+01 -0.32912676801E+02  0.33176262138E+02  0.00000000000E+00 0. -1.
</event>
<event>
 7    1  0.2974434E-011  0.5052886E+02  0.7816164E-02  0.1300439E+00
        -11   -1    0    0    0    0  0.00000000000E+00  0.00000000000E+00  0.45593999997E+02  0.45594000000E+02  0.51100000000E-03 0.  1.
         11   -1    0    0    0    0 -0.00000000000E+00 -0.00000000000E+00 -0.45593999997E+02  0.45594000000E+02  0.51100000000E-03 0. -1.
    9900012    2    1    2    0    0 -0.39841430237E+01 -0.30767662540E+02  0.26280099145E+02  0.50528855089E+02  0.29999985528E+02 0.  0.
        -12    1    1    2    0    0  0.39841430237E+01  0.30767662540E+02 -0.26280099145E+02  0.40659144911E+02  0.00000000000E+00 0.  1.
         11    1    3    3    0    0 -0.60940238488E+01 -0.10735742490E+02  0.10412193921E+02  0.16149522469E+02  0.51100000000E-03 0. -1.
        -11    1    3    3    0    0 -0.10248184985E+02 -0.11378958651E+02  0.93730782235E+01  0.17954403112E+02  0.51100000000E-03 0.  1.
        -12    1    3    3    0    0  0.12358065810E+02 -0.86529613997E+01  0.64948270010E+01  0.16424929508E+02  0.00000000000E+00 0.  1.
</event>
<event>
 7    1  0.2974434E-011  0.5052887E+02  0.7816164E-02  0.1300439E+00
        -11   -1    0    0    0    0  0.00000000000E+00  0.00000000000E+00  0.45593999997E+02  0.45594000000E+02  0.51100000000E-03 0. -1.
         11   -1    0    0    0    0 -0.00000000000E+00 -0.00000000000E+00 -0.45593999997E+02  0.45594000000E+02  0.51100000000E-03 0.  1.
    9900012    2    1    2    0    0 -0.11272148160E+02 -0.30697397590E+02  0.24161403258E+02  0.50528868795E+02  0.30000027190E+02 0.  0.
        -12    1    1    2    0    0  0.11272148160E+02  0.30697397590E+02 -0.24161403258E+02  0.40659131205E+02  0.00000000000E+00 0.  1.
         11    1    3    3    0    0 -0.60510218520E+01 -0.18156736534E+02  0.23115279564E+02  0.30009966621E+02  0.51100000000E-03 0. -1.
        -11    1    3    3    0    0  0.19167852135E+00  0.35296325451E+01  0.17674910215E+00  0.35392495059E+01  0.51100000000E-03 0.  1.
        -12    1    3    3    0    0 -0.54128048293E+01 -0.16070293602E+02  0.86937459161E+00  0.16979652669E+02  0.00000000000E+00 0.  1.
</event>
<event>
 7    1  0.2974434E-011  0.5052887E+02  0.7816164E-02  0.1300439E+00
        -11   -1    0    0    0    0  0.00000000000E+00  0.00000000000E+00  0.45593999997E+02  0.45594000000E+02  0.51100000000E-03 0. -1.
         11   -1    0    0    0    0 -0.00000000000E+00 -0.00000000000E+00 -0.45593999997E+02  0.45594000000E+02  0.51100000000E-03 0.  1.
    9900012    2    1    2    0    0  0.40359546680E+02 -0.47300052486E+01 -0.13779891155E+01  0.50528870498E+02  0.30000032365E+02 0.  0.
        -12    1    1    2    0    0 -0.40359546680E+02  0.47300052486E+01  0.13779891155E+01  0.40659129502E+02  0.00000000000E+00 0.  1.
         11    1    3    3    0    0  0.12987354754E+02  0.18037355408E+01 -0.69743477322E+01  0.14851477097E+02  0.51100000000E-03 0. -1.
        -11    1    3    3    0    0  0.30486424186E+02 -0.31702436618E+01  0.49623689897E+01  0.31049921268E+02  0.51100000000E-03 0.  1.
        -12    1    3    3    0    0 -0.31142322595E+01 -0.33634971276E+01  0.63398962691E+00  0.46274721328E+01  0.00000000000E+00 0.  1.
</event>
<event>
 7    1  0.2974434E-011  0.5052884E+02  0.7816164E-02  0.1300439E+00
        -11   -1    0    0    0    0  0.00000000000E+00  0.00000000000E+00  0.45593999997E+02  0.45594000000E+02  0.51100000000E-03 0.  1.
         11   -1    0    0    0    0 -0.00000000000E+00 -0.00000000000E+00 -0.45593999997E+02  0.45594000000E+02  0.51100000000E-03 0. -1.
    9900012    2    1    2    0    0 -0.21153173377E+02  0.35849467473E+00 -0.34721497176E+02  0.50528835861E+02  0.29999927082E+02 0.  0.
        -12    1    1    2    0    0  0.21153173377E+02 -0.35849467473E+00  0.34721497176E+02  0.40659164139E+02  0.00000000000E+00 0.  1.
         11    1    3    3    0    0 -0.85303760760E+01 -0.18124214295E+00 -0.10781883790E+01  0.86001543680E+01  0.51100000000E-03 0. -1.
        -11    1    3    3    0    0 -0.72777534437E+01 -0.10189963007E+02 -0.12949446181E+02  0.18013583706E+02  0.51100000000E-03 0.  1.
        -12    1    3    3    0    0 -0.53450438573E+01  0.10729699825E+02 -0.20693862617E+02  0.23915097787E+02  0.00000000000E+00 0.  1.
</event>
<event>
 7    1  0.2974434E-011  0.5052879E+02  0.7816164E-02  0.1300439E+00
        -11   -1    0    0    0    0  0.00000000000E+00  0.00000000000E+00  0.45593999997E+02  0.45594000000E+02  0.51100000000E-03 0. -1.
         11   -1    0    0    0    0 -0.00000000000E+00 -0.00000000000E+00 -0.45593999997E+02  0.45594000000E+02  0.51100000000E-03 0.  1.
    9900012    2    1    2    0    0  0.34163096691E+02 -0.57395122105E+01  0.21286425768E+02  0.50528793197E+02  0.29999797400E+02 0.  0.
        -12    1    1    2    0    0 -0.34163096691E+02  0.57395122105E+01 -0.21286425768E+02  0.40659206803E+02  0.00000000000E+00 0.  1.
         11    1    3    3    0    0  0.29430619736E+01 -0.30197824366E+01 -0.81687372461E+00  0.42951114873E+01  0.51100000000E-03 0. -1.
        -11    1    3    3    0    0  0.24326696779E+02 -0.62611311233E+01  0.26080516874E+01  0.25254541631E+02  0.51100000000E-03 0.  1.
        -12    1    3    3    0    0  0.68933379381E+01  0.35414013495E+01  0.19495247805E+02  0.20979140079E+02  0.00000000000E+00 0.  1.
</event>
<event>
 7    1  0.2974434E-011  0.5052886E+02  0.7816164E-02  0.1300439E+00
        -11   -1    0    0    0    0  0.00000000000E+00  0.00000000000E+00  0.45593999997E+02  0.45594000000E+02  0.51100000000E-03 0. -1.
         11   -1    0    0    0    0 -0.00000000000E+00 -0.00000000000E+00 -0.45593999997E+02  0.45594000000E+02  0.51100000000E-03 0.  1.
    9900012    2    1    2    0    0  0.91485043404E+01 -0.33612533928E+01  0.39473691808E+02  0.50528862023E+02  0.30000006605E+02 0.  0.
        -12    1    1    2    0    0 -0.91485043404E+01  0.33612533928E+01 -0.39473691808E+02  0.40659137977E+02  0.00000000000E+00 0.  1.
         11    1    3    3    0    0 -0.24720209266E+01 -0.25797509397E+01  0.23393379224E+01  0.42706562199E+01  0.51100000000E-03 0.  1.
        -11    1    3    3    0    0  0.32839076493E+01 -0.12654980679E+02  0.17859579287E+02  0.22133620536E+02  0.51100000000E-03 0. -1.
         12    1    3    3    0    0  0.83366176177E+01  0.11873478226E+02  0.19274774599E+02  0.24124585268E+02  0.00000000000E+00 0. -1.
</event>
<event>
 7    1  0.2974434E-011  0.5052887E+02  0.7816164E-02  0.1300439E+00
        -11   -1    0    0    0    0  0.00000000000E+00  0.00000000000E+00  0.45593999997E+02  0.45594000000E+02  0.51100000000E-03 0. -1.
         11   -1    0    0    0    0 -0.00000000000E+00 -0.00000000000E+00 -0.45593999997E+02  0.45594000000E+02  0.51100000000E-03 0.  1.
    9900012    2    1    2    0    0 -0.19147218689E+02  0.35450872778E+02  0.54574848027E+01  0.50528874276E+02  0.30000043850E+02 0.  0.
        -12    1    1    2    0    0  0.19147218689E+02 -0.35450872778E+02 -0.54574848027E+01  0.40659125724E+02  0.00000000000E+00 0.  1.
         11    1    3    3    0    0 -0.17731763666E+01  0.41406804524E+01 -0.54514332435E+01  0.70715990911E+01  0.51100000000E-03 0. -1.
        -11    1    3    3    0    0  0.48037981992E+01  0.50182585638E+01 -0.10818322395E+01  0.70306299438E+01  0.51100000000E-03 0.  1.
        -12    1    3    3    0    0 -0.22177840522E+02  0.26291933762E+02  0.11990750286E+02  0.36426645241E+02  0.00000000000E+00 0.  1.
</event>
<event>
 7    1  0.2974434E-011  0.5052886E+02  0.7816164E-02  0.1300439E+00
        -11   -1    0    0    0    0  0.00000000000E+00  0.00000000000E+00  0.45593999997E+02  0.45594000000E+02  0.51100000000E-03 0. -1.
         11   -1    0    0    0    0 -0.00000000000E+00 -0.00000000000E+00 -0.45593999997E+02  0.45594000000E+02  0.51100000000E-03 0.  1.
    9900012    2    1    2    0    0 -0.29524271150E+02  0.21543900736E+02  0.17814137096E+02  0.50528859252E+02  0.29999998184E+02 0.  0.
        -12    1    1    2    0    0  0.29524271150E+02 -0.21543900736E+02 -0.17814137096E+02  0.40659140748E+02  0.00000000000E+00 0.  1.
         11    1    3    3    0    0 -0.32057661027E+02  0.24775246273E+02  0.15802020777E+02  0.43488048005E+02  0.51100000000E-03 0. -1.
        -11    1    3    3    0    0 -0.65531512569E+00  0.11476444422E+01  0.53790471968E+00  0.14268382628E+01  0.51100000000E-03 0.  1.
        -12    1    3    3    0    0  0.31887050028E+01 -0.43789899789E+01  0.14742115987E+01  0.56139729843E+01  0.00000000000E+00 0.  1.
</event>
<event>
 7    1  0.2974434E-011  0.5052886E+02  0.7816164E-02  0.1300439E+00
        -11   -1    0    0    0    0  0.00000000000E+00  0.00000000000E+00  0.45593999997E+02  0.45594000000E+02  0.51100000000E-03 0.  1.
         11   -1    0    0    0    0 -0.00000000000E+00 -0.00000000000E+00 -0.45593999997E+02  0.45594000000E+02  0.51100000000E-03 0. -1.
    9900012    2    1    2    0    0  0.83878552925E+01  0.26138749911E+02 -0.29992922243E+02  0.50528858986E+02  0.29999997374E+02 0.  0.
        -12    1    1    2    0    0 -0.83878552925E+01 -0.26138749911E+02  0.29992922243E+02  0.40659141014E+02  0.00000000000E+00 0.  1.
         11    1    3    3    0    0 -0.32876265589E+01  0.65889603578E+01  0.19679175682E+01  0.76220461036E+01  0.51100000000E-03 0. -1.
        -11    1    3    3    0    0  0.24592810354E+01 -0.13559983527E+01  0.84178358482E+00  0.29317903418E+01  0.51100000000E-03 0.  1.
         12    1    3    3    0    0  0.92162008160E+01  0.20905787906E+02 -0.32802623396E+02  0.39975022541E+02  0.00000000000E+00 0. -1.
</event>
<event>
 7    1  0.2974434E-011  0.5052888E+02  0.7816164E-02  0.1300439E+00
        -11   -1    0    0    0    0  0.00000000000E+00  0.00000000000E+00  0.45593999997E+02  0.45594000000E+02  0.51100000000E-03 0.  1.
         11   -1    0    0    0    0 -0.00000000000E+00 -0.00000000000E+00 -0.45593999997E+02  0.45594000000E+02  0.51100000000E-03 0. -1.
    9900012    2    1    2    0    0  0.35080526832E+02 -0.13770610852E+02 -0.15260767121E+02  0.50528879262E+02  0.30000059006E+02 0.  0.
        -12    1    1    2    0    0 -0.35080526832E+02  0.13770610852E+02  0.15260767121E+02  0.40659120738E+02  0.00000000000E+00 0.  1.
         11    1    3    3    0    0  0.56654324666E+01  0.12410398582E+01  0.14248277115E+01  0.59722223026E+01  0.51100000000E-03 0. -1.
        -11    1    3    3    0    0  0.45834797893E+01  0.58806484424E+01  0.11227935409E+01  0.75399587982E+01  0.51100000000E-03 0.  1.
        -12    1    3    3    0    0  0.24831614576E+02 -0.20892299153E+02 -0.17808388373E+02  0.37016698162E+02  0.00000000000E+00 0.  1.
</event>
<event>
 7    1  0.2974434E-011  0.5052886E+02  0.7816164E-02  0.1300439E+00
        -11   -1    0    0    0    0  0.00000000000E+00  0.00000000000E+00  0.45593999997E+02  0.45594000000E+02  0.51100000000E-03 0. -1.
         11   -1    0    0    0    0 -0.00000000000E+00 -0.00000000000E+00 -0.45593999997E+02  0.45594000000E+02  0.51100000000E-03 0.  1.
    9900012    2    1    2    0    0  0.16602690435E+02 -0.33218591012E+02 -0.16554189044E+02  0.50528864576E+02  0.30000014365E+02 0.  0.
        -12    1    1    2    0    0 -0.16602690435E+02  0.33218591012E+02  0.16554189044E+02  0.40659135424E+02  0.00000000000E+00 0.  1.
         11    1    3    3    0    0 -0.33427552571E+01 -0.69293385737E+01 -0.62859350255E+01  0.99349245183E+01  0.51100000000E-03 0. -1.
        -11    1    3    3    0    0 -0.49943108309E+00  0.32192647242E+01 -0.17500138879E+01  0.36980597129E+01  0.51100000000E-03 0.  1.
         12    1    3    3    0    0  0.20444876775E+02 -0.29508517163E+02 -0.85182401308E+01  0.36895880345E+02  0.00000000000E+00 0. -1.
</event>
<event>
 7    1  0.2974434E-011  0.5052886E+02  0.7816164E-02  0.1300439E+00
        -11   -1    0    0    0    0  0.00000000000E+00  0.00000000000E+00  0.45593999997E+02  0.45594000000E+02  0.51100000000E-03 0. -1.
         11   -1    0    0    0    0 -0.00000000000E+00 -0.00000000000E+00 -0.45593999997E+02  0.45594000000E+02  0.51100000000E-03 0.  1.
    9900012    2    1    2    0    0  0.36752082334E+02 -0.14580953387E+02  0.94786908399E+01  0.50528864033E+02  0.30000012715E+02 0.  0.
        -12    1    1    2    0    0 -0.36752082334E+02  0.14580953387E+02 -0.94786908399E+01  0.40659135967E+02  0.00000000000E+00 0.  1.
         11    1    3    3    0    0  0.20582212926E+01  0.29143543492E+01  0.53423543971E+01  0.64242109965E+01  0.51100000000E-03 0. -1.
        -11    1    3    3    0    0  0.27839076137E+02 -0.21620043028E+02  0.34096754007E+00  0.35249917444E+02  0.51100000000E-03 0.  1.
         12    1    3    3    0    0  0.68547849035E+01  0.41247352919E+01  0.37953689027E+01  0.88547355923E+01  0.00000000000E+00 0. -1.
</event>
<event>
 7    1  0.2974434E-011  0.5052884E+02  0.7816164E-02  0.1300439E+00
        -11   -1    0    0    0    0  0.00000000000E+00  0.00000000000E+00  0.45593999997E+02  0.45594000000E+02  0.51100000000E-03 0.  1.
         11   -1    0    0    0    0 -0.00000000000E+00 -0.00000000000E+00 -0.45593999997E+02  0.45594000000E+02  0.51100000000E-03 0. -1.
    9900012    2    1    2    0    0  0.21098759460E+02 -0.32833505229E+02 -0.11400455779E+02  0.50528842257E+02  0.29999946526E+02 0.  0.
        -12    1    1    2    0    0 -0.21098759460E+02  0.32833505229E+02  0.11400455779E+02  0.40659157743E+02  0.00000000000E+00 0.  1.
         11    1    3    3    0    0  0.54817216191E+01 -0.33358884185E+01 -0.40412497142E+01  0.75834769706E+01  0.51100000000E-03 0. -1.
        -11    1    3    3    0    0  0.75070841995E+01 -0.57568863859E+01 -0.14089171595E+02  0.16970645554E+02  0.51100000000E-03 0.  1.
         12    1    3    3    0    0  0.81099536409E+01 -0.23740730425E+02  0.67299655297E+01  0.25974719733E+02  0.00000000000E+00 0. -1.
</event>
<event>
 7    1  0.2974434E-011  0.5052886E+02  0.7816164E-02  0.1300439E+00
        -11   -1    0    0    0    0  0.00000000000E+00  0.00000000000E+00  0.45593999997E+02  0.45594000000E+02  0.51100000000E-03 0. -1.
         11   -1    0    0    0    0 -0.00000000000E+00 -0.00000000000E+00 -0.45593999997E+02  0.45594000000E+02  0.51100000000E-03 0.  1.
    9900012    2    1    2    0    0  0.30322023961E+02  0.26552156062E+02  0.53594347638E+01  0.50528859950E+02  0.30000000303E+02 0.  0.
        -12    1    1    2    0    0 -0.30322023961E+02 -0.26552156062E+02 -0.53594347638E+01  0.40659140050E+02  0.00000000000E+00 0.  1.
         11    1    3    3    0    0  0.23176383146E+02  0.74893085871E+01  0.99187273379E+01  0.26298586105E+02  0.51100000000E-03 0. -1.
        -11    1    3    3    0    0  0.10306345524E+02  0.12660687651E+02 -0.50085674898E+01  0.17076285264E+02  0.51100000000E-03 0.  1.
        -12    1    3    3    0    0 -0.31607047088E+01  0.64021598241E+01  0.44927491571E+00  0.71539885812E+01  0.00000000000E+00 0.  1.
</event>
<event>
 7    1  0.2974434E-011  0.5052886E+02  0.7816164E-02  0.1300439E+00
        -11   -1    0    0    0    0  0.00000000000E+00  0.00000000000E+00  0.45593999997E+02  0.45594000000E+02  0.51100000000E-03 0.  1.
         11   -1    0    0    0    0 -0.00000000000E+00 -0.00000000000E+00 -0.45593999997E+02  0.45594000000E+02  0.51100000000E-03 0. -1.
    9900012    2    1    2    0    0 -0.68818422129E+01 -0.27344809493E+02 -0.29292786392E+02  0.50528859661E+02  0.29999999426E+02 0.  0.
        -12    1    1    2    0    0  0.68818422129E+01  0.27344809493E+02  0.29292786392E+02  0.40659140339E+02  0.00000000000E+00 0.  1.
         11    1    3    3    0    0 -0.10921020160E+00  0.13166183413E+01  0.66755925923E+00  0.14802183455E+01  0.51100000000E-03 0. -1.
        -11    1    3    3    0    0 -0.78599177307E+01 -0.15388343353E+01  0.77057084408E+00  0.80461231367E+01  0.51100000000E-03 0.  1.
         12    1    3    3    0    0  0.10872857194E+01 -0.27122593499E+02 -0.30730916496E+02  0.41002518179E+02  0.00000000000E+00 0. -1.
</event>
<event>
 7    1  0.2974434E-011  0.5052886E+02  0.7816164E-02  0.1300439E+00
        -11   -1    0    0    0    0  0.00000000000E+00  0.00000000000E+00  0.45593999997E+02  0.45594000000E+02  0.51100000000E-03 0.  1.
         11   -1    0    0    0    0 -0.00000000000E+00 -0.00000000000E+00 -0.45593999997E+02  0.45594000000E+02  0.51100000000E-03 0. -1.
    9900012    2    1    2    0    0 -0.11753405731E+01 -0.22531464209E+02 -0.33824807756E+02  0.50528856814E+02  0.29999990772E+02 0.  0.
        -12    1    1    2    0    0  0.11753405731E+01  0.22531464209E+02  0.33824807756E+02  0.40659143186E+02  0.00000000000E+00 0.  1.
         11    1    3    3    0    0 -0.45930710556E+01  0.12221668979E+01 -0.11728921318E+02  0.12655338367E+02  0.51100000000E-03 0. -1.
        -11    1    3    3    0    0 -0.55443328350E+01 -0.14334960299E+02 -0.19127935296E+02  0.24537901750E+02  0.51100000000E-03 0.  1.
        -12    1    3    3    0    0  0.89620633175E+01 -0.94186708076E+01 -0.29679511426E+01  0.13335616696E+02  0.00000000000E+00 0.  1.
</event>
<event>
 7    1  0.2974434E-011  0.5052886E+02  0.7816164E-02  0.1300439E+00
        -11   -1    0    0    0    0  0.00000000000E+00  0.00000000000E+00  0.45593999997E+02  0.45594000000E+02  0.51100000000E-03 0.  1.
         11   -1    0    0    0    0 -0.00000000000E+00 -0.00000000000E+00 -0.45593999997E+02  0.45594000000E+02  0.51100000000E-03 0. -1.
    9900012    2    1    2    0    0  0.94291800609E+01 -0.32353970462E+02 -0.22748123202E+02  0.50528856496E+02  0.29999989805E+02 0.  0.
        -12    1    1    2    0    0 -0.94291800609E+01  0.32353970462E+02  0.22748123202E+02  0.40659143504E+02  0.00000000000E+00 0.  1.
         11    1    3    3    0    0  0.87836172353E+00 -0.17027379875E+02 -0.38105931728E+01  0.17470655549E+02  0.51100000000E-03 0. -1.
        -11    1    3    3    0    0 -0.53534712947E+01  0.11977396770E+01 -0.42795615815E+01  0.69576492315E+01  0.51100000000E-03 0.  1.
         12    1    3    3    0    0  0.13904289632E+02 -0.16524330264E+02 -0.14657968448E+02  0.26100551716E+02  0.00000000000E+00 0. -1.
</event>
<event>
 7    1  0.2974434E-011  0.5052886E+02  0.7816164E-02  0.1300439E+00
        -11   -1    0    0    0    0  0.00000000000E+00  0.00000000000E+00  0.45593999997E+02  0.45594000000E+02  0.51100000000E-03 0.  1.
         11   -1    0    0    0    0 -0.00000000000E+00 -0.00000000000E+00 -0.45593999997E+02  0.45594000000E+02  0.51100000000E-03 0. -1.
    9900012    2    1    2    0    0  0.40081704251E+02 -0.67106254658E+01  0.12609793862E+01  0.50528861066E+02  0.30000003697E+02 0.  0.
        -12    1    1    2    0    0 -0.40081704251E+02  0.67106254658E+01 -0.12609793862E+01  0.40659138934E+02  0.00000000000E+00 0.  1.
         11    1    3    3    0    0  0.11389724850E+02 -0.10485003477E+02 -0.16457719853E+01  0.15568227123E+02  0.51100000000E-03 0. -1.
        -11    1    3    3    0    0  0.51721194109E+00 -0.47990698064E+01 -0.17702597971E+01  0.51412449085E+01  0.51100000000E-03 0.  1.
         12    1    3    3    0    0  0.28174767460E+02  0.85734478176E+01  0.46770111686E+01  0.29819389034E+02  0.00000000000E+00 0. -1.
</event>
<event>
 7    1  0.2974434E-011  0.5052885E+02  0.7816164E-02  0.1300439E+00
        -11   -1    0    0    0    0  0.00000000000E+00  0.00000000000E+00  0.45593999997E+02  0.45594000000E+02  0.51100000000E-03 0.  1.
         11   -1    0    0    0    0 -0.00000000000E+00 -0.00000000000E+00 -0.45593999997E+02  0.45594000000E+02  0.51100000000E-03 0. -1.
    9900012    2    1    2    0    0  0.48645064501E+01  0.14605982808E+02 -0.37632007122E+02  0.50528854451E+02  0.29999983589E+02 0.  0.
        -12    1    1    2    0    0 -0.48645064501E+01 -0.14605982808E+02  0.37632007122E+02  0.40659145549E+02  0.00000000000E+00 0.  1.
         11    1    3    3    0    0 -0.77199366597E+01  0.31376883678E+01 -0.10125528876E+02  0.13113689245E+02  0.51100000000E-03 0. -1.
        -11    1    3    3    0    0 -0.49479430975E+01  0.37416664245E+01 -0.66559840186E+01  0.90985895635E+01  0.51100000000E-03 0.  1.
        -12    1    3    3    0    0  0.17532386207E+02  0.77266280153E+01 -0.20850494227E+02  0.28316575643E+02  0.00000000000E+00 0.  1.
</event>
<event>
 7    1  0.2974434E-011  0.5052886E+02  0.7816164E-02  0.1300439E+00
        -11   -1    0    0    0    0  0.00000000000E+00  0.00000000000E+00  0.45593999997E+02  0.45594000000E+02  0.51100000000E-03 0.  1.
         11   -1    0    0    0    0 -0.00000000000E+00 -0.00000000000E+00 -0.45593999997E+02  0.45594000000E+02  0.51100000000E-03 0. -1.
    9900012    2    1    2    0    0 -0.69134999355E+01 -0.14489576511E+02 -0.37355336021E+02  0.50528862797E+02  0.30000008958E+02 0.  0.
        -12    1    1    2    0    0  0.69134999355E+01  0.14489576511E+02  0.37355336021E+02  0.40659137203E+02  0.00000000000E+00 0.  1.
         11    1    3    3    0    0 -0.38443444262E+01 -0.44824385935E+01 -0.22831654807E+02  0.23582953617E+02  0.51100000000E-03 0. -1.
        -11    1    3    3    0    0  0.96698154758E-01 -0.46501083086E+01 -0.18818721727E+02  0.19384972157E+02  0.51100000000E-03 0.  1.
        -12    1    3    3    0    0 -0.31658536641E+01 -0.53570296088E+01  0.42950405132E+01  0.75609370228E+01  0.00000000000E+00 0.  1.
</event>
<event>
 7    1  0.2974434E-011  0.5052886E+02  0.7816164E-02  0.1300439E+00
        -11   -1    0    0    0    0  0.00000000000E+00  0.00000000000E+00  0.45593999997E+02  0.45594000000E+02  0.51100000000E-03 0. -1.
         11   -1    0    0    0    0 -0.00000000000E+00 -0.00000000000E+00 -0.45593999997E+02  0.45594000000E+02  0.51100000000E-03 0.  1.
    9900012    2    1    2    0    0 -0.24384913458E+02 -0.16577969761E+02  0.27994868788E+02  0.50528858787E+02  0.29999996768E+02 0.  0.
        -12    1    1    2    0    0  0.24384913458E+02  0.16577969761E+02 -0.27994868788E+02  0.40659141213E+02  0.00000000000E+00 0.  1.
         11    1    3    3    0    0 -0.16663949479E+02 -0.47338087608E+01  0.18827155563E+02  0.25584330057E+02  0.51100000000E-03 0. -1.
        -11    1    3    3    0    0 -0.31488495071E+01  0.14260454717E+01  0.10298638942E+02  0.10863278660E+02  0.51100000000E-03 0.  1.
        -12    1    3    3    0    0 -0.45721144720E+01 -0.13270206472E+02 -0.11309257178E+01  0.14081250070E+02  0.00000000000E+00 0.  1.
</event>
<event>
 7    1  0.3339507E-011  0.5052886E+02  0.7816164E-02  0.1300439E+00
        -11   -1    0    0    0    0  0.00000000000E+00  0.00000000000E+00  0.45593999997E+02  0.45594000000E+02  0.51100000000E-03 0.  1.
         11   -1    0    0    0    0 -0.00000000000E+00 -0.00000000000E+00 -0.45593999997E+02  0.45594000000E+02  0.51100000000E-03 0. -1.
    9900012    2    1    2    0    0  0.28444618265E+02 -0.28921150941E+02 -0.27634718061E+01  0.50528855193E+02  0.29999985844E+02 0.  0.
        -12    1    1    2    0    0 -0.28444618265E+02  0.28921150941E+02  0.27634718061E+01  0.40659144807E+02  0.00000000000E+00 0.  1.
         11    1    3    3    0    0  0.15412735842E+02 -0.21424160289E+02  0.28853252788E+01  0.26549428853E+02  0.51100000000E-03 0. -1.
        -11    1    3    3    0    0  0.18551720628E+01  0.19395535236E+01  0.51433274708E+01  0.58014954095E+01  0.51100000000E-03 0.  1.
        -12    1    3    3    0    0  0.11176710361E+02 -0.94365441758E+01 -0.10792124556E+02  0.18177930930E+02  0.00000000000E+00 0.  1.
</event>
<event>
 7    1  0.2974434E-011  0.5052886E+02  0.7816164E-02  0.1300439E+00
        -11   -1    0    0    0    0  0.00000000000E+00  0.00000000000E+00  0.45593999997E+02  0.45594000000E+02  0.51100000000E-03 0.  1.
         11   -1    0    0    0    0 -0.00000000000E+00 -0.00000000000E+00 -0.45593999997E+02  0.45594000000E+02  0.51100000000E-03 0. -1.
    9900012    2    1    2    0    0 -0.40078320270E+00 -0.26199035225E+01 -0.40572665740E+02  0.50528859245E+02  0.29999998162E+02 0.  0.
        -12    1    1    2    0    0  0.40078320270E+00  0.26199035225E+01  0.40572665740E+02  0.40659140755E+02  0.00000000000E+00 0.  1.
         11    1    3    3    0    0 -0.19714717971E+01 -0.42830597231E+01 -0.19612691353E+01  0.51066504208E+01  0.51100000000E-03 0. -1.
        -11    1    3    3    0    0 -0.46257723931E+01  0.91538768828E+00  0.14063009328E+01  0.49207100532E+01  0.51100000000E-03 0.  1.
        -12    1    3    3    0    0  0.61964609875E+01  0.74776851227E+00 -0.40017697538E+02  0.40501498771E+02  0.00000000000E+00 0.  1.
</event>
<event>
 7    1  0.2974434E-011  0.5052886E+02  0.7816164E-02  0.1300439E+00
        -11   -1    0    0    0    0  0.00000000000E+00  0.00000000000E+00  0.45593999997E+02  0.45594000000E+02  0.51100000000E-03 0. -1.
         11   -1    0    0    0    0 -0.00000000000E+00 -0.00000000000E+00 -0.45593999997E+02  0.45594000000E+02  0.51100000000E-03 0.  1.
    9900012    2    1    2    0    0 -0.14181455485E+02 -0.36366918175E+02  0.11379791387E+02  0.50528855036E+02  0.29999985367E+02 0.  0.
        -12    1    1    2    0    0  0.14181455485E+02  0.36366918175E+02 -0.11379791387E+02  0.40659144964E+02  0.00000000000E+00 0.  1.
         11    1    3    3    0    0 -0.45910618593E+01  0.28377074351E+01  0.14361302818E+01  0.55850606918E+01  0.51100000000E-03 0. -1.
        -11    1    3    3    0    0 -0.61999803989E+00 -0.18706209006E+01 -0.37025798402E+01  0.41943673966E+01  0.51100000000E-03 0.  1.
         12    1    3    3    0    0 -0.89703955857E+01 -0.37334004709E+02  0.13646240945E+02  0.40749426947E+02  0.00000000000E+00 0. -1.
</event>
<event>
 7    1  0.2974434E-011  0.5052888E+02  0.7816164E-02  0.1300439E+00
        -11   -1    0    0    0    0  0.00000000000E+00  0.00000000000E+00  0.45593999997E+02  0.45594000000E+02  0.51100000000E-03 0.  1.
         11   -1    0    0    0    0 -0.00000000000E+00 -0.00000000000E+00 -0.45593999997E+02  0.45594000000E+02  0.51100000000E-03 0. -1.
    9900012    2    1    2    0    0  0.23070868480E+02 -0.24076664910E+02 -0.23263989906E+02  0.50528880581E+02  0.30000063014E+02 0.  0.
        -12    1    1    2    0    0 -0.23070868480E+02  0.24076664910E+02  0.23263989906E+02  0.40659119419E+02  0.00000000000E+00 0.  1.
         11    1    3    3    0    0  0.14202611830E+02 -0.43002429181E+01  0.96671649899E+00  0.14870804046E+02  0.51100000000E-03 0. -1.
        -11    1    3    3    0    0  0.99470351394E+01 -0.16177990344E+02 -0.11092862919E+02  0.21993691996E+02  0.51100000000E-03 0.  1.
         12    1    3    3    0    0 -0.10787784892E+01 -0.35984316478E+01 -0.13137843486E+02  0.13664384538E+02  0.00000000000E+00 0. -1.
</event>
<event>
 7    1  0.2974434E-011  0.5052886E+02  0.7816164E-02  0.1300439E+00
        -11   -1    0    0    0    0  0.00000000000E+00  0.00000000000E+00  0.45593999997E+02  0.45594000000E+02  0.51100000000E-03 0.  1.
         11   -1    0    0    0    0 -0.00000000000E+00 -0.00000000000E+00 -0.45593999997E+02  0.45594000000E+02  0.51100000000E-03 0. -1.
    9900012    2    1    2    0    0 -0.10380941831E+02 -0.53588800992E+01 -0.38944632457E+02  0.50528856546E+02  0.29999989957E+02 0.  0.
        -12    1    1    2    0    0  0.10380941831E+02  0.53588800992E+01  0.38944632457E+02  0.40659143454E+02  0.00000000000E+00 0.  1.
         11    1    3    3    0    0 -0.15737152140E+02 -0.35152851104E+01 -0.12552098025E+02  0.20434538213E+02  0.51100000000E-03 0. -1.
        -11    1    3    3    0    0 -0.30687701549E+01 -0.14704313428E+01 -0.13344057026E+01  0.36551549130E+01  0.51100000000E-03 0.  1.
        -12    1    3    3    0    0  0.84249804639E+01 -0.37316364603E+00 -0.25058128730E+02  0.26439163420E+02  0.00000000000E+00 0.  1.
</event>
<event>
 7    1  0.2974434E-011  0.5052886E+02  0.7816164E-02  0.1300439E+00
        -11   -1    0    0    0    0  0.00000000000E+00  0.00000000000E+00  0.45593999997E+02  0.45594000000E+02  0.51100000000E-03 0.  1.
         11   -1    0    0    0    0 -0.00000000000E+00 -0.00000000000E+00 -0.45593999997E+02  0.45594000000E+02  0.51100000000E-03 0. -1.
    9900012    2    1    2    0    0 -0.32215404070E+02  0.42721844319E+01 -0.24435260598E+02  0.50528858596E+02  0.29999996189E+02 0.  0.
        -12    1    1    2    0    0  0.32215404070E+02 -0.42721844319E+01  0.24435260598E+02  0.40659141404E+02  0.00000000000E+00 0.  1.
         11    1    3    3    0    0  0.24001450689E+01 -0.37997296511E+00  0.28669426892E+01  0.37582491203E+01  0.51100000000E-03 0. -1.
        -11    1    3    3    0    0  0.11277217304E+01  0.15963701380E+01 -0.58205005404E+00  0.20393470635E+01  0.51100000000E-03 0.  1.
         12    1    3    3    0    0 -0.35743270869E+02  0.30557872590E+01 -0.26720153233E+02  0.44731262412E+02  0.00000000000E+00 0. -1.
</event>
<event>
 7    1  0.2974434E-011  0.5052886E+02  0.7816164E-02  0.1300439E+00
        -11   -1    0    0    0    0  0.00000000000E+00  0.00000000000E+00  0.45593999997E+02  0.45594000000E+02  0.51100000000E-03 0.  1.
         11   -1    0    0    0    0 -0.00000000000E+00 -0.00000000000E+00 -0.45593999997E+02  0.45594000000E+02  0.51100000000E-03 0. -1.
    9900012    2    1    2    0    0  0.38063792298E+02 -0.13241266484E+02 -0.53835493128E+01  0.50528855575E+02  0.29999987005E+02 0.  0.
        -12    1    1    2    0    0 -0.38063792298E+02  0.13241266484E+02  0.53835493128E+01  0.40659144425E+02  0.00000000000E+00 0.  1.
         11    1    3    3    0    0  0.66636046893E+00 -0.10709934470E+00 -0.37323379165E+01  0.37928687201E+01  0.51100000000E-03 0. -1.
        -11    1    3    3    0    0  0.17862814054E+02  0.55559677586E+01  0.39667725244E+01  0.19122870815E+02  0.51100000000E-03 0.  1.
         12    1    3    3    0    0  0.19534617775E+02 -0.18690134898E+02 -0.56179839207E+01  0.27613116040E+02  0.00000000000E+00 0. -1.
</event>
<event>
 7    1  0.2974434E-011  0.5052887E+02  0.7816164E-02  0.1300439E+00
        -11   -1    0    0    0    0  0.00000000000E+00  0.00000000000E+00  0.45593999997E+02  0.45594000000E+02  0.51100000000E-03 0.  1.
         11   -1    0    0    0    0 -0.00000000000E+00 -0.00000000000E+00 -0.45593999997E+02  0.45594000000E+02  0.51100000000E-03 0. -1.
    9900012    2    1    2    0    0 -0.37746856547E+02  0.93147021023E+01 -0.11898569584E+02  0.50528870489E+02  0.30000032339E+02 0.  0.
        -12    1    1    2    0    0  0.37746856547E+02 -0.93147021023E+01  0.11898569584E+02  0.40659129511E+02  0.00000000000E+00 0.  1.
         11    1    3    3    0    0 -0.16661666601E+02  0.72260069944E+01 -0.97694841551E+01  0.20622054503E+02  0.51100000000E-03 0. -1.
        -11    1    3    3    0    0 -0.13604698366E+02  0.83394410410E+01 -0.86767181708E+01  0.18163687207E+02  0.51100000000E-03 0.  1.
        -12    1    3    3    0    0 -0.74804915805E+01 -0.62507459332E+01  0.65476327414E+01  0.11743128779E+02  0.00000000000E+00 0.  1.
</event>
<event>
 7    1  0.2974434E-011  0.5052886E+02  0.7816164E-02  0.1300439E+00
        -11   -1    0    0    0    0  0.00000000000E+00  0.00000000000E+00  0.45593999997E+02  0.45594000000E+02  0.51100000000E-03 0. -1.
         11   -1    0    0    0    0 -0.00000000000E+00 -0.00000000000E+00 -0.45593999997E+02  0.45594000000E+02  0.51100000000E-03 0.  1.
    9900012    2    1    2    0    0 -0.32631928884E+02 -0.25061254810E+01  0.24125543677E+02  0.50528864430E+02  0.30000013921E+02 0.  0.
        -12    1    1    2    0    0  0.32631928884E+02  0.25061254810E+01 -0.24125543677E+02  0.40659135570E+02  0.00000000000E+00 0.  1.
         11    1    3    3    0    0 -0.64622141440E+01  0.38922553301E+01 -0.46702798423E+01  0.88725068196E+01  0.51100000000E-03 0. -1.
        -11    1    3    3    0    0 -0.67700373285E+01 -0.46252752761E+01  0.18483698178E+01  0.84049418828E+01  0.51100000000E-03 0.  1.
         12    1    3    3    0    0 -0.19399677412E+02 -0.17731055351E+01  0.26947453701E+02  0.33251415727E+02  0.00000000000E+00 0. -1.
</event>
<event>
 7    1  0.2974434E-011  0.5052885E+02  0.7816164E-02  0.1300439E+00
        -11   -1    0    0    0    0  0.00000000000E+00  0.00000000000E+00  0.45593999997E+02  0.45594000000E+02  0.51100000000E-03 0.  1.
         11   -1    0    0    0    0 -0.00000000000E+00 -0.00000000000E+00 -0.45593999997E+02  0.45594000000E+02  0.51100000000E-03 0. -1.
    9900012    2    1    2    0    0  0.12015869544E+02  0.78967395960E+00 -0.38835057588E+02  0.50528850922E+02  0.29999972863E+02 0.  0.
        -12    1    1    2    0    0 -0.12015869544E+02 -0.78967395960E+00  0.38835057588E+02  0.40659149078E+02  0.00000000000E+00 0.  1.
         11    1    3    3    0    0  0.16850638977E+02  0.85074203145E+01 -0.14588318562E+02  0.23856640020E+02  0.51100000000E-03 0. -1.
        -11    1    3    3    0    0  0.36555645706E+00 -0.60919982686E+00  0.15709015803E+00  0.72762183256E+00  0.51100000000E-03 0.  1.
        -12    1    3    3    0    0 -0.52003258902E+01 -0.71085465280E+01 -0.24403829184E+02  0.25944589069E+02  0.00000000000E+00 0.  1.
</event>
<event>
 7    1  0.2974434E-011  0.5052887E+02  0.7816164E-02  0.1300439E+00
        -11   -1    0    0    0    0  0.00000000000E+00  0.00000000000E+00  0.45593999997E+02  0.45594000000E+02  0.51100000000E-03 0.  1.
         11   -1    0    0    0    0 -0.00000000000E+00 -0.00000000000E+00 -0.45593999997E+02  0.45594000000E+02  0.51100000000E-03 0. -1.
    9900012    2    1    2    0    0  0.30859054790E+01  0.32649778759E+02 -0.24034020609E+02  0.50528868033E+02  0.30000024873E+02 0.  0.
        -12    1    1    2    0    0 -0.30859054790E+01 -0.32649778759E+02  0.24034020609E+02  0.40659131967E+02  0.00000000000E+00 0.  1.
         11    1    3    3    0    0  0.38363715331E+00  0.12224736615E+02  0.46994289203E+01  0.13102518659E+02  0.51100000000E-03 0. -1.
        -11    1    3    3    0    0 -0.46138649202E+01  0.74402142670E+01 -0.77742257516E+01  0.11708250260E+02  0.51100000000E-03 0.  1.
        -12    1    3    3    0    0  0.73161332460E+01  0.12984827878E+02 -0.20959223778E+02  0.25718099115E+02  0.00000000000E+00 0.  1.
</event>
<event>
 7    1  0.2974434E-011  0.5052885E+02  0.7816164E-02  0.1300439E+00
        -11   -1    0    0    0    0  0.00000000000E+00  0.00000000000E+00  0.45593999997E+02  0.45594000000E+02  0.51100000000E-03 0.  1.
         11   -1    0    0    0    0 -0.00000000000E+00 -0.00000000000E+00 -0.45593999997E+02  0.45594000000E+02  0.51100000000E-03 0. -1.
    9900012    2    1    2    0    0 -0.12326887295E+02  0.10701748566E+02 -0.37238244805E+02  0.50528850366E+02  0.29999971173E+02 0.  0.
        -12    1    1    2    0    0  0.12326887295E+02 -0.10701748566E+02  0.37238244805E+02  0.40659149634E+02  0.00000000000E+00 0.  1.
         11    1    3    3    0    0 -0.74298619881E+01 -0.38311298939E+01 -0.16516622347E+01  0.85210559103E+01  0.51100000000E-03 0. -1.
        -11    1    3    3    0    0 -0.35652974857E+00  0.12395842289E+02 -0.99911195641E+01  0.15925027156E+02  0.51100000000E-03 0.  1.
        -12    1    3    3    0    0 -0.45404955586E+01  0.21370361715E+01 -0.25595463007E+02  0.26082767300E+02  0.00000000000E+00 0.  1.
</event>
<event>
 7    1  0.2974434E-011  0.5052885E+02  0.7816164E-02  0.1300439E+00
        -11   -1    0    0    0    0  0.00000000000E+00  0.00000000000E+00  0.45593999997E+02  0.45594000000E+02  0.51100000000E-03 0. -1.
         11   -1    0    0    0    0 -0.00000000000E+00 -0.00000000000E+00 -0.45593999997E+02  0.45594000000E+02  0.51100000000E-03 0.  1.
    9900012    2    1    2    0    0 -0.34531381733E+02 -0.18189478101E+02  0.11397051489E+02  0.50528853174E+02  0.29999979709E+02 0.  0.
        -12    1    1    2    0    0  0.34531381733E+02  0.18189478101E+02 -0.11397051489E+02  0.40659146826E+02  0.00000000000E+00 0.  1.
         11    1    3    3    0    0 -0.16883565624E+02 -0.66797905386E+01 -0.44563805548E+01  0.18695820863E+02  0.51100000000E-03 0.  1.
        -11    1    3    3    0    0 -0.18029229486E+02 -0.75064834135E+01  0.48570127111E+01  0.20124387738E+02  0.51100000000E-03 0. -1.
        -12    1    3    3    0    0  0.38141337731E+00 -0.40032041485E+01  0.10996419332E+02  0.11708644574E+02  0.00000000000E+00 0.  1.
</event>
<event>
 7    1  0.2974434E-011  0.5052886E+02  0.7816164E-02  0.1300439E+00
        -11   -1    0    0    0    0  0.00000000000E+00  0.00000000000E+00  0.45593999997E+02  0.45594000000E+02  0.51100000000E-03 0.  1.
         11   -1    0    0    0    0 -0.00000000000E+00 -0.00000000000E+00 -0.45593999997E+02  0.45594000000E+02  0.51100000000E-03 0. -1.
    9900012    2    1    2    0    0 -0.17472784519E+02 -0.28178077250E+01 -0.36605015282E+02  0.50528863474E+02  0.30000011016E+02 0.  0.
        -12    1    1    2    0    0  0.17472784519E+02  0.28178077250E+01  0.36605015282E+02  0.40659136526E+02  0.00000000000E+00 0.  1.
         11    1    3    3    0    0 -0.11591316227E+02  0.63594152632E+01 -0.31816718811E+02  0.34454381006E+02  0.51100000000E-03 0. -1.
        -11    1    3    3    0    0  0.28965168122E+01 -0.79698160959E+00 -0.20396854978E+01  0.36311577383E+01  0.51100000000E-03 0.  1.
        -12    1    3    3    0    0 -0.87779851037E+01 -0.83802413787E+01 -0.27486109736E+01  0.12443324730E+02  0.00000000000E+00 0.  1.
</event>
<event>
 7    1  0.2974434E-011  0.5052887E+02  0.7816164E-02  0.1300439E+00
        -11   -1    0    0    0    0  0.00000000000E+00  0.00000000000E+00  0.45593999997E+02  0.45594000000E+02  0.51100000000E-03 0.  1.
         11   -1    0    0    0    0 -0.00000000000E+00 -0.00000000000E+00 -0.45593999997E+02  0.45594000000E+02  0.51100000000E-03 0. -1.
    9900012    2    1    2    0    0 -0.60755712114E+00 -0.24147255570E+02 -0.32706361411E+02  0.50528866291E+02  0.30000019578E+02 0.  0.
        -12    1    1    2    0    0  0.60755712114E+00  0.24147255570E+02  0.32706361411E+02  0.40659133709E+02  0.00000000000E+00 0.  1.
         11    1    3    3    0    0 -0.13083272973E+00  0.12471190966E+01 -0.36118989111E+01  0.38233803433E+01  0.51100000000E-03 0. -1.
        -11    1    3    3    0    0 -0.72617942968E+01 -0.26509794963E+01 -0.19730896819E+02  0.21191263252E+02  0.51100000000E-03 0.  1.
        -12    1    3    3    0    0  0.67850699054E+01 -0.22743395170E+02 -0.93635656817E+01  0.25514222695E+02  0.00000000000E+00 0.  1.
</event>
<event>
 7    1  0.2974434E-011  0.5052887E+02  0.7816164E-02  0.1300439E+00
        -11   -1    0    0    0    0  0.00000000000E+00  0.00000000000E+00  0.45593999997E+02  0.45594000000E+02  0.51100000000E-03 0. -1.
         11   -1    0    0    0    0 -0.00000000000E+00 -0.00000000000E+00 -0.45593999997E+02  0.45594000000E+02  0.51100000000E-03 0.  1.
    9900012    2    1    2    0    0  0.69890582518E-01  0.14267822248E+02  0.38073475071E+02  0.50528866458E+02  0.30000020087E+02 0.  0.
        -12    1    1    2    0    0 -0.69890582518E-01 -0.14267822248E+02 -0.38073475071E+02  0.40659133542E+02  0.00000000000E+00 0.  1.
         11    1    3    3    0    0 -0.50538769435E+01 -0.18061330414E+01  0.37114009962E+01  0.65252039308E+01  0.51100000000E-03 0. -1.
        -11    1    3    3    0    0 -0.26224962455E+01  0.13119525392E+01 -0.23016272957E+01  0.37277599832E+01  0.51100000000E-03 0.  1.
         12    1    3    3    0    0  0.77462637715E+01  0.14762002750E+02  0.36663701370E+02  0.40275902545E+02  0.00000000000E+00 0. -1.
</event>
<event>
 7    1  0.2974434E-011  0.5052896E+02  0.7816164E-02  0.1300438E+00
        -11   -1    0    0    0    0  0.00000000000E+00  0.00000000000E+00  0.45593999997E+02  0.45594000000E+02  0.51100000000E-03 0.  1.
         11   -1    0    0    0    0 -0.00000000000E+00 -0.00000000000E+00 -0.45593999997E+02  0.45594000000E+02  0.51100000000E-03 0. -1.
    9900012    2    1    2    0    0 -0.22881571387E+02 -0.21650762304E+02 -0.25706721354E+02  0.50528962379E+02  0.30000311645E+02 0.  0.
        -12    1    1    2    0    0  0.22881571387E+02  0.21650762304E+02  0.25706721354E+02  0.40659037621E+02  0.00000000000E+00 0.  1.
         11    1    3    3    0    0 -0.17164311191E+02 -0.37499610158E+01 -0.18252200156E+02  0.25334138965E+02  0.51100000000E-03 0.  1.
        -11    1    3    3    0    0 -0.85620273678E+01 -0.51709693014E+01 -0.68766889398E+01  0.12138207742E+02  0.51100000000E-03 0. -1.
        -12    1    3    3    0    0  0.28447671719E+01 -0.12729831987E+02 -0.57783225790E+00  0.13056615671E+02  0.00000000000E+00 0.  1.
</event>
<event>
 7    1  0.2974434E-011  0.5052886E+02  0.7816164E-02  0.1300439E+00
        -11   -1    0    0    0    0  0.00000000000E+00  0.00000000000E+00  0.45593999997E+02  0.45594000000E+02  0.51100000000E-03 0. -1.
         11   -1    0    0    0    0 -0.00000000000E+00 -0.00000000000E+00 -0.45593999997E+02  0.45594000000E+02  0.51100000000E-03 0.  1.
    9900012    2    1    2    0    0  0.39195166844E+02  0.10812243390E+02  0.15128899578E-01  0.50528856626E+02  0.29999990200E+02 0.  0.
        -12    1    1    2    0    0 -0.39195166844E+02 -0.10812243390E+02 -0.15128899578E-01  0.40659143374E+02  0.00000000000E+00 0.  1.
         11    1    3    3    0    0  0.20126300455E+02 -0.10865729145E+01  0.11645005443E+02  0.23277774007E+02  0.51100000000E-03 0. -1.
        -11    1    3    3    0    0  0.38985212897E+01  0.77636082032E+01 -0.23770804066E+01  0.90068080971E+01  0.51100000000E-03 0.  1.
        -12    1    3    3    0    0  0.15170345099E+02  0.41352081012E+01 -0.92527961370E+01  0.18244274522E+02  0.00000000000E+00 0.  1.
</event>
<event>
 7    1  0.2974434E-011  0.5052886E+02  0.7816164E-02  0.1300439E+00
        -11   -1    0    0    0    0  0.00000000000E+00  0.00000000000E+00  0.45593999997E+02  0.45594000000E+02  0.51100000000E-03 0. -1.
         11   -1    0    0    0    0 -0.00000000000E+00 -0.00000000000E+00 -0.45593999997E+02  0.45594000000E+02  0.51100000000E-03 0.  1.
    9900012    2    1    2    0    0  0.36849331376E+02 -0.15184405972E+02  0.80452671972E+01  0.50528859185E+02  0.29999997978E+02 0.  0.
        -12    1    1    2    0    0 -0.36849331376E+02  0.15184405972E+02 -0.80452671972E+01  0.40659140815E+02  0.00000000000E+00 0.  1.
         11    1    3    3    0    0  0.11637282473E+02 -0.79591704317E+01  0.53417504990E+01  0.15076771404E+02  0.51100000000E-03 0. -1.
        -11    1    3    3    0    0  0.14367983858E+02 -0.40603267852E+01  0.13276372160E+02  0.19979671462E+02  0.51100000000E-03 0.  1.
        -12    1    3    3    0    0  0.10844065045E+02 -0.31649087553E+01 -0.10572855461E+02  0.15472416319E+02  0.00000000000E+00 0.  1.
</event>
<event>
 7    1  0.2974434E-011  0.5052886E+02  0.7816164E-02  0.1300439E+00
        -11   -1    0    0    0    0  0.00000000000E+00  0.00000000000E+00  0.45593999997E+02  0.45594000000E+02  0.51100000000E-03 0. -1.
         11   -1    0    0    0    0 -0.00000000000E+00 -0.00000000000E+00 -0.45593999997E+02  0.45594000000E+02  0.51100000000E-03 0.  1.
    9900012    2    1    2    0    0 -0.32971286254E+02 -0.41720400840E+01  0.23423358888E+02  0.50528863545E+02  0.30000011230E+02 0.  0.
        -12    1    1    2    0    0  0.32971286254E+02  0.41720400840E+01 -0.23423358888E+02  0.40659136455E+02  0.00000000000E+00 0.  1.
         11    1    3    3    0    0 -0.74840115890E+01 -0.15450833329E+01  0.12300746024E+02  0.14481231473E+02  0.51100000000E-03 0. -1.
        -11    1    3    3    0    0 -0.64763721178E+01 -0.25557263517E+01  0.15097435358E+02  0.16625513154E+02  0.51100000000E-03 0.  1.
        -12    1    3    3    0    0 -0.19010902547E+02 -0.71230399270E-01 -0.39748224928E+01  0.19422118918E+02  0.00000000000E+00 0.  1.
</event>
<event>
 7    1  0.2974434E-011  0.5052885E+02  0.7816164E-02  0.1300439E+00
        -11   -1    0    0    0    0  0.00000000000E+00  0.00000000000E+00  0.45593999997E+02  0.45594000000E+02  0.51100000000E-03 0.  1.
         11   -1    0    0    0    0 -0.00000000000E+00 -0.00000000000E+00 -0.45593999997E+02  0.45594000000E+02  0.51100000000E-03 0. -1.
    9900012    2    1    2    0    0  0.15023359600E+02 -0.19816085071E+02 -0.32168114911E+02  0.50528853696E+02  0.29999981296E+02 0.  0.
        -12    1    1    2    0    0 -0.15023359600E+02  0.19816085071E+02  0.32168114911E+02  0.40659146304E+02  0.00000000000E+00 0.  1.
         11    1    3    3    0    0  0.11158388234E+02 -0.57480738291E-01 -0.87056109429E+01  0.14152759242E+02  0.51100000000E-03 0. -1.
        -11    1    3    3    0    0 -0.12142093139E+01 -0.64200911271E+01  0.22976745105E+01  0.69261232125E+01  0.51100000000E-03 0.  1.
         12    1    3    3    0    0  0.50791806801E+01 -0.13338513206E+02 -0.25760178478E+02  0.29449971242E+02  0.00000000000E+00 0. -1.
</event>
<event>
 7    1  0.2974434E-011  0.5052886E+02  0.7816164E-02  0.1300439E+00
        -11   -1    0    0    0    0  0.00000000000E+00  0.00000000000E+00  0.45593999997E+02  0.45594000000E+02  0.51100000000E-03 0.  1.
         11   -1    0    0    0    0 -0.00000000000E+00 -0.00000000000E+00 -0.45593999997E+02  0.45594000000E+02  0.51100000000E-03 0. -1.
    9900012    2    1    2    0    0 -0.36123749905E+02  0.12491723882E+02 -0.13863534266E+02  0.50528855210E+02  0.29999985895E+02 0.  0.
        -12    1    1    2    0    0  0.36123749905E+02 -0.12491723882E+02  0.13863534266E+02  0.40659144790E+02  0.00000000000E+00 0.  1.
         11    1    3    3    0    0 -0.89225793397E+01  0.10128842355E+02  0.38998945751E+01  0.14050446522E+02  0.51100000000E-03 0. -1.
        -11    1    3    3    0    0  0.82610304910E+00  0.31358918220E+01  0.80570288141E-01  0.32438797141E+01  0.51100000000E-03 0.  1.
         12    1    3    3    0    0 -0.28027273614E+02 -0.77301029475E+00 -0.17843999129E+02  0.33234528973E+02  0.00000000000E+00 0. -1.
</event>
<event>
 7    1  0.2974434E-011  0.5052886E+02  0.7816164E-02  0.1300439E+00
        -11   -1    0    0    0    0  0.00000000000E+00  0.00000000000E+00  0.45593999997E+02  0.45594000000E+02  0.51100000000E-03 0.  1.
         11   -1    0    0    0    0 -0.00000000000E+00 -0.00000000000E+00 -0.45593999997E+02  0.45594000000E+02  0.51100000000E-03 0. -1.
    9900012    2    1    2    0    0  0.30725161400E+02 -0.25574687654E+02 -0.74206093810E+01  0.50528860373E+02  0.30000001589E+02 0.  0.
        -12    1    1    2    0    0 -0.30725161400E+02  0.25574687654E+02  0.74206093810E+01  0.40659139627E+02  0.00000000000E+00 0.  1.
         11    1    3    3    0    0  0.13244209925E+01  0.19664563280E+01 -0.29472678156E+01  0.37825162648E+01  0.51100000000E-03 0.  1.
        -11    1    3    3    0    0  0.30170565312E+02 -0.15311108710E+02 -0.61186929325E+01  0.34382138745E+02  0.51100000000E-03 0. -1.
         12    1    3    3    0    0 -0.76982490495E+00 -0.12230035272E+02  0.16453513671E+01  0.12364205363E+02  0.00000000000E+00 0. -1.
</event>
<event>
 7    1  0.2974434E-011  0.5052886E+02  0.7816164E-02  0.1300439E+00
        -11   -1    0    0    0    0  0.00000000000E+00  0.00000000000E+00  0.45593999997E+02  0.45594000000E+02  0.51100000000E-03 0. -1.
         11   -1    0    0    0    0 -0.00000000000E+00 -0.00000000000E+00 -0.45593999997E+02  0.45594000000E+02  0.51100000000E-03 0.  1.
    9900012    2    1    2    0    0  0.26592938584E+02 -0.10607944460E+02 -0.28869587547E+02  0.50528856462E+02  0.29999989701E+02 0.  0.
        -12    1    1    2    0    0 -0.26592938584E+02  0.10607944460E+02  0.28869587547E+02  0.40659143538E+02  0.00000000000E+00 0.  1.
         11    1    3    3    0    0 -0.68380060542E+00 -0.50766889887E+00  0.55052067541E-01  0.85342953436E+00  0.51100000000E-03 0. -1.
        -11    1    3    3    0    0  0.21578550727E+02  0.19439198376E+01 -0.29185939680E+02  0.36348751713E+02  0.51100000000E-03 0.  1.
        -12    1    3    3    0    0  0.56981884623E+01 -0.12044195398E+02  0.26130006633E+00  0.13326675214E+02  0.00000000000E+00 0.  1.
</event>
<event>
 7    1  0.2974434E-011  0.5052886E+02  0.7816164E-02  0.1300439E+00
        -11   -1    0    0    0    0  0.00000000000E+00  0.00000000000E+00  0.45593999997E+02  0.45594000000E+02  0.51100000000E-03 0.  1.
         11   -1    0    0    0    0 -0.00000000000E+00 -0.00000000000E+00 -0.45593999997E+02  0.45594000000E+02  0.51100000000E-03 0. -1.
    9900012    2    1    2    0    0  0.23466541457E+02  0.61550951700E+01 -0.32628233205E+02  0.50528863676E+02  0.30000011630E+02 0.  0.
        -12    1    1    2    0    0 -0.23466541457E+02 -0.61550951700E+01  0.32628233205E+02  0.40659136324E+02  0.00000000000E+00 0.  1.
         11    1    3    3    0    0  0.18254302326E+02 -0.13636512059E+01 -0.12110926118E+02  0.21948886754E+02  0.51100000000E-03 0. -1.
        -11    1    3    3    0    0  0.95661497815E+01 -0.16018089373E+01 -0.11409254546E+02  0.14974915795E+02  0.51100000000E-03 0.  1.
         12    1    3    3    0    0 -0.43539106509E+01  0.91205553132E+01 -0.91080525418E+01  0.13605061127E+02  0.00000000000E+00 0. -1.
</event>
<event>
 7    1  0.2974434E-011  0.5052879E+02  0.7816164E-02  0.1300439E+00
        -11   -1    0    0    0    0  0.00000000000E+00  0.00000000000E+00  0.45593999997E+02  0.45594000000E+02  0.51100000000E-03 0.  1.
         11   -1    0    0    0    0 -0.00000000000E+00 -0.00000000000E+00 -0.45593999997E+02  0.45594000000E+02  0.51100000000E-03 0. -1.
    9900012    2    1    2    0    0  0.19274740371E+02 -0.22419735766E+02 -0.27910772110E+02  0.50528789875E+02  0.29999787303E+02 0.  0.
        -12    1    1    2    0    0 -0.19274740371E+02  0.22419735766E+02  0.27910772110E+02  0.40659210125E+02  0.00000000000E+00 0.  1.
         11    1    3    3    0    0  0.87516389429E+01 -0.70072658933E+01 -0.18891115546E+02  0.21967412372E+02  0.51100000000E-03 0. -1.
        -11    1    3    3    0    0  0.67241306985E+01  0.19225213186E+01 -0.82262358968E+01  0.10797267208E+02  0.51100000000E-03 0.  1.
         12    1    3    3    0    0  0.37989707296E+01 -0.17334991192E+02 -0.79342066786E+00  0.17764110295E+02  0.00000000000E+00 0. -1.
</event>
<event>
 7    1  0.2974434E-011  0.5052888E+02  0.7816164E-02  0.1300439E+00
        -11   -1    0    0    0    0  0.00000000000E+00  0.00000000000E+00  0.45593999997E+02  0.45594000000E+02  0.51100000000E-03 0. -1.
         11   -1    0    0    0    0 -0.00000000000E+00 -0.00000000000E+00 -0.45593999997E+02  0.45594000000E+02  0.51100000000E-03 0.  1.
    9900012    2    1    2    0    0  0.15054583957E+02  0.34331350462E+02  0.15744270109E+02  0.50528878466E+02  0.30000056585E+02 0.  0.
        -12    1    1    2    0    0 -0.15054583957E+02 -0.34331350462E+02 -0.15744270109E+02  0.40659121534E+02  0.00000000000E+00 0.  1.
         11    1    3    3    0    0  0.39527596524E+01 -0.33048456272E+01 -0.14307256823E+01  0.53472693713E+01  0.51100000000E-03 0. -1.
        -11    1    3    3    0    0 -0.21858368450E+01  0.58184302971E+00  0.75209339731E-01  0.22632014339E+01  0.51100000000E-03 0.  1.
         12    1    3    3    0    0  0.13287661150E+02  0.37054353059E+02  0.17099786451E+02  0.42918407661E+02  0.00000000000E+00 0. -1.
</event>
<event>
 7    1  0.2974434E-011  0.5052886E+02  0.7816164E-02  0.1300439E+00
        -11   -1    0    0    0    0  0.00000000000E+00  0.00000000000E+00  0.45593999997E+02  0.45594000000E+02  0.51100000000E-03 0.  1.
         11   -1    0    0    0    0 -0.00000000000E+00 -0.00000000000E+00 -0.45593999997E+02  0.45594000000E+02  0.51100000000E-03 0. -1.
    9900012    2    1    2    0    0 -0.33990581512E+02 -0.22279540985E+02  0.11948833059E+01  0.50528864198E+02  0.30000013218E+02 0.  0.
        -12    1    1    2    0    0  0.33990581512E+02  0.22279540985E+02 -0.11948833059E+01  0.40659135802E+02  0.00000000000E+00 0.  1.
         11    1    3    3    0    0 -0.26948763078E+02 -0.15631762612E+02  0.47872262024E+01  0.31519920190E+02  0.51100000000E-03 0. -1.
        -11    1    3    3    0    0 -0.56748519054E+01 -0.10104729925E+02  0.25152387710E+01  0.11859002376E+02  0.51100000000E-03 0.  1.
         12    1    3    3    0    0 -0.13669665286E+01  0.34569515527E+01 -0.61075816675E+01  0.71499416329E+01  0.00000000000E+00 0. -1.
</event>
<event>
 7    1  0.2974434E-011  0.5052885E+02  0.7816164E-02  0.1300439E+00
        -11   -1    0    0    0    0  0.00000000000E+00  0.00000000000E+00  0.45593999997E+02  0.45594000000E+02  0.51100000000E-03 0.  1.
         11   -1    0    0    0    0 -0.00000000000E+00 -0.00000000000E+00 -0.45593999997E+02  0.45594000000E+02  0.51100000000E-03 0. -1.
    9900012    2    1    2    0    0 -0.15773097451E+02 -0.77433712304E+01 -0.36666278839E+02  0.50528850905E+02  0.29999972811E+02 0.  0.
        -12    1    1    2    0    0  0.15773097451E+02  0.77433712304E+01  0.36666278839E+02  0.40659149095E+02  0.00000000000E+00 0.  1.
         11    1    3    3    0    0 -0.51373516722E+01  0.78031521017E+01 -0.77748255801E+00  0.93747556936E+01  0.51100000000E-03 0. -1.
        -11    1    3    3    0    0 -0.23581372513E+01 -0.24452006923E+01 -0.21337339367E+01  0.40115630987E+01  0.51100000000E-03 0.  1.
         12    1    3    3    0    0 -0.82776085271E+01 -0.13101322640E+02 -0.33755062345E+02  0.37142532113E+02  0.00000000000E+00 0. -1.
</event>
<event>
 7    1  0.2974434E-011  0.5052885E+02  0.7816164E-02  0.1300439E+00
        -11   -1    0    0    0    0  0.00000000000E+00  0.00000000000E+00  0.45593999997E+02  0.45594000000E+02  0.51100000000E-03 0.  1.
         11   -1    0    0    0    0 -0.00000000000E+00 -0.00000000000E+00 -0.45593999997E+02  0.45594000000E+02  0.51100000000E-03 0. -1.
    9900012    2    1    2    0    0 -0.33497872174E+02  0.18004748211E+02 -0.14383617449E+02  0.50528845444E+02  0.29999956212E+02 0.  0.
        -12    1    1    2    0    0  0.33497872174E+02 -0.18004748211E+02  0.14383617449E+02  0.40659154556E+02  0.00000000000E+00 0.  1.
         11    1    3    3    0    0 -0.10038696425E+02  0.23232962686E+01 -0.41565873201E+01  0.11110821296E+02  0.51100000000E-03 0. -1.
        -11    1    3    3    0    0 -0.13349462545E+02 -0.37795052302E+01  0.24478190837E+01  0.14088457281E+02  0.51100000000E-03 0.  1.
         12    1    3    3    0    0 -0.10109713204E+02  0.19460957173E+02 -0.12674849212E+02  0.25329566868E+02  0.00000000000E+00 0. -1.
</event>
<event>
 7    1  0.2974434E-011  0.5052885E+02  0.7816164E-02  0.1300439E+00
        -11   -1    0    0    0    0  0.00000000000E+00  0.00000000000E+00  0.45593999997E+02  0.45594000000E+02  0.51100000000E-03 0.  1.
         11   -1    0    0    0    0 -0.00000000000E+00 -0.00000000000E+00 -0.45593999997E+02  0.45594000000E+02  0.51100000000E-03 0. -1.
    9900012    2    1    2    0    0  0.35436391116E+02 -0.99563883382E+01 -0.17271343794E+02  0.50528846043E+02  0.29999958033E+02 0.  0.
        -12    1    1    2    0    0 -0.35436391116E+02  0.99563883382E+01  0.17271343794E+02  0.40659153957E+02  0.00000000000E+00 0.  1.
         11    1    3    3    0    0  0.59855202592E+00  0.55871061125E+00  0.36957736864E+01  0.37853884183E+01  0.51100000000E-03 0. -1.
        -11    1    3    3    0    0 -0.20916599979E+01  0.63056452419E+00 -0.40927677458E+01  0.46393319829E+01  0.51100000000E-03 0.  1.
         12    1    3    3    0    0  0.36929499088E+02 -0.11145663474E+02 -0.16874349734E+02  0.42104125642E+02  0.00000000000E+00 0. -1.
</event>
<event>
 7    1  0.2974434E-011  0.5052886E+02  0.7816164E-02  0.1300439E+00
        -11   -1    0    0    0    0  0.00000000000E+00  0.00000000000E+00  0.45593999997E+02  0.45594000000E+02  0.51100000000E-03 0.  1.
         11   -1    0    0    0    0 -0.00000000000E+00 -0.00000000000E+00 -0.45593999997E+02  0.45594000000E+02  0.51100000000E-03 0. -1.
    9900012    2    1    2    0    0 -0.25739090003E+02  0.94860521067E+01 -0.30011321495E+02  0.50528863799E+02  0.30000012004E+02 0.  0.
        -12    1    1    2    0    0  0.25739090003E+02 -0.94860521067E+01  0.30011321495E+02  0.40659136201E+02  0.00000000000E+00 0.  1.
         11    1    3    3    0    0  0.45842514748E+01  0.33145532049E+01 -0.10818755926E+02  0.12208484942E+02  0.51100000000E-03 0. -1.
        -11    1    3    3    0    0 -0.15749944906E+02  0.12732651176E+01 -0.16251596100E+02  0.22667076227E+02  0.51100000000E-03 0.  1.
        -12    1    3    3    0    0 -0.14573396571E+02  0.48982337841E+01 -0.29409694691E+01  0.15653302630E+02  0.00000000000E+00 0.  1.
</event>
<event>
 7    1  0.2974434E-011  0.5052886E+02  0.7816164E-02  0.1300439E+00
        -11   -1    0    0    0    0  0.00000000000E+00  0.00000000000E+00  0.45593999997E+02  0.45594000000E+02  0.51100000000E-03 0.  1.
         11   -1    0    0    0    0 -0.00000000000E+00 -0.00000000000E+00 -0.45593999997E+02  0.45594000000E+02  0.51100000000E-03 0. -1.
    9900012    2    1    2    0    0  0.29988551533E+02 -0.19901836147E+02 -0.18914792401E+02  0.50528859864E+02  0.30000000042E+02 0.  0.
        -12    1    1    2    0    0 -0.29988551533E+02  0.19901836147E+02  0.18914792401E+02  0.40659140136E+02  0.00000000000E+00 0.  1.
         11    1    3    3    0    0  0.11872933255E+02 -0.13358402251E+02 -0.44149482153E+01  0.18409378664E+02  0.51100000000E-03 0. -1.
        -11    1    3    3    0    0 -0.15793251569E+01  0.25038725585E+00 -0.10851471986E+02  0.10968655627E+02  0.51100000000E-03 0.  1.
         12    1    3    3    0    0  0.19694943434E+02 -0.67938211510E+01 -0.36483721999E+01  0.21150825573E+02  0.00000000000E+00 0. -1.
</event>
<event>
 7    1  0.2974434E-011  0.5052887E+02  0.7816164E-02  0.1300439E+00
        -11   -1    0    0    0    0  0.00000000000E+00  0.00000000000E+00  0.45593999997E+02  0.45594000000E+02  0.51100000000E-03 0.  1.
         11   -1    0    0    0    0 -0.00000000000E+00 -0.00000000000E+00 -0.45593999997E+02  0.45594000000E+02  0.51100000000E-03 0. -1.
    9900012    2    1    2    0    0  0.14595639705E+01  0.36629060041E+02 -0.17588241219E+02  0.50528873156E+02  0.30000040446E+02 0.  0.
        -12    1    1    2    0    0 -0.14595639705E+01 -0.36629060041E+02  0.17588241219E+02  0.40659126844E+02  0.00000000000E+00 0.  1.
         11    1    3    3    0    0  0.79219167084E+01  0.19405566379E+02 -0.26933272797E+01  0.21132600004E+02  0.51100000000E-03 0. -1.
        -11    1    3    3    0    0 -0.78143391490E+01  0.11131821072E+02 -0.39028404049E+00  0.13606383010E+02  0.51100000000E-03 0.  1.
        -12    1    3    3    0    0  0.13519864111E+01  0.60916725899E+01 -0.14504629899E+02  0.15789890143E+02  0.00000000000E+00 0.  1.
</event>
<event>
 7    1  0.2974434E-011  0.5052886E+02  0.7816164E-02  0.1300439E+00
        -11   -1    0    0    0    0  0.00000000000E+00  0.00000000000E+00  0.45593999997E+02  0.45594000000E+02  0.51100000000E-03 0.  1.
         11   -1    0    0    0    0 -0.00000000000E+00 -0.00000000000E+00 -0.45593999997E+02  0.45594000000E+02  0.51100000000E-03 0. -1.
    9900012    2    1    2    0    0 -0.18504043088E+02 -0.34033279828E+02 -0.12349152618E+02  0.50528864288E+02  0.30000013491E+02 0.  0.
        -12    1    1    2    0    0  0.18504043088E+02  0.34033279828E+02  0.12349152618E+02  0.40659135712E+02  0.00000000000E+00 0.  1.
         11    1    3    3    0    0  0.18197342033E+01 -0.11668187492E+02 -0.14061014883E+01  0.11892651242E+02  0.51100000000E-03 0. -1.
        -11    1    3    3    0    0 -0.14786011154E+02 -0.21929677055E+02 -0.95313785766E-01  0.26448930915E+02  0.51100000000E-03 0.  1.
         12    1    3    3    0    0 -0.55377661370E+01 -0.43541528122E+00 -0.10847737344E+02  0.12187282131E+02  0.00000000000E+00 0. -1.
</event>
<event>
 7    1  0.2974434E-011  0.5052887E+02  0.7816164E-02  0.1300439E+00
        -11   -1    0    0    0    0  0.00000000000E+00  0.00000000000E+00  0.45593999997E+02  0.45594000000E+02  0.51100000000E-03 0. -1.
         11   -1    0    0    0    0 -0.00000000000E+00 -0.00000000000E+00 -0.45593999997E+02  0.45594000000E+02  0.51100000000E-03 0.  1.
    9900012    2    1    2    0    0  0.13266609495E+02 -0.13350186730E+01  0.38410673028E+02  0.50528868126E+02  0.30000025154E+02 0.  0.
        -12    1    1    2    0    0 -0.13266609495E+02  0.13350186730E+01 -0.38410673028E+02  0.40659131874E+02  0.00000000000E+00 0.  1.
         11    1    3    3    0    0  0.45268356701E+01  0.89259541245E+01  0.12688546510E+02  0.16160572731E+02  0.51100000000E-03 0. -1.
        -11    1    3    3    0    0  0.49150892471E+01 -0.12089395504E+02  0.63046685899E+01  0.14493461707E+02  0.51100000000E-03 0.  1.
         12    1    3    3    0    0  0.38246845778E+01  0.18284227064E+01  0.19417457928E+02  0.19874833687E+02  0.00000000000E+00 0. -1.
</event>
<event>
 7    1  0.2974434E-011  0.5052886E+02  0.7816164E-02  0.1300439E+00
        -11   -1    0    0    0    0  0.00000000000E+00  0.00000000000E+00  0.45593999997E+02  0.45594000000E+02  0.51100000000E-03 0. -1.
         11   -1    0    0    0    0 -0.00000000000E+00 -0.00000000000E+00 -0.45593999997E+02  0.45594000000E+02  0.51100000000E-03 0.  1.
    9900012    2    1    2    0    0 -0.27168500874E+02 -0.22373097437E+02  0.20358852186E+02  0.50528858457E+02  0.29999995766E+02 0.  0.
        -12    1    1    2    0    0  0.27168500874E+02  0.22373097437E+02 -0.20358852186E+02  0.40659141543E+02  0.00000000000E+00 0.  1.
         11    1    3    3    0    0  0.13711771635E+01  0.36111924847E+01  0.24390607723E+01  0.45683537174E+01  0.51100000000E-03 0.  1.
        -11    1    3    3    0    0 -0.97066397692E+01 -0.48110789500E+01  0.13454280065E+02  0.17273765906E+02  0.51100000000E-03 0. -1.
         12    1    3    3    0    0 -0.18833038269E+02 -0.21173210971E+02  0.44655113490E+01  0.28686738833E+02  0.00000000000E+00 0. -1.
</event>
<event>
 7    1  0.2974434E-011  0.5052888E+02  0.7816164E-02  0.1300439E+00
        -11   -1    0    0    0    0  0.00000000000E+00  0.00000000000E+00  0.45593999997E+02  0.45594000000E+02  0.51100000000E-03 0.  1.
         11   -1    0    0    0    0 -0.00000000000E+00 -0.00000000000E+00 -0.45593999997E+02  0.45594000000E+02  0.51100000000E-03 0. -1.
    9900012    2    1    2    0    0 -0.34546506039E+02 -0.20340566612E+02 -0.67797190826E+01  0.50528876541E+02  0.30000050733E+02 0.  0.
        -12    1    1    2    0    0  0.34546506039E+02  0.20340566612E+02  0.67797190826E+01  0.40659123459E+02  0.00000000000E+00 0.  1.
         11    1    3    3    0    0  0.26902392319E+00 -0.48388097537E+01  0.66689429919E+00  0.48919527769E+01  0.51100000000E-03 0. -1.
        -11    1    3    3    0    0 -0.15294185280E+02 -0.73764324572E+01  0.86556717558E+01  0.19058974604E+02  0.51100000000E-03 0.  1.
         12    1    3    3    0    0 -0.19521344683E+02 -0.81253244016E+01 -0.16102285138E+02  0.26577949159E+02  0.00000000000E+00 0. -1.
</event>
<event>
 7    1  0.2974434E-011  0.5052886E+02  0.7816164E-02  0.1300439E+00
        -11   -1    0    0    0    0  0.00000000000E+00  0.00000000000E+00  0.45593999997E+02  0.45594000000E+02  0.51100000000E-03 0.  1.
         11   -1    0    0    0    0 -0.00000000000E+00 -0.00000000000E+00 -0.45593999997E+02  0.45594000000E+02  0.51100000000E-03 0. -1.
    9900012    2    1    2    0    0 -0.22928793793E+02  0.13964302644E+02 -0.30535781543E+02  0.50528864648E+02  0.30000014585E+02 0.  0.
        -12    1    1    2    0    0  0.22928793793E+02 -0.13964302644E+02  0.30535781543E+02  0.40659135352E+02  0.00000000000E+00 0.  1.
         11    1    3    3    0    0 -0.89098881902E+01  0.86103847353E+01 -0.27826885874E+02  0.30460801213E+02  0.51100000000E-03 0. -1.
        -11    1    3    3    0    0 -0.68819939055E+01 -0.10673728026E+01 -0.67066491376E+01  0.96685194177E+01  0.51100000000E-03 0.  1.
         12    1    3    3    0    0 -0.71369116969E+01  0.64212907114E+01  0.39977534687E+01  0.10399544017E+02  0.00000000000E+00 0. -1.
</event>
<event>
 7    1  0.2974434E-011  0.5052890E+02  0.7816164E-02  0.1300439E+00
        -11   -1    0    0    0    0  0.00000000000E+00  0.00000000000E+00  0.45593999997E+02  0.45594000000E+02  0.51100000000E-03 0.  1.
         11   -1    0    0    0    0 -0.00000000000E+00 -0.00000000000E+00 -0.45593999997E+02  0.45594000000E+02  0.51100000000E-03 0. -1.
    9900012    2    1    2    0    0  0.38173753061E+02 -0.12575679108E+02 -0.61464796625E+01  0.50528900895E+02  0.30000124760E+02 0.  0.
        -12    1    1    2    0    0 -0.38173753061E+02  0.12575679108E+02  0.61464796625E+01  0.40659099105E+02  0.00000000000E+00 0.  1.
         11    1    3    3    0    0  0.11863079164E+02  0.19721013142E+01 -0.17015759933E+01  0.12145665562E+02  0.51100000000E-03 0. -1.
        -11    1    3    3    0    0  0.24412163092E+02 -0.55446678538E+01  0.46315391375E+01  0.25458754948E+02  0.51100000000E-03 0.  1.
         12    1    3    3    0    0  0.18985108055E+01 -0.90031125678E+01 -0.90764428068E+01  0.12924480385E+02  0.00000000000E+00 0. -1.
</event>
<event>
 7    1  0.2974434E-011  0.5052886E+02  0.7816164E-02  0.1300439E+00
        -11   -1    0    0    0    0  0.00000000000E+00  0.00000000000E+00  0.45593999997E+02  0.45594000000E+02  0.51100000000E-03 0.  1.
         11   -1    0    0    0    0 -0.00000000000E+00 -0.00000000000E+00 -0.45593999997E+02  0.45594000000E+02  0.51100000000E-03 0. -1.
    9900012    2    1    2    0    0  0.36831440011E+02  0.17199520941E+02 -0.88709083073E+00  0.50528862970E+02  0.30000009484E+02 0.  0.
        -12    1    1    2    0    0 -0.36831440011E+02 -0.17199520941E+02  0.88709083073E+00  0.40659137030E+02  0.00000000000E+00 0.  1.
         11    1    3    3    0    0  0.91558312657E+01 -0.94285915825E+00  0.19050375564E+00  0.92062218907E+01  0.51100000000E-03 0. -1.
        -11    1    3    3    0    0  0.42892327136E+01 -0.91447615391E+00  0.85891790712E+01  0.96440541934E+01  0.51100000000E-03 0.  1.
         12    1    3    3    0    0  0.23386376031E+02  0.19056856254E+02 -0.96667736576E+01  0.31678586886E+02  0.00000000000E+00 0. -1.
</event>
<event>
 7    1  0.2974434E-011  0.5052885E+02  0.7816164E-02  0.1300439E+00
        -11   -1    0    0    0    0  0.00000000000E+00  0.00000000000E+00  0.45593999997E+02  0.45594000000E+02  0.51100000000E-03 0.  1.
         11   -1    0    0    0    0 -0.00000000000E+00 -0.00000000000E+00 -0.45593999997E+02  0.45594000000E+02  0.51100000000E-03 0. -1.
    9900012    2    1    2    0    0  0.32162837726E+02 -0.24266649131E+02 -0.54633094197E+01  0.50528854160E+02  0.29999982704E+02 0.  0.
        -12    1    1    2    0    0 -0.32162837726E+02  0.24266649131E+02  0.54633094197E+01  0.40659145840E+02  0.00000000000E+00 0.  1.
         11    1    3    3    0    0  0.12780416847E+01 -0.67060574585E+01  0.50767521358E+01  0.85075266496E+01  0.51100000000E-03 0.  1.
        -11    1    3    3    0    0 -0.79705591719E+00  0.26686342553E+01  0.53142967495E+00  0.28353702905E+01  0.51100000000E-03 0. -1.
         12    1    3    3    0    0  0.31681851958E+02 -0.20229225928E+02 -0.11071491230E+02  0.39185957220E+02  0.00000000000E+00 0. -1.
</event>
<event>
 7    1  0.2974434E-011  0.5052886E+02  0.7816164E-02  0.1300439E+00
        -11   -1    0    0    0    0  0.00000000000E+00  0.00000000000E+00  0.45593999997E+02  0.45594000000E+02  0.51100000000E-03 0.  1.
         11   -1    0    0    0    0 -0.00000000000E+00 -0.00000000000E+00 -0.45593999997E+02  0.45594000000E+02  0.51100000000E-03 0. -1.
    9900012    2    1    2    0    0  0.89588968731E+01  0.58659616449E+01 -0.39223644377E+02  0.50528860592E+02  0.30000002256E+02 0.  0.
        -12    1    1    2    0    0 -0.89588968731E+01 -0.58659616449E+01  0.39223644377E+02  0.40659139408E+02  0.00000000000E+00 0.  1.
         11    1    3    3    0    0  0.20421122235E+01 -0.80630165121E+01 -0.75686801309E+01  0.11245771507E+02  0.51100000000E-03 0. -1.
        -11    1    3    3    0    0 -0.32839621088E+01  0.68762785307E+01 -0.22813780331E+02  0.24052779191E+02  0.51100000000E-03 0.  1.
         12    1    3    3    0    0  0.10200746758E+02  0.70526996263E+01 -0.88411839144E+01  0.15230309894E+02  0.00000000000E+00 0. -1.
</event>
<event>
 7    1  0.3034978E-011  0.5052886E+02  0.7816164E-02  0.1300439E+00
        -11   -1    0    0    0    0  0.00000000000E+00  0.00000000000E+00  0.45593999997E+02  0.45594000000E+02  0.51100000000E-03 0. -1.
         11   -1    0    0    0    0 -0.00000000000E+00 -0.00000000000E+00 -0.45593999997E+02  0.45594000000E+02  0.51100000000E-03 0.  1.
    9900012    2    1    2    0    0  0.10924671855E+02  0.26653218684E+02  0.28695353462E+02  0.50528857957E+02  0.29999994247E+02 0.  0.
        -12    1    1    2    0    0 -0.10924671855E+02 -0.26653218684E+02 -0.28695353462E+02  0.40659142043E+02  0.00000000000E+00 0.  1.
         11    1    3    3    0    0  0.17752905684E+01  0.89886066618E+01  0.17455906671E+02  0.19714344632E+02  0.51100000000E-03 0. -1.
        -11    1    3    3    0    0 -0.27601184998E+01  0.12750944653E+02  0.12244217468E+02  0.17892057046E+02  0.51100000000E-03 0.  1.
        -12    1    3    3    0    0  0.11909499786E+02  0.49136673693E+01 -0.10047706769E+01  0.12922456279E+02  0.00000000000E+00 0.  1.
</event>
<event>
 7    1  0.2974434E-011  0.5052887E+02  0.7816164E-02  0.1300439E+00
        -11   -1    0    0    0    0  0.00000000000E+00  0.00000000000E+00  0.45593999997E+02  0.45594000000E+02  0.51100000000E-03 0.  1.
         11   -1    0    0    0    0 -0.00000000000E+00 -0.00000000000E+00 -0.45593999997E+02  0.45594000000E+02  0.51100000000E-03 0. -1.
    9900012    2    1    2    0    0  0.15525810605E+02  0.37225823925E+02 -0.51334577041E+01  0.50528866342E+02  0.30000019733E+02 0.  0.
        -12    1    1    2    0    0 -0.15525810605E+02 -0.37225823925E+02  0.51334577041E+01  0.40659133658E+02  0.00000000000E+00 0.  1.
         11    1    3    3    0    0  0.55064515500E+01  0.26563372964E+02 -0.74014308939E+00  0.27138194559E+02  0.51100000000E-03 0.  1.
        -11    1    3    3    0    0  0.13750372020E+02  0.54087824966E+01  0.12452036131E+01  0.14828290228E+02  0.51100000000E-03 0. -1.
         12    1    3    3    0    0 -0.37310129652E+01  0.52536684641E+01 -0.56385182278E+01  0.85623815544E+01  0.00000000000E+00 0. -1.
</event>
<event>
 7    1  0.2974434E-011  0.5052876E+02  0.7816164E-02  0.1300439E+00
        -11   -1    0    0    0    0  0.00000000000E+00  0.00000000000E+00  0.45593999997E+02  0.45594000000E+02  0.51100000000E-03 0. -1.
         11   -1    0    0    0    0 -0.00000000000E+00 -0.00000000000E+00 -0.45593999997E+02  0.45594000000E+02  0.51100000000E-03 0.  1.
    9900012    2    1    2    0    0 -0.29329070936E+02 -0.17375558949E+02  0.22160078585E+02  0.50528763243E+02  0.29999706352E+02 0.  0.
        -12    1    1    2    0    0  0.29329070936E+02  0.17375558949E+02 -0.22160078585E+02  0.40659236757E+02  0.00000000000E+00 0.  1.
         11    1    3    3    0    0 -0.49240738720E+01  0.84320984937E-01  0.20936502825E+01  0.53513535944E+01  0.51100000000E-03 0. -1.
        -11    1    3    3    0    0 -0.28407331216E+02 -0.81461849800E+01  0.10863045378E+02  0.31485592764E+02  0.51100000000E-03 0.  1.
        -12    1    3    3    0    0  0.40023341516E+01 -0.93136949535E+01  0.92033829243E+01  0.13691816885E+02  0.00000000000E+00 0.  1.
</event>
<event>
 7    1  0.2974434E-011  0.5052881E+02  0.7816164E-02  0.1300439E+00
        -11   -1    0    0    0    0  0.00000000000E+00  0.00000000000E+00  0.45593999997E+02  0.45594000000E+02  0.51100000000E-03 0.  1.
         11   -1    0    0    0    0 -0.00000000000E+00 -0.00000000000E+00 -0.45593999997E+02  0.45594000000E+02  0.51100000000E-03 0. -1.
    9900012    2    1    2    0    0  0.28385931462E+02 -0.87884648167E+01  0.27751957218E+02  0.50528814712E+02  0.29999862799E+02 0.  0.
        -12    1    1    2    0    0 -0.28385931462E+02  0.87884648167E+01 -0.27751957218E+02  0.40659185288E+02  0.00000000000E+00 0.  1.
         11    1    3    3    0    0  0.12445370948E+02 -0.11587973796E+01  0.10485301177E+02  0.16314766638E+02  0.51100000000E-03 0. -1.
        -11    1    3    3    0    0  0.11553266255E+02 -0.79577694008E+01  0.23028190539E+02  0.26964821801E+02  0.51100000000E-03 0.  1.
         12    1    3    3    0    0  0.43872942589E+01  0.32810196368E+00 -0.57615344969E+01  0.72492262740E+01  0.00000000000E+00 0. -1.
</event>
<event>
 7    1  0.2974434E-011  0.5052890E+02  0.7816164E-02  0.1300439E+00
        -11   -1    0    0    0    0  0.00000000000E+00  0.00000000000E+00  0.45593999997E+02  0.45594000000E+02  0.51100000000E-03 0. -1.
         11   -1    0    0    0    0 -0.00000000000E+00 -0.00000000000E+00 -0.45593999997E+02  0.45594000000E+02  0.51100000000E-03 0.  1.
    9900012    2    1    2    0    0  0.46591106011E+01  0.37514194662E+02 -0.14971326177E+02  0.50528896219E+02  0.30000110548E+02 0.  0.
        -12    1    1    2    0    0 -0.46591106011E+01 -0.37514194662E+02  0.14971326177E+02  0.40659103781E+02  0.00000000000E+00 0.  1.
         11    1    3    3    0    0  0.48584811216E+01  0.12818649955E+02  0.50657652163E+01  0.14614533963E+02  0.51100000000E-03 0. -1.
        -11    1    3    3    0    0 -0.28618044558E+01 -0.20619668922E+00 -0.72456882313E+01  0.77931020797E+01  0.51100000000E-03 0.  1.
         12    1    3    3    0    0  0.26624339354E+01  0.24901741397E+02 -0.12791403162E+02  0.28121260177E+02  0.00000000000E+00 0. -1.
</event>
<event>
 7    1  0.2974434E-011  0.5052886E+02  0.7816164E-02  0.1300439E+00
        -11   -1    0    0    0    0  0.00000000000E+00  0.00000000000E+00  0.45593999997E+02  0.45594000000E+02  0.51100000000E-03 0.  1.
         11   -1    0    0    0    0 -0.00000000000E+00 -0.00000000000E+00 -0.45593999997E+02  0.45594000000E+02  0.51100000000E-03 0. -1.
    9900012    2    1    2    0    0 -0.13758354697E+02 -0.38080698575E+02 -0.37059022269E+01  0.50528860323E+02  0.30000001438E+02 0.  0.
        -12    1    1    2    0    0  0.13758354697E+02  0.38080698575E+02  0.37059022269E+01  0.40659139677E+02  0.00000000000E+00 0.  1.
         11    1    3    3    0    0 -0.44253612565E+01 -0.20665783183E+02 -0.50208397706E+00  0.21140257932E+02  0.51100000000E-03 0. -1.
        -11    1    3    3    0    0 -0.91759136022E+01 -0.19763902320E+02 -0.86586539302E+01  0.23447420189E+02  0.51100000000E-03 0.  1.
        -12    1    3    3    0    0 -0.15707983781E+00  0.23489869284E+01  0.54548356804E+01  0.59411822026E+01  0.00000000000E+00 0.  1.
</event>
<event>
 7    1  0.2974434E-011  0.5052886E+02  0.7816164E-02  0.1300439E+00
        -11   -1    0    0    0    0  0.00000000000E+00  0.00000000000E+00  0.45593999997E+02  0.45594000000E+02  0.51100000000E-03 0.  1.
         11   -1    0    0    0    0 -0.00000000000E+00 -0.00000000000E+00 -0.45593999997E+02  0.45594000000E+02  0.51100000000E-03 0. -1.
    9900012    2    1    2    0    0  0.19277195402E+02  0.29060407263E+02 -0.20905690113E+02  0.50528863119E+02  0.30000009936E+02 0.  0.
        -12    1    1    2    0    0 -0.19277195402E+02 -0.29060407263E+02  0.20905690113E+02  0.40659136881E+02  0.00000000000E+00 0.  1.
         11    1    3    3    0    0  0.22156886479E+01  0.11857738706E+00 -0.55440442257E+01  0.59715796419E+01  0.51100000000E-03 0. -1.
        -11    1    3    3    0    0 -0.52461013391E+01  0.10113072493E+02 -0.93839641811E+01  0.14759898324E+02  0.51100000000E-03 0.  1.
         12    1    3    3    0    0  0.22307608093E+02  0.18828757383E+02 -0.59776817059E+01  0.29797385153E+02  0.00000000000E+00 0. -1.
</event>
<event>
 7    1  0.2974434E-011  0.5052887E+02  0.7816164E-02  0.1300439E+00
        -11   -1    0    0    0    0  0.00000000000E+00  0.00000000000E+00  0.45593999997E+02  0.45594000000E+02  0.51100000000E-03 0.  1.
         11   -1    0    0    0    0 -0.00000000000E+00 -0.00000000000E+00 -0.45593999997E+02  0.45594000000E+02  0.51100000000E-03 0. -1.
    9900012    2    1    2    0    0  0.23870958098E+02 -0.32775338909E+02  0.30198829720E+01  0.50528866041E+02  0.30000018819E+02 0.  0.
        -12    1    1    2    0    0 -0.23870958098E+02  0.32775338909E+02 -0.30198829720E+01  0.40659133959E+02  0.00000000000E+00 0.  1.
         11    1    3    3    0    0  0.48922773244E+01  0.31282375394E+01  0.51413164975E+01  0.77558612101E+01  0.51100000000E-03 0.  1.
        -11    1    3    3    0    0  0.16544917567E+01 -0.17955424602E+01 -0.37591135928E+01  0.44824380603E+01  0.51100000000E-03 0. -1.
         12    1    3    3    0    0  0.17324189017E+02 -0.34108033988E+02  0.16376800673E+01  0.38290566771E+02  0.00000000000E+00 0. -1.
</event>
<event>
 7    1  0.2974434E-011  0.5052886E+02  0.7816164E-02  0.1300439E+00
        -11   -1    0    0    0    0  0.00000000000E+00  0.00000000000E+00  0.45593999997E+02  0.45594000000E+02  0.51100000000E-03 0.  1.
         11   -1    0    0    0    0 -0.00000000000E+00 -0.00000000000E+00 -0.45593999997E+02  0.45594000000E+02  0.51100000000E-03 0. -1.
    9900012    2    1    2    0    0  0.13587064537E+02 -0.25788646273E+02 -0.28346126313E+02  0.50528862327E+02  0.30000007529E+02 0.  0.
        -12    1    1    2    0    0 -0.13587064537E+02  0.25788646273E+02  0.28346126313E+02  0.40659137673E+02  0.00000000000E+00 0.  1.
         11    1    3    3    0    0 -0.28381700890E+00 -0.13188099999E+02 -0.64131685981E+01  0.14667490085E+02  0.51100000000E-03 0. -1.
        -11    1    3    3    0    0 -0.22879577703E+01 -0.26381842688E+01  0.29449735674E+01  0.45681108315E+01  0.51100000000E-03 0.  1.
        -12    1    3    3    0    0  0.16158839316E+02 -0.99623620057E+01 -0.24877931283E+02  0.31293261410E+02  0.00000000000E+00 0.  1.
</event>
<event>
 7    1  0.2974434E-011  0.5052885E+02  0.7816164E-02  0.1300439E+00
        -11   -1    0    0    0    0  0.00000000000E+00  0.00000000000E+00  0.45593999997E+02  0.45594000000E+02  0.51100000000E-03 0.  1.
         11   -1    0    0    0    0 -0.00000000000E+00 -0.00000000000E+00 -0.45593999997E+02  0.45594000000E+02  0.51100000000E-03 0. -1.
    9900012    2    1    2    0    0 -0.41945605789E+01  0.38813598288E+02  0.11361186570E+02  0.50528852065E+02  0.29999976338E+02 0.  0.
        -12    1    1    2    0    0  0.41945605789E+01 -0.38813598288E+02 -0.11361186570E+02  0.40659147935E+02  0.00000000000E+00 0.  1.
         11    1    3    3    0    0 -0.16861636347E+01  0.64420921722E+01 -0.56031916343E+01  0.87028418410E+01  0.51100000000E-03 0. -1.
        -11    1    3    3    0    0  0.26132263796E+01 -0.18895593902E+01 -0.63620177727E-01  0.32254355657E+01  0.51100000000E-03 0.  1.
        -12    1    3    3    0    0 -0.51216233238E+01  0.34261065506E+02  0.17027998382E+02  0.38600574659E+02  0.00000000000E+00 0.  1.
</event>
<event>
 7    1  0.2974434E-011  0.5052885E+02  0.7816164E-02  0.1300439E+00
        -11   -1    0    0    0    0  0.00000000000E+00  0.00000000000E+00  0.45593999997E+02  0.45594000000E+02  0.51100000000E-03 0. -1.
         11   -1    0    0    0    0 -0.00000000000E+00 -0.00000000000E+00 -0.45593999997E+02  0.45594000000E+02  0.51100000000E-03 0.  1.
    9900012    2    1    2    0    0 -0.40645205382E+02 -0.10178367606E+01 -0.31232246651E+00  0.50528852720E+02  0.29999978327E+02 0.  0.
        -12    1    1    2    0    0  0.40645205382E+02  0.10178367606E+01  0.31232246651E+00  0.40659147280E+02  0.00000000000E+00 0.  1.
         11    1    3    3    0    0 -0.18461708370E+02 -0.26551145250E+01 -0.18785887863E+01  0.18746023716E+02  0.51100000000E-03 0. -1.
        -11    1    3    3    0    0 -0.69322888550E+01 -0.92487086805E+01  0.52361291977E+01  0.12689061835E+02  0.51100000000E-03 0.  1.
        -12    1    3    3    0    0 -0.15251208158E+02  0.10885986445E+02 -0.36698628779E+01  0.19093767169E+02  0.00000000000E+00 0.  1.
</event>
<event>
 7    1  0.2974434E-011  0.5052886E+02  0.7816164E-02  0.1300439E+00
        -11   -1    0    0    0    0  0.00000000000E+00  0.00000000000E+00  0.45593999997E+02  0.45594000000E+02  0.51100000000E-03 0.  1.
         11   -1    0    0    0    0 -0.00000000000E+00 -0.00000000000E+00 -0.45593999997E+02  0.45594000000E+02  0.51100000000E-03 0. -1.
    9900012    2    1    2    0    0  0.33019492692E+02  0.83087977276E+00 -0.23710512636E+02  0.50528859966E+02  0.30000000352E+02 0.  0.
        -12    1    1    2    0    0 -0.33019492692E+02 -0.83087977276E+00  0.23710512636E+02  0.40659140034E+02  0.00000000000E+00 0.  1.
         11    1    3    3    0    0  0.38936782849E+01 -0.73702444812E+01 -0.14770170533E+02  0.16959928424E+02  0.51100000000E-03 0. -1.
        -11    1    3    3    0    0 -0.81809681185E+00 -0.17468016896E+00  0.61754673118E+00  0.10397883349E+01  0.51100000000E-03 0.  1.
         12    1    3    3    0    0  0.29943911219E+02  0.83758044229E+01 -0.95578888345E+01  0.32529143207E+02  0.00000000000E+00 0. -1.
</event>
<event>
 7    1  0.2974434E-011  0.5052886E+02  0.7816164E-02  0.1300439E+00
        -11   -1    0    0    0    0  0.00000000000E+00  0.00000000000E+00  0.45593999997E+02  0.45594000000E+02  0.51100000000E-03 0.  1.
         11   -1    0    0    0    0 -0.00000000000E+00 -0.00000000000E+00 -0.45593999997E+02  0.45594000000E+02  0.51100000000E-03 0. -1.
    9900012    2    1    2    0    0  0.30821446004E+02 -0.21143335791E+02 -0.16005113756E+02  0.50528857750E+02  0.29999993617E+02 0.  0.
        -12    1    1    2    0    0 -0.30821446004E+02  0.21143335791E+02  0.16005113756E+02  0.40659142250E+02  0.00000000000E+00 0.  1.
         11    1    3    3    0    0  0.61770623499E+01 -0.17931211606E+01 -0.10930044184E+02  0.12682162627E+02  0.51100000000E-03 0. -1.
        -11    1    3    3    0    0 -0.21237385911E+01 -0.50845384445E+01  0.32441646055E+01  0.63943256912E+01  0.51100000000E-03 0.  1.
         12    1    3    3    0    0  0.26768122245E+02 -0.14265676186E+02 -0.83192341775E+01  0.31452369432E+02  0.00000000000E+00 0. -1.
</event>
<event>
 7    1  0.2974434E-011  0.5052887E+02  0.7816164E-02  0.1300439E+00
        -11   -1    0    0    0    0  0.00000000000E+00  0.00000000000E+00  0.45593999997E+02  0.45594000000E+02  0.51100000000E-03 0.  1.
         11   -1    0    0    0    0 -0.00000000000E+00 -0.00000000000E+00 -0.45593999997E+02  0.45594000000E+02  0.51100000000E-03 0. -1.
    9900012    2    1    2    0    0 -0.19603529853E+02 -0.34896995377E+02 -0.71460646211E+01  0.50528869309E+02  0.30000028750E+02 0.  0.
        -12    1    1    2    0    0  0.19603529853E+02  0.34896995377E+02  0.71460646211E+01  0.40659130691E+02  0.00000000000E+00 0.  1.
         11    1    3    3    0    0 -0.18857469389E+01 -0.20446565189E+02 -0.46757277420E+01  0.21058976702E+02  0.51100000000E-03 0. -1.
        -11    1    3    3    0    0 -0.34683193651E+01 -0.13829518533E+02 -0.47450563802E+01  0.15026655729E+02  0.51100000000E-03 0.  1.
        -12    1    3    3    0    0 -0.14249463549E+02 -0.62091165481E+00  0.22747195011E+01  0.14443236878E+02  0.00000000000E+00 0.  1.
</event>
<event>
 7    1  0.2974434E-011  0.5052886E+02  0.7816164E-02  0.1300439E+00
        -11   -1    0    0    0    0  0.00000000000E+00  0.00000000000E+00  0.45593999997E+02  0.45594000000E+02  0.51100000000E-03 0.  1.
         11   -1    0    0    0    0 -0.00000000000E+00 -0.00000000000E+00 -0.45593999997E+02  0.45594000000E+02  0.51100000000E-03 0. -1.
    9900012    2    1    2    0    0  0.29944592998E+02  0.13219288149E+02 -0.24119232911E+02  0.50528860496E+02  0.30000001963E+02 0.  0.
        -12    1    1    2    0    0 -0.29944592998E+02 -0.13219288149E+02  0.24119232911E+02  0.40659139504E+02  0.00000000000E+00 0.  1.
         11    1    3    3    0    0  0.39727052335E+01  0.12191472693E+02 -0.15285827672E+02  0.19951714743E+02  0.51100000000E-03 0. -1.
        -11    1    3    3    0    0  0.67129392000E+00 -0.34940798905E+01 -0.76894335293E+00  0.36401241668E+01  0.51100000000E-03 0.  1.
         12    1    3    3    0    0  0.25300593845E+02  0.45218953468E+01 -0.80644618861E+01  0.26937021586E+02  0.00000000000E+00 0. -1.
</event>
<event>
 7    1  0.2974434E-011  0.5052885E+02  0.7816164E-02  0.1300439E+00
        -11   -1    0    0    0    0  0.00000000000E+00  0.00000000000E+00  0.45593999997E+02  0.45594000000E+02  0.51100000000E-03 0.  1.
         11   -1    0    0    0    0 -0.00000000000E+00 -0.00000000000E+00 -0.45593999997E+02  0.45594000000E+02  0.51100000000E-03 0. -1.
    9900012    2    1    2    0    0 -0.37167411128E+02  0.15871131211E+02 -0.44561819404E+01  0.50528845885E+02  0.29999957552E+02 0.  0.
        -12    1    1    2    0    0  0.37167411128E+02 -0.15871131211E+02  0.44561819404E+01  0.40659154115E+02  0.00000000000E+00 0.  1.
         11    1    3    3    0    0 -0.21094593898E+02  0.10023365869E+02  0.59385210363E+01  0.24098045303E+02  0.51100000000E-03 0. -1.
        -11    1    3    3    0    0 -0.10691809345E+02  0.86484078277E+01  0.71772339102E+00  0.13770434711E+02  0.51100000000E-03 0.  1.
         12    1    3    3    0    0 -0.53810078853E+01 -0.28006424857E+01 -0.11112426368E+02  0.12660365870E+02  0.00000000000E+00 0. -1.
</event>
<event>
 7    1  0.2974434E-011  0.5052886E+02  0.7816164E-02  0.1300439E+00
        -11   -1    0    0    0    0  0.00000000000E+00  0.00000000000E+00  0.45593999997E+02  0.45594000000E+02  0.51100000000E-03 0. -1.
         11   -1    0    0    0    0 -0.00000000000E+00 -0.00000000000E+00 -0.45593999997E+02  0.45594000000E+02  0.51100000000E-03 0.  1.
    9900012    2    1    2    0    0 -0.19548411771E+01 -0.24757528421E+02  0.32193305125E+02  0.50528861883E+02  0.30000006180E+02 0.  0.
        -12    1    1    2    0    0  0.19548411771E+01  0.24757528421E+02 -0.32193305125E+02  0.40659138117E+02  0.00000000000E+00 0.  1.
         11    1    3    3    0    0  0.54198816057E+00  0.33429203679E+01  0.51244913808E+01  0.61424164565E+01  0.51100000000E-03 0.  1.
        -11    1    3    3    0    0  0.28570652188E+01 -0.90297406739E+01 -0.15341540244E+01  0.95944081180E+01  0.51100000000E-03 0. -1.
         12    1    3    3    0    0 -0.53538945565E+01 -0.19070708115E+02  0.28602967769E+02  0.34792037309E+02  0.00000000000E+00 0. -1.
</event>
<event>
 7    1  0.2974434E-011  0.5052885E+02  0.7816164E-02  0.1300439E+00
        -11   -1    0    0    0    0  0.00000000000E+00  0.00000000000E+00  0.45593999997E+02  0.45594000000E+02  0.51100000000E-03 0.  1.
         11   -1    0    0    0    0 -0.00000000000E+00 -0.00000000000E+00 -0.45593999997E+02  0.45594000000E+02  0.51100000000E-03 0. -1.
    9900012    2    1    2    0    0  0.37124280855E+02 -0.15100313403E+02  0.68508953746E+01  0.50528850214E+02  0.29999970712E+02 0.  0.
        -12    1    1    2    0    0 -0.37124280855E+02  0.15100313403E+02 -0.68508953746E+01  0.40659149786E+02  0.00000000000E+00 0.  1.
         11    1    3    3    0    0  0.79466952132E+01 -0.35094117034E+01  0.14486329231E+01  0.88070694855E+01  0.51100000000E-03 0. -1.
        -11    1    3    3    0    0  0.15193438687E+02  0.74289399408E+01  0.64262218332E+01  0.18092154518E+02  0.51100000000E-03 0.  1.
        -12    1    3    3    0    0  0.13984146954E+02 -0.19019841640E+02 -0.10239593817E+01  0.23629626211E+02  0.00000000000E+00 0.  1.
</event>
<event>
 7    1  0.2974434E-011  0.5052886E+02  0.7816164E-02  0.1300439E+00
        -11   -1    0    0    0    0  0.00000000000E+00  0.00000000000E+00  0.45593999997E+02  0.45594000000E+02  0.51100000000E-03 0.  1.
         11   -1    0    0    0    0 -0.00000000000E+00 -0.00000000000E+00 -0.45593999997E+02  0.45594000000E+02  0.51100000000E-03 0. -1.
    9900012    2    1    2    0    0 -0.27732079023E+02  0.28528099548E+02 -0.83812426106E+01  0.50528857136E+02  0.29999991750E+02 0.  0.
        -12    1    1    2    0    0  0.27732079023E+02 -0.28528099548E+02  0.83812426106E+01  0.40659142864E+02  0.00000000000E+00 0.  1.
         11    1    3    3    0    0 -0.98624223890E+01 -0.18550744354E+01 -0.33228783629E+01  0.10571196593E+02  0.51100000000E-03 0. -1.
        -11    1    3    3    0    0 -0.37597259214E+01  0.82442136366E-02  0.37670154017E+01  0.53222187355E+01  0.51100000000E-03 0.  1.
         12    1    3    3    0    0 -0.14109930713E+02  0.30374929770E+02 -0.88253796493E+01  0.34635441807E+02  0.00000000000E+00 0. -1.
</event>
<event>
 7    1  0.2974434E-011  0.5052890E+02  0.7816164E-02  0.1300439E+00
        -11   -1    0    0    0    0  0.00000000000E+00  0.00000000000E+00  0.45593999997E+02  0.45594000000E+02  0.51100000000E-03 0.  1.
         11   -1    0    0    0    0 -0.00000000000E+00 -0.00000000000E+00 -0.45593999997E+02  0.45594000000E+02  0.51100000000E-03 0. -1.
    9900012    2    1    2    0    0 -0.61408584343E+01  0.30534405494E+02 -0.26136220183E+02  0.50528904257E+02  0.30000134980E+02 0.  0.
        -12    1    1    2    0    0  0.61408584343E+01 -0.30534405494E+02  0.26136220183E+02  0.40659095743E+02  0.00000000000E+00 0.  1.
         11    1    3    3    0    0 -0.52605832552E+01  0.15488105537E+02 -0.10675498716E+02  0.19532573368E+02  0.51100000000E-03 0. -1.
        -11    1    3    3    0    0 -0.10605798522E+02  0.10577093063E+02 -0.44152814340E+01  0.15615779531E+02  0.51100000000E-03 0.  1.
        -12    1    3    3    0    0  0.97255233427E+01  0.44692068944E+01 -0.11045440033E+02  0.15380551358E+02  0.00000000000E+00 0.  1.
</event>
<event>
 7    1  0.2974434E-011  0.5052887E+02  0.7816164E-02  0.1300439E+00
        -11   -1    0    0    0    0  0.00000000000E+00  0.00000000000E+00  0.45593999997E+02  0.45594000000E+02  0.51100000000E-03 0.  1.
         11   -1    0    0    0    0 -0.00000000000E+00 -0.00000000000E+00 -0.45593999997E+02  0.45594000000E+02  0.51100000000E-03 0. -1.
    9900012    2    1    2    0    0 -0.39992836134E+02  0.62460691575E+00 -0.73039755952E+01  0.50528866520E+02  0.30000020274E+02 0.  0.
        -12    1    1    2    0    0  0.39992836134E+02 -0.62460691575E+00  0.73039755952E+01  0.40659133480E+02  0.00000000000E+00 0.  1.
         11    1    3    3    0    0 -0.29809616430E+02  0.18990241357E+01  0.46247080936E+00  0.29873623883E+02  0.51100000000E-03 0. -1.
        -11    1    3    3    0    0 -0.55022969701E+01  0.71537503080E+01 -0.14791354608E+01  0.91454500922E+01  0.51100000000E-03 0.  1.
         12    1    3    3    0    0 -0.46809227336E+01 -0.84281675279E+01 -0.62873109438E+01  0.11509792545E+02  0.00000000000E+00 0. -1.
</event>
<event>
 7    1  0.2974434E-011  0.5052887E+02  0.7816164E-02  0.1300439E+00
        -11   -1    0    0    0    0  0.00000000000E+00  0.00000000000E+00  0.45593999997E+02  0.45594000000E+02  0.51100000000E-03 0.  1.
         11   -1    0    0    0    0 -0.00000000000E+00 -0.00000000000E+00 -0.45593999997E+02  0.45594000000E+02  0.51100000000E-03 0. -1.
    9900012    2    1    2    0    0  0.30166318544E+02 -0.27228950973E+02  0.13198250794E+01  0.50528874532E+02  0.30000044626E+02 0.  0.
        -12    1    1    2    0    0 -0.30166318544E+02  0.27228950973E+02 -0.13198250794E+01  0.40659125468E+02  0.00000000000E+00 0.  1.
         11    1    3    3    0    0  0.82284302656E+01 -0.25396540533E+02 -0.11045605085E+01  0.26719120305E+02  0.51100000000E-03 0. -1.
        -11    1    3    3    0    0  0.42892763861E+01 -0.26067833831E+00  0.41921472304E+01  0.60033277251E+01  0.51100000000E-03 0.  1.
        -12    1    3    3    0    0  0.17648611893E+02 -0.15717321017E+01 -0.17677616425E+01  0.17806426502E+02  0.00000000000E+00 0.  1.
</event>
<event>
 7    1  0.2974434E-011  0.5052884E+02  0.7816164E-02  0.1300439E+00
        -11   -1    0    0    0    0  0.00000000000E+00  0.00000000000E+00  0.45593999997E+02  0.45594000000E+02  0.51100000000E-03 0. -1.
         11   -1    0    0    0    0 -0.00000000000E+00 -0.00000000000E+00 -0.45593999997E+02  0.45594000000E+02  0.51100000000E-03 0.  1.
    9900012    2    1    2    0    0 -0.37392119611E+02 -0.15940299188E+02 -0.95063830772E+00  0.50528837928E+02  0.29999933367E+02 0.  0.
        -12    1    1    2    0    0  0.37392119611E+02  0.15940299188E+02  0.95063830772E+00  0.40659162072E+02  0.00000000000E+00 0.  1.
         11    1    3    3    0    0 -0.37992066645E+01 -0.61731715897E+00 -0.26095891037E+01  0.46502695950E+01  0.51100000000E-03 0. -1.
        -11    1    3    3    0    0  0.46121160233E+01 -0.31201262314E+01  0.15188060966E+01  0.57717912412E+01  0.51100000000E-03 0.  1.
         12    1    3    3    0    0 -0.38205028970E+02 -0.12202855797E+02  0.14014469932E+00  0.40106777092E+02  0.00000000000E+00 0. -1.
</event>
<event>
 7    1  0.2974434E-011  0.5052885E+02  0.7816164E-02  0.1300439E+00
        -11   -1    0    0    0    0  0.00000000000E+00  0.00000000000E+00  0.45593999997E+02  0.45594000000E+02  0.51100000000E-03 0.  1.
         11   -1    0    0    0    0 -0.00000000000E+00 -0.00000000000E+00 -0.45593999997E+02  0.45594000000E+02  0.51100000000E-03 0. -1.
    9900012    2    1    2    0    0 -0.88739476322E+01 -0.23296457399E+02 -0.32120002385E+02  0.50528850634E+02  0.29999971988E+02 0.  0.
        -12    1    1    2    0    0  0.88739476322E+01  0.23296457399E+02  0.32120002385E+02  0.40659149366E+02  0.00000000000E+00 0.  1.
         11    1    3    3    0    0 -0.13326376290E+01  0.28723149962E+01 -0.23197299272E+01  0.39252087440E+01  0.51100000000E-03 0. -1.
        -11    1    3    3    0    0 -0.16013577353E+01 -0.14447589799E+02 -0.56044058849E+00  0.14546865350E+02  0.51100000000E-03 0.  1.
         12    1    3    3    0    0 -0.59399522679E+01 -0.11721182596E+02 -0.29239831870E+02  0.32056776540E+02  0.00000000000E+00 0. -1.
</event>
<event>
 7    1  0.2974434E-011  0.5052886E+02  0.7816164E-02  0.1300439E+00
        -11   -1    0    0    0    0  0.00000000000E+00  0.00000000000E+00  0.45593999997E+02  0.45594000000E+02  0.51100000000E-03 0.  1.
         11   -1    0    0    0    0 -0.00000000000E+00 -0.00000000000E+00 -0.45593999997E+02  0.45594000000E+02  0.51100000000E-03 0. -1.
    9900012    2    1    2    0    0  0.20695324196E+02  0.26226588763E+01 -0.34899730638E+02  0.50528856112E+02  0.29999988637E+02 0.  0.
        -12    1    1    2    0    0 -0.20695324196E+02 -0.26226588763E+01  0.34899730638E+02  0.40659143888E+02  0.00000000000E+00 0.  1.
         11    1    3    3    0    0  0.17604958009E+02  0.65147312930E+01 -0.34947397610E+02  0.39669848378E+02  0.51100000000E-03 0. -1.
        -11    1    3    3    0    0  0.48009952677E+01 -0.17551652518E+01 -0.36335827387E+01  0.62716093949E+01  0.51100000000E-03 0.  1.
         12    1    3    3    0    0 -0.17106290806E+01 -0.21369071649E+01  0.36812497114E+01  0.45873983390E+01  0.00000000000E+00 0. -1.
</event>
<event>
 7    1  0.2974434E-011  0.5052886E+02  0.7816164E-02  0.1300439E+00
        -11   -1    0    0    0    0  0.00000000000E+00  0.00000000000E+00  0.45593999997E+02  0.45594000000E+02  0.51100000000E-03 0. -1.
         11   -1    0    0    0    0 -0.00000000000E+00 -0.00000000000E+00 -0.45593999997E+02  0.45594000000E+02  0.51100000000E-03 0.  1.
    9900012    2    1    2    0    0 -0.11691212910E+02  0.34698900783E+02 -0.17676740957E+02  0.50528863933E+02  0.30000012411E+02 0.  0.
        -12    1    1    2    0    0  0.11691212910E+02 -0.34698900783E+02  0.17676740957E+02  0.40659136067E+02  0.00000000000E+00 0.  1.
         11    1    3    3    0    0 -0.96419113919E+01  0.11170363911E+01 -0.26514182272E+01  0.10062019900E+02  0.51100000000E-03 0. -1.
        -11    1    3    3    0    0 -0.50887620922E+01  0.14398321852E+01 -0.21342975965E+01  0.57029678979E+01  0.51100000000E-03 0.  1.
         12    1    3    3    0    0  0.30394605742E+01  0.32142032207E+02 -0.12891025133E+02  0.34763876135E+02  0.00000000000E+00 0. -1.
</event>
<event>
 7    1  0.2974434E-011  0.5052885E+02  0.7816164E-02  0.1300439E+00
        -11   -1    0    0    0    0  0.00000000000E+00  0.00000000000E+00  0.45593999997E+02  0.45594000000E+02  0.51100000000E-03 0.  1.
         11   -1    0    0    0    0 -0.00000000000E+00 -0.00000000000E+00 -0.45593999997E+02  0.45594000000E+02  0.51100000000E-03 0. -1.
    9900012    2    1    2    0    0 -0.33474675435E+02  0.17856830400E+02 -0.14620066611E+02  0.50528848077E+02  0.29999964215E+02 0.  0.
        -12    1    1    2    0    0  0.33474675435E+02 -0.17856830400E+02  0.14620066611E+02  0.40659151923E+02  0.00000000000E+00 0.  1.
         11    1    3    3    0    0 -0.16941974110E+02  0.81449554335E+01 -0.61003484037E+01  0.19763224349E+02  0.51100000000E-03 0. -1.
        -11    1    3    3    0    0 -0.18724927969E+02  0.12071597419E+02 -0.67905728986E+00  0.22289179230E+02  0.51100000000E-03 0.  1.
         12    1    3    3    0    0  0.21922266445E+01 -0.23597224521E+01 -0.78406609171E+01  0.84764444980E+01  0.00000000000E+00 0. -1.
</event>
<event>
 7    1  0.2974434E-011  0.5052887E+02  0.7816164E-02  0.1300439E+00
        -11   -1    0    0    0    0  0.00000000000E+00  0.00000000000E+00  0.45593999997E+02  0.45594000000E+02  0.51100000000E-03 0.  1.
         11   -1    0    0    0    0 -0.00000000000E+00 -0.00000000000E+00 -0.45593999997E+02  0.45594000000E+02  0.51100000000E-03 0. -1.
    9900012    2    1    2    0    0 -0.58594587075E+01 -0.38245722069E+02  0.12493862755E+02  0.50528866715E+02  0.30000020868E+02 0.  0.
        -12    1    1    2    0    0  0.58594587075E+01  0.38245722069E+02 -0.12493862755E+02  0.40659133285E+02  0.00000000000E+00 0.  1.
         11    1    3    3    0    0 -0.59801522027E+01 -0.11164438662E+02  0.20917008620E+01  0.12836748956E+02  0.51100000000E-03 0. -1.
        -11    1    3    3    0    0  0.15338176382E+00 -0.24328428689E+02  0.17572466708E+02  0.30011457061E+02  0.51100000000E-03 0.  1.
         12    1    3    3    0    0 -0.32688268579E-01 -0.27528547180E+01 -0.71703048153E+01  0.76806606985E+01  0.00000000000E+00 0. -1.
</event>
<event>
 7    1  0.2974434E-011  0.5052886E+02  0.7816164E-02  0.1300439E+00
        -11   -1    0    0    0    0  0.00000000000E+00  0.00000000000E+00  0.45593999997E+02  0.45594000000E+02  0.51100000000E-03 0.  1.
         11   -1    0    0    0    0 -0.00000000000E+00 -0.00000000000E+00 -0.45593999997E+02  0.45594000000E+02  0.51100000000E-03 0. -1.
    9900012    2    1    2    0    0  0.23191412376E+02  0.33372118668E+02  0.12749629434E+01  0.50528862738E+02  0.30000008779E+02 0.  0.
        -12    1    1    2    0    0 -0.23191412376E+02 -0.33372118668E+02 -0.12749629434E+01  0.40659137262E+02  0.00000000000E+00 0.  1.
         11    1    3    3    0    0  0.10722145456E+02  0.47752870792E+01  0.42104047112E+00  0.11745000860E+02  0.51100000000E-03 0. -1.
        -11    1    3    3    0    0  0.12210816571E+02  0.43684999446E+01 -0.49286294460E+01  0.13873688103E+02  0.51100000000E-03 0.  1.
         12    1    3    3    0    0  0.25845034918E+00  0.24228331644E+02  0.57825519183E+01  0.24910173775E+02  0.00000000000E+00 0. -1.
</event>
<event>
 7    1  0.2974434E-011  0.5052886E+02  0.7816164E-02  0.1300439E+00
        -11   -1    0    0    0    0  0.00000000000E+00  0.00000000000E+00  0.45593999997E+02  0.45594000000E+02  0.51100000000E-03 0. -1.
         11   -1    0    0    0    0 -0.00000000000E+00 -0.00000000000E+00 -0.45593999997E+02  0.45594000000E+02  0.51100000000E-03 0.  1.
    9900012    2    1    2    0    0 -0.66508213897E+01  0.27203584087E+02  0.29477059333E+02  0.50528862783E+02  0.30000008914E+02 0.  0.
        -12    1    1    2    0    0  0.66508213897E+01 -0.27203584087E+02 -0.29477059333E+02  0.40659137217E+02  0.00000000000E+00 0.  1.
         11    1    3    3    0    0  0.18742060382E+01  0.23129229316E+01  0.62410161093E+01  0.69146614594E+01  0.51100000000E-03 0. -1.
        -11    1    3    3    0    0 -0.67800876240E+01  0.27868059558E+02  0.26363552662E+02  0.38956838179E+02  0.51100000000E-03 0.  1.
        -12    1    3    3    0    0 -0.17449398039E+01 -0.29773984025E+01 -0.31275094384E+01  0.46573631438E+01  0.00000000000E+00 0.  1.
</event>
<event>
 7    1  0.2974434E-011  0.5052886E+02  0.7816164E-02  0.1300439E+00
        -11   -1    0    0    0    0  0.00000000000E+00  0.00000000000E+00  0.45593999997E+02  0.45594000000E+02  0.51100000000E-03 0.  1.
         11   -1    0    0    0    0 -0.00000000000E+00 -0.00000000000E+00 -0.45593999997E+02  0.45594000000E+02  0.51100000000E-03 0. -1.
    9900012    2    1    2    0    0 -0.84126971015E+01  0.73182060558E+01 -0.39100330927E+02  0.50528862147E+02  0.30000006981E+02 0.  0.
        -12    1    1    2    0    0  0.84126971015E+01 -0.73182060558E+01  0.39100330927E+02  0.40659137853E+02  0.00000000000E+00 0.  1.
         11    1    3    3    0    0  0.76246085578E+01  0.49783532023E+01 -0.65241265280E+01  0.11201914278E+02  0.51100000000E-03 0. -1.
        -11    1    3    3    0    0 -0.17818099396E+01  0.68156715230E+01 -0.92836465054E+01  0.11653940006E+02  0.51100000000E-03 0.  1.
        -12    1    3    3    0    0 -0.14255495720E+02 -0.44758186695E+01 -0.23292557893E+02  0.27673007863E+02  0.00000000000E+00 0.  1.
</event>
<event>
 7    1  0.2974434E-011  0.5052886E+02  0.7816164E-02  0.1300439E+00
        -11   -1    0    0    0    0  0.00000000000E+00  0.00000000000E+00  0.45593999997E+02  0.45594000000E+02  0.51100000000E-03 0.  1.
         11   -1    0    0    0    0 -0.00000000000E+00 -0.00000000000E+00 -0.45593999997E+02  0.45594000000E+02  0.51100000000E-03 0. -1.
    9900012    2    1    2    0    0 -0.20089997189E+01  0.34368336421E+02 -0.21632086758E+02  0.50528858276E+02  0.29999995215E+02 0.  0.
        -12    1    1    2    0    0  0.20089997189E+01 -0.34368336421E+02  0.21632086758E+02  0.40659141724E+02  0.00000000000E+00 0.  1.
         11    1    3    3    0    0 -0.23456484376E+01  0.16614276685E+01  0.27214515045E+01  0.39583717666E+01  0.51100000000E-03 0. -1.
        -11    1    3    3    0    0 -0.55234732457E+01  0.11733769579E+02  0.11677407782E+01  0.13021279661E+02  0.51100000000E-03 0.  1.
         12    1    3    3    0    0  0.58601219644E+01  0.20973139174E+02 -0.25521279041E+02  0.33549206848E+02  0.00000000000E+00 0. -1.
</event>
<event>
 7    1  0.2974434E-011  0.5052885E+02  0.7816164E-02  0.1300439E+00
        -11   -1    0    0    0    0  0.00000000000E+00  0.00000000000E+00  0.45593999997E+02  0.45594000000E+02  0.51100000000E-03 0.  1.
         11   -1    0    0    0    0 -0.00000000000E+00 -0.00000000000E+00 -0.45593999997E+02  0.45594000000E+02  0.51100000000E-03 0. -1.
    9900012    2    1    2    0    0  0.31843607647E+02  0.22480656536E+02 -0.11565943696E+02  0.50528851953E+02  0.29999975997E+02 0.  0.
        -12    1    1    2    0    0 -0.31843607647E+02 -0.22480656536E+02  0.11565943696E+02  0.40659148047E+02  0.00000000000E+00 0.  1.
         11    1    3    3    0    0  0.22423317358E+02  0.16724579067E+02 -0.71741967191E+01  0.28878812391E+02  0.51100000000E-03 0. -1.
        -11    1    3    3    0    0  0.10184604541E+02 -0.41839048601E+01 -0.38565104206E+01  0.11666357719E+02  0.51100000000E-03 0.  1.
        -12    1    3    3    0    0 -0.76431425166E+00  0.99399823287E+01 -0.53523655658E+00  0.99836818430E+01  0.00000000000E+00 0.  1.
</event>
<event>
 7    1  0.2974434E-011  0.5052888E+02  0.7816164E-02  0.1300439E+00
        -11   -1    0    0    0    0  0.00000000000E+00  0.00000000000E+00  0.45593999997E+02  0.45594000000E+02  0.51100000000E-03 0.  1.
         11   -1    0    0    0    0 -0.00000000000E+00 -0.00000000000E+00 -0.45593999997E+02  0.45594000000E+02  0.51100000000E-03 0. -1.
    9900012    2    1    2    0    0 -0.12987069408E+01 -0.21930871947E+02 -0.34212780911E+02  0.50528878493E+02  0.30000056667E+02 0.  0.
        -12    1    1    2    0    0  0.12987069408E+01  0.21930871947E+02  0.34212780911E+02  0.40659121507E+02  0.00000000000E+00 0.  1.
         11    1    3    3    0    0 -0.58095999077E+01 -0.16464636231E+02 -0.21259690331E+02  0.27510182306E+02  0.51100000000E-03 0. -1.
        -11    1    3    3    0    0  0.25156918879E+01 -0.88301197213E+01 -0.15735908625E+02  0.18218631685E+02  0.51100000000E-03 0.  1.
        -12    1    3    3    0    0  0.19952010790E+01  0.33638840053E+01  0.27828180447E+01  0.48000645013E+01  0.00000000000E+00 0.  1.
</event>
<event>
 7    1  0.2974434E-011  0.5052887E+02  0.7816164E-02  0.1300439E+00
        -11   -1    0    0    0    0  0.00000000000E+00  0.00000000000E+00  0.45593999997E+02  0.45594000000E+02  0.51100000000E-03 0.  1.
         11   -1    0    0    0    0 -0.00000000000E+00 -0.00000000000E+00 -0.45593999997E+02  0.45594000000E+02  0.51100000000E-03 0. -1.
    9900012    2    1    2    0    0 -0.17232819529E+02 -0.31034239230E+02 -0.19826021974E+02  0.50528865468E+02  0.30000017078E+02 0.  0.
        -12    1    1    2    0    0  0.17232819529E+02  0.31034239230E+02  0.19826021974E+02  0.40659134532E+02  0.00000000000E+00 0.  1.
         11    1    3    3    0    0 -0.23304667783E+01 -0.11200095812E+02 -0.10642347419E+02  0.15624748972E+02  0.51100000000E-03 0.  1.
        -11    1    3    3    0    0 -0.87777390535E+01  0.18765991361E+01  0.27447689440E+01  0.93863775775E+01  0.51100000000E-03 0. -1.
         12    1    3    3    0    0 -0.61246136976E+01 -0.21710742554E+02 -0.11928443500E+02  0.25517738919E+02  0.00000000000E+00 0. -1.
</event>
<event>
 7    1  0.2974434E-011  0.5052885E+02  0.7816164E-02  0.1300439E+00
        -11   -1    0    0    0    0  0.00000000000E+00  0.00000000000E+00  0.45593999997E+02  0.45594000000E+02  0.51100000000E-03 0. -1.
         11   -1    0    0    0    0 -0.00000000000E+00 -0.00000000000E+00 -0.45593999997E+02  0.45594000000E+02  0.51100000000E-03 0.  1.
    9900012    2    1    2    0    0 -0.14353173807E+02  0.22496150100E+02  0.30676963171E+02  0.50528850513E+02  0.29999971618E+02 0.  0.
        -12    1    1    2    0    0  0.14353173807E+02 -0.22496150100E+02 -0.30676963171E+02  0.40659149487E+02  0.00000000000E+00 0.  1.
         11    1    3    3    0    0  0.30953745217E+01  0.34268569563E+01  0.11025867169E+02  0.11953846206E+02  0.51100000000E-03 0. -1.
        -11    1    3    3    0    0  0.36957534074E+01  0.90897375411E+01  0.59447631214E+01  0.11472668855E+02  0.51100000000E-03 0.  1.
        -12    1    3    3    0    0 -0.21144301736E+02  0.99795556026E+01  0.13706332881E+02  0.27102335452E+02  0.00000000000E+00 0.  1.
</event>
<event>
 7    1  0.2974434E-011  0.5052885E+02  0.7816164E-02  0.1300439E+00
        -11   -1    0    0    0    0  0.00000000000E+00  0.00000000000E+00  0.45593999997E+02  0.45594000000E+02  0.51100000000E-03 0.  1.
         11   -1    0    0    0    0 -0.00000000000E+00 -0.00000000000E+00 -0.45593999997E+02  0.45594000000E+02  0.51100000000E-03 0. -1.
    9900012    2    1    2    0    0  0.12279699353E+02  0.35500427560E+02 -0.15559393121E+02  0.50528854812E+02  0.29999984686E+02 0.  0.
        -12    1    1    2    0    0 -0.12279699353E+02 -0.35500427560E+02  0.15559393121E+02  0.40659145188E+02  0.00000000000E+00 0.  1.
         11    1    3    3    0    0  0.10066002332E+02  0.35935236243E+02 -0.90856491324E+01  0.38408522846E+02  0.51100000000E-03 0. -1.
        -11    1    3    3    0    0 -0.52125937831E+00  0.23103940470E+01  0.18061230580E+01  0.29785420517E+01  0.51100000000E-03 0.  1.
         12    1    3    3    0    0  0.27349563989E+01 -0.27452027296E+01 -0.82798670465E+01  0.91417899143E+01  0.00000000000E+00 0. -1.
</event>
<event>
 7    1  0.2974434E-011  0.5052885E+02  0.7816164E-02  0.1300439E+00
        -11   -1    0    0    0    0  0.00000000000E+00  0.00000000000E+00  0.45593999997E+02  0.45594000000E+02  0.51100000000E-03 0. -1.
         11   -1    0    0    0    0 -0.00000000000E+00 -0.00000000000E+00 -0.45593999997E+02  0.45594000000E+02  0.51100000000E-03 0.  1.
    9900012    2    1    2    0    0 -0.60555633431E+01  0.24363019857E+02  0.31983429023E+02  0.50528852000E+02  0.29999976140E+02 0.  0.
        -12    1    1    2    0    0  0.60555633431E+01 -0.24363019857E+02 -0.31983429023E+02  0.40659148000E+02  0.00000000000E+00 0.  1.
         11    1    3    3    0    0  0.63252700430E+01  0.79870262270E+01  0.19331254287E+02  0.21851750997E+02  0.51100000000E-03 0. -1.
        -11    1    3    3    0    0 -0.13541236751E+01 -0.29243863204E+01  0.27285604565E+00  0.32342134996E+01  0.51100000000E-03 0.  1.
        -12    1    3    3    0    0 -0.11026709711E+02  0.19300379950E+02  0.12379318691E+02  0.25442887504E+02  0.00000000000E+00 0.  1.
</event>
<event>
 7    1  0.2974434E-011  0.5052877E+02  0.7816164E-02  0.1300439E+00
        -11   -1    0    0    0    0  0.00000000000E+00  0.00000000000E+00  0.45593999997E+02  0.45594000000E+02  0.51100000000E-03 0.  1.
         11   -1    0    0    0    0 -0.00000000000E+00 -0.00000000000E+00 -0.45593999997E+02  0.45594000000E+02  0.51100000000E-03 0. -1.
    9900012    2    1    2    0    0 -0.31911227956E+02 -0.22541787122E+02  0.11256743944E+02  0.50528770782E+02  0.29999729268E+02 0.  0.
        -12    1    1    2    0    0  0.31911227956E+02  0.22541787122E+02 -0.11256743944E+02  0.40659229218E+02  0.00000000000E+00 0.  1.
         11    1    3    3    0    0 -0.17427880500E+02 -0.44181634658E+01  0.47696403686E+01  0.18601092889E+02  0.51100000000E-03 0. -1.
        -11    1    3    3    0    0 -0.10232585180E+02 -0.23403775286E+01 -0.53158290942E+01  0.11766104099E+02  0.51100000000E-03 0.  1.
        -12    1    3    3    0    0 -0.42507622760E+01 -0.15783246128E+02  0.11802932670E+02  0.20161573795E+02  0.00000000000E+00 0.  1.
</event>
<event>
 7    1  0.2974434E-011  0.5052886E+02  0.7816164E-02  0.1300439E+00
        -11   -1    0    0    0    0  0.00000000000E+00  0.00000000000E+00  0.45593999997E+02  0.45594000000E+02  0.51100000000E-03 0. -1.
         11   -1    0    0    0    0 -0.00000000000E+00 -0.00000000000E+00 -0.45593999997E+02  0.45594000000E+02  0.51100000000E-03 0.  1.
    9900012    2    1    2    0    0  0.28903313430E+02  0.22464432732E+02  0.17695020918E+02  0.50528855512E+02  0.29999986813E+02 0.  0.
        -12    1    1    2    0    0 -0.28903313430E+02 -0.22464432732E+02 -0.17695020918E+02  0.40659144488E+02  0.00000000000E+00 0.  1.
         11    1    3    3    0    0  0.11417562283E+01  0.83745142322E+01  0.40220159893E+01  0.93601660664E+01  0.51100000000E-03 0. -1.
        -11    1    3    3    0    0 -0.38721247380E+01  0.39564347030E+01  0.28918823587E+01  0.62457753228E+01  0.51100000000E-03 0.  1.
        -12    1    3    3    0    0  0.31633681940E+02  0.10133483797E+02  0.10781122570E+02  0.34922914123E+02  0.00000000000E+00 0.  1.
</event>
<event>
 7    1  0.2974434E-011  0.5052886E+02  0.7816164E-02  0.1300439E+00
        -11   -1    0    0    0    0  0.00000000000E+00  0.00000000000E+00  0.45593999997E+02  0.45594000000E+02  0.51100000000E-03 0.  1.
         11   -1    0    0    0    0 -0.00000000000E+00 -0.00000000000E+00 -0.45593999997E+02  0.45594000000E+02  0.51100000000E-03 0. -1.
    9900012    2    1    2    0    0 -0.23182912466E+02  0.33383168781E+02 -0.11322839144E+01  0.50528862588E+02  0.30000008323E+02 0.  0.
        -12    1    1    2    0    0  0.23182912466E+02 -0.33383168781E+02  0.11322839144E+01  0.40659137412E+02  0.00000000000E+00 0.  1.
         11    1    3    3    0    0 -0.30375066300E+01  0.18464301731E+02 -0.13151613531E+01  0.18758638932E+02  0.51100000000E-03 0. -1.
        -11    1    3    3    0    0 -0.11275981679E+02  0.17992539384E+02  0.40521877479E+01  0.21617110401E+02  0.51100000000E-03 0.  1.
        -12    1    3    3    0    0 -0.88694241569E+01 -0.30736723341E+01 -0.38693103092E+01  0.10153113255E+02  0.00000000000E+00 0.  1.
</event>
<event>
 7    1  0.2974434E-011  0.5052885E+02  0.7816164E-02  0.1300439E+00
        -11   -1    0    0    0    0  0.00000000000E+00  0.00000000000E+00  0.45593999997E+02  0.45594000000E+02  0.51100000000E-03 0.  1.
         11   -1    0    0    0    0 -0.00000000000E+00 -0.00000000000E+00 -0.45593999997E+02  0.45594000000E+02  0.51100000000E-03 0. -1.
    9900012    2    1    2    0    0 -0.16670944247E+02  0.52146575666E+01 -0.36715852784E+02  0.50528845050E+02  0.29999955013E+02 0.  0.
        -12    1    1    2    0    0  0.16670944247E+02 -0.52146575666E+01  0.36715852784E+02  0.40659154950E+02  0.00000000000E+00 0.  1.
         11    1    3    3    0    0  0.23703805462E+01  0.55114184438E+01 -0.77759355407E+01  0.98213853906E+01  0.51100000000E-03 0. -1.
        -11    1    3    3    0    0  0.27349873197E+01 -0.28368840091E+01  0.53088013506E+00  0.39761665582E+01  0.51100000000E-03 0.  1.
        -12    1    3    3    0    0 -0.21776312112E+02  0.25401231318E+01 -0.29470797378E+02  0.36731293101E+02  0.00000000000E+00 0.  1.
</event>
<event>
 7    1  0.2974434E-011  0.5052887E+02  0.7816164E-02  0.1300439E+00
        -11   -1    0    0    0    0  0.00000000000E+00  0.00000000000E+00  0.45593999997E+02  0.45594000000E+02  0.51100000000E-03 0. -1.
         11   -1    0    0    0    0 -0.00000000000E+00 -0.00000000000E+00 -0.45593999997E+02  0.45594000000E+02  0.51100000000E-03 0.  1.
    9900012    2    1    2    0    0 -0.29688694704E+02  0.22249221253E+02 -0.16634864517E+02  0.50528866252E+02  0.30000019461E+02 0.  0.
        -12    1    1    2    0    0  0.29688694704E+02 -0.22249221253E+02  0.16634864517E+02  0.40659133748E+02  0.00000000000E+00 0.  1.
         11    1    3    3    0    0  0.11258480987E+01  0.95892317605E+01 -0.80999806702E+01  0.12602800753E+02  0.51100000000E-03 0. -1.
        -11    1    3    3    0    0 -0.12736996773E-01  0.21613718632E+01 -0.46821232057E+01  0.51569340249E+01  0.51100000000E-03 0.  1.
         12    1    3    3    0    0 -0.30801805806E+02  0.10498617629E+02 -0.38527606413E+01  0.32769131475E+02  0.00000000000E+00 0. -1.
</event>
<event>
 7    1  0.3324159E-011  0.5052886E+02  0.7816164E-02  0.1300439E+00
        -11   -1    0    0    0    0  0.00000000000E+00  0.00000000000E+00  0.45593999997E+02  0.45594000000E+02  0.51100000000E-03 0. -1.
         11   -1    0    0    0    0 -0.00000000000E+00 -0.00000000000E+00 -0.45593999997E+02  0.45594000000E+02  0.51100000000E-03 0.  1.
    9900012    2    1    2    0    0  0.38362685513E+02  0.82071434417E+01 -0.10682356625E+02  0.50528860975E+02  0.30000003418E+02 0.  0.
        -12    1    1    2    0    0 -0.38362685513E+02 -0.82071434417E+01  0.10682356625E+02  0.40659139025E+02  0.00000000000E+00 0.  1.
         11    1    3    3    0    0  0.31380905382E+02  0.21428847068E+01 -0.28160090188E+01  0.31579789178E+02  0.51100000000E-03 0. -1.
        -11    1    3    3    0    0  0.98363177284E+01  0.73556251334E+01 -0.93943681533E+01  0.15463263589E+02  0.51100000000E-03 0.  1.
        -12    1    3    3    0    0 -0.28545375975E+01 -0.12913663985E+01  0.15280205471E+01  0.34858082080E+01  0.00000000000E+00 0.  1.
</event>
<event>
 7    1  0.2974434E-011  0.5052886E+02  0.7816164E-02  0.1300439E+00
        -11   -1    0    0    0    0  0.00000000000E+00  0.00000000000E+00  0.45593999997E+02  0.45594000000E+02  0.51100000000E-03 0. -1.
         11   -1    0    0    0    0 -0.00000000000E+00 -0.00000000000E+00 -0.45593999997E+02  0.45594000000E+02  0.51100000000E-03 0.  1.
    9900012    2    1    2    0    0 -0.61753169950E+01  0.25716304344E+02  0.30882078493E+02  0.50528860546E+02  0.30000002114E+02 0.  0.
        -12    1    1    2    0    0  0.61753169950E+01 -0.25716304344E+02 -0.30882078493E+02  0.40659139454E+02  0.00000000000E+00 0.  1.
         11    1    3    3    0    0 -0.25487423966E+01  0.92536900309E+01  0.44309092797E+01  0.10571651919E+02  0.51100000000E-03 0. -1.
        -11    1    3    3    0    0  0.80701323882E+01 -0.73150752459E-01  0.14064165803E+02  0.16215213468E+02  0.51100000000E-03 0.  1.
         12    1    3    3    0    0 -0.11696706987E+02  0.16535765066E+02  0.12387003410E+02  0.23741995159E+02  0.00000000000E+00 0. -1.
</event>
<event>
 7    1  0.2974434E-011  0.5052886E+02  0.7816164E-02  0.1300439E+00
        -11   -1    0    0    0    0  0.00000000000E+00  0.00000000000E+00  0.45593999997E+02  0.45594000000E+02  0.51100000000E-03 0.  1.
         11   -1    0    0    0    0 -0.00000000000E+00 -0.00000000000E+00 -0.45593999997E+02  0.45594000000E+02  0.51100000000E-03 0. -1.
    9900012    2    1    2    0    0  0.29392065026E+02 -0.12177156683E+02 -0.25317764821E+02  0.50528857770E+02  0.29999993677E+02 0.  0.
        -12    1    1    2    0    0 -0.29392065026E+02  0.12177156683E+02  0.25317764821E+02  0.40659142230E+02  0.00000000000E+00 0.  1.
         11    1    3    3    0    0  0.46462931123E+01 -0.60405089196E+01 -0.10071578408E+02  0.12629825002E+02  0.51100000000E-03 0. -1.
        -11    1    3    3    0    0  0.12774977301E+02 -0.11505688107E+02 -0.17562006519E+02  0.24576512712E+02  0.51100000000E-03 0.  1.
        -12    1    3    3    0    0  0.11970794613E+02  0.53690403438E+01  0.23158201059E+01  0.13322520056E+02  0.00000000000E+00 0.  1.
</event>
<event>
 7    1  0.2974434E-011  0.5052886E+02  0.7816164E-02  0.1300439E+00
        -11   -1    0    0    0    0  0.00000000000E+00  0.00000000000E+00  0.45593999997E+02  0.45594000000E+02  0.51100000000E-03 0. -1.
         11   -1    0    0    0    0 -0.00000000000E+00 -0.00000000000E+00 -0.45593999997E+02  0.45594000000E+02  0.51100000000E-03 0.  1.
    9900012    2    1    2    0    0  0.14868382467E+02 -0.14367956440E+02  0.35009408263E+02  0.50528860359E+02  0.30000001546E+02 0.  0.
        -12    1    1    2    0    0 -0.14868382467E+02  0.14367956440E+02 -0.35009408263E+02  0.40659139641E+02  0.00000000000E+00 0.  1.
         11    1    3    3    0    0  0.66856132431E+01 -0.17801877532E+02  0.28025920363E+02  0.33868222282E+02  0.51100000000E-03 0.  1.
        -11    1    3    3    0    0 -0.10940221452E+01  0.26897139273E+01  0.67534212863E+01  0.73512002283E+01  0.51100000000E-03 0. -1.
        -12    1    3    3    0    0  0.92767913691E+01  0.74420716401E+00  0.23006661408E+00  0.93094378485E+01  0.00000000000E+00 0.  1.
</event>
<event>
 7    1  0.2974434E-011  0.5052888E+02  0.7816164E-02  0.1300439E+00
        -11   -1    0    0    0    0  0.00000000000E+00  0.00000000000E+00  0.45593999997E+02  0.45594000000E+02  0.51100000000E-03 0.  1.
         11   -1    0    0    0    0 -0.00000000000E+00 -0.00000000000E+00 -0.45593999997E+02  0.45594000000E+02  0.51100000000E-03 0. -1.
    9900012    2    1    2    0    0  0.21319999352E+02 -0.28915062822E+00 -0.34619906715E+02  0.50528881448E+02  0.30000065650E+02 0.  0.
        -12    1    1    2    0    0 -0.21319999352E+02  0.28915062822E+00  0.34619906715E+02  0.40659118552E+02  0.00000000000E+00 0.  1.
         11    1    3    3    0    0 -0.34816291508E+01 -0.14229741394E+00  0.39346275746E+00  0.35066798115E+01  0.51100000000E-03 0. -1.
        -11    1    3    3    0    0  0.80048420515E+01  0.89369021970E+01 -0.10459221243E+02  0.15916690184E+02  0.51100000000E-03 0.  1.
         12    1    3    3    0    0  0.16796786452E+02 -0.90837554113E+01 -0.24554148229E+02  0.31105511453E+02  0.00000000000E+00 0. -1.
</event>
<event>
 7    1  0.2974434E-011  0.5052888E+02  0.7816164E-02  0.1300439E+00
        -11   -1    0    0    0    0  0.00000000000E+00  0.00000000000E+00  0.45593999997E+02  0.45594000000E+02  0.51100000000E-03 0.  1.
         11   -1    0    0    0    0 -0.00000000000E+00 -0.00000000000E+00 -0.45593999997E+02  0.45594000000E+02  0.51100000000E-03 0. -1.
    9900012    2    1    2    0    0 -0.74363166508E+01  0.26718606541E+02 -0.29731827233E+02  0.50528876897E+02  0.30000051817E+02 0.  0.
        -12    1    1    2    0    0  0.74363166508E+01 -0.26718606541E+02  0.29731827233E+02  0.40659123103E+02  0.00000000000E+00 0.  1.
         11    1    3    3    0    0 -0.68479264512E+01  0.11601370514E+02  0.10713481926E+01  0.13514202962E+02  0.51100000000E-03 0. -1.
        -11    1    3    3    0    0  0.22543598057E+01  0.27872868545E+01  0.13661577476E+00  0.35874462050E+01  0.51100000000E-03 0.  1.
         12    1    3    3    0    0 -0.28427500054E+01  0.12329949173E+02 -0.30939791201E+02  0.33427227730E+02  0.00000000000E+00 0. -1.
</event>
<event>
 7    1  0.2974434E-011  0.5052886E+02  0.7816164E-02  0.1300439E+00
        -11   -1    0    0    0    0  0.00000000000E+00  0.00000000000E+00  0.45593999997E+02  0.45594000000E+02  0.51100000000E-03 0.  1.
         11   -1    0    0    0    0 -0.00000000000E+00 -0.00000000000E+00 -0.45593999997E+02  0.45594000000E+02  0.51100000000E-03 0. -1.
    9900012    2    1    2    0    0  0.35605259863E+02 -0.20493460508E+01 -0.19525152975E+02  0.50528856528E+02  0.29999989903E+02 0.  0.
        -12    1    1    2    0    0 -0.35605259863E+02  0.20493460508E+01  0.19525152975E+02  0.40659143472E+02  0.00000000000E+00 0.  1.
         11    1    3    3    0    0  0.11222475566E+02  0.49936032192E+01 -0.70285339651E+01  0.14152042994E+02  0.51100000000E-03 0. -1.
        -11    1    3    3    0    0  0.28010055311E+02 -0.25743053271E+01 -0.85525542822E+01  0.29399599172E+02  0.51100000000E-03 0.  1.
        -12    1    3    3    0    0 -0.36272710135E+01 -0.44686439428E+01 -0.39440647275E+01  0.69772143630E+01  0.00000000000E+00 0.  1.
</event>
<event>
 7    1  0.2974434E-011  0.5052875E+02  0.7816164E-02  0.1300439E+00
        -11   -1    0    0    0    0  0.00000000000E+00  0.00000000000E+00  0.45593999997E+02  0.45594000000E+02  0.51100000000E-03 0.  1.
         11   -1    0    0    0    0 -0.00000000000E+00 -0.00000000000E+00 -0.45593999997E+02  0.45594000000E+02  0.51100000000E-03 0. -1.
    9900012    2    1    2    0    0  0.57456936070E+00 -0.27176363446E+02 -0.30237218639E+02  0.50528754420E+02  0.29999679535E+02 0.  0.
        -12    1    1    2    0    0 -0.57456936070E+00  0.27176363446E+02  0.30237218639E+02  0.40659245580E+02  0.00000000000E+00 0.  1.
         11    1    3    3    0    0  0.13535610227E+01  0.19322335050E+01 -0.19702818555E+01  0.30737053553E+01  0.51100000000E-03 0. -1.
        -11    1    3    3    0    0 -0.19692164001E+01 -0.23240721060E+02 -0.55675409547E+01  0.23979291923E+02  0.51100000000E-03 0.  1.
         12    1    3    3    0    0  0.11902247381E+01 -0.58678758915E+01 -0.22699395828E+02  0.23475757142E+02  0.00000000000E+00 0. -1.
</event>
<event>
 7    1  0.2974434E-011  0.5052885E+02  0.7816164E-02  0.1300439E+00
        -11   -1    0    0    0    0  0.00000000000E+00  0.00000000000E+00  0.45593999997E+02  0.45594000000E+02  0.51100000000E-03 0. -1.
         11   -1    0    0    0    0 -0.00000000000E+00 -0.00000000000E+00 -0.45593999997E+02  0.45594000000E+02  0.51100000000E-03 0.  1.
    9900012    2    1    2    0    0  0.10969246864E+02 -0.35581159318E+02  0.16334728849E+02  0.50528847995E+02  0.29999963967E+02 0.  0.
        -12    1    1    2    0    0 -0.10969246864E+02  0.35581159318E+02 -0.16334728849E+02  0.40659152005E+02  0.00000000000E+00 0.  1.
         11    1    3    3    0    0 -0.84350562697E+00 -0.25984313681E+01  0.14547052001E+02  0.14801353637E+02  0.51100000000E-03 0. -1.
        -11    1    3    3    0    0  0.95188714374E+00 -0.78411647437E+00 -0.10615945811E+01  0.16272403312E+01  0.51100000000E-03 0.  1.
        -12    1    3    3    0    0  0.10860865347E+02 -0.32198611475E+02  0.28492714292E+01  0.34100254027E+02  0.00000000000E+00 0.  1.
</event>
<event>
 7    1  0.2974434E-011  0.5052886E+02  0.7816164E-02  0.1300439E+00
        -11   -1    0    0    0    0  0.00000000000E+00  0.00000000000E+00  0.45593999997E+02  0.45594000000E+02  0.51100000000E-03 0.  1.
         11   -1    0    0    0    0 -0.00000000000E+00 -0.00000000000E+00 -0.45593999997E+02  0.45594000000E+02  0.51100000000E-03 0. -1.
    9900012    2    1    2    0    0 -0.18850611225E+02 -0.21427505649E+01 -0.35961493260E+02  0.50528856859E+02  0.29999990907E+02 0.  0.
        -12    1    1    2    0    0  0.18850611225E+02  0.21427505649E+01  0.35961493260E+02  0.40659143141E+02  0.00000000000E+00 0.  1.
         11    1    3    3    0    0 -0.14361474065E+02 -0.54463618889E+01 -0.15357959206E+02  0.21720536512E+02  0.51100000000E-03 0. -1.
        -11    1    3    3    0    0 -0.95368166726E+01  0.77593033295E+01 -0.84631104538E+01  0.14925880182E+02  0.51100000000E-03 0.  1.
        -12    1    3    3    0    0  0.50476795130E+01 -0.44556920055E+01 -0.12140423600E+02  0.13882440164E+02  0.00000000000E+00 0.  1.
</event>
<event>
 7    1  0.2974434E-011  0.5052886E+02  0.7816164E-02  0.1300439E+00
        -11   -1    0    0    0    0  0.00000000000E+00  0.00000000000E+00  0.45593999997E+02  0.45594000000E+02  0.51100000000E-03 0. -1.
         11   -1    0    0    0    0 -0.00000000000E+00 -0.00000000000E+00 -0.45593999997E+02  0.45594000000E+02  0.51100000000E-03 0.  1.
    9900012    2    1    2    0    0 -0.18112840529E+02  0.35597503814E+02  0.76097823300E+01  0.50528855187E+02  0.29999985827E+02 0.  0.
        -12    1    1    2    0    0  0.18112840529E+02 -0.35597503814E+02 -0.76097823300E+01  0.40659144813E+02  0.00000000000E+00 0.  1.
         11    1    3    3    0    0 -0.11685250401E+02  0.29824626948E+02 -0.48489541595E-02  0.32032069451E+02  0.51100000000E-03 0. -1.
        -11    1    3    3    0    0 -0.77571752797E+01  0.88893915202E+01  0.20399249860E+01  0.11973150969E+02  0.51100000000E-03 0.  1.
        -12    1    3    3    0    0  0.13295851516E+01 -0.31165146543E+01  0.55747062982E+01  0.65236347673E+01  0.00000000000E+00 0.  1.
</event>
<event>
 7    1  0.2974434E-011  0.5052886E+02  0.7816164E-02  0.1300439E+00
        -11   -1    0    0    0    0  0.00000000000E+00  0.00000000000E+00  0.45593999997E+02  0.45594000000E+02  0.51100000000E-03 0.  1.
         11   -1    0    0    0    0 -0.00000000000E+00 -0.00000000000E+00 -0.45593999997E+02  0.45594000000E+02  0.51100000000E-03 0. -1.
    9900012    2    1    2    0    0  0.88721732234E+01 -0.12411983916E+02 -0.37688103511E+02  0.50528856518E+02  0.29999989873E+02 0.  0.
        -12    1    1    2    0    0 -0.88721732234E+01  0.12411983916E+02  0.37688103511E+02  0.40659143482E+02  0.00000000000E+00 0.  1.
         11    1    3    3    0    0  0.93379962490E+01 -0.28947954179E+01 -0.15087907341E+00  0.97775650964E+01  0.51100000000E-03 0. -1.
        -11    1    3    3    0    0  0.46887278271E+01 -0.53649019333E+01 -0.91193548243E+01  0.11572768643E+02  0.51100000000E-03 0.  1.
        -12    1    3    3    0    0 -0.51545508526E+01 -0.41522865649E+01 -0.28417869613E+02  0.29178522779E+02  0.00000000000E+00 0.  1.
</event>
<event>
 7    1  0.2974434E-011  0.5052886E+02  0.7816164E-02  0.1300439E+00
        -11   -1    0    0    0    0  0.00000000000E+00  0.00000000000E+00  0.45593999997E+02  0.45594000000E+02  0.51100000000E-03 0. -1.
         11   -1    0    0    0    0 -0.00000000000E+00 -0.00000000000E+00 -0.45593999997E+02  0.45594000000E+02  0.51100000000E-03 0.  1.
    9900012    2    1    2    0    0 -0.27985995461E+02  0.18355135984E+02  0.23087631706E+02  0.50528859616E+02  0.29999999290E+02 0.  0.
        -12    1    1    2    0    0  0.27985995461E+02 -0.18355135984E+02 -0.23087631706E+02  0.40659140384E+02  0.00000000000E+00 0.  1.
         11    1    3    3    0    0 -0.16078701148E+01  0.13055457925E+02  0.14951830707E+02  0.19914504003E+02  0.51100000000E-03 0. -1.
        -11    1    3    3    0    0 -0.14087770704E+02 -0.38916275083E+00  0.95100567869E+01  0.17001703191E+02  0.51100000000E-03 0.  1.
        -12    1    3    3    0    0 -0.12290354642E+02  0.56888408105E+01 -0.13742557879E+01  0.13612652422E+02  0.00000000000E+00 0.  1.
</event>
<event>
 7    1  0.2974434E-011  0.5052886E+02  0.7816164E-02  0.1300439E+00
        -11   -1    0    0    0    0  0.00000000000E+00  0.00000000000E+00  0.45593999997E+02  0.45594000000E+02  0.51100000000E-03 0.  1.
         11   -1    0    0    0    0 -0.00000000000E+00 -0.00000000000E+00 -0.45593999997E+02  0.45594000000E+02  0.51100000000E-03 0. -1.
    9900012    2    1    2    0    0 -0.27584889456E+02  0.20104608195E+02 -0.22091726276E+02  0.50528858754E+02  0.29999996670E+02 0.  0.
        -12    1    1    2    0    0  0.27584889456E+02 -0.20104608195E+02  0.22091726276E+02  0.40659141246E+02  0.00000000000E+00 0.  1.
         11    1    3    3    0    0 -0.85104717707E+01  0.18967797971E+02 -0.14047809816E+02  0.25090764247E+02  0.51100000000E-03 0. -1.
        -11    1    3    3    0    0  0.21413423709E+01  0.18869739991E+01 -0.14945992336E+01  0.32217767075E+01  0.51100000000E-03 0.  1.
         12    1    3    3    0    0 -0.21215760056E+02 -0.75016377490E+00 -0.65493172266E+01  0.22216317800E+02  0.00000000000E+00 0. -1.
</event>
<event>
 7    1  0.2974434E-011  0.5052886E+02  0.7816164E-02  0.1300439E+00
        -11   -1    0    0    0    0  0.00000000000E+00  0.00000000000E+00  0.45593999997E+02  0.45594000000E+02  0.51100000000E-03 0.  1.
         11   -1    0    0    0    0 -0.00000000000E+00 -0.00000000000E+00 -0.45593999997E+02  0.45594000000E+02  0.51100000000E-03 0. -1.
    9900012    2    1    2    0    0 -0.11069241457E+02  0.31831042250E+02 -0.22746910146E+02  0.50528864761E+02  0.30000014929E+02 0.  0.
        -12    1    1    2    0    0  0.11069241457E+02 -0.31831042250E+02  0.22746910146E+02  0.40659135239E+02  0.00000000000E+00 0.  1.
         11    1    3    3    0    0 -0.36151257486E+00  0.96186451532E+01 -0.95132482340E+01  0.13533326204E+02  0.51100000000E-03 0. -1.
        -11    1    3    3    0    0 -0.59910291148E+01  0.21831523451E+02 -0.18986541163E+02  0.29546515728E+02  0.51100000000E-03 0.  1.
        -12    1    3    3    0    0 -0.47166997677E+01  0.38087364550E+00  0.57528792513E+01  0.74490228294E+01  0.00000000000E+00 0.  1.
</event>
<event>
 7    1  0.2974434E-011  0.5052887E+02  0.7816164E-02  0.1300439E+00
        -11   -1    0    0    0    0  0.00000000000E+00  0.00000000000E+00  0.45593999997E+02  0.45594000000E+02  0.51100000000E-03 0.  1.
         11   -1    0    0    0    0 -0.00000000000E+00 -0.00000000000E+00 -0.45593999997E+02  0.45594000000E+02  0.51100000000E-03 0. -1.
    9900012    2    1    2    0    0  0.20474371551E+02 -0.35093525224E+02 -0.15523161920E+01  0.50528867094E+02  0.30000022020E+02 0.  0.
        -12    1    1    2    0    0 -0.20474371551E+02  0.35093525224E+02  0.15523161920E+01  0.40659132906E+02  0.00000000000E+00 0.  1.
         11    1    3    3    0    0  0.19981317863E+02 -0.17951999680E+02 -0.27566704690E+01  0.27002344128E+02  0.51100000000E-03 0. -1.
        -11    1    3    3    0    0  0.70348304428E+01 -0.27639323974E+01  0.15994440351E+01  0.77256962883E+01  0.51100000000E-03 0.  1.
        -12    1    3    3    0    0 -0.65417767545E+01 -0.14377593147E+02 -0.39508975803E+00  0.15800826678E+02  0.00000000000E+00 0.  1.
</event>
<event>
 7    1  0.2974434E-011  0.5052886E+02  0.7816164E-02  0.1300439E+00
        -11   -1    0    0    0    0  0.00000000000E+00  0.00000000000E+00  0.45593999997E+02  0.45594000000E+02  0.51100000000E-03 0.  1.
         11   -1    0    0    0    0 -0.00000000000E+00 -0.00000000000E+00 -0.45593999997E+02  0.45594000000E+02  0.51100000000E-03 0. -1.
    9900012    2    1    2    0    0 -0.28477647578E+02 -0.28766709199E+02 -0.38295555886E+01  0.50528862457E+02  0.30000007924E+02 0.  0.
        -12    1    1    2    0    0  0.28477647578E+02  0.28766709199E+02  0.38295555886E+01  0.40659137543E+02  0.00000000000E+00 0.  1.
         11    1    3    3    0    0 -0.46941537594E+01 -0.15203930274E+01  0.91617904156E+00  0.50185713876E+01  0.51100000000E-03 0. -1.
        -11    1    3    3    0    0 -0.21424004304E+02 -0.47462360241E+01  0.16349020472E+01  0.22004263718E+02  0.51100000000E-03 0.  1.
        -12    1    3    3    0    0 -0.23594895145E+01 -0.22500080148E+02 -0.63806366774E+01  0.23506027351E+02  0.00000000000E+00 0.  1.
</event>
<event>
 7    1  0.2974434E-011  0.5052887E+02  0.7816164E-02  0.1300439E+00
        -11   -1    0    0    0    0  0.00000000000E+00  0.00000000000E+00  0.45593999997E+02  0.45594000000E+02  0.51100000000E-03 0.  1.
         11   -1    0    0    0    0 -0.00000000000E+00 -0.00000000000E+00 -0.45593999997E+02  0.45594000000E+02  0.51100000000E-03 0. -1.
    9900012    2    1    2    0    0 -0.19745727118E+02 -0.33718786979E+02 -0.11238969220E+02  0.50528871087E+02  0.30000034157E+02 0.  0.
        -12    1    1    2    0    0  0.19745727118E+02  0.33718786979E+02  0.11238969220E+02  0.40659128913E+02  0.00000000000E+00 0.  1.
         11    1    3    3    0    0  0.90129368383E+00  0.91383568473E+00  0.25933872490E+01  0.28936281115E+01  0.51100000000E-03 0. -1.
        -11    1    3    3    0    0 -0.17105248455E+01 -0.43550171771E+01  0.53421716115E+01  0.71014694006E+01  0.51100000000E-03 0.  1.
         12    1    3    3    0    0 -0.18936495957E+02 -0.30277605487E+02 -0.19174528080E+02  0.40533773575E+02  0.00000000000E+00 0. -1.
</event>
<event>
 7    1  0.2974434E-011  0.5052884E+02  0.7816164E-02  0.1300439E+00
        -11   -1    0    0    0    0  0.00000000000E+00  0.00000000000E+00  0.45593999997E+02  0.45594000000E+02  0.51100000000E-03 0. -1.
         11   -1    0    0    0    0 -0.00000000000E+00 -0.00000000000E+00 -0.45593999997E+02  0.45594000000E+02  0.51100000000E-03 0.  1.
    9900012    2    1    2    0    0 -0.20627886783E+02 -0.33650330022E+02  0.97628445333E+01  0.50528836739E+02  0.29999929752E+02 0.  0.
        -12    1    1    2    0    0  0.20627886783E+02  0.33650330022E+02 -0.97628445333E+01  0.40659163261E+02  0.00000000000E+00 0.  1.
         11    1    3    3    0    0 -0.42723461156E+01 -0.47365302400E+01  0.64129128275E+01  0.90450600462E+01  0.51100000000E-03 0. -1.
        -11    1    3    3    0    0 -0.34477369276E+01 -0.24042724996E+02  0.98785416498E+01  0.26220699849E+02  0.51100000000E-03 0.  1.
        -12    1    3    3    0    0 -0.12907803740E+02 -0.48710747853E+01 -0.65286099439E+01  0.15263076844E+02  0.00000000000E+00 0.  1.
</event>
<event>
 7    1  0.2974434E-011  0.5052886E+02  0.7816164E-02  0.1300439E+00
        -11   -1    0    0    0    0  0.00000000000E+00  0.00000000000E+00  0.45593999997E+02  0.45594000000E+02  0.51100000000E-03 0.  1.
         11   -1    0    0    0    0 -0.00000000000E+00 -0.00000000000E+00 -0.45593999997E+02  0.45594000000E+02  0.51100000000E-03 0. -1.
    9900012    2    1    2    0    0  0.11823235081E+02  0.15540976747E+02 -0.35663075542E+02  0.50528858308E+02  0.29999995313E+02 0.  0.
        -12    1    1    2    0    0 -0.11823235081E+02 -0.15540976747E+02  0.35663075542E+02  0.40659141692E+02  0.00000000000E+00 0.  1.
         11    1    3    3    0    0  0.66115632286E+01  0.13081661285E+02 -0.28956956540E+02  0.32455322562E+02  0.51100000000E-03 0. -1.
        -11    1    3    3    0    0 -0.36098430485E+01  0.38577883758E+01 -0.74251347172E+01  0.91129646009E+01  0.51100000000E-03 0.  1.
         12    1    3    3    0    0  0.88215149012E+01 -0.13984729132E+01  0.71901571558E+00  0.89605711447E+01  0.00000000000E+00 0. -1.
</event>
<event>
 7    1  0.2974434E-011  0.5052893E+02  0.7816164E-02  0.1300439E+00
        -11   -1    0    0    0    0  0.00000000000E+00  0.00000000000E+00  0.45593999997E+02  0.45594000000E+02  0.51100000000E-03 0. -1.
         11   -1    0    0    0    0 -0.00000000000E+00 -0.00000000000E+00 -0.45593999997E+02  0.45594000000E+02  0.51100000000E-03 0.  1.
    9900012    2    1    2    0    0  0.19751632953E+01  0.25176621934E+02  0.31865286938E+02  0.50528928765E+02  0.30000209474E+02 0.  0.
        -12    1    1    2    0    0 -0.19751632953E+01 -0.25176621934E+02 -0.31865286938E+02  0.40659071235E+02  0.00000000000E+00 0.  1.
         11    1    3    3    0    0  0.21944205643E+01  0.64210896258E+01  0.23570975032E+02  0.24528284445E+02  0.51100000000E-03 0. -1.
        -11    1    3    3    0    0  0.14982104170E+01  0.11893964547E+01  0.81278901334E+01  0.83499638719E+01  0.51100000000E-03 0.  1.
        -12    1    3    3    0    0 -0.17174676859E+01  0.17566135854E+02  0.16642177228E+00  0.17650680448E+02  0.00000000000E+00 0.  1.
</event>
<event>
 7    1  0.4759704E-011  0.5052885E+02  0.7816164E-02  0.1300439E+00
        -11   -1    0    0    0    0  0.00000000000E+00  0.00000000000E+00  0.45593999997E+02  0.45594000000E+02  0.51100000000E-03 0. -1.
         11   -1    0    0    0    0 -0.00000000000E+00 -0.00000000000E+00 -0.45593999997E+02  0.45594000000E+02  0.51100000000E-03 0.  1.
    9900012    2    1    2    0    0 -0.61149807634E+01  0.19573310745E+02  0.35109240557E+02  0.50528852742E+02  0.29999978394E+02 0.  0.
        -12    1    1    2    0    0  0.61149807634E+01 -0.19573310745E+02 -0.35109240557E+02  0.40659147258E+02  0.00000000000E+00 0.  1.
         11    1    3    3    0    0 -0.29077996422E+01  0.35418117939E+01  0.24496174219E+02  0.24921121186E+02  0.51100000000E-03 0. -1.
        -11    1    3    3    0    0  0.63916707705E+01  0.39847598556E+01  0.56803308542E+01  0.94338711682E+01  0.51100000000E-03 0.  1.
        -12    1    3    3    0    0 -0.95988518918E+01  0.12046739096E+02  0.49327354835E+01  0.16173860387E+02  0.00000000000E+00 0.  1.
</event>
<event>
 7    1  0.2974434E-011  0.5052886E+02  0.7816164E-02  0.1300439E+00
        -11   -1    0    0    0    0  0.00000000000E+00  0.00000000000E+00  0.45593999997E+02  0.45594000000E+02  0.51100000000E-03 0.  1.
         11   -1    0    0    0    0 -0.00000000000E+00 -0.00000000000E+00 -0.45593999997E+02  0.45594000000E+02  0.51100000000E-03 0. -1.
    9900012    2    1    2    0    0  0.10958810596E+00 -0.19236050961E+02 -0.35820777257E+02  0.50528858969E+02  0.29999997322E+02 0.  0.
        -12    1    1    2    0    0 -0.10958810596E+00  0.19236050961E+02  0.35820777257E+02  0.40659141031E+02  0.00000000000E+00 0.  1.
         11    1    3    3    0    0 -0.46175081545E+01 -0.15861517962E+01 -0.18455694604E+02  0.19090571565E+02  0.51100000000E-03 0. -1.
        -11    1    3    3    0    0  0.35563668202E+01 -0.39913039901E+01 -0.16896048480E+02  0.17721588727E+02  0.51100000000E-03 0.  1.
        -12    1    3    3    0    0  0.11707294403E+01 -0.13658595174E+02 -0.46903417232E+00  0.13716698678E+02  0.00000000000E+00 0.  1.
</event>
<event>
 7    1  0.2974434E-011  0.5052891E+02  0.7816164E-02  0.1300439E+00
        -11   -1    0    0    0    0  0.00000000000E+00  0.00000000000E+00  0.45593999997E+02  0.45594000000E+02  0.51100000000E-03 0.  1.
         11   -1    0    0    0    0 -0.00000000000E+00 -0.00000000000E+00 -0.45593999997E+02  0.45594000000E+02  0.51100000000E-03 0. -1.
    9900012    2    1    2    0    0 -0.10947853067E+02 -0.24217088555E+02 -0.30770738366E+02  0.50528914860E+02  0.30000167208E+02 0.  0.
        -12    1    1    2    0    0  0.10947853067E+02  0.24217088555E+02  0.30770738366E+02  0.40659085140E+02  0.00000000000E+00 0.  1.
         11    1    3    3    0    0  0.36789691564E+01 -0.42118116723E+01 -0.39297720410E+01  0.68350040360E+01  0.51100000000E-03 0. -1.
        -11    1    3    3    0    0 -0.69750038298E+01 -0.63187220552E+01 -0.26378063608E+02  0.28006770017E+02  0.51100000000E-03 0.  1.
         12    1    3    3    0    0 -0.76518183936E+01 -0.13686554827E+02 -0.46290271706E+00  0.15687140807E+02  0.00000000000E+00 0. -1.
</event>
<event>
 7    1  0.2974434E-011  0.5052891E+02  0.7816164E-02  0.1300439E+00
        -11   -1    0    0    0    0  0.00000000000E+00  0.00000000000E+00  0.45593999997E+02  0.45594000000E+02  0.51100000000E-03 0.  1.
         11   -1    0    0    0    0 -0.00000000000E+00 -0.00000000000E+00 -0.45593999997E+02  0.45594000000E+02  0.51100000000E-03 0. -1.
    9900012    2    1    2    0    0  0.15690997857E+02  0.21619601170E+02 -0.30652025031E+02  0.50528914829E+02  0.30000167113E+02 0.  0.
        -12    1    1    2    0    0 -0.15690997857E+02 -0.21619601170E+02  0.30652025031E+02  0.40659085171E+02  0.00000000000E+00 0.  1.
         11    1    3    3    0    0  0.64245921812E+01  0.52316071518E+01 -0.72143267858E+01  0.10985973299E+02  0.51100000000E-03 0. -1.
        -11    1    3    3    0    0  0.14155560280E+02  0.20183753338E+02 -0.14281154453E+02  0.28490615269E+02  0.51100000000E-03 0.  1.
        -12    1    3    3    0    0 -0.48891546041E+01 -0.37957593204E+01 -0.91565437918E+01  0.11052326261E+02  0.00000000000E+00 0.  1.
</event>
<event>
 7    1  0.2974434E-011  0.5052886E+02  0.7816164E-02  0.1300439E+00
        -11   -1    0    0    0    0  0.00000000000E+00  0.00000000000E+00  0.45593999997E+02  0.45594000000E+02  0.51100000000E-03 0.  1.
         11   -1    0    0    0    0 -0.00000000000E+00 -0.00000000000E+00 -0.45593999997E+02  0.45594000000E+02  0.51100000000E-03 0. -1.
    9900012    2    1    2    0    0  0.86989014306E+01 -0.23546995101E+02 -0.31984903000E+02  0.50528857309E+02  0.29999992278E+02 0.  0.
        -12    1    1    2    0    0 -0.86989014306E+01  0.23546995101E+02  0.31984903000E+02  0.40659142691E+02  0.00000000000E+00 0.  1.
         11    1    3    3    0    0 -0.43204708029E+01 -0.40536373395E+01 -0.92765629072E+01  0.11006955223E+02  0.51100000000E-03 0. -1.
        -11    1    3    3    0    0  0.45729733612E+01 -0.64152900701E+01 -0.22620491098E+02  0.23953176195E+02  0.51100000000E-03 0.  1.
        -12    1    3    3    0    0  0.84463988724E+01 -0.13078067691E+02 -0.87848995027E-01  0.15568725892E+02  0.00000000000E+00 0.  1.
</event>
<event>
 7    1  0.2974434E-011  0.5052886E+02  0.7816164E-02  0.1300439E+00
        -11   -1    0    0    0    0  0.00000000000E+00  0.00000000000E+00  0.45593999997E+02  0.45594000000E+02  0.51100000000E-03 0.  1.
         11   -1    0    0    0    0 -0.00000000000E+00 -0.00000000000E+00 -0.45593999997E+02  0.45594000000E+02  0.51100000000E-03 0. -1.
    9900012    2    1    2    0    0  0.26798224131E+02  0.15498273678E+02 -0.26359516512E+02  0.50528863090E+02  0.30000009848E+02 0.  0.
        -12    1    1    2    0    0 -0.26798224131E+02 -0.15498273678E+02  0.26359516512E+02  0.40659136910E+02  0.00000000000E+00 0.  1.
         11    1    3    3    0    0  0.73183993107E+01  0.95697167689E+01 -0.49139536641E+01  0.13010971846E+02  0.51100000000E-03 0. -1.
        -11    1    3    3    0    0  0.12833793584E+02  0.13666999227E+02 -0.73925840192E+01  0.20153000381E+02  0.51100000000E-03 0.  1.
         12    1    3    3    0    0  0.66460312363E+01 -0.77384423186E+01 -0.14052978828E+02  0.17364890862E+02  0.00000000000E+00 0. -1.
</event>
<event>
 7    1  0.2974434E-011  0.5052884E+02  0.7816164E-02  0.1300439E+00
        -11   -1    0    0    0    0  0.00000000000E+00  0.00000000000E+00  0.45593999997E+02  0.45594000000E+02  0.51100000000E-03 0. -1.
         11   -1    0    0    0    0 -0.00000000000E+00 -0.00000000000E+00 -0.45593999997E+02  0.45594000000E+02  0.51100000000E-03 0.  1.
    9900012    2    1    2    0    0 -0.72529895746E+01 -0.37601470326E+02  0.13663500857E+02  0.50528835177E+02  0.29999925004E+02 0.  0.
        -12    1    1    2    0    0  0.72529895746E+01  0.37601470326E+02 -0.13663500857E+02  0.40659164823E+02  0.00000000000E+00 0.  1.
         11    1    3    3    0    0  0.19732172184E+01 -0.24898978664E+02  0.14867089189E+02  0.29066872311E+02  0.51100000000E-03 0.  1.
        -11    1    3    3    0    0  0.14459270958E+01 -0.40160401700E+01  0.48222579501E+01  0.64399888053E+01  0.51100000000E-03 0. -1.
        -12    1    3    3    0    0 -0.10672133889E+02 -0.86864514921E+01 -0.60258462826E+01  0.15021974061E+02  0.00000000000E+00 0.  1.
</event>
<event>
 7    1  0.2974434E-011  0.5052886E+02  0.7816164E-02  0.1300439E+00
        -11   -1    0    0    0    0  0.00000000000E+00  0.00000000000E+00  0.45593999997E+02  0.45594000000E+02  0.51100000000E-03 0.  1.
         11   -1    0    0    0    0 -0.00000000000E+00 -0.00000000000E+00 -0.45593999997E+02  0.45594000000E+02  0.51100000000E-03 0. -1.
    9900012    2    1    2    0    0 -0.39281876043E+02  0.13897906195E+01 -0.10400394336E+02  0.50528861964E+02  0.30000006427E+02 0.  0.
        -12    1    1    2    0    0  0.39281876043E+02 -0.13897906195E+01  0.10400394336E+02  0.40659138036E+02  0.00000000000E+00 0.  1.
         11    1    3    3    0    0 -0.16442568605E+02 -0.44045358332E+00 -0.14632458300E+02  0.22015015282E+02  0.51100000000E-03 0. -1.
        -11    1    3    3    0    0 -0.75051684799E+00  0.28587316543E+01 -0.39522231174E+01  0.49351484315E+01  0.51100000000E-03 0.  1.
         12    1    3    3    0    0 -0.22088790591E+02 -0.10284874515E+01  0.81842870815E+01  0.23578698251E+02  0.00000000000E+00 0. -1.
</event>
<event>
 7    1  0.2974434E-011  0.5052887E+02  0.7816164E-02  0.1300439E+00
        -11   -1    0    0    0    0  0.00000000000E+00  0.00000000000E+00  0.45593999997E+02  0.45594000000E+02  0.51100000000E-03 0. -1.
         11   -1    0    0    0    0 -0.00000000000E+00 -0.00000000000E+00 -0.45593999997E+02  0.45594000000E+02  0.51100000000E-03 0.  1.
    9900012    2    1    2    0    0 -0.14619603005E+02  0.32657218919E+02  0.19311595282E+02  0.50528874925E+02  0.30000045821E+02 0.  0.
        -12    1    1    2    0    0  0.14619603005E+02 -0.32657218919E+02 -0.19311595282E+02  0.40659125075E+02  0.00000000000E+00 0.  1.
         11    1    3    3    0    0 -0.82968589634E+01  0.94169562781E+01  0.69338576440E+01  0.14338595339E+02  0.51100000000E-03 0. -1.
        -11    1    3    3    0    0 -0.99863059044E+01 -0.85504761919E-01  0.63039207889E+01  0.11809870205E+02  0.51100000000E-03 0.  1.
        -12    1    3    3    0    0  0.36635618629E+01  0.23325767403E+02  0.60738168491E+01  0.24380409381E+02  0.00000000000E+00 0.  1.
</event>
<event>
 7    1  0.2974434E-011  0.5052881E+02  0.7816164E-02  0.1300439E+00
        -11   -1    0    0    0    0  0.00000000000E+00  0.00000000000E+00  0.45593999997E+02  0.45594000000E+02  0.51100000000E-03 0.  1.
         11   -1    0    0    0    0 -0.00000000000E+00 -0.00000000000E+00 -0.45593999997E+02  0.45594000000E+02  0.51100000000E-03 0. -1.
    9900012    2    1    2    0    0  0.12421058769E+02  0.13359637263E+02 -0.36337401190E+02  0.50528814888E+02  0.29999863332E+02 0.  0.
        -12    1    1    2    0    0 -0.12421058769E+02 -0.13359637263E+02  0.36337401190E+02  0.40659185112E+02  0.00000000000E+00 0.  1.
         11    1    3    3    0    0  0.99568941010E+01  0.15309809656E+02 -0.12901152332E+02  0.22360003211E+02  0.51100000000E-03 0. -1.
        -11    1    3    3    0    0  0.70218542064E+01  0.21941936456E+01 -0.54460982195E+01  0.91531911555E+01  0.51100000000E-03 0.  1.
         12    1    3    3    0    0 -0.45576895382E+01 -0.41443660391E+01 -0.17990150639E+02  0.19015620521E+02  0.00000000000E+00 0. -1.
</event>
<event>
 7    1  0.2974434E-011  0.5052886E+02  0.7816164E-02  0.1300439E+00
        -11   -1    0    0    0    0  0.00000000000E+00  0.00000000000E+00  0.45593999997E+02  0.45594000000E+02  0.51100000000E-03 0.  1.
         11   -1    0    0    0    0 -0.00000000000E+00 -0.00000000000E+00 -0.45593999997E+02  0.45594000000E+02  0.51100000000E-03 0. -1.
    9900012    2    1    2    0    0  0.10722916516E+02 -0.18417205720E+02 -0.34626455366E+02  0.50528858145E+02  0.29999994819E+02 0.  0.
        -12    1    1    2    0    0 -0.10722916516E+02  0.18417205720E+02  0.34626455366E+02  0.40659141855E+02  0.00000000000E+00 0.  1.
         11    1    3    3    0    0  0.46082101659E+01 -0.17884787572E+02 -0.27895431632E+02  0.33455288574E+02  0.51100000000E-03 0. -1.
        -11    1    3    3    0    0 -0.31988893646E+01 -0.38884778009E+01  0.11617171598E+00  0.50365314358E+01  0.51100000000E-03 0.  1.
         12    1    3    3    0    0  0.93135957151E+01  0.33560596528E+01 -0.68471954502E+01  0.12037038135E+02  0.00000000000E+00 0. -1.
</event>
<event>
 7    1  0.2974434E-011  0.5052887E+02  0.7816164E-02  0.1300439E+00
        -11   -1    0    0    0    0  0.00000000000E+00  0.00000000000E+00  0.45593999997E+02  0.45594000000E+02  0.51100000000E-03 0.  1.
         11   -1    0    0    0    0 -0.00000000000E+00 -0.00000000000E+00 -0.45593999997E+02  0.45594000000E+02  0.51100000000E-03 0. -1.
    9900012    2    1    2    0    0 -0.30516034665E+02 -0.14359166294E+02  0.22710149345E+02  0.50528869271E+02  0.30000028636E+02 0.  0.
        -12    1    1    2    0    0  0.30516034665E+02  0.14359166294E+02 -0.22710149345E+02  0.40659130729E+02  0.00000000000E+00 0.  1.
         11    1    3    3    0    0 -0.13420622892E+02 -0.11856915086E+02 -0.31192588152E+00  0.17910802667E+02  0.51100000000E-03 0. -1.
        -11    1    3    3    0    0 -0.10093185287E+02  0.51400587308E+01  0.63460583504E+01  0.12983260370E+02  0.51100000000E-03 0.  1.
         12    1    3    3    0    0 -0.70022264862E+01 -0.76423099392E+01  0.16676016876E+02  0.19634806234E+02  0.00000000000E+00 0. -1.
</event>
<event>
 7    1  0.2974434E-011  0.5052886E+02  0.7816164E-02  0.1300439E+00
        -11   -1    0    0    0    0  0.00000000000E+00  0.00000000000E+00  0.45593999997E+02  0.45594000000E+02  0.51100000000E-03 0.  1.
         11   -1    0    0    0    0 -0.00000000000E+00 -0.00000000000E+00 -0.45593999997E+02  0.45594000000E+02  0.51100000000E-03 0. -1.
    9900012    2    1    2    0    0 -0.37466306355E+02  0.11249445897E+02 -0.11085647368E+02  0.50528859300E+02  0.29999998329E+02 0.  0.
        -12    1    1    2    0    0  0.37466306355E+02 -0.11249445897E+02  0.11085647368E+02  0.40659140700E+02  0.00000000000E+00 0.  1.
         11    1    3    3    0    0 -0.10472706056E+01 -0.96495467575E-01  0.15720759046E+01  0.18914306774E+01  0.51100000000E-03 0.  1.
        -11    1    3    3    0    0 -0.14177620068E+02 -0.85566366902E+01 -0.81371666121E+01  0.18450865101E+02  0.51100000000E-03 0. -1.
         12    1    3    3    0    0 -0.22241415682E+02  0.19902578055E+02 -0.45205566605E+01  0.30186563522E+02  0.00000000000E+00 0. -1.
</event>
<event>
 7    1  0.2974434E-011  0.5052886E+02  0.7816164E-02  0.1300439E+00
        -11   -1    0    0    0    0  0.00000000000E+00  0.00000000000E+00  0.45593999997E+02  0.45594000000E+02  0.51100000000E-03 0. -1.
         11   -1    0    0    0    0 -0.00000000000E+00 -0.00000000000E+00 -0.45593999997E+02  0.45594000000E+02  0.51100000000E-03 0.  1.
    9900012    2    1    2    0    0 -0.74328587649E+01 -0.28303379711E+02  0.28228297381E+02  0.50528862460E+02  0.30000007934E+02 0.  0.
        -12    1    1    2    0    0  0.74328587649E+01  0.28303379711E+02 -0.28228297381E+02  0.40659137540E+02  0.00000000000E+00 0.  1.
         11    1    3    3    0    0  0.88099635562E+01 -0.10121350698E+02  0.88128695200E+01  0.16053780466E+02  0.51100000000E-03 0. -1.
        -11    1    3    3    0    0  0.62174909832E+00  0.19347618110E+01  0.26018874187E+01  0.33014684017E+01  0.51100000000E-03 0.  1.
         12    1    3    3    0    0 -0.16864571419E+02 -0.20116790824E+02  0.16813540442E+02  0.31173613592E+02  0.00000000000E+00 0. -1.
</event>
<event>
 7    1  0.2974434E-011  0.5052886E+02  0.7816164E-02  0.1300439E+00
        -11   -1    0    0    0    0  0.00000000000E+00  0.00000000000E+00  0.45593999997E+02  0.45594000000E+02  0.51100000000E-03 0.  1.
         11   -1    0    0    0    0 -0.00000000000E+00 -0.00000000000E+00 -0.45593999997E+02  0.45594000000E+02  0.51100000000E-03 0. -1.
    9900012    2    1    2    0    0  0.19460764260E+02  0.24555071497E+02 -0.25913176698E+02  0.50528860703E+02  0.30000002592E+02 0.  0.
        -12    1    1    2    0    0 -0.19460764260E+02 -0.24555071497E+02  0.25913176698E+02  0.40659139297E+02  0.00000000000E+00 0.  1.
         11    1    3    3    0    0  0.71853644771E+01  0.78294085300E+01 -0.73220809442E+01  0.12905114111E+02  0.51100000000E-03 0. -1.
        -11    1    3    3    0    0  0.11454903632E+02  0.97091268886E+01 -0.24283606695E+02  0.28551278720E+02  0.51100000000E-03 0.  1.
        -12    1    3    3    0    0  0.82049615049E+00  0.70165360782E+01  0.56925109410E+01  0.90724678717E+01  0.00000000000E+00 0.  1.
</event>
<event>
 7    1  0.2974434E-011  0.5052886E+02  0.7816164E-02  0.1300439E+00
        -11   -1    0    0    0    0  0.00000000000E+00  0.00000000000E+00  0.45593999997E+02  0.45594000000E+02  0.51100000000E-03 0.  1.
         11   -1    0    0    0    0 -0.00000000000E+00 -0.00000000000E+00 -0.45593999997E+02  0.45594000000E+02  0.51100000000E-03 0. -1.
    9900012    2    1    2    0    0  0.32543132430E+01 -0.31296946798E+02 -0.25750261251E+02  0.50528863413E+02  0.30000010829E+02 0.  0.
        -12    1    1    2    0    0 -0.32543132430E+01  0.31296946798E+02  0.25750261251E+02  0.40659136587E+02  0.00000000000E+00 0.  1.
         11    1    3    3    0    0  0.10722490182E+02 -0.44939035458E+01 -0.35490935603E+01  0.12155781758E+02  0.51100000000E-03 0. -1.
        -11    1    3    3    0    0  0.25261932486E+01  0.15602363134E+00 -0.21357623800E+01  0.33117181202E+01  0.51100000000E-03 0.  1.
         12    1    3    3    0    0 -0.99943701873E+01 -0.26959066883E+02 -0.20065405310E+02  0.35061363535E+02  0.00000000000E+00 0. -1.
</event>
<event>
 7    1  0.2974434E-011  0.5052885E+02  0.7816164E-02  0.1300439E+00
        -11   -1    0    0    0    0  0.00000000000E+00  0.00000000000E+00  0.45593999997E+02  0.45594000000E+02  0.51100000000E-03 0.  1.
         11   -1    0    0    0    0 -0.00000000000E+00 -0.00000000000E+00 -0.45593999997E+02  0.45594000000E+02  0.51100000000E-03 0. -1.
    9900012    2    1    2    0    0 -0.33338186410E+02 -0.18880548796E+02 -0.13610893026E+02  0.50528853367E+02  0.29999980295E+02 0.  0.
        -12    1    1    2    0    0  0.33338186410E+02  0.18880548796E+02  0.13610893026E+02  0.40659146633E+02  0.00000000000E+00 0.  1.
         11    1    3    3    0    0 -0.18050973353E+01 -0.35490571478E-01  0.18818767653E+01  0.26078911771E+01  0.51100000000E-03 0. -1.
        -11    1    3    3    0    0  0.12528099294E+01 -0.18441351483E+01  0.51499194372E+01  0.56117766915E+01  0.51100000000E-03 0.  1.
         12    1    3    3    0    0 -0.32785899004E+02 -0.17000923076E+02 -0.20642689229E+02  0.42309185499E+02  0.00000000000E+00 0. -1.
</event>
<event>
 7    1  0.2974434E-011  0.5052886E+02  0.7816164E-02  0.1300439E+00
        -11   -1    0    0    0    0  0.00000000000E+00  0.00000000000E+00  0.45593999997E+02  0.45594000000E+02  0.51100000000E-03 0. -1.
         11   -1    0    0    0    0 -0.00000000000E+00 -0.00000000000E+00 -0.45593999997E+02  0.45594000000E+02  0.51100000000E-03 0.  1.
    9900012    2    1    2    0    0  0.19439376233E+02  0.17422475083E+02  0.31172643584E+02  0.50528859646E+02  0.29999999379E+02 0.  0.
        -12    1    1    2    0    0 -0.19439376233E+02 -0.17422475083E+02 -0.31172643584E+02  0.40659140354E+02  0.00000000000E+00 0.  1.
         11    1    3    3    0    0  0.53473746653E+01 -0.42476596660E+01  0.18915582707E+02  0.20110601628E+02  0.51100000000E-03 0. -1.
        -11    1    3    3    0    0 -0.70165990838E-02  0.65639882712E+01  0.58276334643E+01  0.87776593299E+01  0.51100000000E-03 0.  1.
        -12    1    3    3    0    0  0.14099018167E+02  0.15106146478E+02  0.64294274126E+01  0.21640598687E+02  0.00000000000E+00 0.  1.
</event>
<event>
 7    1  0.2974434E-011  0.5052886E+02  0.7816164E-02  0.1300439E+00
        -11   -1    0    0    0    0  0.00000000000E+00  0.00000000000E+00  0.45593999997E+02  0.45594000000E+02  0.51100000000E-03 0.  1.
         11   -1    0    0    0    0 -0.00000000000E+00 -0.00000000000E+00 -0.45593999997E+02  0.45594000000E+02  0.51100000000E-03 0. -1.
    9900012    2    1    2    0    0 -0.16296059740E+02  0.49183022857E+01 -0.36924445278E+02  0.50528856877E+02  0.29999990962E+02 0.  0.
        -12    1    1    2    0    0  0.16296059740E+02 -0.49183022857E+01  0.36924445278E+02  0.40659143123E+02  0.00000000000E+00 0.  1.
         11    1    3    3    0    0 -0.77926571338E+01  0.64642726316E+01 -0.27357024305E+02  0.29170517736E+02  0.51100000000E-03 0. -1.
        -11    1    3    3    0    0 -0.57893623205E+01  0.55141126841E+01 -0.11061502425E+02  0.13648406168E+02  0.51100000000E-03 0.  1.
        -12    1    3    3    0    0 -0.27140402861E+01 -0.70600830301E+01  0.14940814521E+01  0.77099329732E+01  0.00000000000E+00 0.  1.
</event>
<event>
 7    1  0.2974434E-011  0.5052886E+02  0.7816164E-02  0.1300439E+00
        -11   -1    0    0    0    0  0.00000000000E+00  0.00000000000E+00  0.45593999997E+02  0.45594000000E+02  0.51100000000E-03 0. -1.
         11   -1    0    0    0    0 -0.00000000000E+00 -0.00000000000E+00 -0.45593999997E+02  0.45594000000E+02  0.51100000000E-03 0.  1.
    9900012    2    1    2    0    0 -0.13536352167E+02  0.38296639785E+02 -0.18166043856E+01  0.50528862033E+02  0.30000006634E+02 0.  0.
        -12    1    1    2    0    0  0.13536352167E+02 -0.38296639785E+02  0.18166043856E+01  0.40659137967E+02  0.00000000000E+00 0.  1.
         11    1    3    3    0    0 -0.11600358413E+02  0.98842142188E+01 -0.19008316572E+01  0.15358358222E+02  0.51100000000E-03 0. -1.
        -11    1    3    3    0    0 -0.70743397578E+01  0.15678303593E+02 -0.82824058286E+01  0.19090671364E+02  0.51100000000E-03 0.  1.
        -12    1    3    3    0    0  0.51383460038E+01  0.12734121973E+02  0.83666331001E+01  0.16079832447E+02  0.00000000000E+00 0.  1.
</event>
<event>
 7    1  0.2974434E-011  0.5052885E+02  0.7816164E-02  0.1300439E+00
        -11   -1    0    0    0    0  0.00000000000E+00  0.00000000000E+00  0.45593999997E+02  0.45594000000E+02  0.51100000000E-03 0.  1.
         11   -1    0    0    0    0 -0.00000000000E+00 -0.00000000000E+00 -0.45593999997E+02  0.45594000000E+02  0.51100000000E-03 0. -1.
    9900012    2    1    2    0    0 -0.18687302177E+02 -0.10698837366E+02 -0.34488926264E+02  0.50528850741E+02  0.29999972312E+02 0.  0.
        -12    1    1    2    0    0  0.18687302177E+02  0.10698837366E+02  0.34488926264E+02  0.40659149259E+02  0.00000000000E+00 0.  1.
         11    1    3    3    0    0 -0.47906839674E+01 -0.30310941490E+00 -0.14752262991E+01  0.50218344345E+01  0.51100000000E-03 0. -1.
        -11    1    3    3    0    0 -0.20249773362E+02 -0.83606842603E+01 -0.31967964801E+02  0.38754420861E+02  0.51100000000E-03 0.  1.
        -12    1    3    3    0    0  0.63531551522E+01 -0.20350436906E+01 -0.10457351635E+01  0.67525954449E+01  0.00000000000E+00 0.  1.
</event>
<event>
 7    1  0.4156045E-011  0.5052886E+02  0.7816164E-02  0.1300439E+00
        -11   -1    0    0    0    0  0.00000000000E+00  0.00000000000E+00  0.45593999997E+02  0.45594000000E+02  0.51100000000E-03 0. -1.
         11   -1    0    0    0    0 -0.00000000000E+00 -0.00000000000E+00 -0.45593999997E+02  0.45594000000E+02  0.51100000000E-03 0.  1.
    9900012    2    1    2    0    0 -0.24480235580E+00 -0.65635739513E+01  0.40125121129E+02  0.50528858631E+02  0.29999996295E+02 0.  0.
        -12    1    1    2    0    0  0.24480235580E+00  0.65635739513E+01 -0.40125121129E+02  0.40659141369E+02  0.00000000000E+00 0.  1.
         11    1    3    3    0    0  0.65058694252E+01 -0.83721273560E+01  0.33045908846E+02  0.34705200550E+02  0.51100000000E-03 0. -1.
        -11    1    3    3    0    0 -0.20804649983E+01  0.66189262716E+01  0.56986450159E+01  0.89784784277E+01  0.51100000000E-03 0.  1.
        -12    1    3    3    0    0 -0.46702067827E+01 -0.48103728668E+01  0.13805672671E+01  0.68451796536E+01  0.00000000000E+00 0.  1.
</event>
<event>
 7    1  0.2974434E-011  0.5052887E+02  0.7816164E-02  0.1300439E+00
        -11   -1    0    0    0    0  0.00000000000E+00  0.00000000000E+00  0.45593999997E+02  0.45594000000E+02  0.51100000000E-03 0. -1.
         11   -1    0    0    0    0 -0.00000000000E+00 -0.00000000000E+00 -0.45593999997E+02  0.45594000000E+02  0.51100000000E-03 0.  1.
    9900012    2    1    2    0    0 -0.42844522094E+01  0.32613219183E+02  0.23899509408E+02  0.50528866387E+02  0.30000019870E+02 0.  0.
        -12    1    1    2    0    0  0.42844522094E+01 -0.32613219183E+02 -0.23899509408E+02  0.40659133613E+02  0.00000000000E+00 0.  1.
         11    1    3    3    0    0  0.93377753432E+01  0.10122483484E+02  0.12814424799E+01  0.13831153796E+02  0.51100000000E-03 0. -1.
        -11    1    3    3    0    0  0.13497426869E+01  0.61591182789E+01  0.25398360798E+01  0.67975959624E+01  0.51100000000E-03 0.  1.
         12    1    3    3    0    0 -0.14971970240E+02  0.16331617421E+02  0.20078230848E+02  0.29900116629E+02  0.00000000000E+00 0. -1.
</event>
<event>
 7    1  0.2974434E-011  0.5052886E+02  0.7816164E-02  0.1300439E+00
        -11   -1    0    0    0    0  0.00000000000E+00  0.00000000000E+00  0.45593999997E+02  0.45594000000E+02  0.51100000000E-03 0. -1.
         11   -1    0    0    0    0 -0.00000000000E+00 -0.00000000000E+00 -0.45593999997E+02  0.45594000000E+02  0.51100000000E-03 0.  1.
    9900012    2    1    2    0    0  0.24272540189E+02 -0.14474254956E+02  0.29231925116E+02  0.50528859457E+02  0.29999998805E+02 0.  0.
        -12    1    1    2    0    0 -0.24272540189E+02  0.14474254956E+02 -0.29231925116E+02  0.40659140543E+02  0.00000000000E+00 0.  1.
         11    1    3    3    0    0  0.17726478371E+02 -0.31526640715E+01  0.15202148943E+02  0.23564224131E+02  0.51100000000E-03 0. -1.
        -11    1    3    3    0    0  0.34512674324E+01 -0.26345562258E+00  0.15043853305E+02  0.15436909609E+02  0.51100000000E-03 0.  1.
         12    1    3    3    0    0  0.30947943854E+01 -0.11058135262E+02 -0.10140771320E+01  0.11527725716E+02  0.00000000000E+00 0. -1.
</event>
<event>
 7    1  0.2974434E-011  0.5052886E+02  0.7816164E-02  0.1300439E+00
        -11   -1    0    0    0    0  0.00000000000E+00  0.00000000000E+00  0.45593999997E+02  0.45594000000E+02  0.51100000000E-03 0.  1.
         11   -1    0    0    0    0 -0.00000000000E+00 -0.00000000000E+00 -0.45593999997E+02  0.45594000000E+02  0.51100000000E-03 0. -1.
    9900012    2    1    2    0    0  0.23854974374E+02 -0.29099559263E+02 -0.15405252622E+02  0.50528856379E+02  0.29999989449E+02 0.  0.
        -12    1    1    2    0    0 -0.23854974374E+02  0.29099559263E+02  0.15405252622E+02  0.40659143621E+02  0.00000000000E+00 0.  1.
         11    1    3    3    0    0  0.34958072409E+01 -0.57233435276E+01 -0.11164685625E+02  0.13024113589E+02  0.51100000000E-03 0. -1.
        -11    1    3    3    0    0  0.24184809197E+00  0.32723328972E+01  0.15298796924E+01  0.36203846790E+01  0.51100000000E-03 0.  1.
         12    1    3    3    0    0  0.20117319041E+02 -0.26648548632E+02 -0.57704466890E+01  0.33884358111E+02  0.00000000000E+00 0. -1.
</event>
<event>
 7    1  0.2974434E-011  0.5052887E+02  0.7816164E-02  0.1300439E+00
        -11   -1    0    0    0    0  0.00000000000E+00  0.00000000000E+00  0.45593999997E+02  0.45594000000E+02  0.51100000000E-03 0. -1.
         11   -1    0    0    0    0 -0.00000000000E+00 -0.00000000000E+00 -0.45593999997E+02  0.45594000000E+02  0.51100000000E-03 0.  1.
    9900012    2    1    2    0    0  0.37620149638E+01 -0.24031841293E+01  0.40413321619E+02  0.50528872921E+02  0.30000039730E+02 0.  0.
        -12    1    1    2    0    0 -0.37620149638E+01  0.24031841293E+01 -0.40413321619E+02  0.40659127079E+02  0.00000000000E+00 0.  1.
         11    1    3    3    0    0  0.80364309072E+01 -0.60003137946E+01  0.17252322294E+02  0.19955716278E+02  0.51100000000E-03 0. -1.
        -11    1    3    3    0    0  0.27219894233E+01  0.38201245189E+01 -0.15104530826E+01  0.49278845904E+01  0.51100000000E-03 0.  1.
         12    1    3    3    0    0 -0.69964053667E+01 -0.22299485361E+00  0.24671452408E+02  0.25645272053E+02  0.00000000000E+00 0. -1.
</event>
<event>
 7    1  0.2974434E-011  0.5052884E+02  0.7816164E-02  0.1300439E+00
        -11   -1    0    0    0    0  0.00000000000E+00  0.00000000000E+00  0.45593999997E+02  0.45594000000E+02  0.51100000000E-03 0.  1.
         11   -1    0    0    0    0 -0.00000000000E+00 -0.00000000000E+00 -0.45593999997E+02  0.45594000000E+02  0.51100000000E-03 0. -1.
    9900012    2    1    2    0    0 -0.14110558087E+02  0.21106018101E+02 -0.31758392873E+02  0.50528839071E+02  0.29999936840E+02 0.  0.
        -12    1    1    2    0    0  0.14110558087E+02 -0.21106018101E+02  0.31758392873E+02  0.40659160929E+02  0.00000000000E+00 0.  1.
         11    1    3    3    0    0 -0.26153503739E+01  0.12054412302E+02 -0.17220262382E+02  0.21182217785E+02  0.51100000000E-03 0. -1.
        -11    1    3    3    0    0 -0.72427425765E+01  0.10546322971E+02 -0.19063991387E+02  0.22959050854E+02  0.51100000000E-03 0.  1.
        -12    1    3    3    0    0 -0.42524651370E+01 -0.14947171726E+01  0.45258608967E+01  0.63875704320E+01  0.00000000000E+00 0.  1.
</event>
<event>
 7    1  0.2974434E-011  0.5052889E+02  0.7816164E-02  0.1300439E+00
        -11   -1    0    0    0    0  0.00000000000E+00  0.00000000000E+00  0.45593999997E+02  0.45594000000E+02  0.51100000000E-03 0. -1.
         11   -1    0    0    0    0 -0.00000000000E+00 -0.00000000000E+00 -0.45593999997E+02  0.45594000000E+02  0.51100000000E-03 0.  1.
    9900012    2    1    2    0    0 -0.32763326338E+01  0.36822431806E+02  0.16927423367E+02  0.50528886612E+02  0.30000081347E+02 0.  0.
        -12    1    1    2    0    0  0.32763326338E+01 -0.36822431806E+02 -0.16927423367E+02  0.40659113388E+02  0.00000000000E+00 0.  1.
         11    1    3    3    0    0 -0.48291354825E+01  0.97993849506E+01  0.49183239816E+01  0.11980751478E+02  0.51100000000E-03 0. -1.
        -11    1    3    3    0    0 -0.98057789464E+01  0.22184945183E+02  0.72386576264E+01  0.25312511887E+02  0.51100000000E-03 0.  1.
        -12    1    3    3    0    0  0.11358581795E+02  0.48381016723E+01  0.47704417586E+01  0.13235623248E+02  0.00000000000E+00 0.  1.
</event>
<event>
 7    1  0.2974434E-011  0.5052886E+02  0.7816164E-02  0.1300439E+00
        -11   -1    0    0    0    0  0.00000000000E+00  0.00000000000E+00  0.45593999997E+02  0.45594000000E+02  0.51100000000E-03 0. -1.
         11   -1    0    0    0    0 -0.00000000000E+00 -0.00000000000E+00 -0.45593999997E+02  0.45594000000E+02  0.51100000000E-03 0.  1.
    9900012    2    1    2    0    0 -0.17884272303E+01 -0.38524141315E+02  0.12878562557E+02  0.50528864378E+02  0.30000013763E+02 0.  0.
        -12    1    1    2    0    0  0.17884272303E+01  0.38524141315E+02 -0.12878562557E+02  0.40659135622E+02  0.00000000000E+00 0.  1.
         11    1    3    3    0    0  0.11523397827E+01 -0.20919053393E+02  0.38186203336E+01  0.21295927859E+02  0.51100000000E-03 0. -1.
        -11    1    3    3    0    0 -0.27183629889E+00 -0.20913978708E+02  0.11953456005E+02  0.24090527414E+02  0.51100000000E-03 0.  1.
        -12    1    3    3    0    0 -0.26689307141E+01  0.33088907868E+01 -0.28935137815E+01  0.51424091046E+01  0.00000000000E+00 0.  1.
</event>
<event>
 7    1  0.2974434E-011  0.5052885E+02  0.7816164E-02  0.1300439E+00
        -11   -1    0    0    0    0  0.00000000000E+00  0.00000000000E+00  0.45593999997E+02  0.45594000000E+02  0.51100000000E-03 0. -1.
         11   -1    0    0    0    0 -0.00000000000E+00 -0.00000000000E+00 -0.45593999997E+02  0.45594000000E+02  0.51100000000E-03 0.  1.
    9900012    2    1    2    0    0  0.37791240582E+00  0.40052617020E+02  0.69865513998E+01  0.50528845454E+02  0.29999956243E+02 0.  0.
        -12    1    1    2    0    0 -0.37791240582E+00 -0.40052617020E+02 -0.69865513998E+01  0.40659154546E+02  0.00000000000E+00 0.  1.
         11    1    3    3    0    0  0.16408252818E+00  0.28417835303E+02  0.15235173709E+02  0.32244546897E+02  0.51100000000E-03 0. -1.
        -11    1    3    3    0    0  0.35260785410E+01  0.91012415422E+01 -0.85761496281E+00  0.97980269020E+01  0.51100000000E-03 0.  1.
        -12    1    3    3    0    0 -0.33122486633E+01  0.25335401748E+01 -0.73910073461E+01  0.84862716558E+01  0.00000000000E+00 0.  1.
</event>
<event>
 7    1  0.2974434E-011  0.5052886E+02  0.7816164E-02  0.1300439E+00
        -11   -1    0    0    0    0  0.00000000000E+00  0.00000000000E+00  0.45593999997E+02  0.45594000000E+02  0.51100000000E-03 0.  1.
         11   -1    0    0    0    0 -0.00000000000E+00 -0.00000000000E+00 -0.45593999997E+02  0.45594000000E+02  0.51100000000E-03 0. -1.
    9900012    2    1    2    0    0  0.23806535609E+02 -0.25990497950E+02 -0.20270870557E+02  0.50528864316E+02  0.30000013576E+02 0.  0.
        -12    1    1    2    0    0 -0.23806535609E+02  0.25990497950E+02  0.20270870557E+02  0.40659135684E+02  0.00000000000E+00 0.  1.
         11    1    3    3    0    0  0.18237335600E+02 -0.12131129904E+02 -0.63104971741E+01  0.22794453215E+02  0.51100000000E-03 0. -1.
        -11    1    3    3    0    0 -0.45186056995E+01 -0.12474771572E+02 -0.50257344755E+01  0.14187872657E+02  0.51100000000E-03 0.  1.
         12    1    3    3    0    0  0.10087805709E+02 -0.13845964738E+01 -0.89346389074E+01  0.13546538445E+02  0.00000000000E+00 0. -1.
</event>
<event>
 7    1  0.2974434E-011  0.5052887E+02  0.7816164E-02  0.1300439E+00
        -11   -1    0    0    0    0  0.00000000000E+00  0.00000000000E+00  0.45593999997E+02  0.45594000000E+02  0.51100000000E-03 0.  1.
         11   -1    0    0    0    0 -0.00000000000E+00 -0.00000000000E+00 -0.45593999997E+02  0.45594000000E+02  0.51100000000E-03 0. -1.
    9900012    2    1    2    0    0 -0.20307175810E+02  0.30351868254E+02 -0.17875902579E+02  0.50528865862E+02  0.30000018274E+02 0.  0.
        -12    1    1    2    0    0  0.20307175810E+02 -0.30351868254E+02  0.17875902579E+02  0.40659134138E+02  0.00000000000E+00 0.  1.
         11    1    3    3    0    0 -0.99539459868E+01  0.13233424093E+02 -0.38611839554E+00  0.16563624048E+02  0.51100000000E-03 0. -1.
        -11    1    3    3    0    0 -0.16310362758E+02  0.98126177230E+01 -0.81849387769E+01  0.20719764065E+02  0.51100000000E-03 0.  1.
        -12    1    3    3    0    0  0.59571329353E+01  0.73058264376E+01 -0.93048454062E+01  0.13245477748E+02  0.00000000000E+00 0.  1.
</event>
<event>
 7    1  0.2974434E-011  0.5052886E+02  0.7816164E-02  0.1300439E+00
        -11   -1    0    0    0    0  0.00000000000E+00  0.00000000000E+00  0.45593999997E+02  0.45594000000E+02  0.51100000000E-03 0.  1.
         11   -1    0    0    0    0 -0.00000000000E+00 -0.00000000000E+00 -0.45593999997E+02  0.45594000000E+02  0.51100000000E-03 0. -1.
    9900012    2    1    2    0    0  0.82846347826E+01  0.94383473789E+01 -0.38671023245E+02  0.50528860639E+02  0.30000002399E+02 0.  0.
        -12    1    1    2    0    0 -0.82846347826E+01 -0.94383473789E+01  0.38671023245E+02  0.40659139361E+02  0.00000000000E+00 0.  1.
         11    1    3    3    0    0  0.11230558010E+02  0.89066328844E+01 -0.27199734085E+02  0.30745391152E+02  0.51100000000E-03 0. -1.
        -11    1    3    3    0    0  0.57445204816E+01 -0.13246703063E+01 -0.86346395873E+01  0.10455202918E+02  0.51100000000E-03 0.  1.
        -12    1    3    3    0    0 -0.86904437089E+01  0.18563848008E+01 -0.28366495730E+01  0.93282665692E+01  0.00000000000E+00 0.  1.
</event>
<event>
 7    1  0.2974434E-011  0.5052885E+02  0.7816164E-02  0.1300439E+00
        -11   -1    0    0    0    0  0.00000000000E+00  0.00000000000E+00  0.45593999997E+02  0.45594000000E+02  0.51100000000E-03 0.  1.
         11   -1    0    0    0    0 -0.00000000000E+00 -0.00000000000E+00 -0.45593999997E+02  0.45594000000E+02  0.51100000000E-03 0. -1.
    9900012    2    1    2    0    0 -0.10284253239E+02  0.43561916571E+01 -0.39095069343E+02  0.50528847066E+02  0.29999961140E+02 0.  0.
        -12    1    1    2    0    0  0.10284253239E+02 -0.43561916571E+01  0.39095069343E+02  0.40659152934E+02  0.00000000000E+00 0.  1.
         11    1    3    3    0    0  0.71236487145E+00  0.51078806641E+01 -0.16586514052E+02  0.17369811664E+02  0.51100000000E-03 0. -1.
        -11    1    3    3    0    0 -0.29421267723E+01  0.32730337913E+01  0.35082419472E+01  0.56281988206E+01  0.51100000000E-03 0.  1.
         12    1    3    3    0    0 -0.80544913383E+01 -0.40247227984E+01 -0.26016797238E+02  0.27530836581E+02  0.00000000000E+00 0. -1.
</event>
<event>
 7    1  0.2974434E-011  0.5052885E+02  0.7816164E-02  0.1300439E+00
        -11   -1    0    0    0    0  0.00000000000E+00  0.00000000000E+00  0.45593999997E+02  0.45594000000E+02  0.51100000000E-03 0.  1.
         11   -1    0    0    0    0 -0.00000000000E+00 -0.00000000000E+00 -0.45593999997E+02  0.45594000000E+02  0.51100000000E-03 0. -1.
    9900012    2    1    2    0    0  0.20439334494E+00  0.23053915887E+02 -0.33490913636E+02  0.50528854528E+02  0.29999983823E+02 0.  0.
        -12    1    1    2    0    0 -0.20439334494E+00 -0.23053915887E+02  0.33490913636E+02  0.40659145472E+02  0.00000000000E+00 0.  1.
         11    1    3    3    0    0 -0.36848942845E+01  0.11950484501E+02 -0.10767643567E+02  0.16502565677E+02  0.51100000000E-03 0. -1.
        -11    1    3    3    0    0 -0.78281331063E+01  0.57415056026E+01 -0.17716240281E+02  0.20201725780E+02  0.51100000000E-03 0.  1.
        -12    1    3    3    0    0  0.11717420736E+02  0.53619257829E+01 -0.50070297880E+01  0.13824563071E+02  0.00000000000E+00 0.  1.
</event>
<event>
 7    1  0.2974434E-011  0.5052886E+02  0.7816164E-02  0.1300439E+00
        -11   -1    0    0    0    0  0.00000000000E+00  0.00000000000E+00  0.45593999997E+02  0.45594000000E+02  0.51100000000E-03 0. -1.
         11   -1    0    0    0    0 -0.00000000000E+00 -0.00000000000E+00 -0.45593999997E+02  0.45594000000E+02  0.51100000000E-03 0.  1.
    9900012    2    1    2    0    0 -0.40121877242E+02  0.52967835549E+01  0.39172688602E+01  0.50528856566E+02  0.29999990018E+02 0.  0.
        -12    1    1    2    0    0  0.40121877242E+02 -0.52967835549E+01 -0.39172688602E+01  0.40659143434E+02  0.00000000000E+00 0.  1.
         11    1    3    3    0    0 -0.39148885410E+02  0.98559925279E+01 -0.14281549053E-01  0.40370484537E+02  0.51100000000E-03 0. -1.
        -11    1    3    3    0    0 -0.11811577851E+01  0.22569396602E+01  0.10852497606E+01  0.27688766038E+01  0.51100000000E-03 0.  1.
         12    1    3    3    0    0  0.20816595298E+00 -0.68161486331E+01  0.28463006486E+01  0.73894954249E+01  0.00000000000E+00 0. -1.
</event>
<event>
 7    1  0.2974434E-011  0.5052886E+02  0.7816164E-02  0.1300439E+00
        -11   -1    0    0    0    0  0.00000000000E+00  0.00000000000E+00  0.45593999997E+02  0.45594000000E+02  0.51100000000E-03 0.  1.
         11   -1    0    0    0    0 -0.00000000000E+00 -0.00000000000E+00 -0.45593999997E+02  0.45594000000E+02  0.51100000000E-03 0. -1.
    9900012    2    1    2    0    0 -0.30027067076E+02 -0.26952254070E+02 -0.50116934743E+01  0.50528858001E+02  0.29999994380E+02 0.  0.
        -12    1    1    2    0    0  0.30027067076E+02  0.26952254070E+02  0.50116934743E+01  0.40659141999E+02  0.00000000000E+00 0.  1.
         11    1    3    3    0    0 -0.15851639114E+02 -0.15248097960E+02 -0.97098814567E+01  0.24042894005E+02  0.51100000000E-03 0. -1.
        -11    1    3    3    0    0 -0.52935374240E-02  0.40210095444E+01 -0.17099660079E+01  0.43694999470E+01  0.51100000000E-03 0.  1.
        -12    1    3    3    0    0 -0.14170134424E+02 -0.15725165655E+02  0.64081539903E+01  0.22116464049E+02  0.00000000000E+00 0.  1.
</event>
<event>
 7    1  0.2974434E-011  0.5052885E+02  0.7816164E-02  0.1300439E+00
        -11   -1    0    0    0    0  0.00000000000E+00  0.00000000000E+00  0.45593999997E+02  0.45594000000E+02  0.51100000000E-03 0.  1.
         11   -1    0    0    0    0 -0.00000000000E+00 -0.00000000000E+00 -0.45593999997E+02  0.45594000000E+02  0.51100000000E-03 0. -1.
    9900012    2    1    2    0    0  0.11728674422E+02 -0.12344807243E+02 -0.36921675637E+02  0.50528853411E+02  0.29999980427E+02 0.  0.
        -12    1    1    2    0    0 -0.11728674422E+02  0.12344807243E+02  0.36921675637E+02  0.40659146589E+02  0.00000000000E+00 0.  1.
         11    1    3    3    0    0  0.15659504143E+02 -0.92214546626E+01 -0.27354998766E+02  0.32841304083E+02  0.51100000000E-03 0. -1.
        -11    1    3    3    0    0  0.29427050177E+01  0.47312979128E+00  0.21220669722E+01  0.36587611450E+01  0.51100000000E-03 0.  1.
         12    1    3    3    0    0 -0.68735347392E+01 -0.35964823713E+01 -0.11688743843E+02  0.14028788183E+02  0.00000000000E+00 0. -1.
</event>
<event>
 7    1  0.2974434E-011  0.5052888E+02  0.7816164E-02  0.1300439E+00
        -11   -1    0    0    0    0  0.00000000000E+00  0.00000000000E+00  0.45593999997E+02  0.45594000000E+02  0.51100000000E-03 0.  1.
         11   -1    0    0    0    0 -0.00000000000E+00 -0.00000000000E+00 -0.45593999997E+02  0.45594000000E+02  0.51100000000E-03 0. -1.
    9900012    2    1    2    0    0  0.35225865481E+02  0.38720170320E+01 -0.19932624509E+02  0.50528884975E+02  0.30000076370E+02 0.  0.
        -12    1    1    2    0    0 -0.35225865481E+02 -0.38720170320E+01  0.19932624509E+02  0.40659115025E+02  0.00000000000E+00 0.  1.
         11    1    3    3    0    0  0.14908844395E+02 -0.20785328888E+01 -0.14245076889E+02  0.20724771555E+02  0.51100000000E-03 0. -1.
        -11    1    3    3    0    0 -0.37390368973E+01  0.15715117062E+01  0.14902272164E+01  0.43209748182E+01  0.51100000000E-03 0.  1.
         12    1    3    3    0    0  0.24056057983E+02  0.43790382146E+01 -0.71777748359E+01  0.25483138601E+02  0.00000000000E+00 0. -1.
</event>
<event>
 7    1  0.2974434E-011  0.5052885E+02  0.7816164E-02  0.1300439E+00
        -11   -1    0    0    0    0  0.00000000000E+00  0.00000000000E+00  0.45593999997E+02  0.45594000000E+02  0.51100000000E-03 0.  1.
         11   -1    0    0    0    0 -0.00000000000E+00 -0.00000000000E+00 -0.45593999997E+02  0.45594000000E+02  0.51100000000E-03 0. -1.
    9900012    2    1    2    0    0 -0.33566581844E+02 -0.21688293690E+02 -0.74879036429E+01  0.50528853417E+02  0.29999980447E+02 0.  0.
        -12    1    1    2    0    0  0.33566581844E+02  0.21688293690E+02  0.74879036429E+01  0.40659146583E+02  0.00000000000E+00 0.  1.
         11    1    3    3    0    0 -0.14761530548E+01 -0.11545147245E+02 -0.39760363722E+01  0.12299525123E+02  0.51100000000E-03 0. -1.
        -11    1    3    3    0    0 -0.22800891758E+02 -0.10569617021E+02  0.49982252088E+01  0.25623811669E+02  0.51100000000E-03 0.  1.
         12    1    3    3    0    0 -0.92895370309E+01  0.42647057555E+00 -0.85100924794E+01  0.12605516626E+02  0.00000000000E+00 0. -1.
</event>
<event>
 7    1  0.2974434E-011  0.5052887E+02  0.7816164E-02  0.1300439E+00
        -11   -1    0    0    0    0  0.00000000000E+00  0.00000000000E+00  0.45593999997E+02  0.45594000000E+02  0.51100000000E-03 0. -1.
         11   -1    0    0    0    0 -0.00000000000E+00 -0.00000000000E+00 -0.45593999997E+02  0.45594000000E+02  0.51100000000E-03 0.  1.
    9900012    2    1    2    0    0 -0.33568523498E+02  0.21331129646E+02  0.84440415347E+01  0.50528871883E+02  0.30000036575E+02 0.  0.
        -12    1    1    2    0    0  0.33568523498E+02 -0.21331129646E+02 -0.84440415347E+01  0.40659128117E+02  0.00000000000E+00 0.  1.
         11    1    3    3    0    0 -0.51434366379E+00 -0.32316615881E+01  0.12508152545E+01  0.35032449367E+01  0.51100000000E-03 0. -1.
        -11    1    3    3    0    0 -0.14003595162E+02 -0.16102686229E+01  0.18906177563E+01  0.14222098237E+02  0.51100000000E-03 0.  1.
         12    1    3    3    0    0 -0.19050584673E+02  0.26173059857E+02  0.53026085239E+01  0.32803528709E+02  0.00000000000E+00 0. -1.
</event>
<event>
 7    1  0.2974434E-011  0.5052885E+02  0.7816164E-02  0.1300439E+00
        -11   -1    0    0    0    0  0.00000000000E+00  0.00000000000E+00  0.45593999997E+02  0.45594000000E+02  0.51100000000E-03 0.  1.
         11   -1    0    0    0    0 -0.00000000000E+00 -0.00000000000E+00 -0.45593999997E+02  0.45594000000E+02  0.51100000000E-03 0. -1.
    9900012    2    1    2    0    0  0.17092348417E+02 -0.17476000116E+02 -0.32490108250E+02  0.50528854798E+02  0.29999984644E+02 0.  0.
        -12    1    1    2    0    0 -0.17092348417E+02  0.17476000116E+02  0.32490108250E+02  0.40659145202E+02  0.00000000000E+00 0.  1.
         11    1    3    3    0    0  0.12042912254E+02 -0.16527283510E+02 -0.29866168547E+02  0.36196282402E+02  0.51100000000E-03 0. -1.
        -11    1    3    3    0    0  0.39062571160E+01  0.49841728470E+01 -0.47622018317E+01  0.79233446329E+01  0.51100000000E-03 0.  1.
        -12    1    3    3    0    0  0.11431790471E+01 -0.59328894523E+01  0.21382621284E+01  0.64092277629E+01  0.00000000000E+00 0.  1.
</event>
<event>
 7    1  0.2974434E-011  0.5052889E+02  0.7816164E-02  0.1300439E+00
        -11   -1    0    0    0    0  0.00000000000E+00  0.00000000000E+00  0.45593999997E+02  0.45594000000E+02  0.51100000000E-03 0.  1.
         11   -1    0    0    0    0 -0.00000000000E+00 -0.00000000000E+00 -0.45593999997E+02  0.45594000000E+02  0.51100000000E-03 0. -1.
    9900012    2    1    2    0    0  0.34265873257E+02  0.21591952386E+02  0.35778569315E+01  0.50528886162E+02  0.30000079977E+02 0.  0.
        -12    1    1    2    0    0 -0.34265873257E+02 -0.21591952386E+02 -0.35778569315E+01  0.40659113838E+02  0.00000000000E+00 0.  1.
         11    1    3    3    0    0  0.11642415674E+02  0.23230823301E+01 -0.20289113275E+01  0.12044045652E+02  0.51100000000E-03 0. -1.
        -11    1    3    3    0    0  0.22074389853E+02  0.20358439567E+02 -0.26431719442E+01  0.30145167227E+02  0.51100000000E-03 0.  1.
        -12    1    3    3    0    0  0.54906773046E+00 -0.10895695118E+01  0.82499402033E+01  0.83396732820E+01  0.00000000000E+00 0.  1.
</event>
<event>
 7    1  0.2974434E-011  0.5052888E+02  0.7816164E-02  0.1300439E+00
        -11   -1    0    0    0    0  0.00000000000E+00  0.00000000000E+00  0.45593999997E+02  0.45594000000E+02  0.51100000000E-03 0. -1.
         11   -1    0    0    0    0 -0.00000000000E+00 -0.00000000000E+00 -0.45593999997E+02  0.45594000000E+02  0.51100000000E-03 0.  1.
    9900012    2    1    2    0    0 -0.17120927411E+02 -0.31694780268E+02  0.18854151918E+02  0.50528876839E+02  0.30000051640E+02 0.  0.
        -12    1    1    2    0    0  0.17120927411E+02  0.31694780268E+02 -0.18854151918E+02  0.40659123161E+02  0.00000000000E+00 0.  1.
         11    1    3    3    0    0 -0.12126078801E+02 -0.64219704935E+01  0.25673829113E+01  0.13959761723E+02  0.51100000000E-03 0. -1.
        -11    1    3    3    0    0 -0.46455121968E+01 -0.32963547367E+01 -0.37563849924E+01  0.68232812189E+01  0.51100000000E-03 0.  1.
         12    1    3    3    0    0 -0.34933641387E+00 -0.21976455038E+02  0.20043153999E+02  0.29745833897E+02  0.00000000000E+00 0. -1.
</event>
<event>
 7    1  0.2974434E-011  0.5052887E+02  0.7816164E-02  0.1300439E+00
        -11   -1    0    0    0    0  0.00000000000E+00  0.00000000000E+00  0.45593999997E+02  0.45594000000E+02  0.51100000000E-03 0.  1.
         11   -1    0    0    0    0 -0.00000000000E+00 -0.00000000000E+00 -0.45593999997E+02  0.45594000000E+02  0.51100000000E-03 0. -1.
    9900012    2    1    2    0    0 -0.23190170183E+02 -0.32371713516E+01 -0.33240062961E+02  0.50528867482E+02  0.30000023198E+02 0.  0.
        -12    1    1    2    0    0  0.23190170183E+02  0.32371713516E+01  0.33240062961E+02  0.40659132518E+02  0.00000000000E+00 0.  1.
         11    1    3    3    0    0  0.21856187030E+01 -0.13244320961E+01 -0.29647416600E+01  0.39141720534E+01  0.51100000000E-03 0. -1.
        -11    1    3    3    0    0  0.31909845961E+01 -0.33019871541E+01  0.47904937287E+00  0.46168160481E+01  0.51100000000E-03 0.  1.
         12    1    3    3    0    0 -0.28566773482E+02  0.13892478986E+01 -0.30754370674E+02  0.41997879380E+02  0.00000000000E+00 0. -1.
</event>
<event>
 7    1  0.2974434E-011  0.5052885E+02  0.7816164E-02  0.1300439E+00
        -11   -1    0    0    0    0  0.00000000000E+00  0.00000000000E+00  0.45593999997E+02  0.45594000000E+02  0.51100000000E-03 0.  1.
         11   -1    0    0    0    0 -0.00000000000E+00 -0.00000000000E+00 -0.45593999997E+02  0.45594000000E+02  0.51100000000E-03 0. -1.
    9900012    2    1    2    0    0  0.33160784636E+01 -0.40046282743E+02 -0.62020154928E+01  0.50528854238E+02  0.29999982941E+02 0.  0.
        -12    1    1    2    0    0 -0.33160784636E+01  0.40046282743E+02  0.62020154928E+01  0.40659145762E+02  0.00000000000E+00 0.  1.
         11    1    3    3    0    0  0.49653977047E+01 -0.21400900798E+02  0.38334476797E+00  0.21972725885E+02  0.51100000000E-03 0. -1.
        -11    1    3    3    0    0  0.24740524904E+01 -0.11013395832E+02 -0.13402995414E+02  0.17523016573E+02  0.51100000000E-03 0.  1.
         12    1    3    3    0    0 -0.41233717315E+01 -0.76319861130E+01  0.68176351533E+01  0.11033111780E+02  0.00000000000E+00 0. -1.
</event>
<event>
 7    1  0.2974434E-011  0.5052887E+02  0.7816164E-02  0.1300439E+00
        -11   -1    0    0    0    0  0.00000000000E+00  0.00000000000E+00  0.45593999997E+02  0.45594000000E+02  0.51100000000E-03 0. -1.
         11   -1    0    0    0    0 -0.00000000000E+00 -0.00000000000E+00 -0.45593999997E+02  0.45594000000E+02  0.51100000000E-03 0.  1.
    9900012    2    1    2    0    0  0.28438619039E+00 -0.32642123837E+02 -0.24239955871E+02  0.50528873291E+02  0.30000040856E+02 0.  0.
        -12    1    1    2    0    0 -0.28438619039E+00  0.32642123837E+02  0.24239955871E+02  0.40659126709E+02  0.00000000000E+00 0.  1.
         11    1    3    3    0    0 -0.35576683384E+00  0.23462607206E+01 -0.25107308556E+01  0.34547473279E+01  0.51100000000E-03 0. -1.
        -11    1    3    3    0    0  0.51928226843E+01  0.10617152271E+01 -0.40178520673E+01  0.66509985829E+01  0.51100000000E-03 0.  1.
         12    1    3    3    0    0 -0.45526696600E+01 -0.36050099784E+02 -0.17711372948E+02  0.40423127380E+02  0.00000000000E+00 0. -1.
</event>
<event>
 7    1  0.2974434E-011  0.5052886E+02  0.7816164E-02  0.1300439E+00
        -11   -1    0    0    0    0  0.00000000000E+00  0.00000000000E+00  0.45593999997E+02  0.45594000000E+02  0.51100000000E-03 0. -1.
         11   -1    0    0    0    0 -0.00000000000E+00 -0.00000000000E+00 -0.45593999997E+02  0.45594000000E+02  0.51100000000E-03 0.  1.
    9900012    2    1    2    0    0 -0.97586096498E+01  0.39443366519E+02 -0.14684385019E+01  0.50528856671E+02  0.29999990337E+02 0.  0.
        -12    1    1    2    0    0  0.97586096498E+01 -0.39443366519E+02  0.14684385019E+01  0.40659143329E+02  0.00000000000E+00 0.  1.
         11    1    3    3    0    0 -0.34941999569E+01  0.16450015316E+02 -0.19512185181E+01  0.16929846166E+02  0.51100000000E-03 0. -1.
        -11    1    3    3    0    0 -0.86494663570E+01  0.27295365156E+02  0.10175514458E+01  0.28651101872E+02  0.51100000000E-03 0.  1.
        -12    1    3    3    0    0  0.23850566641E+01 -0.43020139542E+01 -0.53477142959E+00  0.49479086324E+01  0.00000000000E+00 0.  1.
</event>
<event>
 7    1  0.2974434E-011  0.5052886E+02  0.7816164E-02  0.1300439E+00
        -11   -1    0    0    0    0  0.00000000000E+00  0.00000000000E+00  0.45593999997E+02  0.45594000000E+02  0.51100000000E-03 0.  1.
         11   -1    0    0    0    0 -0.00000000000E+00 -0.00000000000E+00 -0.45593999997E+02  0.45594000000E+02  0.51100000000E-03 0. -1.
    9900012    2    1    2    0    0 -0.59055744305E+01 -0.94690262996E+01 -0.39097666347E+02  0.50528858565E+02  0.29999996095E+02 0.  0.
        -12    1    1    2    0    0  0.59055744305E+01  0.94690262996E+01  0.39097666347E+02  0.40659141435E+02  0.00000000000E+00 0.  1.
         11    1    3    3    0    0 -0.90714858833E+01 -0.73499418881E+01 -0.18155474949E+02  0.21585522295E+02  0.51100000000E-03 0. -1.
        -11    1    3    3    0    0 -0.13039284404E+01  0.70450870311E+01 -0.16168853848E+02  0.17685172198E+02  0.51100000000E-03 0.  1.
         12    1    3    3    0    0  0.44698398931E+01 -0.91641714426E+01 -0.47733375506E+01  0.11258164072E+02  0.00000000000E+00 0. -1.
</event>
<event>
 7    1  0.2974434E-011  0.5052886E+02  0.7816164E-02  0.1300439E+00
        -11   -1    0    0    0    0  0.00000000000E+00  0.00000000000E+00  0.45593999997E+02  0.45594000000E+02  0.51100000000E-03 0.  1.
         11   -1    0    0    0    0 -0.00000000000E+00 -0.00000000000E+00 -0.45593999997E+02  0.45594000000E+02  0.51100000000E-03 0. -1.
    9900012    2    1    2    0    0 -0.16902652688E+02 -0.13750206735E+02 -0.34327796110E+02  0.50528862787E+02  0.30000008927E+02 0.  0.
        -12    1    1    2    0    0  0.16902652688E+02  0.13750206735E+02  0.34327796110E+02  0.40659137213E+02  0.00000000000E+00 0.  1.
         11    1    3    3    0    0 -0.52122223268E+01 -0.14518961997E+02 -0.15811618984E+02  0.22090151974E+02  0.51100000000E-03 0. -1.
        -11    1    3    3    0    0 -0.20243685383E+01 -0.56286082581E+01  0.67404844767E+00  0.60194385513E+01  0.51100000000E-03 0.  1.
        -12    1    3    3    0    0 -0.96660618227E+01  0.63973635204E+01 -0.19190225574E+02  0.22419272262E+02  0.00000000000E+00 0.  1.
</event>
<event>
 7    1  0.2974434E-011  0.5052887E+02  0.7816164E-02  0.1300439E+00
        -11   -1    0    0    0    0  0.00000000000E+00  0.00000000000E+00  0.45593999997E+02  0.45594000000E+02  0.51100000000E-03 0. -1.
         11   -1    0    0    0    0 -0.00000000000E+00 -0.00000000000E+00 -0.45593999997E+02  0.45594000000E+02  0.51100000000E-03 0.  1.
    9900012    2    1    2    0    0  0.35922123089E+01  0.31473411818E+02  0.25488928588E+02  0.50528866693E+02  0.30000020799E+02 0.  0.
        -12    1    1    2    0    0 -0.35922123089E+01 -0.31473411818E+02 -0.25488928588E+02  0.40659133307E+02  0.00000000000E+00 0.  1.
         11    1    3    3    0    0  0.10130950179E+02  0.16127620998E+02  0.76413816537E+01  0.20521379691E+02  0.51100000000E-03 0. -1.
        -11    1    3    3    0    0 -0.59486727938E+01  0.56750472172E+01 -0.15115186201E+01  0.83592797372E+01  0.51100000000E-03 0.  1.
         12    1    3    3    0    0 -0.59006507666E+00  0.96707436031E+01  0.19359065554E+02  0.21648207264E+02  0.00000000000E+00 0. -1.
</event>
<event>
 7    1  0.2974434E-011  0.5052886E+02  0.7816164E-02  0.1300439E+00
        -11   -1    0    0    0    0  0.00000000000E+00  0.00000000000E+00  0.45593999997E+02  0.45594000000E+02  0.51100000000E-03 0. -1.
         11   -1    0    0    0    0 -0.00000000000E+00 -0.00000000000E+00 -0.45593999997E+02  0.45594000000E+02  0.51100000000E-03 0.  1.
    9900012    2    1    2    0    0 -0.96458466810E+01  0.17736769445E+02  0.35292071183E+02  0.50528860352E+02  0.30000001525E+02 0.  0.
        -12    1    1    2    0    0  0.96458466810E+01 -0.17736769445E+02 -0.35292071183E+02  0.40659139648E+02  0.00000000000E+00 0.  1.
         11    1    3    3    0    0  0.20155979197E+01  0.12556564054E+02  0.13766112034E+02  0.18741285351E+02  0.51100000000E-03 0. -1.
        -11    1    3    3    0    0  0.51498705571E+01  0.33831438118E+01  0.82170791869E+01  0.10270697125E+02  0.51100000000E-03 0.  1.
         12    1    3    3    0    0 -0.16811315158E+02  0.17970615792E+01  0.13308879962E+02  0.21516877875E+02  0.00000000000E+00 0. -1.
</event>
<event>
 7    1  0.2974434E-011  0.5052886E+02  0.7816164E-02  0.1300439E+00
        -11   -1    0    0    0    0  0.00000000000E+00  0.00000000000E+00  0.45593999997E+02  0.45594000000E+02  0.51100000000E-03 0.  1.
         11   -1    0    0    0    0 -0.00000000000E+00 -0.00000000000E+00 -0.45593999997E+02  0.45594000000E+02  0.51100000000E-03 0. -1.
    9900012    2    1    2    0    0 -0.19793939511E+02 -0.94642647385E+01 -0.34231469440E+02  0.50528857751E+02  0.29999993620E+02 0.  0.
        -12    1    1    2    0    0  0.19793939511E+02  0.94642647385E+01  0.34231469440E+02  0.40659142249E+02  0.00000000000E+00 0.  1.
         11    1    3    3    0    0 -0.22976780834E+02 -0.42402529615E+01 -0.18874751041E+02  0.30036118754E+02  0.51100000000E-03 0. -1.
        -11    1    3    3    0    0  0.18054363777E+01  0.27668985308E+01 -0.20807031217E+00  0.33103808708E+01  0.51100000000E-03 0.  1.
        -12    1    3    3    0    0  0.13774049454E+01 -0.79909103079E+01 -0.15148648087E+02  0.17182358126E+02  0.00000000000E+00 0.  1.
</event>
<event>
 7    1  0.2974434E-011  0.5052886E+02  0.7816164E-02  0.1300439E+00
        -11   -1    0    0    0    0  0.00000000000E+00  0.00000000000E+00  0.45593999997E+02  0.45594000000E+02  0.51100000000E-03 0. -1.
         11   -1    0    0    0    0 -0.00000000000E+00 -0.00000000000E+00 -0.45593999997E+02  0.45594000000E+02  0.51100000000E-03 0.  1.
    9900012    2    1    2    0    0 -0.66512176841E+01  0.40074462844E+01  0.39910742794E+02  0.50528859419E+02  0.29999998691E+02 0.  0.
        -12    1    1    2    0    0  0.66512176841E+01 -0.40074462844E+01 -0.39910742794E+02  0.40659140581E+02  0.00000000000E+00 0.  1.
         11    1    3    3    0    0  0.45745270028E+01 -0.19165758607E+01  0.62861308273E+01  0.80071843596E+01  0.51100000000E-03 0. -1.
        -11    1    3    3    0    0  0.10835372549E+01  0.10455658984E+01 -0.31199377587E+01  0.34642853390E+01  0.51100000000E-03 0.  1.
         12    1    3    3    0    0 -0.12309281942E+02  0.48784562466E+01  0.36744549725E+02  0.39057389721E+02  0.00000000000E+00 0. -1.
</event>
<event>
 7    1  0.2974434E-011  0.5052886E+02  0.7816164E-02  0.1300439E+00
        -11   -1    0    0    0    0  0.00000000000E+00  0.00000000000E+00  0.45593999997E+02  0.45594000000E+02  0.51100000000E-03 0. -1.
         11   -1    0    0    0    0 -0.00000000000E+00 -0.00000000000E+00 -0.45593999997E+02  0.45594000000E+02  0.51100000000E-03 0.  1.
    9900012    2    1    2    0    0 -0.20270340654E+01  0.11149597057E+02  0.39047958474E+02  0.50528862741E+02  0.30000008787E+02 0.  0.
        -12    1    1    2    0    0  0.20270340654E+01 -0.11149597057E+02 -0.39047958474E+02  0.40659137259E+02  0.00000000000E+00 0.  1.
         11    1    3    3    0    0 -0.45509816002E+01 -0.60710466678E+01  0.63454184264E+01  0.98910755955E+01  0.51100000000E-03 0. -1.
        -11    1    3    3    0    0 -0.37938418667E+00  0.21985020440E+01 -0.18183873575E+01  0.28781724134E+01  0.51100000000E-03 0.  1.
         12    1    3    3    0    0  0.29033317215E+01  0.15022141681E+02  0.34520927406E+02  0.37759614732E+02  0.00000000000E+00 0. -1.
</event>
<event>
 7    1  0.2974434E-011  0.5052886E+02  0.7816164E-02  0.1300439E+00
        -11   -1    0    0    0    0  0.00000000000E+00  0.00000000000E+00  0.45593999997E+02  0.45594000000E+02  0.51100000000E-03 0. -1.
         11   -1    0    0    0    0 -0.00000000000E+00 -0.00000000000E+00 -0.45593999997E+02  0.45594000000E+02  0.51100000000E-03 0.  1.
    9900012    2    1    2    0    0  0.70418129607E+00  0.35608591834E+02 -0.19613723289E+02  0.50528858040E+02  0.29999994498E+02 0.  0.
        -12    1    1    2    0    0 -0.70418129607E+00 -0.35608591834E+02  0.19613723289E+02  0.40659141960E+02  0.00000000000E+00 0.  1.
         11    1    3    3    0    0 -0.17892641576E+01  0.17457902767E+02 -0.79558715103E+01  0.19268516471E+02  0.51100000000E-03 0. -1.
        -11    1    3    3    0    0  0.41529524363E+01  0.18182383831E+02 -0.17263538072E+02  0.25414087486E+02  0.51100000000E-03 0.  1.
        -12    1    3    3    0    0 -0.16595069827E+01 -0.31694764743E-01  0.56056862932E+01  0.58462540828E+01  0.00000000000E+00 0.  1.
</event>
<event>
 7    1  0.2974434E-011  0.5052885E+02  0.7816164E-02  0.1300439E+00
        -11   -1    0    0    0    0  0.00000000000E+00  0.00000000000E+00  0.45593999997E+02  0.45594000000E+02  0.51100000000E-03 0.  1.
         11   -1    0    0    0    0 -0.00000000000E+00 -0.00000000000E+00 -0.45593999997E+02  0.45594000000E+02  0.51100000000E-03 0. -1.
    9900012    2    1    2    0    0  0.11803970712E+02 -0.20746058538E+00 -0.38907450147E+02  0.50528850458E+02  0.29999971453E+02 0.  0.
        -12    1    1    2    0    0 -0.11803970712E+02  0.20746058538E+00  0.38907450147E+02  0.40659149542E+02  0.00000000000E+00 0.  1.
         11    1    3    3    0    0  0.53340908869E+01  0.22335095370E+01  0.11858477286E+01  0.59031623337E+01  0.51100000000E-03 0. -1.
        -11    1    3    3    0    0 -0.28706060083E+01 -0.53476272672E+00  0.46970549402E+00  0.29575282823E+01  0.51100000000E-03 0.  1.
         12    1    3    3    0    0  0.93404858336E+01 -0.19062073957E+01 -0.40563003370E+02  0.41668159842E+02  0.00000000000E+00 0. -1.
</event>
<event>
 7    1  0.2974434E-011  0.5052886E+02  0.7816164E-02  0.1300439E+00
        -11   -1    0    0    0    0  0.00000000000E+00  0.00000000000E+00  0.45593999997E+02  0.45594000000E+02  0.51100000000E-03 0.  1.
         11   -1    0    0    0    0 -0.00000000000E+00 -0.00000000000E+00 -0.45593999997E+02  0.45594000000E+02  0.51100000000E-03 0. -1.
    9900012    2    1    2    0    0 -0.40330760088E+01 -0.39172324852E+02 -0.10120717465E+02  0.50528860088E+02  0.30000000723E+02 0.  0.
        -12    1    1    2    0    0  0.40330760088E+01  0.39172324852E+02  0.10120717465E+02  0.40659139912E+02  0.00000000000E+00 0.  1.
         11    1    3    3    0    0 -0.38766036449E+01 -0.11322882709E+02 -0.81887729047E+01  0.14501438915E+02  0.51100000000E-03 0. -1.
        -11    1    3    3    0    0  0.60686958745E+01  0.21421677517E+00 -0.38956066048E+01  0.72146177670E+01  0.51100000000E-03 0.  1.
        -12    1    3    3    0    0 -0.62251682384E+01 -0.28063658918E+02  0.19636620442E+01  0.28812803406E+02  0.00000000000E+00 0.  1.
</event>
<event>
 7    1  0.2974434E-011  0.5052886E+02  0.7816164E-02  0.1300439E+00
        -11   -1    0    0    0    0  0.00000000000E+00  0.00000000000E+00  0.45593999997E+02  0.45594000000E+02  0.51100000000E-03 0.  1.
         11   -1    0    0    0    0 -0.00000000000E+00 -0.00000000000E+00 -0.45593999997E+02  0.45594000000E+02  0.51100000000E-03 0. -1.
    9900012    2    1    2    0    0 -0.80100212961E+01 -0.37841404887E+02 -0.12531288700E+02  0.50528861280E+02  0.30000004346E+02 0.  0.
        -12    1    1    2    0    0  0.80100212961E+01  0.37841404887E+02  0.12531288700E+02  0.40659138720E+02  0.00000000000E+00 0.  1.
         11    1    3    3    0    0 -0.16511273019E+02 -0.23740517341E+02 -0.71859654801E+01  0.29797187794E+02  0.51100000000E-03 0. -1.
        -11    1    3    3    0    0 -0.18851470953E+01 -0.28466300204E+01 -0.41450558306E+01  0.53701555046E+01  0.51100000000E-03 0.  1.
        -12    1    3    3    0    0  0.10386398818E+02 -0.11254257526E+02 -0.12002673889E+01  0.15361517981E+02  0.00000000000E+00 0.  1.
</event>
<event>
 7    1  0.2974434E-011  0.5052887E+02  0.7816164E-02  0.1300439E+00
        -11   -1    0    0    0    0  0.00000000000E+00  0.00000000000E+00  0.45593999997E+02  0.45594000000E+02  0.51100000000E-03 0.  1.
         11   -1    0    0    0    0 -0.00000000000E+00 -0.00000000000E+00 -0.45593999997E+02  0.45594000000E+02  0.51100000000E-03 0. -1.
    9900012    2    1    2    0    0 -0.16547773121E+02  0.59302119600E+01 -0.36662910777E+02  0.50528865285E+02  0.30000016519E+02 0.  0.
        -12    1    1    2    0    0  0.16547773121E+02 -0.59302119600E+01  0.36662910777E+02  0.40659134715E+02  0.00000000000E+00 0.  1.
         11    1    3    3    0    0  0.22461528266E+01  0.19509482325E+01 -0.42128063085E+01  0.51574352909E+01  0.51100000000E-03 0. -1.
        -11    1    3    3    0    0  0.57433050625E+01  0.48255945218E+00 -0.19807390900E+01  0.60944027000E+01  0.51100000000E-03 0.  1.
         12    1    3    3    0    0 -0.24537231011E+02  0.34967042754E+01 -0.30469365379E+02  0.39277027294E+02  0.00000000000E+00 0. -1.
</event>
<event>
 7    1  0.2974434E-011  0.5052891E+02  0.7816164E-02  0.1300439E+00
        -11   -1    0    0    0    0  0.00000000000E+00  0.00000000000E+00  0.45593999997E+02  0.45594000000E+02  0.51100000000E-03 0.  1.
         11   -1    0    0    0    0 -0.00000000000E+00 -0.00000000000E+00 -0.45593999997E+02  0.45594000000E+02  0.51100000000E-03 0. -1.
    9900012    2    1    2    0    0  0.14009968617E+02 -0.38134599849E+02 -0.16230914475E+01  0.50528913043E+02  0.30000161685E+02 0.  0.
        -12    1    1    2    0    0 -0.14009968617E+02  0.38134599849E+02  0.16230914475E+01  0.40659086957E+02  0.00000000000E+00 0.  1.
         11    1    3    3    0    0  0.60090556636E+01  0.23035814646E+01 -0.12504809334E+00  0.64366819728E+01  0.51100000000E-03 0. -1.
        -11    1    3    3    0    0  0.32512269523E+01 -0.57429757754E+00 -0.21521282666E+01  0.39410595961E+01  0.51100000000E-03 0.  1.
        -12    1    3    3    0    0  0.47496860014E+01 -0.39863883736E+02  0.65408491242E+00  0.40151171474E+02  0.00000000000E+00 0.  1.
</event>
<event>
 7    1  0.2974434E-011  0.5052885E+02  0.7816164E-02  0.1300439E+00
        -11   -1    0    0    0    0  0.00000000000E+00  0.00000000000E+00  0.45593999997E+02  0.45594000000E+02  0.51100000000E-03 0.  1.
         11   -1    0    0    0    0 -0.00000000000E+00 -0.00000000000E+00 -0.45593999997E+02  0.45594000000E+02  0.51100000000E-03 0. -1.
    9900012    2    1    2    0    0  0.27643517060E+02 -0.15346569961E+02 -0.25563350112E+02  0.50528854485E+02  0.29999983693E+02 0.  0.
        -12    1    1    2    0    0 -0.27643517060E+02  0.15346569961E+02  0.25563350112E+02  0.40659145515E+02  0.00000000000E+00 0.  1.
         11    1    3    3    0    0  0.14177477265E+02 -0.13279651907E+02 -0.12623604754E+02  0.23166903411E+02  0.51100000000E-03 0. -1.
        -11    1    3    3    0    0  0.29947811203E+00 -0.91498275004E+01 -0.51375003217E+01  0.10497758820E+02  0.51100000000E-03 0.  1.
        -12    1    3    3    0    0  0.13166561683E+02  0.70829094468E+01 -0.78022450361E+01  0.16864192255E+02  0.00000000000E+00 0.  1.
</event>
<event>
 7    1  0.2974434E-011  0.5052885E+02  0.7816164E-02  0.1300439E+00
        -11   -1    0    0    0    0  0.00000000000E+00  0.00000000000E+00  0.45593999997E+02  0.45594000000E+02  0.51100000000E-03 0.  1.
         11   -1    0    0    0    0 -0.00000000000E+00 -0.00000000000E+00 -0.45593999997E+02  0.45594000000E+02  0.51100000000E-03 0. -1.
    9900012    2    1    2    0    0 -0.25097787040E+02  0.26859609088E+02 -0.17373217284E+02  0.50528853508E+02  0.29999980723E+02 0.  0.
        -12    1    1    2    0    0  0.25097787040E+02 -0.26859609088E+02  0.17373217284E+02  0.40659146492E+02  0.00000000000E+00 0.  1.
         11    1    3    3    0    0 -0.14643010512E+02  0.23172706117E+02 -0.11166224230E+02  0.29598591680E+02  0.51100000000E-03 0. -1.
        -11    1    3    3    0    0 -0.20786483228E+01  0.91303325743E+01 -0.56255162732E+01  0.10923835653E+02  0.51100000000E-03 0.  1.
        -12    1    3    3    0    0 -0.83761282048E+01 -0.54434296035E+01 -0.58147678125E+00  0.10006426175E+02  0.00000000000E+00 0.  1.
</event>
<event>
 7    1  0.2974434E-011  0.5052886E+02  0.7816164E-02  0.1300439E+00
        -11   -1    0    0    0    0  0.00000000000E+00  0.00000000000E+00  0.45593999997E+02  0.45594000000E+02  0.51100000000E-03 0. -1.
         11   -1    0    0    0    0 -0.00000000000E+00 -0.00000000000E+00 -0.45593999997E+02  0.45594000000E+02  0.51100000000E-03 0.  1.
    9900012    2    1    2    0    0  0.25521157502E+02 -0.21806188820E+02  0.22941805906E+02  0.50528858232E+02  0.29999995082E+02 0.  0.
        -12    1    1    2    0    0 -0.25521157502E+02  0.21806188820E+02 -0.22941805906E+02  0.40659141768E+02  0.00000000000E+00 0.  1.
         11    1    3    3    0    0  0.65626400053E+01 -0.15294004941E+02  0.20654586382E+01  0.16770240029E+02  0.51100000000E-03 0. -1.
        -11    1    3    3    0    0  0.19202360383E+02 -0.79636722987E+01  0.10520585063E+02  0.23298786043E+02  0.51100000000E-03 0.  1.
         12    1    3    3    0    0 -0.24384288539E+00  0.14514884201E+01  0.10355762204E+02  0.10459832160E+02  0.00000000000E+00 0. -1.
</event>
<event>
 7    1  0.2974434E-011  0.5052886E+02  0.7816164E-02  0.1300439E+00
        -11   -1    0    0    0    0  0.00000000000E+00  0.00000000000E+00  0.45593999997E+02  0.45594000000E+02  0.51100000000E-03 0.  1.
         11   -1    0    0    0    0 -0.00000000000E+00 -0.00000000000E+00 -0.45593999997E+02  0.45594000000E+02  0.51100000000E-03 0. -1.
    9900012    2    1    2    0    0 -0.26612759069E+02 -0.23287409652E+02 -0.20065482724E+02  0.50528856004E+02  0.29999988308E+02 0.  0.
        -12    1    1    2    0    0  0.26612759069E+02  0.23287409652E+02  0.20065482724E+02  0.40659143996E+02  0.00000000000E+00 0.  1.
         11    1    3    3    0    0 -0.19194842764E+01 -0.51178536320E+01 -0.47766197983E+01  0.72589904701E+01  0.51100000000E-03 0. -1.
        -11    1    3    3    0    0 -0.28262530220E+01 -0.12003499203E+02  0.45132402374E+01  0.13131680660E+02  0.51100000000E-03 0.  1.
        -12    1    3    3    0    0 -0.21867021771E+02 -0.61660568176E+01 -0.19802103163E+02  0.30138184873E+02  0.00000000000E+00 0.  1.
</event>
<event>
 7    1  0.2974434E-011  0.5052886E+02  0.7816164E-02  0.1300439E+00
        -11   -1    0    0    0    0  0.00000000000E+00  0.00000000000E+00  0.45593999997E+02  0.45594000000E+02  0.51100000000E-03 0.  1.
         11   -1    0    0    0    0 -0.00000000000E+00 -0.00000000000E+00 -0.45593999997E+02  0.45594000000E+02  0.51100000000E-03 0. -1.
    9900012    2    1    2    0    0 -0.10707525897E+02  0.93160254372E+00 -0.39212841027E+02  0.50528857171E+02  0.29999991857E+02 0.  0.
        -12    1    1    2    0    0  0.10707525897E+02 -0.93160254372E+00  0.39212841027E+02  0.40659142829E+02  0.00000000000E+00 0.  1.
         11    1    3    3    0    0 -0.71514252168E+01  0.38341532456E+01 -0.14976281853E+02  0.17033280135E+02  0.51100000000E-03 0. -1.
        -11    1    3    3    0    0 -0.10591332488E+02  0.43456886352E+01 -0.67186676038E+01  0.13274103669E+02  0.51100000000E-03 0.  1.
        -12    1    3    3    0    0  0.70352318075E+01 -0.72482393371E+01 -0.17517891570E+02  0.20221473367E+02  0.00000000000E+00 0.  1.
</event>
<event>
 7    1  0.2974434E-011  0.5052883E+02  0.7816164E-02  0.1300439E+00
        -11   -1    0    0    0    0  0.00000000000E+00  0.00000000000E+00  0.45593999997E+02  0.45594000000E+02  0.51100000000E-03 0. -1.
         11   -1    0    0    0    0 -0.00000000000E+00 -0.00000000000E+00 -0.45593999997E+02  0.45594000000E+02  0.51100000000E-03 0.  1.
    9900012    2    1    2    0    0  0.69448160635E+00  0.88011675915E+01  0.39689109093E+02  0.50528828386E+02  0.29999904363E+02 0.  0.
        -12    1    1    2    0    0 -0.69448160635E+00 -0.88011675915E+01 -0.39689109093E+02  0.40659171614E+02  0.00000000000E+00 0.  1.
         11    1    3    3    0    0 -0.82927489885E+00  0.44246784859E+01  0.26146973322E+01  0.52059695506E+01  0.51100000000E-03 0. -1.
        -11    1    3    3    0    0 -0.96727694785E+01  0.86317305321E+01  0.25797450171E+02  0.28871745305E+02  0.51100000000E-03 0.  1.
        -12    1    3    3    0    0  0.11196525984E+02 -0.42552414265E+01  0.11276961591E+02  0.16451113531E+02  0.00000000000E+00 0.  1.
</event>
<event>
 7    1  0.2974434E-011  0.5052886E+02  0.7816164E-02  0.1300439E+00
        -11   -1    0    0    0    0  0.00000000000E+00  0.00000000000E+00  0.45593999997E+02  0.45594000000E+02  0.51100000000E-03 0.  1.
         11   -1    0    0    0    0 -0.00000000000E+00 -0.00000000000E+00 -0.45593999997E+02  0.45594000000E+02  0.51100000000E-03 0. -1.
    9900012    2    1    2    0    0  0.26311267492E+02  0.30215885634E+02  0.69197536656E+01  0.50528861636E+02  0.30000005430E+02 0.  0.
        -12    1    1    2    0    0 -0.26311267492E+02 -0.30215885634E+02 -0.69197536656E+01  0.40659138364E+02  0.00000000000E+00 0.  1.
         11    1    3    3    0    0  0.18230623850E+02  0.13088821020E+02 -0.14823489562E+00  0.22443147184E+02  0.51100000000E-03 0. -1.
        -11    1    3    3    0    0  0.14412740052E+02  0.11821746906E+02  0.30111757745E+01  0.18882477473E+02  0.51100000000E-03 0.  1.
        -12    1    3    3    0    0 -0.63320964097E+01  0.53053177075E+01  0.40568127868E+01  0.92032369798E+01  0.00000000000E+00 0.  1.
</event>
<event>
 7    1  0.2974434E-011  0.5052886E+02  0.7816164E-02  0.1300439E+00
        -11   -1    0    0    0    0  0.00000000000E+00  0.00000000000E+00  0.45593999997E+02  0.45594000000E+02  0.51100000000E-03 0.  1.
         11   -1    0    0    0    0 -0.00000000000E+00 -0.00000000000E+00 -0.45593999997E+02  0.45594000000E+02  0.51100000000E-03 0. -1.
    9900012    2    1    2    0    0 -0.11987739211E+00 -0.28481149682E+02 -0.29016811653E+02  0.50528860606E+02  0.30000002298E+02 0.  0.
        -12    1    1    2    0    0  0.11987739211E+00  0.28481149682E+02  0.29016811653E+02  0.40659139394E+02  0.00000000000E+00 0.  1.
         11    1    3    3    0    0  0.18224473397E+01 -0.33274929797E+02 -0.21288219678E+02  0.39544033236E+02  0.51100000000E-03 0. -1.
        -11    1    3    3    0    0  0.15753953260E+01 -0.31161927164E+00 -0.16243010945E+01  0.22841478303E+01  0.51100000000E-03 0.  1.
        -12    1    3    3    0    0 -0.35177200578E+01  0.51053993865E+01 -0.61042908801E+01  0.87006795396E+01  0.00000000000E+00 0.  1.
</event>
<event>
 7    1  0.2974434E-011  0.5052887E+02  0.7816164E-02  0.1300439E+00
        -11   -1    0    0    0    0  0.00000000000E+00  0.00000000000E+00  0.45593999997E+02  0.45594000000E+02  0.51100000000E-03 0.  1.
         11   -1    0    0    0    0 -0.00000000000E+00 -0.00000000000E+00 -0.45593999997E+02  0.45594000000E+02  0.51100000000E-03 0. -1.
    9900012    2    1    2    0    0  0.26792046322E+02 -0.19342117511E+02 -0.23690376683E+02  0.50528865684E+02  0.30000017733E+02 0.  0.
        -12    1    1    2    0    0 -0.26792046322E+02  0.19342117511E+02  0.23690376683E+02  0.40659134316E+02  0.00000000000E+00 0.  1.
         11    1    3    3    0    0  0.20622141126E+02 -0.18235570598E+01 -0.21228971781E+02  0.29652441858E+02  0.51100000000E-03 0. -1.
        -11    1    3    3    0    0  0.63198910210E+01 -0.11235835040E+02 -0.53531139635E+01  0.13958540072E+02  0.51100000000E-03 0.  1.
        -12    1    3    3    0    0 -0.14998582501E+00 -0.62827254110E+01  0.28917090618E+01  0.69178837542E+01  0.00000000000E+00 0.  1.
</event>
<event>
 7    1  0.2974434E-011  0.5052887E+02  0.7816164E-02  0.1300439E+00
        -11   -1    0    0    0    0  0.00000000000E+00  0.00000000000E+00  0.45593999997E+02  0.45594000000E+02  0.51100000000E-03 0. -1.
         11   -1    0    0    0    0 -0.00000000000E+00 -0.00000000000E+00 -0.45593999997E+02  0.45594000000E+02  0.51100000000E-03 0.  1.
    9900012    2    1    2    0    0 -0.79911635577E+01 -0.37461550990E+02  0.13635923521E+02  0.50528869317E+02  0.30000028777E+02 0.  0.
        -12    1    1    2    0    0  0.79911635577E+01  0.37461550990E+02 -0.13635923521E+02  0.40659130683E+02  0.00000000000E+00 0.  1.
         11    1    3    3    0    0 -0.52474492597E+01 -0.27976778227E+01  0.56225860721E-01  0.59469224429E+01  0.51100000000E-03 0. -1.
        -11    1    3    3    0    0 -0.11833889081E+02 -0.22776212836E+02  0.14694228214E+02  0.29575617407E+02  0.51100000000E-03 0.  1.
        -12    1    3    3    0    0  0.90901747826E+01 -0.11887660331E+02 -0.11145305542E+01  0.15006329467E+02  0.00000000000E+00 0.  1.
</event>
<event>
 7    1  0.2974434E-011  0.5052886E+02  0.7816164E-02  0.1300439E+00
        -11   -1    0    0    0    0  0.00000000000E+00  0.00000000000E+00  0.45593999997E+02  0.45594000000E+02  0.51100000000E-03 0.  1.
         11   -1    0    0    0    0 -0.00000000000E+00 -0.00000000000E+00 -0.45593999997E+02  0.45594000000E+02  0.51100000000E-03 0. -1.
    9900012    2    1    2    0    0  0.72936392802E+01 -0.22172678623E+02 -0.33291748156E+02  0.50528863922E+02  0.30000012379E+02 0.  0.
        -12    1    1    2    0    0 -0.72936392802E+01  0.22172678623E+02  0.33291748156E+02  0.40659136078E+02  0.00000000000E+00 0.  1.
         11    1    3    3    0    0  0.42002031072E+01 -0.53094273155E+01 -0.54007774995E+01  0.86602611058E+01  0.51100000000E-03 0. -1.
        -11    1    3    3    0    0  0.99776794539E+01 -0.18234617826E+01 -0.22146965124E+02  0.24359128979E+02  0.51100000000E-03 0.  1.
        -12    1    3    3    0    0 -0.68842432808E+01 -0.15039789525E+02 -0.57440055328E+01  0.17509473838E+02  0.00000000000E+00 0.  1.
</event>
<event>
 7    1  0.2974434E-011  0.5052886E+02  0.7816164E-02  0.1300439E+00
        -11   -1    0    0    0    0  0.00000000000E+00  0.00000000000E+00  0.45593999997E+02  0.45594000000E+02  0.51100000000E-03 0.  1.
         11   -1    0    0    0    0 -0.00000000000E+00 -0.00000000000E+00 -0.45593999997E+02  0.45594000000E+02  0.51100000000E-03 0. -1.
    9900012    2    1    2    0    0 -0.11133907386E+02  0.13002346123E+02 -0.36880089814E+02  0.50528856833E+02  0.29999990830E+02 0.  0.
        -12    1    1    2    0    0  0.11133907386E+02 -0.13002346123E+02  0.36880089814E+02  0.40659143167E+02  0.00000000000E+00 0.  1.
         11    1    3    3    0    0  0.25260039272E+01 -0.37061483247E-01 -0.56859820530E+01  0.62219339085E+01  0.51100000000E-03 0. -1.
        -11    1    3    3    0    0  0.69143975402E+01  0.71221619858E+01 -0.80559490255E+01  0.12784068197E+02  0.51100000000E-03 0.  1.
         12    1    3    3    0    0 -0.20574308854E+02  0.59172456203E+01 -0.23138158735E+02  0.31522854728E+02  0.00000000000E+00 0. -1.
</event>
<event>
 7    1  0.2974434E-011  0.5052885E+02  0.7816164E-02  0.1300439E+00
        -11   -1    0    0    0    0  0.00000000000E+00  0.00000000000E+00  0.45593999997E+02  0.45594000000E+02  0.51100000000E-03 0.  1.
         11   -1    0    0    0    0 -0.00000000000E+00 -0.00000000000E+00 -0.45593999997E+02  0.45594000000E+02  0.51100000000E-03 0. -1.
    9900012    2    1    2    0    0  0.15989440896E+02 -0.64165263968E+01 -0.36828417676E+02  0.50528851218E+02  0.29999973762E+02 0.  0.
        -12    1    1    2    0    0 -0.15989440896E+02  0.64165263968E+01  0.36828417676E+02  0.40659148782E+02  0.00000000000E+00 0.  1.
         11    1    3    3    0    0  0.10670020906E+02 -0.59834130594E+01 -0.96698955635E+01  0.15593506932E+02  0.51100000000E-03 0. -1.
        -11    1    3    3    0    0  0.13451347329E+02 -0.17836429402E+01 -0.14789290120E+02  0.20070954876E+02  0.51100000000E-03 0.  1.
        -12    1    3    3    0    0 -0.81319273388E+01  0.13505296029E+01 -0.12369231992E+02  0.14864389410E+02  0.00000000000E+00 0.  1.
</event>
<event>
 7    1  0.2974434E-011  0.5052890E+02  0.7816164E-02  0.1300439E+00
        -11   -1    0    0    0    0  0.00000000000E+00  0.00000000000E+00  0.45593999997E+02  0.45594000000E+02  0.51100000000E-03 0.  1.
         11   -1    0    0    0    0 -0.00000000000E+00 -0.00000000000E+00 -0.45593999997E+02  0.45594000000E+02  0.51100000000E-03 0. -1.
    9900012    2    1    2    0    0  0.79508764311E+01 -0.87922753262E+01 -0.38892699186E+02  0.50528897804E+02  0.30000115365E+02 0.  0.
        -12    1    1    2    0    0 -0.79508764311E+01  0.87922753262E+01  0.38892699186E+02  0.40659102196E+02  0.00000000000E+00 0.  1.
         11    1    3    3    0    0 -0.15646073094E+01 -0.17089789450E+01 -0.17728906433E+02  0.17879673617E+02  0.51100000000E-03 0. -1.
        -11    1    3    3    0    0  0.81255929013E+00 -0.42893103508E+00 -0.21662950527E+02  0.21682427452E+02  0.51100000000E-03 0.  1.
        -12    1    3    3    0    0  0.87029244505E+01 -0.66543653461E+01  0.49915777411E+00  0.10966796735E+02  0.00000000000E+00 0.  1.
</event>
<event>
 7    1  0.2974434E-011  0.5052886E+02  0.7816164E-02  0.1300439E+00
        -11   -1    0    0    0    0  0.00000000000E+00  0.00000000000E+00  0.45593999997E+02  0.45594000000E+02  0.51100000000E-03 0. -1.
         11   -1    0    0    0    0 -0.00000000000E+00 -0.00000000000E+00 -0.45593999997E+02  0.45594000000E+02  0.51100000000E-03 0.  1.
    9900012    2    1    2    0    0 -0.20190206100E+02 -0.23934608522E+02  0.25935606108E+02  0.50528861154E+02  0.30000003965E+02 0.  0.
        -12    1    1    2    0    0  0.20190206100E+02  0.23934608522E+02 -0.25935606108E+02  0.40659138846E+02  0.00000000000E+00 0.  1.
         11    1    3    3    0    0 -0.11197229662E+00 -0.29825824720E+01  0.42391927307E+01  0.51845049201E+01  0.51100000000E-03 0. -1.
        -11    1    3    3    0    0  0.61969803438E+01 -0.66682218902E+01  0.91670422225E+01  0.12919071636E+02  0.51100000000E-03 0.  1.
         12    1    3    3    0    0 -0.26275214147E+02 -0.14283804160E+02  0.12529371155E+02  0.32425284599E+02  0.00000000000E+00 0. -1.
</event>
<event>
 7    1  0.2974434E-011  0.5052886E+02  0.7816164E-02  0.1300439E+00
        -11   -1    0    0    0    0  0.00000000000E+00  0.00000000000E+00  0.45593999997E+02  0.45594000000E+02  0.51100000000E-03 0.  1.
         11   -1    0    0    0    0 -0.00000000000E+00 -0.00000000000E+00 -0.45593999997E+02  0.45594000000E+02  0.51100000000E-03 0. -1.
    9900012    2    1    2    0    0  0.22389227981E+02 -0.50371892312E+01 -0.33563597854E+02  0.50528857045E+02  0.29999991474E+02 0.  0.
        -12    1    1    2    0    0 -0.22389227981E+02  0.50371892312E+01  0.33563597854E+02  0.40659142955E+02  0.00000000000E+00 0.  1.
         11    1    3    3    0    0 -0.30410642592E+01  0.36152246018E+01 -0.40901972109E+01  0.62488106257E+01  0.51100000000E-03 0.  1.
        -11    1    3    3    0    0  0.23754353279E+02  0.16347716888E+00 -0.24002660530E+02  0.33770160457E+02  0.51100000000E-03 0. -1.
         12    1    3    3    0    0  0.16759389611E+01 -0.88158910018E+01 -0.54707401130E+01  0.10509885962E+02  0.00000000000E+00 0. -1.
</event>
<event>
 7    1  0.2974434E-011  0.5052884E+02  0.7816164E-02  0.1300439E+00
        -11   -1    0    0    0    0  0.00000000000E+00  0.00000000000E+00  0.45593999997E+02  0.45594000000E+02  0.51100000000E-03 0. -1.
         11   -1    0    0    0    0 -0.00000000000E+00 -0.00000000000E+00 -0.45593999997E+02  0.45594000000E+02  0.51100000000E-03 0.  1.
    9900012    2    1    2    0    0  0.34992109542E+02 -0.11403526826E+02  0.17282324340E+02  0.50528844956E+02  0.29999954729E+02 0.  0.
        -12    1    1    2    0    0 -0.34992109542E+02  0.11403526826E+02 -0.17282324340E+02  0.40659155044E+02  0.00000000000E+00 0.  1.
         11    1    3    3    0    0  0.24244630834E+02 -0.15972275608E+02  0.10515585957E+02  0.30878686188E+02  0.51100000000E-03 0. -1.
        -11    1    3    3    0    0  0.13412116128E+02  0.19917188730E+01  0.21487431906E+01  0.13728397600E+02  0.51100000000E-03 0.  1.
         12    1    3    3    0    0 -0.26646374202E+01  0.25770299097E+01  0.46179951925E+01  0.59217611683E+01  0.00000000000E+00 0. -1.
</event>
<event>
 7    1  0.2974434E-011  0.5052883E+02  0.7816164E-02  0.1300439E+00
        -11   -1    0    0    0    0  0.00000000000E+00  0.00000000000E+00  0.45593999997E+02  0.45594000000E+02  0.51100000000E-03 0.  1.
         11   -1    0    0    0    0 -0.00000000000E+00 -0.00000000000E+00 -0.45593999997E+02  0.45594000000E+02  0.51100000000E-03 0. -1.
    9900012    2    1    2    0    0  0.30905410936E+02 -0.19838925368E+01 -0.26345544697E+02  0.50528831537E+02  0.29999913939E+02 0.  0.
        -12    1    1    2    0    0 -0.30905410936E+02  0.19838925368E+01  0.26345544697E+02  0.40659168463E+02  0.00000000000E+00 0.  1.
         11    1    3    3    0    0 -0.16004390302E+00 -0.10274159530E+02 -0.95006572896E+01  0.13994515258E+02  0.51100000000E-03 0.  1.
        -11    1    3    3    0    0  0.11340146989E+02  0.10291915191E+01 -0.54238463320E+01  0.12612544478E+02  0.51100000000E-03 0. -1.
        -12    1    3    3    0    0  0.19725307850E+02  0.72610754745E+01 -0.11421041075E+02  0.23921771800E+02  0.00000000000E+00 0.  1.
</event>
<event>
 7    1  0.2974434E-011  0.5052885E+02  0.7816164E-02  0.1300439E+00
        -11   -1    0    0    0    0  0.00000000000E+00  0.00000000000E+00  0.45593999997E+02  0.45594000000E+02  0.51100000000E-03 0.  1.
         11   -1    0    0    0    0 -0.00000000000E+00 -0.00000000000E+00 -0.45593999997E+02  0.45594000000E+02  0.51100000000E-03 0. -1.
    9900012    2    1    2    0    0 -0.16780072041E+01  0.30266998902E+02 -0.27097218352E+02  0.50528853758E+02  0.29999981484E+02 0.  0.
        -12    1    1    2    0    0  0.16780072041E+01 -0.30266998902E+02  0.27097218352E+02  0.40659146242E+02  0.00000000000E+00 0.  1.
         11    1    3    3    0    0 -0.51663615285E+01  0.14983375624E+02 -0.75288132098E+01  0.17546391798E+02  0.51100000000E-03 0. -1.
        -11    1    3    3    0    0  0.48397270778E+01  0.17717911779E+02 -0.22429548774E+02  0.28990205492E+02  0.51100000000E-03 0.  1.
        -12    1    3    3    0    0 -0.13513727535E+01 -0.24342885011E+01  0.28611436321E+01  0.39922564683E+01  0.00000000000E+00 0.  1.
</event>
<event>
 7    1  0.2974434E-011  0.5052887E+02  0.7816164E-02  0.1300439E+00
        -11   -1    0    0    0    0  0.00000000000E+00  0.00000000000E+00  0.45593999997E+02  0.45594000000E+02  0.51100000000E-03 0.  1.
         11   -1    0    0    0    0 -0.00000000000E+00 -0.00000000000E+00 -0.45593999997E+02  0.45594000000E+02  0.51100000000E-03 0. -1.
    9900012    2    1    2    0    0  0.20462865499E+02 -0.21424928329E+02 -0.27846162703E+02  0.50528865778E+02  0.30000018020E+02 0.  0.
        -12    1    1    2    0    0 -0.20462865499E+02  0.21424928329E+02  0.27846162703E+02  0.40659134222E+02  0.00000000000E+00 0.  1.
         11    1    3    3    0    0  0.39153776575E+01 -0.18357074749E+02 -0.18564664423E+02  0.26399983730E+02  0.51100000000E-03 0. -1.
        -11    1    3    3    0    0  0.53598802685E+01  0.25741568687E+00 -0.11088342585E+02  0.12318519427E+02  0.51100000000E-03 0.  1.
        -12    1    3    3    0    0  0.11187607573E+02 -0.33252692676E+01  0.18068443052E+01  0.11810362621E+02  0.00000000000E+00 0.  1.
</event>
<event>
 7    1  0.2974434E-011  0.5052885E+02  0.7816164E-02  0.1300439E+00
        -11   -1    0    0    0    0  0.00000000000E+00  0.00000000000E+00  0.45593999997E+02  0.45594000000E+02  0.51100000000E-03 0. -1.
         11   -1    0    0    0    0 -0.00000000000E+00 -0.00000000000E+00 -0.45593999997E+02  0.45594000000E+02  0.51100000000E-03 0.  1.
    9900012    2    1    2    0    0  0.36673440279E+02 -0.15473437349E+02  0.82944511109E+01  0.50528850912E+02  0.29999972832E+02 0.  0.
        -12    1    1    2    0    0 -0.36673440279E+02  0.15473437349E+02 -0.82944511109E+01  0.40659149088E+02  0.00000000000E+00 0.  1.
         11    1    3    3    0    0  0.10316179648E+02  0.11704658840E+00  0.13779270101E+02  0.17213528029E+02  0.51100000000E-03 0. -1.
        -11    1    3    3    0    0  0.11714731485E+02 -0.48994794793E+00 -0.71179576917E+00  0.11746558484E+02  0.51100000000E-03 0.  1.
         12    1    3    3    0    0  0.14642529147E+02 -0.15100535990E+02 -0.47730232213E+01  0.21568764398E+02  0.00000000000E+00 0. -1.
</event>
<event>
 7    1  0.2974434E-011  0.5052887E+02  0.7816164E-02  0.1300439E+00
        -11   -1    0    0    0    0  0.00000000000E+00  0.00000000000E+00  0.45593999997E+02  0.45594000000E+02  0.51100000000E-03 0.  1.
         11   -1    0    0    0    0 -0.00000000000E+00 -0.00000000000E+00 -0.45593999997E+02  0.45594000000E+02  0.51100000000E-03 0. -1.
    9900012    2    1    2    0    0  0.11206193582E+01  0.56777312368E+01 -0.40245157361E+02  0.50528866822E+02  0.30000021193E+02 0.  0.
        -12    1    1    2    0    0 -0.11206193582E+01 -0.56777312368E+01  0.40245157361E+02  0.40659133178E+02  0.00000000000E+00 0.  1.
         11    1    3    3    0    0 -0.42839628074E+01 -0.68339282433E+01 -0.10370719869E+02  0.13137988561E+02  0.51100000000E-03 0.  1.
        -11    1    3    3    0    0  0.75625215203E+01  0.14867826175E+02 -0.29851403606E+02  0.34195764130E+02  0.51100000000E-03 0. -1.
         12    1    3    3    0    0 -0.21579393547E+01 -0.23561666948E+01 -0.23033886404E-01  0.31951141313E+01  0.00000000000E+00 0. -1.
</event>
<event>
 7    1  0.2974434E-011  0.5052886E+02  0.7816164E-02  0.1300439E+00
        -11   -1    0    0    0    0  0.00000000000E+00  0.00000000000E+00  0.45593999997E+02  0.45594000000E+02  0.51100000000E-03 0.  1.
         11   -1    0    0    0    0 -0.00000000000E+00 -0.00000000000E+00 -0.45593999997E+02  0.45594000000E+02  0.51100000000E-03 0. -1.
    9900012    2    1    2    0    0  0.39680425565E+02  0.22765529653E+01 -0.85701339618E+01  0.50528855118E+02  0.29999985617E+02 0.  0.
        -12    1    1    2    0    0 -0.39680425565E+02 -0.22765529653E+01  0.85701339618E+01  0.40659144882E+02  0.00000000000E+00 0.  1.
         11    1    3    3    0    0  0.10325411685E+02 -0.68661531463E+01 -0.88551654083E+00  0.12431505351E+02  0.51100000000E-03 0. -1.
        -11    1    3    3    0    0  0.11394558834E+02 -0.67601816983E+01 -0.39031866292E+01  0.13811983700E+02  0.51100000000E-03 0.  1.
         12    1    3    3    0    0  0.17960455046E+02  0.15902887810E+02 -0.37814307918E+01  0.24285366066E+02  0.00000000000E+00 0. -1.
</event>
<event>
 7    1  0.2974434E-011  0.5052885E+02  0.7816164E-02  0.1300439E+00
        -11   -1    0    0    0    0  0.00000000000E+00  0.00000000000E+00  0.45593999997E+02  0.45594000000E+02  0.51100000000E-03 0.  1.
         11   -1    0    0    0    0 -0.00000000000E+00 -0.00000000000E+00 -0.45593999997E+02  0.45594000000E+02  0.51100000000E-03 0. -1.
    9900012    2    1    2    0    0  0.18678570803E+02 -0.36109583242E+02 -0.61263746423E+00  0.50528851782E+02  0.29999975477E+02 0.  0.
        -12    1    1    2    0    0 -0.18678570803E+02  0.36109583242E+02  0.61263746423E+00  0.40659148218E+02  0.00000000000E+00 0.  1.
         11    1    3    3    0    0  0.10447842058E+02 -0.12910752315E+02 -0.26599170785E+01  0.16820228540E+02  0.51100000000E-03 0. -1.
        -11    1    3    3    0    0  0.10165957880E+02 -0.26868085616E+02  0.42042802911E+01  0.29033027698E+02  0.51100000000E-03 0.  1.
        -12    1    3    3    0    0 -0.19352291342E+01  0.36692546893E+01 -0.21570006767E+01  0.46755955445E+01  0.00000000000E+00 0.  1.
</event>
<event>
 7    1  0.2974434E-011  0.5052886E+02  0.7816164E-02  0.1300439E+00
        -11   -1    0    0    0    0  0.00000000000E+00  0.00000000000E+00  0.45593999997E+02  0.45594000000E+02  0.51100000000E-03 0.  1.
         11   -1    0    0    0    0 -0.00000000000E+00 -0.00000000000E+00 -0.45593999997E+02  0.45594000000E+02  0.51100000000E-03 0. -1.
    9900012    2    1    2    0    0  0.10332919921E+02  0.13328193872E+02 -0.36996693247E+02  0.50528864530E+02  0.30000014224E+02 0.  0.
        -12    1    1    2    0    0 -0.10332919921E+02 -0.13328193872E+02  0.36996693247E+02  0.40659135470E+02  0.00000000000E+00 0.  1.
         11    1    3    3    0    0 -0.12653254985E+01 -0.32889295742E+01 -0.76810307992E+01  0.84508189403E+01  0.51100000000E-03 0. -1.
        -11    1    3    3    0    0 -0.41967283456E+01  0.11707155030E+02 -0.18582764733E+02  0.22360437229E+02  0.51100000000E-03 0.  1.
         12    1    3    3    0    0  0.15794973765E+02  0.49099684162E+01 -0.10732897715E+02  0.19717608360E+02  0.00000000000E+00 0. -1.
</event>
<event>
 7    1  0.2974434E-011  0.5052886E+02  0.7816164E-02  0.1300439E+00
        -11   -1    0    0    0    0  0.00000000000E+00  0.00000000000E+00  0.45593999997E+02  0.45594000000E+02  0.51100000000E-03 0.  1.
         11   -1    0    0    0    0 -0.00000000000E+00 -0.00000000000E+00 -0.45593999997E+02  0.45594000000E+02  0.51100000000E-03 0. -1.
    9900012    2    1    2    0    0  0.62240251833E+01  0.15808766566E+02 -0.36939275851E+02  0.50528859697E+02  0.29999999535E+02 0.  0.
        -12    1    1    2    0    0 -0.62240251833E+01 -0.15808766566E+02  0.36939275851E+02  0.40659140303E+02  0.00000000000E+00 0.  1.
         11    1    3    3    0    0  0.40855281387E+01 -0.22814338832E+01 -0.12482894592E+02  0.13331134175E+02  0.51100000000E-03 0. -1.
        -11    1    3    3    0    0  0.11063572596E+02  0.71069579826E+01 -0.75993647412E+01  0.15187555270E+02  0.51100000000E-03 0.  1.
        -12    1    3    3    0    0 -0.89250755510E+01  0.10983242466E+02 -0.16857016517E+02  0.22010170252E+02  0.00000000000E+00 0.  1.
</event>
<event>
 7    1  0.2974434E-011  0.5052887E+02  0.7816164E-02  0.1300439E+00
        -11   -1    0    0    0    0  0.00000000000E+00  0.00000000000E+00  0.45593999997E+02  0.45594000000E+02  0.51100000000E-03 0. -1.
         11   -1    0    0    0    0 -0.00000000000E+00 -0.00000000000E+00 -0.45593999997E+02  0.45594000000E+02  0.51100000000E-03 0.  1.
    9900012    2    1    2    0    0  0.39040640332E+01 -0.24086355024E+02  0.32523386996E+02  0.50528869217E+02  0.30000028473E+02 0.  0.
        -12    1    1    2    0    0 -0.39040640332E+01  0.24086355024E+02 -0.32523386996E+02  0.40659130783E+02  0.00000000000E+00 0.  1.
         11    1    3    3    0    0  0.47255862529E+01 -0.58712441624E+01  0.17188625144E+02  0.18768364555E+02  0.51100000000E-03 0. -1.
        -11    1    3    3    0    0  0.81450564168E+01 -0.90697291842E+01  0.14474580768E+02  0.18923937755E+02  0.51100000000E-03 0.  1.
        -12    1    3    3    0    0 -0.89665786364E+01 -0.91453816774E+01  0.86018108376E+00  0.12836566907E+02  0.00000000000E+00 0.  1.
</event>
<event>
 7    1  0.2974434E-011  0.5052886E+02  0.7816164E-02  0.1300439E+00
        -11   -1    0    0    0    0  0.00000000000E+00  0.00000000000E+00  0.45593999997E+02  0.45594000000E+02  0.51100000000E-03 0.  1.
         11   -1    0    0    0    0 -0.00000000000E+00 -0.00000000000E+00 -0.45593999997E+02  0.45594000000E+02  0.51100000000E-03 0. -1.
    9900012    2    1    2    0    0 -0.24022572727E+02 -0.20374865109E+02 -0.25708874216E+02  0.50528863978E+02  0.30000012546E+02 0.  0.
        -12    1    1    2    0    0  0.24022572727E+02  0.20374865109E+02  0.25708874216E+02  0.40659136022E+02  0.00000000000E+00 0.  1.
         11    1    3    3    0    0  0.32700544139E+01  0.38345596376E+01 -0.29285892007E+01  0.58286995507E+01  0.51100000000E-03 0. -1.
        -11    1    3    3    0    0  0.56193266828E+00 -0.40071542639E+01 -0.25994002658E+01  0.48093591695E+01  0.51100000000E-03 0.  1.
         12    1    3    3    0    0 -0.27854559809E+02 -0.20202270482E+02 -0.20180884749E+02  0.39890805257E+02  0.00000000000E+00 0. -1.
</event>
<event>
 7    1  0.2974434E-011  0.5052888E+02  0.7816164E-02  0.1300439E+00
        -11   -1    0    0    0    0  0.00000000000E+00  0.00000000000E+00  0.45593999997E+02  0.45594000000E+02  0.51100000000E-03 0. -1.
         11   -1    0    0    0    0 -0.00000000000E+00 -0.00000000000E+00 -0.45593999997E+02  0.45594000000E+02  0.51100000000E-03 0.  1.
    9900012    2    1    2    0    0 -0.11360616047E+02  0.21079728260E+02  0.32859480808E+02  0.50528880243E+02  0.30000061986E+02 0.  0.
        -12    1    1    2    0    0  0.11360616047E+02 -0.21079728260E+02 -0.32859480808E+02  0.40659119757E+02  0.00000000000E+00 0.  1.
         11    1    3    3    0    0 -0.19469761757E+01  0.17789456895E+02  0.22276892553E+02  0.28574734206E+02  0.51100000000E-03 0. -1.
        -11    1    3    3    0    0 -0.26378044660E+01  0.96020142604E+01  0.50174156988E+01  0.11150387922E+02  0.51100000000E-03 0.  1.
         12    1    3    3    0    0 -0.67758354056E+01 -0.63117428959E+01  0.55651725562E+01  0.10803758115E+02  0.00000000000E+00 0. -1.
</event>
<event>
 7    1  0.2974434E-011  0.5052888E+02  0.7816164E-02  0.1300439E+00
        -11   -1    0    0    0    0  0.00000000000E+00  0.00000000000E+00  0.45593999997E+02  0.45594000000E+02  0.51100000000E-03 0.  1.
         11   -1    0    0    0    0 -0.00000000000E+00 -0.00000000000E+00 -0.45593999997E+02  0.45594000000E+02  0.51100000000E-03 0. -1.
    9900012    2    1    2    0    0  0.21524072492E+02  0.24423595389E+02 -0.24359120041E+02  0.50528875101E+02  0.30000046356E+02 0.  0.
        -12    1    1    2    0    0 -0.21524072492E+02 -0.24423595389E+02  0.24359120041E+02  0.40659124899E+02  0.00000000000E+00 0.  1.
         11    1    3    3    0    0  0.11394404399E+02  0.42808295249E+01 -0.14346323665E+02  0.18814222174E+02  0.51100000000E-03 0. -1.
        -11    1    3    3    0    0  0.12838361440E+02  0.68242009552E+01 -0.10783112695E+02  0.18101623209E+02  0.51100000000E-03 0.  1.
        -12    1    3    3    0    0 -0.27086933465E+01  0.13318564909E+02  0.77031631865E+00  0.13613029718E+02  0.00000000000E+00 0.  1.
</event>
<event>
 7    1  0.2974434E-011  0.5052887E+02  0.7816164E-02  0.1300439E+00
        -11   -1    0    0    0    0  0.00000000000E+00  0.00000000000E+00  0.45593999997E+02  0.45594000000E+02  0.51100000000E-03 0.  1.
         11   -1    0    0    0    0 -0.00000000000E+00 -0.00000000000E+00 -0.45593999997E+02  0.45594000000E+02  0.51100000000E-03 0. -1.
    9900012    2    1    2    0    0  0.25089167380E+02  0.16546710551E+02 -0.27384394875E+02  0.50528867784E+02  0.30000024116E+02 0.  0.
        -12    1    1    2    0    0 -0.25089167380E+02 -0.16546710551E+02  0.27384394875E+02  0.40659132216E+02  0.00000000000E+00 0.  1.
         11    1    3    3    0    0  0.89362053261E+01  0.32864508706E+01 -0.17765429304E+02  0.20156066173E+02  0.51100000000E-03 0. -1.
        -11    1    3    3    0    0  0.15668996016E+02  0.11878824396E+02 -0.15041470438E+02  0.24756206058E+02  0.51100000000E-03 0.  1.
        -12    1    3    3    0    0  0.48396603731E+00  0.13814352840E+01  0.54225048669E+01  0.56165955525E+01  0.00000000000E+00 0.  1.
</event>
<event>
 7    1  0.2974434E-011  0.5052887E+02  0.7816164E-02  0.1300439E+00
        -11   -1    0    0    0    0  0.00000000000E+00  0.00000000000E+00  0.45593999997E+02  0.45594000000E+02  0.51100000000E-03 0.  1.
         11   -1    0    0    0    0 -0.00000000000E+00 -0.00000000000E+00 -0.45593999997E+02  0.45594000000E+02  0.51100000000E-03 0. -1.
    9900012    2    1    2    0    0  0.28377685689E+02  0.22108195223E+02 -0.18949924650E+02  0.50528868365E+02  0.30000025881E+02 0.  0.
        -12    1    1    2    0    0 -0.28377685689E+02 -0.22108195223E+02  0.18949924650E+02  0.40659131635E+02  0.00000000000E+00 0.  1.
         11    1    3    3    0    0  0.11445179983E+02  0.10253125695E+02 -0.11993088851E+02  0.19492380865E+02  0.51100000000E-03 0. -1.
        -11    1    3    3    0    0  0.75919987525E+00  0.13539096757E+02 -0.57561053133E+01  0.14731472230E+02  0.51100000000E-03 0.  1.
        -12    1    3    3    0    0  0.16173305831E+02 -0.16840272288E+01 -0.12007304857E+01  0.16305015269E+02  0.00000000000E+00 0.  1.
</event>
<event>
 7    1  0.2974434E-011  0.5052886E+02  0.7816164E-02  0.1300439E+00
        -11   -1    0    0    0    0  0.00000000000E+00  0.00000000000E+00  0.45593999997E+02  0.45594000000E+02  0.51100000000E-03 0.  1.
         11   -1    0    0    0    0 -0.00000000000E+00 -0.00000000000E+00 -0.45593999997E+02  0.45594000000E+02  0.51100000000E-03 0. -1.
    9900012    2    1    2    0    0 -0.20888246487E+02  0.30463143860E+02 -0.16995410266E+02  0.50528856560E+02  0.29999990000E+02 0.  0.
        -12    1    1    2    0    0  0.20888246487E+02 -0.30463143860E+02  0.16995410266E+02  0.40659143440E+02  0.00000000000E+00 0.  1.
         11    1    3    3    0    0 -0.76841784004E+01  0.57784547648E+01  0.50250403351E+01  0.10848417755E+02  0.51100000000E-03 0. -1.
        -11    1    3    3    0    0 -0.97093299140E+01  0.13182650834E+02 -0.22278552972E+01  0.16523217298E+02  0.51100000000E-03 0.  1.
         12    1    3    3    0    0 -0.34947381729E+01  0.11502038261E+02 -0.19792595304E+02  0.23157221507E+02  0.00000000000E+00 0. -1.
</event>
<event>
 7    1  0.2974434E-011  0.5052886E+02  0.7816164E-02  0.1300439E+00
        -11   -1    0    0    0    0  0.00000000000E+00  0.00000000000E+00  0.45593999997E+02  0.45594000000E+02  0.51100000000E-03 0.  1.
         11   -1    0    0    0    0 -0.00000000000E+00 -0.00000000000E+00 -0.45593999997E+02  0.45594000000E+02  0.51100000000E-03 0. -1.
    9900012    2    1    2    0    0  0.11395215895E+02 -0.17873814758E+02 -0.34696420802E+02  0.50528858153E+02  0.29999994842E+02 0.  0.
        -12    1    1    2    0    0 -0.11395215895E+02  0.17873814758E+02  0.34696420802E+02  0.40659141847E+02  0.00000000000E+00 0.  1.
         11    1    3    3    0    0  0.11003351580E+01 -0.17324618152E+01 -0.70602141114E+01  0.73524679503E+01  0.51100000000E-03 0. -1.
        -11    1    3    3    0    0 -0.58775657331E+01  0.34649797758E+01 -0.10504805593E+02  0.12526084967E+02  0.51100000000E-03 0.  1.
        -12    1    3    3    0    0  0.16172446470E+02 -0.19606332718E+02 -0.17131401098E+02  0.30650305236E+02  0.00000000000E+00 0.  1.
</event>
<event>
 7    1  0.2974434E-011  0.5052886E+02  0.7816164E-02  0.1300439E+00
        -11   -1    0    0    0    0  0.00000000000E+00  0.00000000000E+00  0.45593999997E+02  0.45594000000E+02  0.51100000000E-03 0.  1.
         11   -1    0    0    0    0 -0.00000000000E+00 -0.00000000000E+00 -0.45593999997E+02  0.45594000000E+02  0.51100000000E-03 0. -1.
    9900012    2    1    2    0    0  0.21538457842E+02 -0.15863170462E+02 -0.30620587879E+02  0.50528859018E+02  0.29999997470E+02 0.  0.
        -12    1    1    2    0    0 -0.21538457842E+02  0.15863170462E+02  0.30620587879E+02  0.40659140982E+02  0.00000000000E+00 0.  1.
         11    1    3    3    0    0  0.85027167915E+01 -0.10603082693E+01 -0.19215571934E+02  0.21039454638E+02  0.51100000000E-03 0. -1.
        -11    1    3    3    0    0 -0.17741899926E+01 -0.14263630510E+00 -0.82176929509E+01  0.84082443436E+01  0.51100000000E-03 0.  1.
        -12    1    3    3    0    0  0.14809931043E+02 -0.14660225888E+02 -0.31873229945E+01  0.21081160036E+02  0.00000000000E+00 0.  1.
</event>
<event>
 7    1  0.2974434E-011  0.5052886E+02  0.7816164E-02  0.1300439E+00
        -11   -1    0    0    0    0  0.00000000000E+00  0.00000000000E+00  0.45593999997E+02  0.45594000000E+02  0.51100000000E-03 0.  1.
         11   -1    0    0    0    0 -0.00000000000E+00 -0.00000000000E+00 -0.45593999997E+02  0.45594000000E+02  0.51100000000E-03 0. -1.
    9900012    2    1    2    0    0  0.31897522465E+02  0.23306344659E+02 -0.96191607395E+01  0.50528857189E+02  0.29999991912E+02 0.  0.
        -12    1    1    2    0    0 -0.31897522465E+02 -0.23306344659E+02  0.96191607395E+01  0.40659142811E+02  0.00000000000E+00 0.  1.
         11    1    3    3    0    0  0.24572336608E+02  0.23282081049E+02 -0.68393855831E+01  0.34534507666E+02  0.51100000000E-03 0. -1.
        -11    1    3    3    0    0  0.73881993872E+01  0.14598691048E+01  0.43662873298E+01  0.87052382676E+01  0.51100000000E-03 0.  1.
        -12    1    3    3    0    0 -0.63013529847E-01 -0.14356054944E+01 -0.71460624861E+01  0.72891112555E+01  0.00000000000E+00 0.  1.
</event>
<event>
 7    1  0.2974434E-011  0.5052888E+02  0.7816164E-02  0.1300439E+00
        -11   -1    0    0    0    0  0.00000000000E+00  0.00000000000E+00  0.45593999997E+02  0.45594000000E+02  0.51100000000E-03 0.  1.
         11   -1    0    0    0    0 -0.00000000000E+00 -0.00000000000E+00 -0.45593999997E+02  0.45594000000E+02  0.51100000000E-03 0. -1.
    9900012    2    1    2    0    0  0.21011738376E+02  0.10280632196E+02 -0.33256270904E+02  0.50528879223E+02  0.30000058886E+02 0.  0.
        -12    1    1    2    0    0 -0.21011738376E+02 -0.10280632196E+02  0.33256270904E+02  0.40659120777E+02  0.00000000000E+00 0.  1.
         11    1    3    3    0    0  0.10573942560E+02  0.10991353372E+02 -0.25586681953E+02  0.29787520942E+02  0.51100000000E-03 0. -1.
        -11    1    3    3    0    0 -0.93431202976E+00  0.69488268006E+00 -0.91175405183E+01  0.91915910632E+01  0.51100000000E-03 0.  1.
        -12    1    3    3    0    0  0.11372107845E+02 -0.14056038564E+01  0.14479515675E+01  0.11549767218E+02  0.00000000000E+00 0.  1.
</event>
<event>
 7    1  0.2974434E-011  0.5052888E+02  0.7816164E-02  0.1300439E+00
        -11   -1    0    0    0    0  0.00000000000E+00  0.00000000000E+00  0.45593999997E+02  0.45594000000E+02  0.51100000000E-03 0.  1.
         11   -1    0    0    0    0 -0.00000000000E+00 -0.00000000000E+00 -0.45593999997E+02  0.45594000000E+02  0.51100000000E-03 0. -1.
    9900012    2    1    2    0    0  0.19522290432E+02  0.12699909042E+02 -0.33328014441E+02  0.50528879744E+02  0.30000060470E+02 0.  0.
        -12    1    1    2    0    0 -0.19522290432E+02 -0.12699909042E+02  0.33328014441E+02  0.40659120256E+02  0.00000000000E+00 0.  1.
         11    1    3    3    0    0  0.15910617715E+02  0.53227046816E+01 -0.20665967113E+02  0.26618811735E+02  0.51100000000E-03 0. -1.
        -11    1    3    3    0    0  0.10265569189E+02  0.86415118598E+01 -0.94626170909E+01  0.16419462856E+02  0.51100000000E-03 0.  1.
        -12    1    3    3    0    0 -0.66538964726E+01 -0.12643074989E+01 -0.31994302371E+01  0.74906051532E+01  0.00000000000E+00 0.  1.
</event>
<event>
 7    1  0.2974434E-011  0.5052886E+02  0.7816164E-02  0.1300439E+00
        -11   -1    0    0    0    0  0.00000000000E+00  0.00000000000E+00  0.45593999997E+02  0.45594000000E+02  0.51100000000E-03 0.  1.
         11   -1    0    0    0    0 -0.00000000000E+00 -0.00000000000E+00 -0.45593999997E+02  0.45594000000E+02  0.51100000000E-03 0. -1.
    9900012    2    1    2    0    0  0.35209931374E+02 -0.18187071973E+02  0.90916011700E+01  0.50528855073E+02  0.29999985481E+02 0.  0.
        -12    1    1    2    0    0 -0.35209931374E+02  0.18187071973E+02 -0.90916011700E+01  0.40659144927E+02  0.00000000000E+00 0.  1.
         11    1    3    3    0    0  0.10895398321E+02 -0.12310738051E+01 -0.33760704578E+01  0.11472711070E+02  0.51100000000E-03 0. -1.
        -11    1    3    3    0    0  0.16887569608E+02  0.16465481457E+01  0.62667360801E+01  0.18087927174E+02  0.51100000000E-03 0.  1.
         12    1    3    3    0    0  0.74269634443E+01 -0.18602546314E+02  0.62009355477E+01  0.20968216830E+02  0.00000000000E+00 0. -1.
</event>
<event>
 7    1  0.2974434E-011  0.5052889E+02  0.7816164E-02  0.1300439E+00
        -11   -1    0    0    0    0  0.00000000000E+00  0.00000000000E+00  0.45593999997E+02  0.45594000000E+02  0.51100000000E-03 0.  1.
         11   -1    0    0    0    0 -0.00000000000E+00 -0.00000000000E+00 -0.45593999997E+02  0.45594000000E+02  0.51100000000E-03 0. -1.
    9900012    2    1    2    0    0 -0.10571442749E+02  0.28378354753E+02 -0.27130742235E+02  0.50528885468E+02  0.30000077867E+02 0.  0.
        -12    1    1    2    0    0  0.10571442749E+02 -0.28378354753E+02  0.27130742235E+02  0.40659114532E+02  0.00000000000E+00 0.  1.
         11    1    3    3    0    0 -0.46924691898E+01  0.23450786290E+02 -0.28398430999E+02  0.37127207384E+02  0.51100000000E-03 0.  1.
        -11    1    3    3    0    0 -0.34724254079E+01  0.71684773814E+01 -0.25496116216E+01  0.83633322224E+01  0.51100000000E-03 0. -1.
        -12    1    3    3    0    0 -0.24065481517E+01 -0.22409089180E+01  0.38173003847E+01  0.50383458607E+01  0.00000000000E+00 0.  1.
</event>
<event>
 7    1  0.2974434E-011  0.5052885E+02  0.7816164E-02  0.1300439E+00
        -11   -1    0    0    0    0  0.00000000000E+00  0.00000000000E+00  0.45593999997E+02  0.45594000000E+02  0.51100000000E-03 0. -1.
         11   -1    0    0    0    0 -0.00000000000E+00 -0.00000000000E+00 -0.45593999997E+02  0.45594000000E+02  0.51100000000E-03 0.  1.
    9900012    2    1    2    0    0 -0.38926181382E+02 -0.75012746596E+01 -0.90360085362E+01  0.50528853812E+02  0.29999981646E+02 0.  0.
        -12    1    1    2    0    0  0.38926181382E+02  0.75012746596E+01  0.90360085362E+01  0.40659146188E+02  0.00000000000E+00 0.  1.
         11    1    3    3    0    0 -0.98998553036E+01  0.26238488205E+01  0.76283776640E-01  0.10241949870E+02  0.51100000000E-03 0. -1.
        -11    1    3    3    0    0 -0.22393105974E+02  0.29553552831E+01 -0.11630919739E+02  0.25405975955E+02  0.51100000000E-03 0.  1.
        -12    1    3    3    0    0 -0.66332201039E+01 -0.13080478763E+02  0.25186274257E+01  0.14880927986E+02  0.00000000000E+00 0.  1.
</event>
<event>
 7    1  0.2974434E-011  0.5052886E+02  0.7816164E-02  0.1300439E+00
        -11   -1    0    0    0    0  0.00000000000E+00  0.00000000000E+00  0.45593999997E+02  0.45594000000E+02  0.51100000000E-03 0. -1.
         11   -1    0    0    0    0 -0.00000000000E+00 -0.00000000000E+00 -0.45593999997E+02  0.45594000000E+02  0.51100000000E-03 0.  1.
    9900012    2    1    2    0    0 -0.21840661975E+02  0.17960638068E+02  0.29215862141E+02  0.50528860364E+02  0.30000001561E+02 0.  0.
        -12    1    1    2    0    0  0.21840661975E+02 -0.17960638068E+02 -0.29215862141E+02  0.40659139636E+02  0.00000000000E+00 0.  1.
         11    1    3    3    0    0 -0.35521140242E+01  0.60855188129E+01  0.29154948521E+01  0.76256910348E+01  0.51100000000E-03 0. -1.
        -11    1    3    3    0    0 -0.45941781054E+01  0.14031827272E+02  0.19634871833E+01  0.14894761873E+02  0.51100000000E-03 0.  1.
         12    1    3    3    0    0 -0.13694369845E+02 -0.21567080177E+01  0.24336880106E+02  0.28008407456E+02  0.00000000000E+00 0. -1.
</event>
<event>
 7    1  0.2974434E-011  0.5052888E+02  0.7816164E-02  0.1300439E+00
        -11   -1    0    0    0    0  0.00000000000E+00  0.00000000000E+00  0.45593999997E+02  0.45594000000E+02  0.51100000000E-03 0. -1.
         11   -1    0    0    0    0 -0.00000000000E+00 -0.00000000000E+00 -0.45593999997E+02  0.45594000000E+02  0.51100000000E-03 0.  1.
    9900012    2    1    2    0    0 -0.19975568900E+02 -0.35354977648E+02  0.20411247702E+01  0.50528880633E+02  0.30000063173E+02 0.  0.
        -12    1    1    2    0    0  0.19975568900E+02  0.35354977648E+02 -0.20411247702E+01  0.40659119367E+02  0.00000000000E+00 0.  1.
         11    1    3    3    0    0 -0.63331199809E+01 -0.18529727268E+02 -0.82167600284E+01  0.21236156595E+02  0.51100000000E-03 0. -1.
        -11    1    3    3    0    0 -0.15407008114E+01  0.71241992047E-01 -0.38674684055E+01  0.41636698405E+01  0.51100000000E-03 0.  1.
         12    1    3    3    0    0 -0.12101748108E+02 -0.16896492372E+02  0.14125353204E+02  0.25129054198E+02  0.00000000000E+00 0. -1.
</event>
<event>
 7    1  0.2974434E-011  0.5052884E+02  0.7816164E-02  0.1300439E+00
        -11   -1    0    0    0    0  0.00000000000E+00  0.00000000000E+00  0.45593999997E+02  0.45594000000E+02  0.51100000000E-03 0. -1.
         11   -1    0    0    0    0 -0.00000000000E+00 -0.00000000000E+00 -0.45593999997E+02  0.45594000000E+02  0.51100000000E-03 0.  1.
    9900012    2    1    2    0    0  0.54924634005E+01  0.32404348535E+02 -0.23936554431E+02  0.50528836258E+02  0.29999928289E+02 0.  0.
        -12    1    1    2    0    0 -0.54924634005E+01 -0.32404348535E+02  0.23936554431E+02  0.40659163742E+02  0.00000000000E+00 0.  1.
         11    1    3    3    0    0  0.66621333922E+01  0.20931471560E+02 -0.21318239554E+02  0.30610094102E+02  0.51100000000E-03 0. -1.
        -11    1    3    3    0    0  0.48760469213E+01  0.92850895396E+00 -0.55190523753E+01  0.74227960931E+01  0.51100000000E-03 0.  1.
         12    1    3    3    0    0 -0.60457169130E+01  0.10544368021E+02  0.29007374984E+01  0.12495946062E+02  0.00000000000E+00 0. -1.
</event>
<event>
 7    1  0.2974434E-011  0.5052886E+02  0.7816164E-02  0.1300439E+00
        -11   -1    0    0    0    0  0.00000000000E+00  0.00000000000E+00  0.45593999997E+02  0.45594000000E+02  0.51100000000E-03 0. -1.
         11   -1    0    0    0    0 -0.00000000000E+00 -0.00000000000E+00 -0.45593999997E+02  0.45594000000E+02  0.51100000000E-03 0.  1.
    9900012    2    1    2    0    0 -0.12614503174E+02 -0.35936353817E+02  0.14234400300E+02  0.50528863661E+02  0.30000011582E+02 0.  0.
        -12    1    1    2    0    0  0.12614503174E+02  0.35936353817E+02 -0.14234400300E+02  0.40659136339E+02  0.00000000000E+00 0.  1.
         11    1    3    3    0    0 -0.12900267982E+02 -0.12417232941E+02  0.17220168503E+02  0.24842278306E+02  0.51100000000E-03 0. -1.
        -11    1    3    3    0    0 -0.30212832102E+01 -0.78294953909E+01  0.24721687827E+01  0.87487581441E+01  0.51100000000E-03 0.  1.
        -12    1    3    3    0    0  0.33070480183E+01 -0.15689625485E+02 -0.54579369860E+01  0.16937827210E+02  0.00000000000E+00 0.  1.
</event>
<event>
 7    1  0.2974434E-011  0.5052885E+02  0.7816164E-02  0.1300439E+00
        -11   -1    0    0    0    0  0.00000000000E+00  0.00000000000E+00  0.45593999997E+02  0.45594000000E+02  0.51100000000E-03 0. -1.
         11   -1    0    0    0    0 -0.00000000000E+00 -0.00000000000E+00 -0.45593999997E+02  0.45594000000E+02  0.51100000000E-03 0.  1.
    9900012    2    1    2    0    0 -0.15704419084E+02  0.33859832723E+02 -0.16126037271E+02  0.50528854302E+02  0.29999983137E+02 0.  0.
        -12    1    1    2    0    0  0.15704419084E+02 -0.33859832723E+02  0.16126037271E+02  0.40659145698E+02  0.00000000000E+00 0.  1.
         11    1    3    3    0    0  0.11191283460E+01  0.12152471870E+02  0.60284848235E+01  0.13611673311E+02  0.51100000000E-03 0. -1.
        -11    1    3    3    0    0 -0.51242496726E+00  0.81110176684E+01 -0.79539445507E+01  0.11371737824E+02  0.51100000000E-03 0.  1.
        -12    1    3    3    0    0 -0.16311122463E+02  0.13596343185E+02 -0.14200577544E+02  0.25545443167E+02  0.00000000000E+00 0.  1.
</event>
<event>
 7    1  0.2974434E-011  0.5052885E+02  0.7816164E-02  0.1300439E+00
        -11   -1    0    0    0    0  0.00000000000E+00  0.00000000000E+00  0.45593999997E+02  0.45594000000E+02  0.51100000000E-03 0. -1.
         11   -1    0    0    0    0 -0.00000000000E+00 -0.00000000000E+00 -0.45593999997E+02  0.45594000000E+02  0.51100000000E-03 0.  1.
    9900012    2    1    2    0    0  0.36207177086E+02  0.16014486292E+02  0.92597591800E+01  0.50528848708E+02  0.29999966134E+02 0.  0.
        -12    1    1    2    0    0 -0.36207177086E+02 -0.16014486292E+02 -0.92597591800E+01  0.40659151292E+02  0.00000000000E+00 0.  1.
         11    1    3    3    0    0  0.26424204579E+02  0.41085044317E+01  0.12068929274E+02  0.29339009021E+02  0.51100000000E-03 0. -1.
        -11    1    3    3    0    0 -0.45827069218E+00 -0.13420182871E+01  0.31192118134E+01  0.34264424274E+01  0.51100000000E-03 0.  1.
        -12    1    3    3    0    0  0.10241243199E+02  0.13248000147E+02 -0.59283819073E+01  0.17763397260E+02  0.00000000000E+00 0.  1.
</event>
<event>
 7    1  0.2974434E-011  0.5052886E+02  0.7816164E-02  0.1300439E+00
        -11   -1    0    0    0    0  0.00000000000E+00  0.00000000000E+00  0.45593999997E+02  0.45594000000E+02  0.51100000000E-03 0. -1.
         11   -1    0    0    0    0 -0.00000000000E+00 -0.00000000000E+00 -0.45593999997E+02  0.45594000000E+02  0.51100000000E-03 0.  1.
    9900012    2    1    2    0    0  0.82377904450E+01 -0.31943149177E+02  0.23768453903E+02  0.50528863613E+02  0.30000011439E+02 0.  0.
        -12    1    1    2    0    0 -0.82377904450E+01  0.31943149177E+02 -0.23768453903E+02  0.40659136387E+02  0.00000000000E+00 0.  1.
         11    1    3    3    0    0  0.29916516518E+01 -0.13721425709E+02  0.24931848320E+02  0.28615110763E+02  0.51100000000E-03 0.  1.
        -11    1    3    3    0    0  0.70483079237E+01 -0.11858187477E+02  0.29750093411E+01  0.14111907584E+02  0.51100000000E-03 0. -1.
        -12    1    3    3    0    0 -0.18021691305E+01 -0.63635359914E+01 -0.41384037579E+01  0.78018452658E+01  0.00000000000E+00 0.  1.
</event>
<event>
 7    1  0.2974434E-011  0.5052886E+02  0.7816164E-02  0.1300439E+00
        -11   -1    0    0    0    0  0.00000000000E+00  0.00000000000E+00  0.45593999997E+02  0.45594000000E+02  0.51100000000E-03 0. -1.
         11   -1    0    0    0    0 -0.00000000000E+00 -0.00000000000E+00 -0.45593999997E+02  0.45594000000E+02  0.51100000000E-03 0.  1.
    9900012    2    1    2    0    0 -0.34093827281E+02 -0.22092993566E+02  0.16359094728E+01  0.50528860521E+02  0.30000002041E+02 0.  0.
        -12    1    1    2    0    0  0.34093827281E+02  0.22092993566E+02 -0.16359094728E+01  0.40659139479E+02  0.00000000000E+00 0.  1.
         11    1    3    3    0    0 -0.31258481947E+02 -0.89748980352E+01  0.12737086127E+01  0.32546333468E+02  0.51100000000E-03 0. -1.
        -11    1    3    3    0    0 -0.30413655505E+01  0.12452158649E+01 -0.12743144093E+01  0.35248183551E+01  0.51100000000E-03 0.  1.
         12    1    3    3    0    0  0.20602021622E+00 -0.14363311395E+02  0.16365152694E+01  0.14457708698E+02  0.00000000000E+00 0. -1.
</event>
<event>
 7    1  0.2974434E-011  0.5052884E+02  0.7816164E-02  0.1300439E+00
        -11   -1    0    0    0    0  0.00000000000E+00  0.00000000000E+00  0.45593999997E+02  0.45594000000E+02  0.51100000000E-03 0.  1.
         11   -1    0    0    0    0 -0.00000000000E+00 -0.00000000000E+00 -0.45593999997E+02  0.45594000000E+02  0.51100000000E-03 0. -1.
    9900012    2    1    2    0    0  0.82482169471E+01 -0.39801964765E+02  0.96853194301E+00  0.50528836998E+02  0.29999930538E+02 0.  0.
        -12    1    1    2    0    0 -0.82482169471E+01  0.39801964765E+02 -0.96853194301E+00  0.40659163002E+02  0.00000000000E+00 0.  1.
         11    1    3    3    0    0  0.99039756493E+01 -0.65196033517E+01  0.21228103827E+01  0.12045757996E+02  0.51100000000E-03 0. -1.
        -11    1    3    3    0    0 -0.26085491145E+01  0.39851982260E+00  0.35909115979E+01  0.44562307948E+01  0.51100000000E-03 0.  1.
        -12    1    3    3    0    0  0.95279041231E+00 -0.33680881236E+02 -0.47451900375E+01  0.34026848206E+02  0.00000000000E+00 0.  1.
</event>
<event>
 7    1  0.2974434E-011  0.5052886E+02  0.7816164E-02  0.1300439E+00
        -11   -1    0    0    0    0  0.00000000000E+00  0.00000000000E+00  0.45593999997E+02  0.45594000000E+02  0.51100000000E-03 0.  1.
         11   -1    0    0    0    0 -0.00000000000E+00 -0.00000000000E+00 -0.45593999997E+02  0.45594000000E+02  0.51100000000E-03 0. -1.
    9900012    2    1    2    0    0 -0.12195570819E+02 -0.18052724050E+02 -0.34329768196E+02  0.50528858621E+02  0.29999996266E+02 0.  0.
        -12    1    1    2    0    0  0.12195570819E+02  0.18052724050E+02  0.34329768196E+02  0.40659141379E+02  0.00000000000E+00 0.  1.
         11    1    3    3    0    0  0.50663163980E+00 -0.16053744851E+02 -0.16323230938E+02  0.22900377025E+02  0.51100000000E-03 0.  1.
        -11    1    3    3    0    0 -0.13162654693E+02 -0.75714196880E+01 -0.11491348297E+02  0.19042924161E+02  0.51100000000E-03 0. -1.
        -12    1    3    3    0    0  0.46045223450E+00  0.55724404896E+01 -0.65151889612E+01  0.85855574351E+01  0.00000000000E+00 0.  1.
</event>
<event>
 7    1  0.2974434E-011  0.5052885E+02  0.7816164E-02  0.1300439E+00
        -11   -1    0    0    0    0  0.00000000000E+00  0.00000000000E+00  0.45593999997E+02  0.45594000000E+02  0.51100000000E-03 0.  1.
         11   -1    0    0    0    0 -0.00000000000E+00 -0.00000000000E+00 -0.45593999997E+02  0.45594000000E+02  0.51100000000E-03 0. -1.
    9900012    2    1    2    0    0  0.34864200086E+02 -0.19465125087E+02 -0.76656852454E+01  0.50528852535E+02  0.29999977767E+02 0.  0.
        -12    1    1    2    0    0 -0.34864200086E+02  0.19465125087E+02  0.76656852454E+01  0.40659147465E+02  0.00000000000E+00 0.  1.
         11    1    3    3    0    0  0.51854327452E+01 -0.14270069111E+02 -0.49833359944E+01  0.15979900597E+02  0.51100000000E-03 0. -1.
        -11    1    3    3    0    0  0.18506042281E+01 -0.61561674605E+01  0.83739367404E+00  0.64826200134E+01  0.51100000000E-03 0.  1.
         12    1    3    3    0    0  0.27828163112E+02  0.96111148426E+00 -0.35197429250E+01  0.28066331925E+02  0.00000000000E+00 0. -1.
</event>
<event>
 7    1  0.2974434E-011  0.5052886E+02  0.7816164E-02  0.1300439E+00
        -11   -1    0    0    0    0  0.00000000000E+00  0.00000000000E+00  0.45593999997E+02  0.45594000000E+02  0.51100000000E-03 0.  1.
         11   -1    0    0    0    0 -0.00000000000E+00 -0.00000000000E+00 -0.45593999997E+02  0.45594000000E+02  0.51100000000E-03 0. -1.
    9900012    2    1    2    0    0  0.22936479911E+02  0.33287673179E+02 -0.43605306302E+01  0.50528861743E+02  0.30000005754E+02 0.  0.
        -12    1    1    2    0    0 -0.22936479911E+02 -0.33287673179E+02  0.43605306302E+01  0.40659138257E+02  0.00000000000E+00 0.  1.
         11    1    3    3    0    0  0.29667849282E+00  0.64959693646E+01  0.72706201725E+01  0.97543607719E+01  0.51100000000E-03 0. -1.
        -11    1    3    3    0    0  0.59659181043E+01  0.38832499934E+00 -0.69997801736E+01  0.92054276312E+01  0.51100000000E-03 0.  1.
         12    1    3    3    0    0  0.16673883314E+02  0.26403378815E+02 -0.46313706290E+01  0.31569073340E+02  0.00000000000E+00 0. -1.
</event>
<event>
 7    1  0.2974434E-011  0.5052876E+02  0.7816164E-02  0.1300439E+00
        -11   -1    0    0    0    0  0.00000000000E+00  0.00000000000E+00  0.45593999997E+02  0.45594000000E+02  0.51100000000E-03 0. -1.
         11   -1    0    0    0    0 -0.00000000000E+00 -0.00000000000E+00 -0.45593999997E+02  0.45594000000E+02  0.51100000000E-03 0.  1.
    9900012    2    1    2    0    0  0.16661187649E+02  0.81300973018E+01  0.36186742867E+02  0.50528757319E+02  0.29999688346E+02 0.  0.
        -12    1    1    2    0    0 -0.16661187649E+02 -0.81300973018E+01 -0.36186742867E+02  0.40659242681E+02  0.00000000000E+00 0.  1.
         11    1    3    3    0    0  0.12531070950E+02  0.33400746501E+01  0.15714002519E+02  0.20374339578E+02  0.51100000000E-03 0. -1.
        -11    1    3    3    0    0 -0.17997956933E+01  0.44169404419E+01  0.23150886581E+02  0.23637093247E+02  0.51100000000E-03 0.  1.
        -12    1    3    3    0    0  0.59299123924E+01  0.37308220985E+00 -0.26781462330E+01  0.65173244941E+01  0.00000000000E+00 0.  1.
</event>
<event>
 7    1  0.2974434E-011  0.5052885E+02  0.7816164E-02  0.1300439E+00
        -11   -1    0    0    0    0  0.00000000000E+00  0.00000000000E+00  0.45593999997E+02  0.45594000000E+02  0.51100000000E-03 0. -1.
         11   -1    0    0    0    0 -0.00000000000E+00 -0.00000000000E+00 -0.45593999997E+02  0.45594000000E+02  0.51100000000E-03 0.  1.
    9900012    2    1    2    0    0  0.32391625828E+02  0.64133960066E+01  0.23723770165E+02  0.50528851669E+02  0.29999975134E+02 0.  0.
        -12    1    1    2    0    0 -0.32391625828E+02 -0.64133960066E+01 -0.23723770165E+02  0.40659148331E+02  0.00000000000E+00 0.  1.
         11    1    3    3    0    0  0.21111929677E+02  0.94707693582E+01  0.36117610974E+01  0.23419091900E+02  0.51100000000E-03 0. -1.
        -11    1    3    3    0    0  0.11054757363E+02  0.79502302049E+00  0.62572960788E+01  0.12727665789E+02  0.51100000000E-03 0.  1.
        -12    1    3    3    0    0  0.22493878795E+00 -0.38523963720E+01  0.13854712988E+02  0.14382093980E+02  0.00000000000E+00 0.  1.
</event>
<event>
 7    1  0.2974434E-011  0.5052885E+02  0.7816164E-02  0.1300439E+00
        -11   -1    0    0    0    0  0.00000000000E+00  0.00000000000E+00  0.45593999997E+02  0.45594000000E+02  0.51100000000E-03 0.  1.
         11   -1    0    0    0    0 -0.00000000000E+00 -0.00000000000E+00 -0.45593999997E+02  0.45594000000E+02  0.51100000000E-03 0. -1.
    9900012    2    1    2    0    0  0.40039724329E+01  0.31252282596E+02 -0.25698820324E+02  0.50528851844E+02  0.29999975665E+02 0.  0.
        -12    1    1    2    0    0 -0.40039724329E+01 -0.31252282596E+02  0.25698820324E+02  0.40659148156E+02  0.00000000000E+00 0.  1.
         11    1    3    3    0    0  0.13835393587E+01 -0.22775521121E+01 -0.35849533300E+01  0.44669134108E+01  0.51100000000E-03 0. -1.
        -11    1    3    3    0    0  0.53254278552E+01  0.43234752734E+01 -0.14061423174E+02  0.15645326530E+02  0.51100000000E-03 0.  1.
        -12    1    3    3    0    0 -0.27049947811E+01  0.29206359435E+02 -0.80524438198E+01  0.30416611903E+02  0.00000000000E+00 0.  1.
</event>
<event>
 7    1  0.2974434E-011  0.5052888E+02  0.7816164E-02  0.1300439E+00
        -11   -1    0    0    0    0  0.00000000000E+00  0.00000000000E+00  0.45593999997E+02  0.45594000000E+02  0.51100000000E-03 0. -1.
         11   -1    0    0    0    0 -0.00000000000E+00 -0.00000000000E+00 -0.45593999997E+02  0.45594000000E+02  0.51100000000E-03 0.  1.
    9900012    2    1    2    0    0 -0.39762464952E+02  0.30670351151E+01  0.79185765399E+01  0.50528878294E+02  0.30000056062E+02 0.  0.
        -12    1    1    2    0    0  0.39762464952E+02 -0.30670351151E+01 -0.79185765399E+01  0.40659121706E+02  0.00000000000E+00 0.  1.
         11    1    3    3    0    0 -0.30134664146E+02 -0.42745231549E+01  0.72471510504E+01  0.31287229503E+02  0.51100000000E-03 0. -1.
        -11    1    3    3    0    0 -0.11609550219E+02  0.39537828472E+01 -0.42201752787E+01  0.12970116990E+02  0.51100000000E-03 0.  1.
        -12    1    3    3    0    0  0.19817494125E+01  0.33877754227E+01  0.48916007682E+01  0.62715318004E+01  0.00000000000E+00 0.  1.
</event>
<event>
 7    1  0.2974434E-011  0.5052885E+02  0.7816164E-02  0.1300439E+00
        -11   -1    0    0    0    0  0.00000000000E+00  0.00000000000E+00  0.45593999997E+02  0.45594000000E+02  0.51100000000E-03 0. -1.
         11   -1    0    0    0    0 -0.00000000000E+00 -0.00000000000E+00 -0.45593999997E+02  0.45594000000E+02  0.51100000000E-03 0.  1.
    9900012    2    1    2    0    0 -0.14630414982E+02 -0.36327710417E+02 -0.10927703054E+02  0.50528852435E+02  0.29999977462E+02 0.  0.
        -12    1    1    2    0    0  0.14630414982E+02  0.36327710417E+02  0.10927703054E+02  0.40659147565E+02  0.00000000000E+00 0.  1.
         11    1    3    3    0    0 -0.11270928615E+02 -0.79086152999E+01  0.37027886643E+01  0.14258003786E+02  0.51100000000E-03 0. -1.
        -11    1    3    3    0    0  0.10552364992E+01 -0.57967815976E+01 -0.11616811889E+02  0.13025610147E+02  0.51100000000E-03 0.  1.
        -12    1    3    3    0    0 -0.44147228666E+01 -0.22622313519E+02 -0.30136798284E+01  0.23245238503E+02  0.00000000000E+00 0.  1.
</event>
<event>
 7    1  0.2974434E-011  0.5052886E+02  0.7816164E-02  0.1300439E+00
        -11   -1    0    0    0    0  0.00000000000E+00  0.00000000000E+00  0.45593999997E+02  0.45594000000E+02  0.51100000000E-03 0.  1.
         11   -1    0    0    0    0 -0.00000000000E+00 -0.00000000000E+00 -0.45593999997E+02  0.45594000000E+02  0.51100000000E-03 0. -1.
    9900012    2    1    2    0    0 -0.32781138716E+01 -0.33279955510E+01 -0.40389897772E+02  0.50528862934E+02  0.30000009374E+02 0.  0.
        -12    1    1    2    0    0  0.32781138716E+01  0.33279955510E+01  0.40389897772E+02  0.40659137066E+02  0.00000000000E+00 0.  1.
         11    1    3    3    0    0 -0.21868069642E+01  0.18172357788E+01  0.80967446772E+00  0.29563564702E+01  0.51100000000E-03 0. -1.
        -11    1    3    3    0    0 -0.72589347091E+01 -0.95813544537E+01 -0.10544462994E+02  0.15990002700E+02  0.51100000000E-03 0.  1.
         12    1    3    3    0    0  0.61676278016E+01  0.44361231239E+01 -0.30655109246E+02  0.31582503763E+02  0.00000000000E+00 0. -1.
</event>
<event>
 7    1  0.2974434E-011  0.5052886E+02  0.7816164E-02  0.1300439E+00
        -11   -1    0    0    0    0  0.00000000000E+00  0.00000000000E+00  0.45593999997E+02  0.45594000000E+02  0.51100000000E-03 0. -1.
         11   -1    0    0    0    0 -0.00000000000E+00 -0.00000000000E+00 -0.45593999997E+02  0.45594000000E+02  0.51100000000E-03 0.  1.
    9900012    2    1    2    0    0 -0.40327282143E+02  0.39947005733E+01  0.33042487795E+01  0.50528863540E+02  0.30000011216E+02 0.  0.
        -12    1    1    2    0    0  0.40327282143E+02 -0.39947005733E+01 -0.33042487795E+01  0.40659136460E+02  0.00000000000E+00 0.  1.
         11    1    3    3    0    0 -0.29731017442E+01  0.15787826841E+01  0.84995187738E+01  0.91418656954E+01  0.51100000000E-03 0. -1.
        -11    1    3    3    0    0  0.93264025421E+00  0.25486208316E+01 -0.90255402555E+00  0.28600507018E+01  0.51100000000E-03 0.  1.
         12    1    3    3    0    0 -0.38286820653E+02 -0.13270294236E+00 -0.42927159687E+01  0.38526947143E+02  0.00000000000E+00 0. -1.
</event>
<event>
 7    1  0.2974434E-011  0.5052886E+02  0.7816164E-02  0.1300439E+00
        -11   -1    0    0    0    0  0.00000000000E+00  0.00000000000E+00  0.45593999997E+02  0.45594000000E+02  0.51100000000E-03 0. -1.
         11   -1    0    0    0    0 -0.00000000000E+00 -0.00000000000E+00 -0.45593999997E+02  0.45594000000E+02  0.51100000000E-03 0.  1.
    9900012    2    1    2    0    0  0.21486178320E+02  0.23624749532E+02  0.25167056977E+02  0.50528863190E+02  0.30000010152E+02 0.  0.
        -12    1    1    2    0    0 -0.21486178320E+02 -0.23624749532E+02 -0.25167056977E+02  0.40659136810E+02  0.00000000000E+00 0.  1.
         11    1    3    3    0    0 -0.19914245600E+01  0.11576803937E+02  0.62031019901E+01  0.13284074516E+02  0.51100000000E-03 0.  1.
        -11    1    3    3    0    0  0.20936399241E+02  0.30025025917E+01  0.18048616200E+02  0.27804682735E+02  0.51100000000E-03 0. -1.
         12    1    3    3    0    0  0.25412036388E+01  0.90454430029E+01  0.91533878720E+00  0.94401059395E+01  0.00000000000E+00 0. -1.
</event>
<event>
 7    1  0.2974434E-011  0.5052886E+02  0.7816164E-02  0.1300439E+00
        -11   -1    0    0    0    0  0.00000000000E+00  0.00000000000E+00  0.45593999997E+02  0.45594000000E+02  0.51100000000E-03 0.  1.
         11   -1    0    0    0    0 -0.00000000000E+00 -0.00000000000E+00 -0.45593999997E+02  0.45594000000E+02  0.51100000000E-03 0. -1.
    9900012    2    1    2    0    0 -0.27261750747E+02  0.17697091954E+00 -0.30165073528E+02  0.50528855476E+02  0.29999986705E+02 0.  0.
        -12    1    1    2    0    0  0.27261750747E+02 -0.17697091954E+00  0.30165073528E+02  0.40659144524E+02  0.00000000000E+00 0.  1.
         11    1    3    3    0    0 -0.66911884095E+01  0.16898504511E+01  0.24242738291E+01  0.73146907480E+01  0.51100000000E-03 0. -1.
        -11    1    3    3    0    0  0.38391559385E+01 -0.68690628574E+00 -0.54685823705E+01  0.67168706977E+01  0.51100000000E-03 0.  1.
        -12    1    3    3    0    0 -0.24409718276E+02 -0.82597324586E+00 -0.27120764986E+02  0.36497294030E+02  0.00000000000E+00 0.  1.
</event>
<event>
 7    1  0.2974434E-011  0.5052886E+02  0.7816164E-02  0.1300439E+00
        -11   -1    0    0    0    0  0.00000000000E+00  0.00000000000E+00  0.45593999997E+02  0.45594000000E+02  0.51100000000E-03 0. -1.
         11   -1    0    0    0    0 -0.00000000000E+00 -0.00000000000E+00 -0.45593999997E+02  0.45594000000E+02  0.51100000000E-03 0.  1.
    9900012    2    1    2    0    0 -0.40320033788E+02  0.51477135818E+01 -0.98064651818E+00  0.50528858993E+02  0.29999997396E+02 0.  0.
        -12    1    1    2    0    0  0.40320033788E+02 -0.51477135818E+01  0.98064651818E+00  0.40659141007E+02  0.00000000000E+00 0.  1.
         11    1    3    3    0    0 -0.18615416363E+02  0.42793761870E+01  0.98221355257E+01  0.21478387590E+02  0.51100000000E-03 0. -1.
        -11    1    3    3    0    0 -0.15750313174E+02 -0.12497514435E+01  0.81949768869E+00  0.15821056238E+02  0.51100000000E-03 0.  1.
        -12    1    3    3    0    0 -0.59543042508E+01  0.21180888382E+01 -0.11622279733E+02  0.13229415165E+02  0.00000000000E+00 0.  1.
</event>
<event>
 7    1  0.2974434E-011  0.5052885E+02  0.7816164E-02  0.1300439E+00
        -11   -1    0    0    0    0  0.00000000000E+00  0.00000000000E+00  0.45593999997E+02  0.45594000000E+02  0.51100000000E-03 0.  1.
         11   -1    0    0    0    0 -0.00000000000E+00 -0.00000000000E+00 -0.45593999997E+02  0.45594000000E+02  0.51100000000E-03 0. -1.
    9900012    2    1    2    0    0 -0.22413058082E+01  0.28693595379E+02 -0.28719687648E+02  0.50528851877E+02  0.29999975766E+02 0.  0.
        -12    1    1    2    0    0  0.22413058082E+01 -0.28693595379E+02  0.28719687648E+02  0.40659148123E+02  0.00000000000E+00 0.  1.
         11    1    3    3    0    0  0.78048537092E+00  0.21558815181E+01 -0.46421154839E+01  0.51774722559E+01  0.51100000000E-03 0. -1.
        -11    1    3    3    0    0  0.13021048936E+01  0.23463143460E+01 -0.20313535058E+02  0.20490006710E+02  0.51100000000E-03 0.  1.
         12    1    3    3    0    0 -0.43238960727E+01  0.24191399514E+02 -0.37640371064E+01  0.24861372912E+02  0.00000000000E+00 0. -1.
</event>
<event>
 7    1  0.2974434E-011  0.5052886E+02  0.7816164E-02  0.1300439E+00
        -11   -1    0    0    0    0  0.00000000000E+00  0.00000000000E+00  0.45593999997E+02  0.45594000000E+02  0.51100000000E-03 0. -1.
         11   -1    0    0    0    0 -0.00000000000E+00 -0.00000000000E+00 -0.45593999997E+02  0.45594000000E+02  0.51100000000E-03 0.  1.
    9900012    2    1    2    0    0 -0.32591940886E+02 -0.15619342956E+02  0.18627045233E+02  0.50528864505E+02  0.30000014148E+02 0.  0.
        -12    1    1    2    0    0  0.32591940886E+02  0.15619342956E+02 -0.18627045233E+02  0.40659135495E+02  0.00000000000E+00 0.  1.
         11    1    3    3    0    0 -0.13399063886E+02 -0.57385069506E+01  0.27286996883E+01  0.14829402459E+02  0.51100000000E-03 0. -1.
        -11    1    3    3    0    0 -0.18843319696E+02 -0.15823008300E+02  0.16635590630E+02  0.29701534720E+02  0.51100000000E-03 0.  1.
        -12    1    3    3    0    0 -0.34955730481E+00  0.59421722951E+01 -0.73724508530E+00  0.59979273262E+01  0.00000000000E+00 0.  1.
</event>
<event>
 7    1  0.2974434E-011  0.5052890E+02  0.7816164E-02  0.1300439E+00
        -11   -1    0    0    0    0  0.00000000000E+00  0.00000000000E+00  0.45593999997E+02  0.45594000000E+02  0.51100000000E-03 0. -1.
         11   -1    0    0    0    0 -0.00000000000E+00 -0.00000000000E+00 -0.45593999997E+02  0.45594000000E+02  0.51100000000E-03 0.  1.
    9900012    2    1    2    0    0 -0.54019962468E+01 -0.15675257973E+02  0.37125019640E+02  0.50528900659E+02  0.30000124042E+02 0.  0.
        -12    1    1    2    0    0  0.54019962468E+01  0.15675257973E+02 -0.37125019640E+02  0.40659099341E+02  0.00000000000E+00 0.  1.
         11    1    3    3    0    0 -0.32009851942E+01  0.55181931292E+01  0.19603113552E+02  0.20615014499E+02  0.51100000000E-03 0. -1.
        -11    1    3    3    0    0 -0.23447363071E+01 -0.42039495899E+01  0.10460252766E+02  0.11514680573E+02  0.51100000000E-03 0.  1.
        -12    1    3    3    0    0  0.14372525447E+00 -0.16989501512E+02  0.70616533228E+01  0.18399205587E+02  0.00000000000E+00 0.  1.
</event>
<event>
 7    1  0.2974434E-011  0.5052887E+02  0.7816164E-02  0.1300439E+00
        -11   -1    0    0    0    0  0.00000000000E+00  0.00000000000E+00  0.45593999997E+02  0.45594000000E+02  0.51100000000E-03 0.  1.
         11   -1    0    0    0    0 -0.00000000000E+00 -0.00000000000E+00 -0.45593999997E+02  0.45594000000E+02  0.51100000000E-03 0. -1.
    9900012    2    1    2    0    0  0.28267334592E+00 -0.18267660261E+02 -0.36323234165E+02  0.50528872417E+02  0.30000038198E+02 0.  0.
        -12    1    1    2    0    0 -0.28267334592E+00  0.18267660261E+02  0.36323234165E+02  0.40659127583E+02  0.00000000000E+00 0.  1.
         11    1    3    3    0    0  0.32936109482E+01 -0.42228213693E+01 -0.25933549520E+01  0.59502591173E+01  0.51100000000E-03 0. -1.
        -11    1    3    3    0    0 -0.80201979744E+01 -0.12667990415E+02 -0.56506313133E+01  0.16022833432E+02  0.51100000000E-03 0.  1.
         12    1    3    3    0    0  0.50092603722E+01 -0.13768484765E+01 -0.28079247900E+02  0.28555779867E+02  0.00000000000E+00 0. -1.
</event>
<event>
 7    1  0.2974434E-011  0.5052886E+02  0.7816164E-02  0.1300439E+00
        -11   -1    0    0    0    0  0.00000000000E+00  0.00000000000E+00  0.45593999997E+02  0.45594000000E+02  0.51100000000E-03 0.  1.
         11   -1    0    0    0    0 -0.00000000000E+00 -0.00000000000E+00 -0.45593999997E+02  0.45594000000E+02  0.51100000000E-03 0. -1.
    9900012    2    1    2    0    0 -0.23175715279E+02  0.30269306270E+02 -0.14135817206E+02  0.50528855778E+02  0.29999987622E+02 0.  0.
        -12    1    1    2    0    0  0.23175715279E+02 -0.30269306270E+02  0.14135817206E+02  0.40659144222E+02  0.00000000000E+00 0.  1.
         11    1    3    3    0    0 -0.31707194628E+01  0.10574543505E+02  0.56863585457E+01  0.12418095910E+02  0.51100000000E-03 0. -1.
        -11    1    3    3    0    0 -0.68549021435E+01  0.39804732533E+01  0.20011440324E+01  0.81754772593E+01  0.51100000000E-03 0.  1.
         12    1    3    3    0    0 -0.13150093673E+02  0.15714289512E+02 -0.21823319784E+02  0.29935282609E+02  0.00000000000E+00 0. -1.
</event>
<event>
 7    1  0.3750731E-011  0.5052886E+02  0.7816164E-02  0.1300439E+00
        -11   -1    0    0    0    0  0.00000000000E+00  0.00000000000E+00  0.45593999997E+02  0.45594000000E+02  0.51100000000E-03 0. -1.
         11   -1    0    0    0    0 -0.00000000000E+00 -0.00000000000E+00 -0.45593999997E+02  0.45594000000E+02  0.51100000000E-03 0.  1.
    9900012    2    1    2    0    0  0.33496747508E+02 -0.82634144376E+01  0.21513940284E+02  0.50528859105E+02  0.29999997736E+02 0.  0.
        -12    1    1    2    0    0 -0.33496747508E+02  0.82634144376E+01 -0.21513940284E+02  0.40659140895E+02  0.00000000000E+00 0.  1.
         11    1    3    3    0    0  0.31552823599E+01  0.73620775611E+00  0.71701562097E+01  0.78682240031E+01  0.51100000000E-03 0. -1.
        -11    1    3    3    0    0  0.26464500222E+02  0.29928455690E+01  0.13916332677E+02  0.30049812180E+02  0.51100000000E-03 0.  1.
        -12    1    3    3    0    0  0.38769649258E+01 -0.11992467763E+02  0.42745139742E+00  0.12610822922E+02  0.00000000000E+00 0.  1.
</event>
<event>
 7    1  0.2974434E-011  0.5052886E+02  0.7816164E-02  0.1300439E+00
        -11   -1    0    0    0    0  0.00000000000E+00  0.00000000000E+00  0.45593999997E+02  0.45594000000E+02  0.51100000000E-03 0.  1.
         11   -1    0    0    0    0 -0.00000000000E+00 -0.00000000000E+00 -0.45593999997E+02  0.45594000000E+02  0.51100000000E-03 0. -1.
    9900012    2    1    2    0    0 -0.31769947877E+02  0.23896493360E+02 -0.85319435532E+01  0.50528855348E+02  0.29999986317E+02 0.  0.
        -12    1    1    2    0    0  0.31769947877E+02 -0.23896493360E+02  0.85319435532E+01  0.40659144652E+02  0.00000000000E+00 0.  1.
         11    1    3    3    0    0 -0.11311846796E+02  0.55347133299E+01  0.41847875823E+01  0.13270394755E+02  0.51100000000E-03 0. -1.
        -11    1    3    3    0    0 -0.12942134353E+02  0.84761592781E+01  0.44250287102E+01  0.16091146543E+02  0.51100000000E-03 0.  1.
         12    1    3    3    0    0 -0.75159667285E+01  0.98856207520E+01 -0.17141759846E+02  0.21167314051E+02  0.00000000000E+00 0. -1.
</event>
<event>
 7    1  0.2974434E-011  0.5052884E+02  0.7816164E-02  0.1300439E+00
        -11   -1    0    0    0    0  0.00000000000E+00  0.00000000000E+00  0.45593999997E+02  0.45594000000E+02  0.51100000000E-03 0. -1.
         11   -1    0    0    0    0 -0.00000000000E+00 -0.00000000000E+00 -0.45593999997E+02  0.45594000000E+02  0.51100000000E-03 0.  1.
    9900012    2    1    2    0    0 -0.58011845310E+01 -0.12245594153E+01  0.40224539968E+02  0.50528844779E+02  0.29999954189E+02 0.  0.
        -12    1    1    2    0    0  0.58011845310E+01  0.12245594153E+01 -0.40224539968E+02  0.40659155221E+02  0.00000000000E+00 0.  1.
         11    1    3    3    0    0 -0.93783065411E+01  0.69417232344E+00  0.95299502721E+01  0.13388594446E+02  0.51100000000E-03 0. -1.
        -11    1    3    3    0    0  0.14467388214E+01 -0.57575724177E+01  0.32010967968E+02  0.32556792899E+02  0.51100000000E-03 0.  1.
        -12    1    3    3    0    0  0.21303831887E+01  0.38388406790E+01 -0.13163782723E+01  0.45834574335E+01  0.00000000000E+00 0.  1.
</event>
<event>
 7    1  0.2974434E-011  0.5052886E+02  0.7816164E-02  0.1300439E+00
        -11   -1    0    0    0    0  0.00000000000E+00  0.00000000000E+00  0.45593999997E+02  0.45594000000E+02  0.51100000000E-03 0.  1.
         11   -1    0    0    0    0 -0.00000000000E+00 -0.00000000000E+00 -0.45593999997E+02  0.45594000000E+02  0.51100000000E-03 0. -1.
    9900012    2    1    2    0    0 -0.55772744728E+01  0.17293345825E+02 -0.36373065295E+02  0.50528859831E+02  0.29999999941E+02 0.  0.
        -12    1    1    2    0    0  0.55772744728E+01 -0.17293345825E+02  0.36373065295E+02  0.40659140169E+02  0.00000000000E+00 0.  1.
         11    1    3    3    0    0 -0.61196902137E+01 -0.16142799318E-01 -0.17901939661E+02  0.18919046297E+02  0.51100000000E-03 0. -1.
        -11    1    3    3    0    0  0.23080158581E+00 -0.11021178802E+01  0.30704273995E+01  0.32703910883E+01  0.51100000000E-03 0.  1.
        -12    1    3    3    0    0  0.31161415514E+00  0.18411606504E+02 -0.21541553033E+02  0.28339422445E+02  0.00000000000E+00 0.  1.
</event>
<event>
 7    1  0.2974434E-011  0.5052887E+02  0.7816164E-02  0.1300439E+00
        -11   -1    0    0    0    0  0.00000000000E+00  0.00000000000E+00  0.45593999997E+02  0.45594000000E+02  0.51100000000E-03 0. -1.
         11   -1    0    0    0    0 -0.00000000000E+00 -0.00000000000E+00 -0.45593999997E+02  0.45594000000E+02  0.51100000000E-03 0.  1.
    9900012    2    1    2    0    0 -0.20018243441E+02 -0.15860437513E+02  0.31636710216E+02  0.50528868408E+02  0.30000026012E+02 0.  0.
        -12    1    1    2    0    0  0.20018243441E+02  0.15860437513E+02 -0.31636710216E+02  0.40659131592E+02  0.00000000000E+00 0.  1.
         11    1    3    3    0    0 -0.13264113421E+02 -0.14967437738E+01  0.43926295161E+01  0.14052478113E+02  0.51100000000E-03 0. -1.
        -11    1    3    3    0    0 -0.56722073690E+01 -0.65559011929E+00 -0.27125816144E+00  0.57164076213E+01  0.51100000000E-03 0.  1.
         12    1    3    3    0    0 -0.10819226510E+01 -0.13708103619E+02  0.27515338861E+02  0.30759982674E+02  0.00000000000E+00 0. -1.
</event>
<event>
 7    1  0.2974434E-011  0.5052887E+02  0.7816164E-02  0.1300439E+00
        -11   -1    0    0    0    0  0.00000000000E+00  0.00000000000E+00  0.45593999997E+02  0.45594000000E+02  0.51100000000E-03 0.  1.
         11   -1    0    0    0    0 -0.00000000000E+00 -0.00000000000E+00 -0.45593999997E+02  0.45594000000E+02  0.51100000000E-03 0. -1.
    9900012    2    1    2    0    0 -0.17460828428E+01 -0.21684229059E+01 -0.40563705997E+02  0.50528866864E+02  0.30000021320E+02 0.  0.
        -12    1    1    2    0    0  0.17460828428E+01  0.21684229059E+01  0.40563705997E+02  0.40659133136E+02  0.00000000000E+00 0.  1.
         11    1    3    3    0    0 -0.80994435419E+01  0.62471632680E+00 -0.33999832256E+02  0.34956828373E+02  0.51100000000E-03 0. -1.
        -11    1    3    3    0    0 -0.20117290741E+01 -0.31706285090E+01  0.14082533896E+01  0.40103761519E+01  0.51100000000E-03 0.  1.
        -12    1    3    3    0    0  0.83650897731E+01  0.37748927629E+00 -0.79721271300E+01  0.11561662339E+02  0.00000000000E+00 0.  1.
</event>
<event>
 7    1  0.2974434E-011  0.5052886E+02  0.7816164E-02  0.1300439E+00
        -11   -1    0    0    0    0  0.00000000000E+00  0.00000000000E+00  0.45593999997E+02  0.45594000000E+02  0.51100000000E-03 0.  1.
         11   -1    0    0    0    0 -0.00000000000E+00 -0.00000000000E+00 -0.45593999997E+02  0.45594000000E+02  0.51100000000E-03 0. -1.
    9900012    2    1    2    0    0 -0.55971238517E+01  0.57484591138E+00 -0.40267944333E+02  0.50528861003E+02  0.30000003504E+02 0.  0.
        -12    1    1    2    0    0  0.55971238517E+01 -0.57484591138E+00  0.40267944333E+02  0.40659138997E+02  0.00000000000E+00 0.  1.
         11    1    3    3    0    0 -0.36693558088E+01  0.46095237080E+01 -0.19833163821E+02  0.20689762403E+02  0.51100000000E-03 0. -1.
        -11    1    3    3    0    0 -0.87451260651E+01 -0.22629300687E+01 -0.20911527871E+02  0.22779158908E+02  0.51100000000E-03 0.  1.
        -12    1    3    3    0    0  0.68173580222E+01 -0.17717477279E+01  0.47674735925E+00  0.70599396923E+01  0.00000000000E+00 0.  1.
</event>
<event>
 7    1  0.2974434E-011  0.5052887E+02  0.7816164E-02  0.1300439E+00
        -11   -1    0    0    0    0  0.00000000000E+00  0.00000000000E+00  0.45593999997E+02  0.45594000000E+02  0.51100000000E-03 0.  1.
         11   -1    0    0    0    0 -0.00000000000E+00 -0.00000000000E+00 -0.45593999997E+02  0.45594000000E+02  0.51100000000E-03 0. -1.
    9900012    2    1    2    0    0  0.91988760994E+01  0.38246905589E+02 -0.10282028339E+02  0.50528865536E+02  0.30000017283E+02 0.  0.
        -12    1    1    2    0    0 -0.91988760994E+01 -0.38246905589E+02  0.10282028339E+02  0.40659134464E+02  0.00000000000E+00 0.  1.
         11    1    3    3    0    0  0.13809932572E+01  0.18084464317E+02  0.50235033018E+01  0.18819951586E+02  0.51100000000E-03 0. -1.
        -11    1    3    3    0    0 -0.15473694440E+01  0.10195194357E+02  0.10767732034E+01  0.10368017215E+02  0.51100000000E-03 0.  1.
        -12    1    3    3    0    0  0.93652522862E+01  0.99672469141E+01 -0.16382304844E+02  0.21340896735E+02  0.00000000000E+00 0.  1.
</event>
<event>
 7    1  0.2974434E-011  0.5052887E+02  0.7816164E-02  0.1300439E+00
        -11   -1    0    0    0    0  0.00000000000E+00  0.00000000000E+00  0.45593999997E+02  0.45594000000E+02  0.51100000000E-03 0.  1.
         11   -1    0    0    0    0 -0.00000000000E+00 -0.00000000000E+00 -0.45593999997E+02  0.45594000000E+02  0.51100000000E-03 0. -1.
    9900012    2    1    2    0    0  0.59717263443E+00 -0.14942826855E+01 -0.40627268864E+02  0.50528874687E+02  0.30000045099E+02 0.  0.
        -12    1    1    2    0    0 -0.59717263443E+00  0.14942826855E+01  0.40627268864E+02  0.40659125313E+02  0.00000000000E+00 0.  1.
         11    1    3    3    0    0  0.41839338901E+01  0.41722035193E+01 -0.34152987860E-01  0.59087859744E+01  0.51100000000E-03 0. -1.
        -11    1    3    3    0    0 -0.37793924057E+01  0.45796647044E+01 -0.56171636633E+01  0.81737178592E+01  0.51100000000E-03 0.  1.
         12    1    3    3    0    0  0.19263115006E+00 -0.10246150909E+02 -0.34975952213E+02  0.36446370853E+02  0.00000000000E+00 0. -1.
</event>
<event>
 7    1  0.2974434E-011  0.5052886E+02  0.7816164E-02  0.1300439E+00
        -11   -1    0    0    0    0  0.00000000000E+00  0.00000000000E+00  0.45593999997E+02  0.45594000000E+02  0.51100000000E-03 0.  1.
         11   -1    0    0    0    0 -0.00000000000E+00 -0.00000000000E+00 -0.45593999997E+02  0.45594000000E+02  0.51100000000E-03 0. -1.
    9900012    2    1    2    0    0  0.31827523415E+02 -0.76223227862E+01 -0.24126216476E+02  0.50528863599E+02  0.30000011395E+02 0.  0.
        -12    1    1    2    0    0 -0.31827523415E+02  0.76223227862E+01  0.24126216476E+02  0.40659136401E+02  0.00000000000E+00 0.  1.
         11    1    3    3    0    0  0.28598895762E+02 -0.75444084080E+01 -0.27905016779E+02  0.40663311458E+02  0.51100000000E-03 0. -1.
        -11    1    3    3    0    0  0.94524607638E+00 -0.24459206835E+01 -0.19443010292E+01  0.32644026847E+01  0.51100000000E-03 0.  1.
        -12    1    3    3    0    0  0.22833815765E+01  0.23680063053E+01  0.57231013317E+01  0.66011494559E+01  0.00000000000E+00 0.  1.
</event>
<event>
 7    1  0.2974434E-011  0.5052889E+02  0.7816164E-02  0.1300439E+00
        -11   -1    0    0    0    0  0.00000000000E+00  0.00000000000E+00  0.45593999997E+02  0.45594000000E+02  0.51100000000E-03 0.  1.
         11   -1    0    0    0    0 -0.00000000000E+00 -0.00000000000E+00 -0.45593999997E+02  0.45594000000E+02  0.51100000000E-03 0. -1.
    9900012    2    1    2    0    0  0.38546950385E+02 -0.16520287971E+01 -0.12828357306E+02  0.50528888668E+02  0.30000087594E+02 0.  0.
        -12    1    1    2    0    0 -0.38546950385E+02  0.16520287971E+01  0.12828357306E+02  0.40659111332E+02  0.00000000000E+00 0.  1.
         11    1    3    3    0    0  0.59463533935E+01 -0.89641473430E+01 -0.57384101871E+00  0.10772388317E+02  0.51100000000E-03 0. -1.
        -11    1    3    3    0    0  0.14008451455E+02 -0.24904097188E+01  0.19895436069E+01  0.14366528348E+02  0.51100000000E-03 0.  1.
         12    1    3    3    0    0  0.18592145537E+02  0.98025282648E+01 -0.14244059895E+02  0.25389972003E+02  0.00000000000E+00 0. -1.
</event>
<event>
 7    1  0.2974434E-011  0.5052886E+02  0.7816164E-02  0.1300439E+00
        -11   -1    0    0    0    0  0.00000000000E+00  0.00000000000E+00  0.45593999997E+02  0.45594000000E+02  0.51100000000E-03 0.  1.
         11   -1    0    0    0    0 -0.00000000000E+00 -0.00000000000E+00 -0.45593999997E+02  0.45594000000E+02  0.51100000000E-03 0. -1.
    9900012    2    1    2    0    0  0.39646106747E+02  0.33539297822E+01 -0.83727511566E+01  0.50528860964E+02  0.30000003387E+02 0.  0.
        -12    1    1    2    0    0 -0.39646106747E+02 -0.33539297822E+01  0.83727511566E+01  0.40659139036E+02  0.00000000000E+00 0.  1.
         11    1    3    3    0    0  0.61564949892E+01  0.30752499489E+01 -0.52916257797E+00  0.69021450358E+01  0.51100000000E-03 0. -1.
        -11    1    3    3    0    0  0.13836978262E+01  0.52916638037E+01  0.61643571704E+01  0.82410936817E+01  0.51100000000E-03 0.  1.
         12    1    3    3    0    0  0.32105913932E+02 -0.50129839703E+01 -0.14007945749E+02  0.35385622247E+02  0.00000000000E+00 0. -1.
</event>
<event>
 7    1  0.2974434E-011  0.5052886E+02  0.7816164E-02  0.1300439E+00
        -11   -1    0    0    0    0  0.00000000000E+00  0.00000000000E+00  0.45593999997E+02  0.45594000000E+02  0.51100000000E-03 0.  1.
         11   -1    0    0    0    0 -0.00000000000E+00 -0.00000000000E+00 -0.45593999997E+02  0.45594000000E+02  0.51100000000E-03 0. -1.
    9900012    2    1    2    0    0 -0.58637796781E+01  0.59895304025E+01 -0.39785763351E+02  0.50528863856E+02  0.30000012177E+02 0.  0.
        -12    1    1    2    0    0  0.58637796781E+01 -0.59895304025E+01  0.39785763351E+02  0.40659136144E+02  0.00000000000E+00 0.  1.
         11    1    3    3    0    0  0.31286608428E+01  0.46593596902E+00  0.10596910836E+01  0.33359497074E+01  0.51100000000E-03 0. -1.
        -11    1    3    3    0    0 -0.13604998083E+02  0.82679337633E+01 -0.19451306789E+02  0.25135791963E+02  0.51100000000E-03 0.  1.
         12    1    3    3    0    0  0.46125575622E+01 -0.27443393299E+01 -0.21394147646E+02  0.22057122186E+02  0.00000000000E+00 0. -1.
</event>
<event>
 7    1  0.2974434E-011  0.5052887E+02  0.7816164E-02  0.1300439E+00
        -11   -1    0    0    0    0  0.00000000000E+00  0.00000000000E+00  0.45593999997E+02  0.45594000000E+02  0.51100000000E-03 0.  1.
         11   -1    0    0    0    0 -0.00000000000E+00 -0.00000000000E+00 -0.45593999997E+02  0.45594000000E+02  0.51100000000E-03 0. -1.
    9900012    2    1    2    0    0  0.21948918733E+02  0.17406590797E+02 -0.29468968177E+02  0.50528874061E+02  0.30000043196E+02 0.  0.
        -12    1    1    2    0    0 -0.21948918733E+02 -0.17406590797E+02  0.29468968177E+02  0.40659125939E+02  0.00000000000E+00 0.  1.
         11    1    3    3    0    0 -0.20534728831E+01  0.98999451764E+01 -0.29194434386E+01  0.10523726319E+02  0.51100000000E-03 0. -1.
        -11    1    3    3    0    0  0.63204446978E+01  0.47239600945E+01 -0.19009801537E+02  0.20582428790E+02  0.51100000000E-03 0.  1.
        -12    1    3    3    0    0  0.17681946919E+02  0.27826855260E+01 -0.75397232013E+01  0.19422718953E+02  0.00000000000E+00 0.  1.
</event>
<event>
 7    1  0.2974434E-011  0.5052886E+02  0.7816164E-02  0.1300439E+00
        -11   -1    0    0    0    0  0.00000000000E+00  0.00000000000E+00  0.45593999997E+02  0.45594000000E+02  0.51100000000E-03 0. -1.
         11   -1    0    0    0    0 -0.00000000000E+00 -0.00000000000E+00 -0.45593999997E+02  0.45594000000E+02  0.51100000000E-03 0.  1.
    9900012    2    1    2    0    0 -0.17678956579E+02 -0.34453035622E+02 -0.12393902044E+02  0.50528856168E+02  0.29999988807E+02 0.  0.
        -12    1    1    2    0    0  0.17678956579E+02  0.34453035622E+02  0.12393902044E+02  0.40659143832E+02  0.00000000000E+00 0.  1.
         11    1    3    3    0    0 -0.12116367196E+02 -0.10511420974E+02 -0.39509914092E+01  0.16519886752E+02  0.51100000000E-03 0. -1.
        -11    1    3    3    0    0 -0.98130271604E+01 -0.12489694635E+02 -0.13444233746E+02  0.20809502527E+02  0.51100000000E-03 0.  1.
         12    1    3    3    0    0  0.42504377780E+01 -0.11451920013E+02  0.50013231107E+01  0.13199466889E+02  0.00000000000E+00 0. -1.
</event>
<event>
 7    1  0.2974434E-011  0.5052881E+02  0.7816164E-02  0.1300439E+00
        -11   -1    0    0    0    0  0.00000000000E+00  0.00000000000E+00  0.45593999997E+02  0.45594000000E+02  0.51100000000E-03 0.  1.
         11   -1    0    0    0    0 -0.00000000000E+00 -0.00000000000E+00 -0.45593999997E+02  0.45594000000E+02  0.51100000000E-03 0. -1.
    9900012    2    1    2    0    0 -0.30789440146E+02  0.17894380757E+02 -0.19620673919E+02  0.50528814909E+02  0.29999863398E+02 0.  0.
        -12    1    1    2    0    0  0.30789440146E+02 -0.17894380757E+02  0.19620673919E+02  0.40659185091E+02  0.00000000000E+00 0.  1.
         11    1    3    3    0    0 -0.10219876310E+02  0.18972958793E+02 -0.16193320548E+02  0.26956310352E+02  0.51100000000E-03 0. -1.
        -11    1    3    3    0    0  0.25485993741E+00  0.43535614985E+00 -0.26299551069E+01  0.26779007992E+01  0.51100000000E-03 0.  1.
        -12    1    3    3    0    0 -0.20824423774E+02 -0.15139341865E+01 -0.79739826467E+00  0.20894603758E+02  0.00000000000E+00 0.  1.
</event>
<event>
 7    1  0.2974434E-011  0.5052886E+02  0.7816164E-02  0.1300439E+00
        -11   -1    0    0    0    0  0.00000000000E+00  0.00000000000E+00  0.45593999997E+02  0.45594000000E+02  0.51100000000E-03 0. -1.
         11   -1    0    0    0    0 -0.00000000000E+00 -0.00000000000E+00 -0.45593999997E+02  0.45594000000E+02  0.51100000000E-03 0.  1.
    9900012    2    1    2    0    0  0.16767615907E+02  0.25370288327E+02  0.26988169211E+02  0.50528858957E+02  0.29999997286E+02 0.  0.
        -12    1    1    2    0    0 -0.16767615907E+02 -0.25370288327E+02 -0.26988169211E+02  0.40659141043E+02  0.00000000000E+00 0.  1.
         11    1    3    3    0    0  0.75883267397E+01  0.27001959888E+02  0.12407980240E+02  0.30669961109E+02  0.51100000000E-03 0.  1.
        -11    1    3    3    0    0  0.15979922689E+01  0.36217467392E+01  0.64273560785E+01  0.75486114720E+01  0.51100000000E-03 0. -1.
        -12    1    3    3    0    0  0.75812968983E+01 -0.52534183001E+01  0.81528328925E+01  0.12310286376E+02  0.00000000000E+00 0.  1.
</event>
<event>
 7    1  0.2974434E-011  0.5052887E+02  0.7816164E-02  0.1300439E+00
        -11   -1    0    0    0    0  0.00000000000E+00  0.00000000000E+00  0.45593999997E+02  0.45594000000E+02  0.51100000000E-03 0. -1.
         11   -1    0    0    0    0 -0.00000000000E+00 -0.00000000000E+00 -0.45593999997E+02  0.45594000000E+02  0.51100000000E-03 0.  1.
    9900012    2    1    2    0    0 -0.57716939488E+01 -0.22837070341E+02  0.33140920076E+02  0.50528870443E+02  0.30000032199E+02 0.  0.
        -12    1    1    2    0    0  0.57716939488E+01  0.22837070341E+02 -0.33140920076E+02  0.40659129557E+02  0.00000000000E+00 0.  1.
         11    1    3    3    0    0  0.23183171029E+01 -0.27381940230E+01  0.13558595301E+02  0.14025256058E+02  0.51100000000E-03 0. -1.
        -11    1    3    3    0    0 -0.17299333105E+01 -0.10789990800E+02  0.22364290229E+02  0.24891324763E+02  0.51100000000E-03 0.  1.
        -12    1    3    3    0    0 -0.63600777413E+01 -0.93088855189E+01 -0.27819654544E+01  0.11612289622E+02  0.00000000000E+00 0.  1.
</event>
<event>
 7    1  0.2974434E-011  0.5052886E+02  0.7816164E-02  0.1300439E+00
        -11   -1    0    0    0    0  0.00000000000E+00  0.00000000000E+00  0.45593999997E+02  0.45594000000E+02  0.51100000000E-03 0.  1.
         11   -1    0    0    0    0 -0.00000000000E+00 -0.00000000000E+00 -0.45593999997E+02  0.45594000000E+02  0.51100000000E-03 0. -1.
    9900012    2    1    2    0    0  0.32206713094E+01 -0.35518932400E+02 -0.19524293355E+02  0.50528864329E+02  0.30000013614E+02 0.  0.
        -12    1    1    2    0    0 -0.32206713094E+01  0.35518932400E+02  0.19524293355E+02  0.40659135671E+02  0.00000000000E+00 0.  1.
         11    1    3    3    0    0 -0.27375336267E+00 -0.14358182298E+02 -0.10794500807E+02  0.17965344075E+02  0.51100000000E-03 0. -1.
        -11    1    3    3    0    0  0.39271101981E+01 -0.19836071010E+02  0.32694029388E+01  0.20483674071E+02  0.51100000000E-03 0.  1.
        -12    1    3    3    0    0 -0.43268552601E+00 -0.13246790919E+01 -0.11999195487E+02  0.12079846182E+02  0.00000000000E+00 0.  1.
</event>
<event>
 7    1  0.2974434E-011  0.5052896E+02  0.7816164E-02  0.1300438E+00
        -11   -1    0    0    0    0  0.00000000000E+00  0.00000000000E+00  0.45593999997E+02  0.45594000000E+02  0.51100000000E-03 0. -1.
         11   -1    0    0    0    0 -0.00000000000E+00 -0.00000000000E+00 -0.45593999997E+02  0.45594000000E+02  0.51100000000E-03 0.  1.
    9900012    2    1    2    0    0  0.38679786313E+02 -0.96323564460E+01  0.80155922918E+01  0.50528955746E+02  0.30000291483E+02 0.  0.
        -12    1    1    2    0    0 -0.38679786313E+02  0.96323564460E+01 -0.80155922918E+01  0.40659044254E+02  0.00000000000E+00 0.  1.
         11    1    3    3    0    0  0.95813906299E+01 -0.15125615440E+02 -0.24673804433E+01  0.18074159879E+02  0.51100000000E-03 0. -1.
        -11    1    3    3    0    0  0.45223930075E+01 -0.20062886047E+01  0.25333441965E+01  0.55583329838E+01  0.51100000000E-03 0.  1.
        -12    1    3    3    0    0  0.24576002675E+02  0.74995475984E+01  0.79496285386E+01  0.26896462882E+02  0.00000000000E+00 0.  1.
</event>
<event>
 7    1  0.2974434E-011  0.5052887E+02  0.7816164E-02  0.1300439E+00
        -11   -1    0    0    0    0  0.00000000000E+00  0.00000000000E+00  0.45593999997E+02  0.45594000000E+02  0.51100000000E-03 0.  1.
         11   -1    0    0    0    0 -0.00000000000E+00 -0.00000000000E+00 -0.45593999997E+02  0.45594000000E+02  0.51100000000E-03 0. -1.
    9900012    2    1    2    0    0 -0.37314071706E+02  0.43876807418E+01 -0.15542627720E+02  0.50528868602E+02  0.30000026602E+02 0.  0.
        -12    1    1    2    0    0  0.37314071706E+02 -0.43876807418E+01  0.15542627720E+02  0.40659131398E+02  0.00000000000E+00 0.  1.
         11    1    3    3    0    0 -0.11909334404E+02 -0.30214263972E+01  0.95043154543E+00  0.12323334931E+02  0.51100000000E-03 0.  1.
        -11    1    3    3    0    0 -0.61575794309E+01 -0.77085310212E+01 -0.33097413092E+01  0.10406326093E+02  0.51100000000E-03 0. -1.
        -12    1    3    3    0    0 -0.19247157871E+02  0.15117638160E+02 -0.13183317956E+02  0.27799207579E+02  0.00000000000E+00 0.  1.
</event>
<event>
 7    1  0.2974434E-011  0.5052886E+02  0.7816164E-02  0.1300439E+00
        -11   -1    0    0    0    0  0.00000000000E+00  0.00000000000E+00  0.45593999997E+02  0.45594000000E+02  0.51100000000E-03 0.  1.
         11   -1    0    0    0    0 -0.00000000000E+00 -0.00000000000E+00 -0.45593999997E+02  0.45594000000E+02  0.51100000000E-03 0. -1.
    9900012    2    1    2    0    0 -0.19693617346E+02  0.14566345235E+02 -0.32452252235E+02  0.50528860157E+02  0.30000000932E+02 0.  0.
        -12    1    1    2    0    0  0.19693617346E+02 -0.14566345235E+02  0.32452252235E+02  0.40659139843E+02  0.00000000000E+00 0.  1.
         11    1    3    3    0    0 -0.15659905765E+02  0.24464675729E+01 -0.88225356904E+01  0.18139872889E+02  0.51100000000E-03 0. -1.
        -11    1    3    3    0    0 -0.76126447865E+01  0.53731072860E+01 -0.21093705210E+01  0.95536425937E+01  0.51100000000E-03 0.  1.
         12    1    3    3    0    0  0.35789332056E+01  0.67467703760E+01 -0.21520346024E+02  0.22835344674E+02  0.00000000000E+00 0. -1.
</event>
<event>
 7    1  0.2974434E-011  0.5052885E+02  0.7816164E-02  0.1300439E+00
        -11   -1    0    0    0    0  0.00000000000E+00  0.00000000000E+00  0.45593999997E+02  0.45594000000E+02  0.51100000000E-03 0.  1.
         11   -1    0    0    0    0 -0.00000000000E+00 -0.00000000000E+00 -0.45593999997E+02  0.45594000000E+02  0.51100000000E-03 0. -1.
    9900012    2    1    2    0    0  0.12497956105E+02 -0.11066824134E+02 -0.37074155059E+02  0.50528850026E+02  0.29999970140E+02 0.  0.
        -12    1    1    2    0    0 -0.12497956105E+02  0.11066824134E+02  0.37074155059E+02  0.40659149974E+02  0.00000000000E+00 0.  1.
         11    1    3    3    0    0  0.14375690560E+01  0.24229302047E+01  0.18400661922E+01  0.33649724249E+01  0.51100000000E-03 0. -1.
        -11    1    3    3    0    0  0.42573492283E+01  0.21190216716E+01 -0.74795712511E-01  0.47561402372E+01  0.51100000000E-03 0.  1.
         12    1    3    3    0    0  0.68030378204E+01 -0.15608776011E+02 -0.38839425539E+02  0.42407737364E+02  0.00000000000E+00 0. -1.
</event>
<event>
 7    1  0.2974434E-011  0.5052886E+02  0.7816164E-02  0.1300439E+00
        -11   -1    0    0    0    0  0.00000000000E+00  0.00000000000E+00  0.45593999997E+02  0.45594000000E+02  0.51100000000E-03 0.  1.
         11   -1    0    0    0    0 -0.00000000000E+00 -0.00000000000E+00 -0.45593999997E+02  0.45594000000E+02  0.51100000000E-03 0. -1.
    9900012    2    1    2    0    0  0.33080830952E+01 -0.18681621308E+01 -0.40481254705E+02  0.50528862946E+02  0.30000009410E+02 0.  0.
        -12    1    1    2    0    0 -0.33080830952E+01  0.18681621308E+01  0.40481254705E+02  0.40659137054E+02  0.00000000000E+00 0.  1.
         11    1    3    3    0    0  0.15296542849E+01 -0.12209703274E+02 -0.17941498102E+02  0.21755782006E+02  0.51100000000E-03 0. -1.
        -11    1    3    3    0    0 -0.16466663258E+01 -0.15593906189E+01  0.75571604118E+00  0.23904635715E+01  0.51100000000E-03 0.  1.
         12    1    3    3    0    0  0.34250951360E+01  0.11900931762E+02 -0.23295472644E+02  0.26382617369E+02  0.00000000000E+00 0. -1.
</event>
<event>
 7    1  0.2974434E-011  0.5052889E+02  0.7816164E-02  0.1300439E+00
        -11   -1    0    0    0    0  0.00000000000E+00  0.00000000000E+00  0.45593999997E+02  0.45594000000E+02  0.51100000000E-03 0.  1.
         11   -1    0    0    0    0 -0.00000000000E+00 -0.00000000000E+00 -0.45593999997E+02  0.45594000000E+02  0.51100000000E-03 0. -1.
    9900012    2    1    2    0    0  0.17722287613E+02 -0.35555891836E+02 -0.86523084458E+01  0.50528888304E+02  0.30000086489E+02 0.  0.
        -12    1    1    2    0    0 -0.17722287613E+02  0.35555891836E+02  0.86523084458E+01  0.40659111696E+02  0.00000000000E+00 0.  1.
         11    1    3    3    0    0  0.63068440787E+01 -0.34145235018E+01 -0.28659627051E+01  0.77232762132E+01  0.51100000000E-03 0. -1.
        -11    1    3    3    0    0  0.62473387439E+01  0.24573262385E+01 -0.39186088340E+01  0.77732354318E+01  0.51100000000E-03 0.  1.
        -12    1    3    3    0    0  0.51681047902E+01 -0.34598694572E+02 -0.18677369066E+01  0.35032376659E+02  0.00000000000E+00 0.  1.
</event>
<event>
 7    1  0.2974434E-011  0.5052887E+02  0.7816164E-02  0.1300439E+00
        -11   -1    0    0    0    0  0.00000000000E+00  0.00000000000E+00  0.45593999997E+02  0.45594000000E+02  0.51100000000E-03 0. -1.
         11   -1    0    0    0    0 -0.00000000000E+00 -0.00000000000E+00 -0.45593999997E+02  0.45594000000E+02  0.51100000000E-03 0.  1.
    9900012    2    1    2    0    0 -0.15831840094E+02  0.31878053784E+02  0.19654696521E+02  0.50528873482E+02  0.30000041437E+02 0.  0.
        -12    1    1    2    0    0  0.15831840094E+02 -0.31878053784E+02 -0.19654696521E+02  0.40659126518E+02  0.00000000000E+00 0.  1.
         11    1    3    3    0    0 -0.55407018902E+01  0.67221765027E+00  0.44555362181E+00  0.55990867377E+01  0.51100000000E-03 0. -1.
        -11    1    3    3    0    0 -0.26811551090E+01  0.76134851526E+01 -0.56267703438E+01  0.98394254736E+01  0.51100000000E-03 0.  1.
         12    1    3    3    0    0 -0.76099830950E+01  0.23592350981E+02  0.24835913243E+02  0.35090361271E+02  0.00000000000E+00 0. -1.
</event>
<event>
 7    1  0.2974434E-011  0.5052887E+02  0.7816164E-02  0.1300439E+00
        -11   -1    0    0    0    0  0.00000000000E+00  0.00000000000E+00  0.45593999997E+02  0.45594000000E+02  0.51100000000E-03 0.  1.
         11   -1    0    0    0    0 -0.00000000000E+00 -0.00000000000E+00 -0.45593999997E+02  0.45594000000E+02  0.51100000000E-03 0. -1.
    9900012    2    1    2    0    0 -0.30391357690E+02  0.10921277714E+02 -0.24703358971E+02  0.50528869739E+02  0.30000030057E+02 0.  0.
        -12    1    1    2    0    0  0.30391357690E+02 -0.10921277714E+02  0.24703358971E+02  0.40659130261E+02  0.00000000000E+00 0.  1.
         11    1    3    3    0    0 -0.13230916685E+02  0.39127195661E+00  0.13320979723E+01  0.13303561003E+02  0.51100000000E-03 0. -1.
        -11    1    3    3    0    0 -0.13752047500E+02  0.14723920416E+01 -0.62037536929E+01  0.15158275262E+02  0.51100000000E-03 0.  1.
        -12    1    3    3    0    0 -0.34083935041E+01  0.90576137161E+01 -0.19831703251E+02  0.22067033474E+02  0.00000000000E+00 0.  1.
</event>
<event>
 7    1  0.2974434E-011  0.5052886E+02  0.7816164E-02  0.1300439E+00
        -11   -1    0    0    0    0  0.00000000000E+00  0.00000000000E+00  0.45593999997E+02  0.45594000000E+02  0.51100000000E-03 0.  1.
         11   -1    0    0    0    0 -0.00000000000E+00 -0.00000000000E+00 -0.45593999997E+02  0.45594000000E+02  0.51100000000E-03 0. -1.
    9900012    2    1    2    0    0  0.97134536299E+01  0.39376915165E+02 -0.28763487854E+01  0.50528855743E+02  0.29999987517E+02 0.  0.
        -12    1    1    2    0    0 -0.97134536299E+01 -0.39376915165E+02  0.28763487854E+01  0.40659144257E+02  0.00000000000E+00 0.  1.
         11    1    3    3    0    0  0.28728509508E+01  0.31250022241E+02 -0.14011133943E+01  0.31413059094E+02  0.51100000000E-03 0. -1.
        -11    1    3    3    0    0 -0.37834277186E+01  0.35793835543E+01 -0.48082125487E+01  0.70883862836E+01  0.51100000000E-03 0.  1.
         12    1    3    3    0    0  0.10624030398E+02  0.45475093701E+01  0.33329771576E+01  0.12027410365E+02  0.00000000000E+00 0. -1.
</event>
<event>
 7    1  0.2974434E-011  0.5052887E+02  0.7816164E-02  0.1300439E+00
        -11   -1    0    0    0    0  0.00000000000E+00  0.00000000000E+00  0.45593999997E+02  0.45594000000E+02  0.51100000000E-03 0.  1.
         11   -1    0    0    0    0 -0.00000000000E+00 -0.00000000000E+00 -0.45593999997E+02  0.45594000000E+02  0.51100000000E-03 0. -1.
    9900012    2    1    2    0    0  0.21066830500E+02  0.26913946564E+02  0.22022550440E+02  0.50528873166E+02  0.30000040476E+02 0.  0.
        -12    1    1    2    0    0 -0.21066830500E+02 -0.26913946564E+02 -0.22022550440E+02  0.40659126834E+02  0.00000000000E+00 0.  1.
         11    1    3    3    0    0 -0.14852666938E+01  0.27405683396E+01 -0.94067011338E+00  0.32560086762E+01  0.51100000000E-03 0. -1.
        -11    1    3    3    0    0 -0.47658225901E+01 -0.10633206275E+00  0.24025612891E+01  0.53382274658E+01  0.51100000000E-03 0.  1.
         12    1    3    3    0    0  0.27317919784E+02  0.24279710288E+02  0.20560659264E+02  0.41934637024E+02  0.00000000000E+00 0. -1.
</event>
<event>
 7    1  0.2974434E-011  0.5052886E+02  0.7816164E-02  0.1300439E+00
        -11   -1    0    0    0    0  0.00000000000E+00  0.00000000000E+00  0.45593999997E+02  0.45594000000E+02  0.51100000000E-03 0.  1.
         11   -1    0    0    0    0 -0.00000000000E+00 -0.00000000000E+00 -0.45593999997E+02  0.45594000000E+02  0.51100000000E-03 0. -1.
    9900012    2    1    2    0    0  0.26372798694E+02 -0.87834656259E+01 -0.29673080019E+02  0.50528862562E+02  0.30000008244E+02 0.  0.
        -12    1    1    2    0    0 -0.26372798694E+02  0.87834656259E+01  0.29673080019E+02  0.40659137438E+02  0.00000000000E+00 0.  1.
         11    1    3    3    0    0  0.43377794956E+01 -0.51428999411E+01 -0.24750133580E+01  0.71687824727E+01  0.51100000000E-03 0. -1.
        -11    1    3    3    0    0 -0.19624556682E+01 -0.86729553688E+01 -0.45830752367E+01  0.10003797577E+02  0.51100000000E-03 0.  1.
         12    1    3    3    0    0  0.23997474867E+02  0.50323896841E+01 -0.22614991425E+02  0.33356282512E+02  0.00000000000E+00 0. -1.
</event>
<event>
 7    1  0.2974434E-011  0.5052884E+02  0.7816164E-02  0.1300439E+00
        -11   -1    0    0    0    0  0.00000000000E+00  0.00000000000E+00  0.45593999997E+02  0.45594000000E+02  0.51100000000E-03 0.  1.
         11   -1    0    0    0    0 -0.00000000000E+00 -0.00000000000E+00 -0.45593999997E+02  0.45594000000E+02  0.51100000000E-03 0. -1.
    9900012    2    1    2    0    0 -0.30045384066E+02  0.65799797620E+01 -0.26592210733E+02  0.50528844708E+02  0.29999953975E+02 0.  0.
        -12    1    1    2    0    0  0.30045384066E+02 -0.65799797620E+01  0.26592210733E+02  0.40659155292E+02  0.00000000000E+00 0.  1.
         11    1    3    3    0    0 -0.20032096986E+02  0.42844119150E+01 -0.11641310352E+02  0.23561859054E+02  0.51100000000E-03 0. -1.
        -11    1    3    3    0    0 -0.12455590694E+02 -0.49828282042E+01 -0.48181488961E+01  0.14254293230E+02  0.51100000000E-03 0.  1.
         12    1    3    3    0    0  0.24423036132E+01  0.72783960511E+01 -0.10132751486E+02  0.12712692425E+02  0.00000000000E+00 0. -1.
</event>
<event>
 7    1  0.2974434E-011  0.5052886E+02  0.7816164E-02  0.1300439E+00
        -11   -1    0    0    0    0  0.00000000000E+00  0.00000000000E+00  0.45593999997E+02  0.45594000000E+02  0.51100000000E-03 0. -1.
         11   -1    0    0    0    0 -0.00000000000E+00 -0.00000000000E+00 -0.45593999997E+02  0.45594000000E+02  0.51100000000E-03 0.  1.
    9900012    2    1    2    0    0 -0.87986587042E+01  0.39686817726E+02  0.83994565140E+00  0.50528863205E+02  0.30000010199E+02 0.  0.
        -12    1    1    2    0    0  0.87986587042E+01 -0.39686817726E+02 -0.83994565140E+00  0.40659136795E+02  0.00000000000E+00 0.  1.
         11    1    3    3    0    0 -0.32397594457E+01 -0.83312509762E+00  0.79442060373E+00  0.34382034627E+01  0.51100000000E-03 0. -1.
        -11    1    3    3    0    0 -0.57886896321E+01 -0.20232494411E+00  0.24672326790E+01  0.62958002186E+01  0.51100000000E-03 0.  1.
         12    1    3    3    0    0  0.22979037360E+00  0.40722267767E+02 -0.24217076313E+01  0.40794859524E+02  0.00000000000E+00 0. -1.
</event>
<event>
 7    1  0.2974434E-011  0.5052886E+02  0.7816164E-02  0.1300439E+00
        -11   -1    0    0    0    0  0.00000000000E+00  0.00000000000E+00  0.45593999997E+02  0.45594000000E+02  0.51100000000E-03 0.  1.
         11   -1    0    0    0    0 -0.00000000000E+00 -0.00000000000E+00 -0.45593999997E+02  0.45594000000E+02  0.51100000000E-03 0. -1.
    9900012    2    1    2    0    0 -0.30960293896E+02 -0.23822341614E+02 -0.11274831789E+02  0.50528860929E+02  0.30000003280E+02 0.  0.
        -12    1    1    2    0    0  0.30960293896E+02  0.23822341614E+02  0.11274831789E+02  0.40659139071E+02  0.00000000000E+00 0.  1.
         11    1    3    3    0    0 -0.10285762666E+02 -0.84099571692E+01  0.23287452591E+00  0.13288285217E+02  0.51100000000E-03 0. -1.
        -11    1    3    3    0    0  0.46668758541E+01 -0.89249981291E+00  0.18827389629E+01  0.51108700254E+01  0.51100000000E-03 0.  1.
         12    1    3    3    0    0 -0.25341407085E+02 -0.14519884632E+02 -0.13390445278E+02  0.32129705686E+02  0.00000000000E+00 0. -1.
</event>
<event>
 7    1  0.2974434E-011  0.5052882E+02  0.7816164E-02  0.1300439E+00
        -11   -1    0    0    0    0  0.00000000000E+00  0.00000000000E+00  0.45593999997E+02  0.45594000000E+02  0.51100000000E-03 0.  1.
         11   -1    0    0    0    0 -0.00000000000E+00 -0.00000000000E+00 -0.45593999997E+02  0.45594000000E+02  0.51100000000E-03 0. -1.
    9900012    2    1    2    0    0 -0.51439299890E+01 -0.93718902559E+01 -0.39228512532E+02  0.50528824674E+02  0.29999893080E+02 0.  0.
        -12    1    1    2    0    0  0.51439299890E+01  0.93718902559E+01  0.39228512532E+02  0.40659175326E+02  0.00000000000E+00 0.  1.
         11    1    3    3    0    0  0.10701172548E+01 -0.56300274860E+01 -0.26540634777E+02  0.27152304783E+02  0.51100000000E-03 0.  1.
        -11    1    3    3    0    0 -0.68114018716E+01 -0.97406422574E+01 -0.35055410330E+01  0.12392099307E+02  0.51100000000E-03 0. -1.
         12    1    3    3    0    0  0.59735462783E+00  0.59987794874E+01 -0.91823367220E+01  0.10984420584E+02  0.00000000000E+00 0. -1.
</event>
<event>
 7    1  0.2974434E-011  0.5052885E+02  0.7816164E-02  0.1300439E+00
        -11   -1    0    0    0    0  0.00000000000E+00  0.00000000000E+00  0.45593999997E+02  0.45594000000E+02  0.51100000000E-03 0. -1.
         11   -1    0    0    0    0 -0.00000000000E+00 -0.00000000000E+00 -0.45593999997E+02  0.45594000000E+02  0.51100000000E-03 0.  1.
    9900012    2    1    2    0    0  0.12512480848E+02  0.90981202547E+01  0.37600913389E+02  0.50528847809E+02  0.29999963401E+02 0.  0.
        -12    1    1    2    0    0 -0.12512480848E+02 -0.90981202547E+01 -0.37600913389E+02  0.40659152191E+02  0.00000000000E+00 0.  1.
         11    1    3    3    0    0  0.10912318329E+02  0.11096554283E+01  0.10075199872E+02  0.14893612027E+02  0.51100000000E-03 0. -1.
        -11    1    3    3    0    0  0.63781978086E+01 -0.13772767674E+01  0.39349720883E+00  0.65370588871E+01  0.51100000000E-03 0.  1.
         12    1    3    3    0    0 -0.47780352892E+01  0.93657415938E+01  0.27132216309E+02  0.29098176896E+02  0.00000000000E+00 0. -1.
</event>
<event>
 7    1  0.2974434E-011  0.5052887E+02  0.7816164E-02  0.1300439E+00
        -11   -1    0    0    0    0  0.00000000000E+00  0.00000000000E+00  0.45593999997E+02  0.45594000000E+02  0.51100000000E-03 0. -1.
         11   -1    0    0    0    0 -0.00000000000E+00 -0.00000000000E+00 -0.45593999997E+02  0.45594000000E+02  0.51100000000E-03 0.  1.
    9900012    2    1    2    0    0  0.30588097857E+02 -0.90377971937E+01  0.25216091541E+02  0.50528870875E+02  0.30000033512E+02 0.  0.
        -12    1    1    2    0    0 -0.30588097857E+02  0.90377971937E+01 -0.25216091541E+02  0.40659129125E+02  0.00000000000E+00 0.  1.
         11    1    3    3    0    0  0.34895331656E+02 -0.22562326251E+01  0.20744134383E+02  0.40658257077E+02  0.51100000000E-03 0. -1.
        -11    1    3    3    0    0 -0.94758209485E+00 -0.42378238575E+01  0.34193836414E+01  0.55271373804E+01  0.51100000000E-03 0.  1.
        -12    1    3    3    0    0 -0.33596517045E+01 -0.25437407112E+01  0.10525735167E+01  0.43434764174E+01  0.00000000000E+00 0.  1.
</event>
<event>
 7    1  0.2974434E-011  0.5052885E+02  0.7816164E-02  0.1300439E+00
        -11   -1    0    0    0    0  0.00000000000E+00  0.00000000000E+00  0.45593999997E+02  0.45594000000E+02  0.51100000000E-03 0.  1.
         11   -1    0    0    0    0 -0.00000000000E+00 -0.00000000000E+00 -0.45593999997E+02  0.45594000000E+02  0.51100000000E-03 0. -1.
    9900012    2    1    2    0    0  0.19841162011E+02 -0.28836282712E+02 -0.20687275638E+02  0.50528852396E+02  0.29999977342E+02 0.  0.
        -12    1    1    2    0    0 -0.19841162011E+02  0.28836282712E+02  0.20687275638E+02  0.40659147604E+02  0.00000000000E+00 0.  1.
         11    1    3    3    0    0  0.56644963777E+01 -0.13932084402E+02 -0.94087292645E+01  0.17740171410E+02  0.51100000000E-03 0. -1.
        -11    1    3    3    0    0  0.80772957736E+01 -0.12334769307E+02  0.47150879669E+01  0.15479705930E+02  0.51100000000E-03 0.  1.
         12    1    3    3    0    0  0.60993698592E+01 -0.25694290021E+01 -0.15993634341E+02  0.17308975056E+02  0.00000000000E+00 0. -1.
</event>
<event>
 7    1  0.2974434E-011  0.5052885E+02  0.7816164E-02  0.1300439E+00
        -11   -1    0    0    0    0  0.00000000000E+00  0.00000000000E+00  0.45593999997E+02  0.45594000000E+02  0.51100000000E-03 0.  1.
         11   -1    0    0    0    0 -0.00000000000E+00 -0.00000000000E+00 -0.45593999997E+02  0.45594000000E+02  0.51100000000E-03 0. -1.
    9900012    2    1    2    0    0 -0.25627454844E+02  0.85805623244E+01 -0.30377195385E+02  0.50528849849E+02  0.29999969600E+02 0.  0.
        -12    1    1    2    0    0  0.25627454844E+02 -0.85805623244E+01  0.30377195385E+02  0.40659150151E+02  0.00000000000E+00 0.  1.
         11    1    3    3    0    0 -0.38462405436E+01  0.80326619954E+01 -0.16814614377E+02  0.19027571626E+02  0.51100000000E-03 0. -1.
        -11    1    3    3    0    0  0.16446546481E+01 -0.41969416283E+01 -0.26215603744E+01  0.52145744793E+01  0.51100000000E-03 0.  1.
         12    1    3    3    0    0 -0.23425868949E+02  0.47448419573E+01 -0.10941020633E+02  0.26286703743E+02  0.00000000000E+00 0. -1.
</event>
<event>
 7    1  0.2974434E-011  0.5052886E+02  0.7816164E-02  0.1300439E+00
        -11   -1    0    0    0    0  0.00000000000E+00  0.00000000000E+00  0.45593999997E+02  0.45594000000E+02  0.51100000000E-03 0.  1.
         11   -1    0    0    0    0 -0.00000000000E+00 -0.00000000000E+00 -0.45593999997E+02  0.45594000000E+02  0.51100000000E-03 0. -1.
    9900012    2    1    2    0    0  0.71902252509E+01 -0.74828767178E+01 -0.39312499885E+02  0.50528862892E+02  0.30000009248E+02 0.  0.
        -12    1    1    2    0    0 -0.71902252509E+01  0.74828767178E+01  0.39312499885E+02  0.40659137108E+02  0.00000000000E+00 0.  1.
         11    1    3    3    0    0 -0.26441213311E+01 -0.41546816657E+01 -0.10475940961E+01  0.50348993046E+01  0.51100000000E-03 0. -1.
        -11    1    3    3    0    0  0.12634450035E+02 -0.32481482104E+01 -0.84393099512E+01  0.15537108714E+02  0.51100000000E-03 0.  1.
         12    1    3    3    0    0 -0.28001034531E+01 -0.80046841666E-01 -0.29825595838E+02  0.29956854874E+02  0.00000000000E+00 0. -1.
</event>
<event>
 7    1  0.2974434E-011  0.5052887E+02  0.7816164E-02  0.1300439E+00
        -11   -1    0    0    0    0  0.00000000000E+00  0.00000000000E+00  0.45593999997E+02  0.45594000000E+02  0.51100000000E-03 0. -1.
         11   -1    0    0    0    0 -0.00000000000E+00 -0.00000000000E+00 -0.45593999997E+02  0.45594000000E+02  0.51100000000E-03 0.  1.
    9900012    2    1    2    0    0 -0.11168809530E+02  0.11764504362E+02  0.37282962292E+02  0.50528866383E+02  0.30000019857E+02 0.  0.
        -12    1    1    2    0    0  0.11168809530E+02 -0.11764504362E+02 -0.37282962292E+02  0.40659133617E+02  0.00000000000E+00 0.  1.
         11    1    3    3    0    0 -0.11596843868E+02 -0.95779698443E+00  0.24625726447E+02  0.27236566708E+02  0.51100000000E-03 0. -1.
        -11    1    3    3    0    0  0.11594574621E+01  0.25692481522E+00 -0.30228165916E+01  0.32477334211E+01  0.51100000000E-03 0.  1.
         12    1    3    3    0    0 -0.73142312384E+00  0.12465376532E+02  0.15680052437E+02  0.20044566254E+02  0.00000000000E+00 0. -1.
</event>
<event>
 7    1  0.2974434E-011  0.5052886E+02  0.7816164E-02  0.1300439E+00
        -11   -1    0    0    0    0  0.00000000000E+00  0.00000000000E+00  0.45593999997E+02  0.45594000000E+02  0.51100000000E-03 0.  1.
         11   -1    0    0    0    0 -0.00000000000E+00 -0.00000000000E+00 -0.45593999997E+02  0.45594000000E+02  0.51100000000E-03 0. -1.
    9900012    2    1    2    0    0 -0.16842357956E+02 -0.20175333079E+02 -0.31023486199E+02  0.50528858564E+02  0.29999996091E+02 0.  0.
        -12    1    1    2    0    0  0.16842357956E+02  0.20175333079E+02  0.31023486199E+02  0.40659141436E+02  0.00000000000E+00 0.  1.
         11    1    3    3    0    0 -0.23188816050E+01 -0.10869359940E+02 -0.24911894525E+02  0.27278612254E+02  0.51100000000E-03 0. -1.
        -11    1    3    3    0    0 -0.78906348986E+00  0.95826175053E+00  0.34162142355E+01  0.36347498865E+01  0.51100000000E-03 0.  1.
         12    1    3    3    0    0 -0.13734412861E+02 -0.10264234890E+02 -0.95278059095E+01  0.19615496424E+02  0.00000000000E+00 0. -1.
</event>
<event>
 7    1  0.2974434E-011  0.5052887E+02  0.7816164E-02  0.1300439E+00
        -11   -1    0    0    0    0  0.00000000000E+00  0.00000000000E+00  0.45593999997E+02  0.45594000000E+02  0.51100000000E-03 0.  1.
         11   -1    0    0    0    0 -0.00000000000E+00 -0.00000000000E+00 -0.45593999997E+02  0.45594000000E+02  0.51100000000E-03 0. -1.
    9900012    2    1    2    0    0  0.25296833640E+02 -0.31609689642E+02  0.37500578452E+01  0.50528865660E+02  0.30000017659E+02 0.  0.
        -12    1    1    2    0    0 -0.25296833640E+02  0.31609689642E+02 -0.37500578452E+01  0.40659134340E+02  0.00000000000E+00 0.  1.
         11    1    3    3    0    0  0.62342302601E+01 -0.59446189695E+00  0.30099523637E+01  0.69482965809E+01  0.51100000000E-03 0. -1.
        -11    1    3    3    0    0  0.73766797914E+01 -0.14731546847E+02  0.12192805280E+02  0.20496301571E+02  0.51100000000E-03 0.  1.
         12    1    3    3    0    0  0.11685923588E+02 -0.16283680898E+02 -0.11452699798E+02  0.23084267508E+02  0.00000000000E+00 0. -1.
</event>
<event>
 7    1  0.2974434E-011  0.5052883E+02  0.7816164E-02  0.1300439E+00
        -11   -1    0    0    0    0  0.00000000000E+00  0.00000000000E+00  0.45593999997E+02  0.45594000000E+02  0.51100000000E-03 0. -1.
         11   -1    0    0    0    0 -0.00000000000E+00 -0.00000000000E+00 -0.45593999997E+02  0.45594000000E+02  0.51100000000E-03 0.  1.
    9900012    2    1    2    0    0 -0.19825349534E+01 -0.58044677655E+01  0.40193848906E+02  0.50528833988E+02  0.29999921390E+02 0.  0.
        -12    1    1    2    0    0  0.19825349534E+01  0.58044677655E+01 -0.40193848906E+02  0.40659166012E+02  0.00000000000E+00 0.  1.
         11    1    3    3    0    0  0.56531196542E+01 -0.75352695433E+01  0.20344233972E+02  0.22419319907E+02  0.51100000000E-03 0. -1.
        -11    1    3    3    0    0  0.51834877434E+01 -0.32393654662E+01  0.52838228745E+01  0.80796545866E+01  0.51100000000E-03 0.  1.
        -12    1    3    3    0    0 -0.12819142351E+02  0.49701672440E+01  0.14565792059E+02  0.20029859494E+02  0.00000000000E+00 0.  1.
</event>
<event>
 7    1  0.2974434E-011  0.5052883E+02  0.7816164E-02  0.1300439E+00
        -11   -1    0    0    0    0  0.00000000000E+00  0.00000000000E+00  0.45593999997E+02  0.45594000000E+02  0.51100000000E-03 0.  1.
         11   -1    0    0    0    0 -0.00000000000E+00 -0.00000000000E+00 -0.45593999997E+02  0.45594000000E+02  0.51100000000E-03 0. -1.
    9900012    2    1    2    0    0 -0.10166183602E+02  0.32567671678E+02 -0.22117035071E+02  0.50528834147E+02  0.29999921873E+02 0.  0.
        -12    1    1    2    0    0  0.10166183602E+02 -0.32567671678E+02  0.22117035071E+02  0.40659165853E+02  0.00000000000E+00 0.  1.
         11    1    3    3    0    0 -0.75472692381E+01  0.11483321706E+02 -0.84676727416E+01  0.16140924146E+02  0.51100000000E-03 0. -1.
        -11    1    3    3    0    0 -0.45548419506E+01  0.83306094696E+01  0.57434778705E+01  0.11096538994E+02  0.51100000000E-03 0.  1.
        -12    1    3    3    0    0  0.19359275864E+01  0.12753740502E+02 -0.19392840199E+02  0.23291371008E+02  0.00000000000E+00 0.  1.
</event>
<event>
 7    1  0.2974434E-011  0.5052886E+02  0.7816164E-02  0.1300439E+00
        -11   -1    0    0    0    0  0.00000000000E+00  0.00000000000E+00  0.45593999997E+02  0.45594000000E+02  0.51100000000E-03 0.  1.
         11   -1    0    0    0    0 -0.00000000000E+00 -0.00000000000E+00 -0.45593999997E+02  0.45594000000E+02  0.51100000000E-03 0. -1.
    9900012    2    1    2    0    0  0.19521390403E+02 -0.24627100186E+02 -0.25798972264E+02  0.50528859370E+02  0.29999998542E+02 0.  0.
        -12    1    1    2    0    0 -0.19521390403E+02  0.24627100186E+02  0.25798972264E+02  0.40659140630E+02  0.00000000000E+00 0.  1.
         11    1    3    3    0    0  0.52436579438E+01 -0.36521614333E+01  0.32580108074E+01  0.71727865191E+01  0.51100000000E-03 0. -1.
        -11    1    3    3    0    0  0.14487834263E+01 -0.17594979638E+02 -0.22375998411E+02  0.28502062856E+02  0.51100000000E-03 0.  1.
         12    1    3    3    0    0  0.12828949033E+02 -0.33799591150E+01 -0.66809846604E+01  0.14854009996E+02  0.00000000000E+00 0. -1.
</event>
<event>
 7    1  0.2974434E-011  0.5052887E+02  0.7816164E-02  0.1300439E+00
        -11   -1    0    0    0    0  0.00000000000E+00  0.00000000000E+00  0.45593999997E+02  0.45594000000E+02  0.51100000000E-03 0. -1.
         11   -1    0    0    0    0 -0.00000000000E+00 -0.00000000000E+00 -0.45593999997E+02  0.45594000000E+02  0.51100000000E-03 0.  1.
    9900012    2    1    2    0    0  0.37035039070E+00 -0.36071708862E+01  0.40497110086E+02  0.50528871056E+02  0.30000034061E+02 0.  0.
        -12    1    1    2    0    0 -0.37035039070E+00  0.36071708862E+01 -0.40497110086E+02  0.40659128944E+02  0.00000000000E+00 0.  1.
         11    1    3    3    0    0 -0.19794705680E+01 -0.97045124738E+01  0.85757712628E+01  0.13101134268E+02  0.51100000000E-03 0. -1.
        -11    1    3    3    0    0  0.10075978254E+02  0.60984939136E+01  0.18132142293E+02  0.21621552909E+02  0.51100000000E-03 0.  1.
         12    1    3    3    0    0 -0.77261572955E+01 -0.11523260234E-02  0.13789196530E+02  0.15806183879E+02  0.00000000000E+00 0. -1.
</event>
<event>
 7    1  0.2974434E-011  0.5052886E+02  0.7816164E-02  0.1300439E+00
        -11   -1    0    0    0    0  0.00000000000E+00  0.00000000000E+00  0.45593999997E+02  0.45594000000E+02  0.51100000000E-03 0.  1.
         11   -1    0    0    0    0 -0.00000000000E+00 -0.00000000000E+00 -0.45593999997E+02  0.45594000000E+02  0.51100000000E-03 0. -1.
    9900012    2    1    2    0    0 -0.29100794584E+02  0.20966152197E+02 -0.19150187207E+02  0.50528862608E+02  0.30000008383E+02 0.  0.
        -12    1    1    2    0    0  0.29100794584E+02 -0.20966152197E+02  0.19150187207E+02  0.40659137392E+02  0.00000000000E+00 0.  1.
         11    1    3    3    0    0 -0.10198227670E+02  0.15600529016E+02 -0.13546683569E+02  0.23041115189E+02  0.51100000000E-03 0. -1.
        -11    1    3    3    0    0 -0.12060811391E+02  0.11187682305E+02 -0.78496234029E+01  0.18227561400E+02  0.51100000000E-03 0.  1.
        -12    1    3    3    0    0 -0.68417555238E+01 -0.58220591241E+01  0.22461197652E+01  0.92601860182E+01  0.00000000000E+00 0.  1.
</event>
<event>
 7    1  0.2974434E-011  0.5052886E+02  0.7816164E-02  0.1300439E+00
        -11   -1    0    0    0    0  0.00000000000E+00  0.00000000000E+00  0.45593999997E+02  0.45594000000E+02  0.51100000000E-03 0. -1.
         11   -1    0    0    0    0 -0.00000000000E+00 -0.00000000000E+00 -0.45593999997E+02  0.45594000000E+02  0.51100000000E-03 0.  1.
    9900012    2    1    2    0    0  0.15184237874E+02  0.16158788233E+02  0.34080758562E+02  0.50528860546E+02  0.30000002114E+02 0.  0.
        -12    1    1    2    0    0 -0.15184237874E+02 -0.16158788233E+02 -0.34080758562E+02  0.40659139454E+02  0.00000000000E+00 0.  1.
         11    1    3    3    0    0 -0.46807188056E+01  0.40000587433E+01  0.78458422892E+01  0.99733063713E+01  0.51100000000E-03 0. -1.
        -11    1    3    3    0    0  0.14558715320E+02  0.13792587804E+02  0.81671330262E+01  0.21653954194E+02  0.51100000000E-03 0.  1.
         12    1    3    3    0    0  0.53062413606E+01 -0.16338583146E+01  0.18067783247E+02  0.18901599981E+02  0.00000000000E+00 0. -1.
</event>
<event>
 7    1  0.2974434E-011  0.5052885E+02  0.7816164E-02  0.1300439E+00
        -11   -1    0    0    0    0  0.00000000000E+00  0.00000000000E+00  0.45593999997E+02  0.45594000000E+02  0.51100000000E-03 0.  1.
         11   -1    0    0    0    0 -0.00000000000E+00 -0.00000000000E+00 -0.45593999997E+02  0.45594000000E+02  0.51100000000E-03 0. -1.
    9900012    2    1    2    0    0 -0.52969093520E+01  0.39990215523E+02 -0.50884019080E+01  0.50528850719E+02  0.29999972246E+02 0.  0.
        -12    1    1    2    0    0  0.52969093520E+01 -0.39990215523E+02  0.50884019080E+01  0.40659149281E+02  0.00000000000E+00 0.  1.
         11    1    3    3    0    0 -0.55519846354E+00  0.11313851376E+02 -0.24215461493E+01  0.11583409011E+02  0.51100000000E-03 0.  1.
        -11    1    3    3    0    0  0.31494881750E+01  0.21942171228E+02  0.84656469451E+01  0.23728576283E+02  0.51100000000E-03 0. -1.
        -12    1    3    3    0    0 -0.78911990634E+01  0.67341929194E+01 -0.11132502704E+02  0.15216865426E+02  0.00000000000E+00 0.  1.
</event>
<event>
 7    1  0.2974434E-011  0.5052885E+02  0.7816164E-02  0.1300439E+00
        -11   -1    0    0    0    0  0.00000000000E+00  0.00000000000E+00  0.45593999997E+02  0.45594000000E+02  0.51100000000E-03 0.  1.
         11   -1    0    0    0    0 -0.00000000000E+00 -0.00000000000E+00 -0.45593999997E+02  0.45594000000E+02  0.51100000000E-03 0. -1.
    9900012    2    1    2    0    0 -0.58995625004E+01 -0.39758362085E+02 -0.61346501048E+01  0.50528854346E+02  0.29999983270E+02 0.  0.
        -12    1    1    2    0    0  0.58995625004E+01  0.39758362085E+02  0.61346501048E+01  0.40659145654E+02  0.00000000000E+00 0.  1.
         11    1    3    3    0    0 -0.42962797012E+01 -0.76453854474E+01 -0.38345428010E+01  0.95715023201E+01  0.51100000000E-03 0. -1.
        -11    1    3    3    0    0 -0.92607750631E+00 -0.11564926352E+02  0.11388962288E+02  0.16257724420E+02  0.51100000000E-03 0.  1.
         12    1    3    3    0    0 -0.67720529282E+00 -0.20548050286E+02 -0.13689069592E+02  0.24699627606E+02  0.00000000000E+00 0. -1.
</event>
<event>
 7    1  0.2974434E-011  0.5052885E+02  0.7816164E-02  0.1300439E+00
        -11   -1    0    0    0    0  0.00000000000E+00  0.00000000000E+00  0.45593999997E+02  0.45594000000E+02  0.51100000000E-03 0.  1.
         11   -1    0    0    0    0 -0.00000000000E+00 -0.00000000000E+00 -0.45593999997E+02  0.45594000000E+02  0.51100000000E-03 0. -1.
    9900012    2    1    2    0    0 -0.40414961365E+02 -0.37730130860E+01 -0.23582669573E+01  0.50528854006E+02  0.29999982237E+02 0.  0.
        -12    1    1    2    0    0  0.40414961365E+02  0.37730130860E+01  0.23582669573E+01  0.40659145994E+02  0.00000000000E+00 0.  1.
         11    1    3    3    0    0 -0.78546572504E+01  0.48262016904E+01 -0.10076185717E+01  0.92737888009E+01  0.51100000000E-03 0. -1.
        -11    1    3    3    0    0 -0.15714539258E+02  0.73696157997E+01 -0.42318264314E+01  0.17865227016E+02  0.51100000000E-03 0.  1.
         12    1    3    3    0    0 -0.16845764857E+02 -0.15968830576E+02  0.28811780458E+01  0.23389838189E+02  0.00000000000E+00 0. -1.
</event>
<event>
 7    1  0.2974434E-011  0.5052889E+02  0.7816164E-02  0.1300439E+00
        -11   -1    0    0    0    0  0.00000000000E+00  0.00000000000E+00  0.45593999997E+02  0.45594000000E+02  0.51100000000E-03 0. -1.
         11   -1    0    0    0    0 -0.00000000000E+00 -0.00000000000E+00 -0.45593999997E+02  0.45594000000E+02  0.51100000000E-03 0.  1.
    9900012    2    1    2    0    0  0.22107248309E+02 -0.15730098442E+02  0.30281955831E+02  0.50528889413E+02  0.30000089860E+02 0.  0.
        -12    1    1    2    0    0 -0.22107248309E+02  0.15730098442E+02 -0.30281955831E+02  0.40659110587E+02  0.00000000000E+00 0.  1.
         11    1    3    3    0    0  0.27196239887E+00  0.13307027893E+01 -0.16122131697E+01  0.21080713995E+01  0.51100000000E-03 0. -1.
        -11    1    3    3    0    0  0.18911277186E+00  0.51864147159E+01  0.64914307347E+01  0.83110369083E+01  0.51100000000E-03 0.  1.
         12    1    3    3    0    0  0.21646173138E+02 -0.22247215947E+02  0.25402738266E+02  0.40109781105E+02  0.00000000000E+00 0. -1.
</event>
<event>
 7    1  0.2974434E-011  0.5052886E+02  0.7816164E-02  0.1300439E+00
        -11   -1    0    0    0    0  0.00000000000E+00  0.00000000000E+00  0.45593999997E+02  0.45594000000E+02  0.51100000000E-03 0.  1.
         11   -1    0    0    0    0 -0.00000000000E+00 -0.00000000000E+00 -0.45593999997E+02  0.45594000000E+02  0.51100000000E-03 0. -1.
    9900012    2    1    2    0    0  0.22373221080E+02 -0.24270651847E+02 -0.23738998026E+02  0.50528860931E+02  0.30000003286E+02 0.  0.
        -12    1    1    2    0    0 -0.22373221080E+02  0.24270651847E+02  0.23738998026E+02  0.40659139069E+02  0.00000000000E+00 0.  1.
         11    1    3    3    0    0  0.11886066800E+02 -0.16173469578E+01 -0.81415514319E+00  0.12023196082E+02  0.51100000000E-03 0. -1.
        -11    1    3    3    0    0  0.81628732181E-01 -0.69688194977E+01  0.20201460417E+01  0.72561765918E+01  0.51100000000E-03 0.  1.
         12    1    3    3    0    0  0.10405525547E+02 -0.15684485391E+02 -0.24944988925E+02  0.31249488257E+02  0.00000000000E+00 0. -1.
</event>
<event>
 7    1  0.2974434E-011  0.5052885E+02  0.7816164E-02  0.1300439E+00
        -11   -1    0    0    0    0  0.00000000000E+00  0.00000000000E+00  0.45593999997E+02  0.45594000000E+02  0.51100000000E-03 0. -1.
         11   -1    0    0    0    0 -0.00000000000E+00 -0.00000000000E+00 -0.45593999997E+02  0.45594000000E+02  0.51100000000E-03 0.  1.
    9900012    2    1    2    0    0 -0.37308231972E+01 -0.36829803016E+02  0.16817057077E+02  0.50528845549E+02  0.29999956531E+02 0.  0.
        -12    1    1    2    0    0  0.37308231972E+01  0.36829803016E+02 -0.16817057077E+02  0.40659154451E+02  0.00000000000E+00 0.  1.
         11    1    3    3    0    0 -0.39553067743E+01 -0.92697217459E+01  0.46086702574E+01  0.11082059138E+02  0.51100000000E-03 0. -1.
        -11    1    3    3    0    0 -0.88884894961E+01 -0.35694754584E+01  0.97473871356E+01  0.13665941490E+02  0.51100000000E-03 0.  1.
        -12    1    3    3    0    0  0.91129730731E+01 -0.23990605812E+02  0.24609996841E+01  0.25780844922E+02  0.00000000000E+00 0.  1.
</event>
<event>
 7    1  0.2974434E-011  0.5052885E+02  0.7816164E-02  0.1300439E+00
        -11   -1    0    0    0    0  0.00000000000E+00  0.00000000000E+00  0.45593999997E+02  0.45594000000E+02  0.51100000000E-03 0. -1.
         11   -1    0    0    0    0 -0.00000000000E+00 -0.00000000000E+00 -0.45593999997E+02  0.45594000000E+02  0.51100000000E-03 0.  1.
    9900012    2    1    2    0    0  0.81434042002E+01 -0.11550342612E+02  0.38124020504E+02  0.50528851143E+02  0.29999973533E+02 0.  0.
        -12    1    1    2    0    0 -0.81434042002E+01  0.11550342612E+02 -0.38124020504E+02  0.40659148857E+02  0.00000000000E+00 0.  1.
         11    1    3    3    0    0 -0.20569534584E+01 -0.26076267054E+01  0.18205507831E+02  0.18505979850E+02  0.51100000000E-03 0. -1.
        -11    1    3    3    0    0  0.62147201731E+00 -0.11641466140E+02  0.24413186718E+01  0.11910919296E+02  0.51100000000E-03 0.  1.
         12    1    3    3    0    0  0.95788856413E+01  0.26987502339E+01  0.17477194002E+02  0.20111951997E+02  0.00000000000E+00 0. -1.
</event>
<event>
 7    1  0.2974434E-011  0.5052886E+02  0.7816164E-02  0.1300439E+00
        -11   -1    0    0    0    0  0.00000000000E+00  0.00000000000E+00  0.45593999997E+02  0.45594000000E+02  0.51100000000E-03 0.  1.
         11   -1    0    0    0    0 -0.00000000000E+00 -0.00000000000E+00 -0.45593999997E+02  0.45594000000E+02  0.51100000000E-03 0. -1.
    9900012    2    1    2    0    0 -0.19236506653E+02  0.30906193002E+02 -0.18108836976E+02  0.50528856739E+02  0.29999990545E+02 0.  0.
        -12    1    1    2    0    0  0.19236506653E+02 -0.30906193002E+02  0.18108836976E+02  0.40659143261E+02  0.00000000000E+00 0.  1.
         11    1    3    3    0    0  0.81021187416E-01  0.91163371793E+01 -0.15232034088E+02  0.17751874005E+02  0.51100000000E-03 0. -1.
        -11    1    3    3    0    0 -0.24457021765E+01 -0.97788182066E+00 -0.35630510971E+01  0.44309192470E+01  0.51100000000E-03 0.  1.
         12    1    3    3    0    0 -0.16871825664E+02  0.22767737643E+02  0.68624820821E+00  0.28346063487E+02  0.00000000000E+00 0. -1.
</event>
<event>
 7    1  0.2974434E-011  0.5052884E+02  0.7816164E-02  0.1300439E+00
        -11   -1    0    0    0    0  0.00000000000E+00  0.00000000000E+00  0.45593999997E+02  0.45594000000E+02  0.51100000000E-03 0. -1.
         11   -1    0    0    0    0 -0.00000000000E+00 -0.00000000000E+00 -0.45593999997E+02  0.45594000000E+02  0.51100000000E-03 0.  1.
    9900012    2    1    2    0    0 -0.26664701923E+02 -0.28256646592E+02  0.11988444288E+02  0.50528841109E+02  0.29999943034E+02 0.  0.
        -12    1    1    2    0    0  0.26664701923E+02  0.28256646592E+02 -0.11988444288E+02  0.40659158891E+02  0.00000000000E+00 0.  1.
         11    1    3    3    0    0  0.56329647987E+00 -0.50564010440E+01  0.96647280648E+01  0.10922063142E+02  0.51100000000E-03 0. -1.
        -11    1    3    3    0    0 -0.12309850936E+01  0.16445160929E+01  0.30055972464E+01  0.36405181704E+01  0.51100000000E-03 0.  1.
        -12    1    3    3    0    0 -0.25997013310E+02 -0.24844761641E+02 -0.68188102351E+00  0.35966259797E+02  0.00000000000E+00 0.  1.
</event>
<event>
 7    1  0.2974434E-011  0.5052886E+02  0.7816164E-02  0.1300439E+00
        -11   -1    0    0    0    0  0.00000000000E+00  0.00000000000E+00  0.45593999997E+02  0.45594000000E+02  0.51100000000E-03 0.  1.
         11   -1    0    0    0    0 -0.00000000000E+00 -0.00000000000E+00 -0.45593999997E+02  0.45594000000E+02  0.51100000000E-03 0. -1.
    9900012    2    1    2    0    0  0.32409121683E+02  0.30629633455E+01 -0.24360480483E+02  0.50528856845E+02  0.29999990866E+02 0.  0.
        -12    1    1    2    0    0 -0.32409121683E+02 -0.30629633455E+01  0.24360480483E+02  0.40659143155E+02  0.00000000000E+00 0.  1.
         11    1    3    3    0    0  0.39296793598E+01  0.24497496677E+00 -0.72256077289E+01  0.82287179997E+01  0.51100000000E-03 0. -1.
        -11    1    3    3    0    0 -0.37330033760E+01  0.46390586894E+01 -0.51810183045E+01  0.78929798341E+01  0.51100000000E-03 0.  1.
        -12    1    3    3    0    0  0.32212445700E+02 -0.18210703107E+01 -0.11953854450E+02  0.34407159011E+02  0.00000000000E+00 0.  1.
</event>
<event>
 7    1  0.2974434E-011  0.5052886E+02  0.7816164E-02  0.1300439E+00
        -11   -1    0    0    0    0  0.00000000000E+00  0.00000000000E+00  0.45593999997E+02  0.45594000000E+02  0.51100000000E-03 0.  1.
         11   -1    0    0    0    0 -0.00000000000E+00 -0.00000000000E+00 -0.45593999997E+02  0.45594000000E+02  0.51100000000E-03 0. -1.
    9900012    2    1    2    0    0  0.38761640477E+02  0.10922076348E+02 -0.56043715250E+01  0.50528861981E+02  0.30000006478E+02 0.  0.
        -12    1    1    2    0    0 -0.38761640477E+02 -0.10922076348E+02  0.56043715250E+01  0.40659138019E+02  0.00000000000E+00 0.  1.
         11    1    3    3    0    0  0.23100628915E+02  0.29274371637E+00 -0.84446936774E+00  0.23117912620E+02  0.51100000000E-03 0. -1.
        -11    1    3    3    0    0 -0.34072080207E+01 -0.63340165751E+00  0.23087291303E+01  0.41641919522E+01  0.51100000000E-03 0.  1.
         12    1    3    3    0    0  0.19068219583E+02  0.11262734290E+02 -0.70686312875E+01  0.23246757409E+02  0.00000000000E+00 0. -1.
</event>
<event>
 7    1  0.2974434E-011  0.5052885E+02  0.7816164E-02  0.1300439E+00
        -11   -1    0    0    0    0  0.00000000000E+00  0.00000000000E+00  0.45593999997E+02  0.45594000000E+02  0.51100000000E-03 0. -1.
         11   -1    0    0    0    0 -0.00000000000E+00 -0.00000000000E+00 -0.45593999997E+02  0.45594000000E+02  0.51100000000E-03 0.  1.
    9900012    2    1    2    0    0 -0.23804018554E+02  0.80874119060E+01  0.31955104674E+02  0.50528852870E+02  0.29999978782E+02 0.  0.
        -12    1    1    2    0    0  0.23804018554E+02 -0.80874119060E+01 -0.31955104674E+02  0.40659147130E+02  0.00000000000E+00 0.  1.
         11    1    3    3    0    0 -0.17160406712E+02  0.85031184402E+01  0.33830730645E+02  0.38875453926E+02  0.51100000000E-03 0. -1.
        -11    1    3    3    0    0 -0.10659309307E+01  0.28933928658E+01  0.23810635023E+01  0.38958175891E+01  0.51100000000E-03 0.  1.
        -12    1    3    3    0    0 -0.55776809112E+01 -0.33090994000E+01 -0.42566894737E+01  0.77575813539E+01  0.00000000000E+00 0.  1.
</event>
<event>
 7    1  0.2974434E-011  0.5052886E+02  0.7816164E-02  0.1300439E+00
        -11   -1    0    0    0    0  0.00000000000E+00  0.00000000000E+00  0.45593999997E+02  0.45594000000E+02  0.51100000000E-03 0.  1.
         11   -1    0    0    0    0 -0.00000000000E+00 -0.00000000000E+00 -0.45593999997E+02  0.45594000000E+02  0.51100000000E-03 0. -1.
    9900012    2    1    2    0    0  0.34268841807E-01 -0.12253818256E+02 -0.38768648627E+02  0.50528863849E+02  0.30000012154E+02 0.  0.
        -12    1    1    2    0    0 -0.34268841807E-01  0.12253818256E+02  0.38768648627E+02  0.40659136151E+02  0.00000000000E+00 0.  1.
         11    1    3    3    0    0 -0.38295604644E+01 -0.54274711316E+01 -0.10921518214E+02  0.12782900163E+02  0.51100000000E-03 0. -1.
        -11    1    3    3    0    0 -0.66169462422E+01 -0.74973733167E+01 -0.24907828329E+02  0.26840165732E+02  0.51100000000E-03 0.  1.
        -12    1    3    3    0    0  0.10480775548E+02  0.67102619269E+00 -0.29393020849E+01  0.10905797953E+02  0.00000000000E+00 0.  1.
</event>
<event>
 7    1  0.2974434E-011  0.5052886E+02  0.7816164E-02  0.1300439E+00
        -11   -1    0    0    0    0  0.00000000000E+00  0.00000000000E+00  0.45593999997E+02  0.45594000000E+02  0.51100000000E-03 0.  1.
         11   -1    0    0    0    0 -0.00000000000E+00 -0.00000000000E+00 -0.45593999997E+02  0.45594000000E+02  0.51100000000E-03 0. -1.
    9900012    2    1    2    0    0 -0.32936336155E+02 -0.19416466381E+02  0.13833450568E+02  0.50528858830E+02  0.29999996900E+02 0.  0.
        -12    1    1    2    0    0  0.32936336155E+02  0.19416466381E+02 -0.13833450568E+02  0.40659141170E+02  0.00000000000E+00 0.  1.
         11    1    3    3    0    0 -0.40345745090E+01 -0.10981252656E+02  0.20418269472E+01  0.11875805611E+02  0.51100000000E-03 0. -1.
        -11    1    3    3    0    0 -0.85322772780E+01  0.47092255635E+01  0.10574107153E+02  0.14380135719E+02  0.51100000000E-03 0.  1.
         12    1    3    3    0    0 -0.20369484368E+02 -0.13144439289E+02  0.12175164681E+01  0.24272917500E+02  0.00000000000E+00 0. -1.
</event>
<event>
 7    1  0.2974434E-011  0.5052884E+02  0.7816164E-02  0.1300439E+00
        -11   -1    0    0    0    0  0.00000000000E+00  0.00000000000E+00  0.45593999997E+02  0.45594000000E+02  0.51100000000E-03 0. -1.
         11   -1    0    0    0    0 -0.00000000000E+00 -0.00000000000E+00 -0.45593999997E+02  0.45594000000E+02  0.51100000000E-03 0.  1.
    9900012    2    1    2    0    0 -0.70708145453E+00  0.24874402413E+02  0.32154800520E+02  0.50528842901E+02  0.29999948481E+02 0.  0.
        -12    1    1    2    0    0  0.70708145453E+00 -0.24874402413E+02 -0.32154800520E+02  0.40659157099E+02  0.00000000000E+00 0.  1.
         11    1    3    3    0    0  0.28489065912E+01  0.13750561145E+02  0.10289314408E+02  0.17408738950E+02  0.51100000000E-03 0.  1.
        -11    1    3    3    0    0  0.27733095679E+01 -0.35600584334E+01 -0.15450653060E+01  0.47699569254E+01  0.51100000000E-03 0. -1.
         12    1    3    3    0    0 -0.63292976136E+01  0.14683899701E+02  0.23410551417E+02  0.28350147025E+02  0.00000000000E+00 0. -1.
</event>
<event>
 7    1  0.2974434E-011  0.5052886E+02  0.7816164E-02  0.1300439E+00
        -11   -1    0    0    0    0  0.00000000000E+00  0.00000000000E+00  0.45593999997E+02  0.45594000000E+02  0.51100000000E-03 0. -1.
         11   -1    0    0    0    0 -0.00000000000E+00 -0.00000000000E+00 -0.45593999997E+02  0.45594000000E+02  0.51100000000E-03 0.  1.
    9900012    2    1    2    0    0  0.21766620871E+02 -0.32343369312E+02  0.11544978788E+02  0.50528857636E+02  0.29999993269E+02 0.  0.
        -12    1    1    2    0    0 -0.21766620871E+02  0.32343369312E+02 -0.11544978788E+02  0.40659142364E+02  0.00000000000E+00 0.  1.
         11    1    3    3    0    0  0.54592429924E+01 -0.15302208715E+02  0.75160285564E+01  0.17901162284E+02  0.51100000000E-03 0. -1.
        -11    1    3    3    0    0  0.19669479844E+02 -0.18161963318E+02 -0.62327125924E+00  0.26779354291E+02  0.51100000000E-03 0.  1.
        -12    1    3    3    0    0 -0.33621019655E+01  0.11208027206E+01  0.46522214904E+01  0.58483410605E+01  0.00000000000E+00 0.  1.
</event>
<event>
 7    1  0.2974434E-011  0.5052886E+02  0.7816164E-02  0.1300439E+00
        -11   -1    0    0    0    0  0.00000000000E+00  0.00000000000E+00  0.45593999997E+02  0.45594000000E+02  0.51100000000E-03 0.  1.
         11   -1    0    0    0    0 -0.00000000000E+00 -0.00000000000E+00 -0.45593999997E+02  0.45594000000E+02  0.51100000000E-03 0. -1.
    9900012    2    1    2    0    0  0.10898907277E+02 -0.17879191959E+02 -0.34852741407E+02  0.50528864882E+02  0.30000015297E+02 0.  0.
        -12    1    1    2    0    0 -0.10898907277E+02  0.17879191959E+02  0.34852741407E+02  0.40659135118E+02  0.00000000000E+00 0.  1.
         11    1    3    3    0    0  0.13877207299E+02 -0.20145681529E+02 -0.21164224025E+02  0.32347329805E+02  0.51100000000E-03 0.  1.
        -11    1    3    3    0    0  0.27390276175E+01 -0.45840076718E+00 -0.10923172548E+02  0.11270674440E+02  0.51100000000E-03 0. -1.
        -12    1    3    3    0    0 -0.57173276403E+01  0.27248903372E+01 -0.27653448345E+01  0.69108606375E+01  0.00000000000E+00 0.  1.
</event>
<event>
 7    1  0.2974434E-011  0.5052886E+02  0.7816164E-02  0.1300439E+00
        -11   -1    0    0    0    0  0.00000000000E+00  0.00000000000E+00  0.45593999997E+02  0.45594000000E+02  0.51100000000E-03 0.  1.
         11   -1    0    0    0    0 -0.00000000000E+00 -0.00000000000E+00 -0.45593999997E+02  0.45594000000E+02  0.51100000000E-03 0. -1.
    9900012    2    1    2    0    0 -0.23918096299E+02  0.28021015071E+01 -0.32760319646E+02  0.50528860232E+02  0.30000001160E+02 0.  0.
        -12    1    1    2    0    0  0.23918096299E+02 -0.28021015071E+01  0.32760319646E+02  0.40659139768E+02  0.00000000000E+00 0.  1.
         11    1    3    3    0    0 -0.60381263600E+01  0.26686805799E+01  0.17912756699E+01  0.68402846991E+01  0.51100000000E-03 0. -1.
        -11    1    3    3    0    0 -0.11010655809E+02  0.38055688500E+01 -0.42482842232E+01  0.12400194140E+02  0.51100000000E-03 0.  1.
         12    1    3    3    0    0 -0.68693141300E+01 -0.36721479229E+01 -0.30303311093E+02  0.31288381393E+02  0.00000000000E+00 0. -1.
</event>
<event>
 7    1  0.2974434E-011  0.5052886E+02  0.7816164E-02  0.1300439E+00
        -11   -1    0    0    0    0  0.00000000000E+00  0.00000000000E+00  0.45593999997E+02  0.45594000000E+02  0.51100000000E-03 0.  1.
         11   -1    0    0    0    0 -0.00000000000E+00 -0.00000000000E+00 -0.45593999997E+02  0.45594000000E+02  0.51100000000E-03 0. -1.
    9900012    2    1    2    0    0 -0.17700939213E+02 -0.36603853937E+02  0.93971316221E-02  0.50528862523E+02  0.30000008125E+02 0.  0.
        -12    1    1    2    0    0  0.17700939213E+02  0.36603853937E+02 -0.93971316221E-02  0.40659137477E+02  0.00000000000E+00 0.  1.
         11    1    3    3    0    0  0.15662038114E+01 -0.10093628846E+02  0.42328679381E+01  0.11056740429E+02  0.51100000000E-03 0. -1.
        -11    1    3    3    0    0 -0.47788899425E+00 -0.11936332596E+01  0.61493632728E+01  0.62823408990E+01  0.51100000000E-03 0.  1.
         12    1    3    3    0    0 -0.18789254030E+02 -0.25316591831E+02 -0.10372834079E+02  0.33189781195E+02  0.00000000000E+00 0. -1.
</event>
<event>
 7    1  0.2974434E-011  0.5052886E+02  0.7816164E-02  0.1300439E+00
        -11   -1    0    0    0    0  0.00000000000E+00  0.00000000000E+00  0.45593999997E+02  0.45594000000E+02  0.51100000000E-03 0.  1.
         11   -1    0    0    0    0 -0.00000000000E+00 -0.00000000000E+00 -0.45593999997E+02  0.45594000000E+02  0.51100000000E-03 0. -1.
    9900012    2    1    2    0    0 -0.24533272086E+02  0.91809195521E+01 -0.31096546171E+02  0.50528857033E+02  0.29999991436E+02 0.  0.
        -12    1    1    2    0    0  0.24533272086E+02 -0.91809195521E+01  0.31096546171E+02  0.40659142967E+02  0.00000000000E+00 0.  1.
         11    1    3    3    0    0 -0.86981585259E+01  0.76305069863E+01 -0.32603508747E+01  0.12021334647E+02  0.51100000000E-03 0. -1.
        -11    1    3    3    0    0 -0.16911230372E+02  0.75413198205E+01 -0.13447699830E+02  0.22884532949E+02  0.51100000000E-03 0.  1.
        -12    1    3    3    0    0  0.10761168122E+01 -0.59909072548E+01 -0.14388495467E+02  0.15622989436E+02  0.00000000000E+00 0.  1.
</event>
<event>
 7    1  0.2974434E-011  0.5052898E+02  0.7816164E-02  0.1300438E+00
        -11   -1    0    0    0    0  0.00000000000E+00  0.00000000000E+00  0.45593999997E+02  0.45594000000E+02  0.51100000000E-03 0. -1.
         11   -1    0    0    0    0 -0.00000000000E+00 -0.00000000000E+00 -0.45593999997E+02  0.45594000000E+02  0.51100000000E-03 0.  1.
    9900012    2    1    2    0    0 -0.20278902762E+02  0.18238133975E+02  0.30154472764E+02  0.50528983093E+02  0.30000374608E+02 0.  0.
        -12    1    1    2    0    0  0.20278902762E+02 -0.18238133975E+02 -0.30154472764E+02  0.40659016907E+02  0.00000000000E+00 0.  1.
         11    1    3    3    0    0 -0.40792684173E+01  0.36627560462E+00  0.10857473956E+02  0.11604280659E+02  0.51100000000E-03 0. -1.
        -11    1    3    3    0    0 -0.13943156063E+02 -0.16041439088E+01  0.99505975472E+01  0.17204629333E+02  0.51100000000E-03 0.  1.
        -12    1    3    3    0    0 -0.22564782815E+01  0.19476002279E+02  0.93464012610E+01  0.21720073101E+02  0.00000000000E+00 0.  1.
</event>
<event>
 7    1  0.2974434E-011  0.5052886E+02  0.7816164E-02  0.1300439E+00
        -11   -1    0    0    0    0  0.00000000000E+00  0.00000000000E+00  0.45593999997E+02  0.45594000000E+02  0.51100000000E-03 0.  1.
         11   -1    0    0    0    0 -0.00000000000E+00 -0.00000000000E+00 -0.45593999997E+02  0.45594000000E+02  0.51100000000E-03 0. -1.
    9900012    2    1    2    0    0 -0.20374818836E+02  0.87387557289E+01 -0.34083227892E+02  0.50528861817E+02  0.30000005979E+02 0.  0.
        -12    1    1    2    0    0  0.20374818836E+02 -0.87387557289E+01  0.34083227892E+02  0.40659138183E+02  0.00000000000E+00 0.  1.
         11    1    3    3    0    0 -0.29056999474E+01 -0.10884897373E+01 -0.65498243290E+01  0.72476272734E+01  0.51100000000E-03 0. -1.
        -11    1    3    3    0    0 -0.24553080357E+02  0.62313912251E+01 -0.19354409654E+02  0.31879102323E+02  0.51100000000E-03 0.  1.
        -12    1    3    3    0    0  0.70839614687E+01  0.35958542411E+01 -0.81789939082E+01  0.11402132220E+02  0.00000000000E+00 0.  1.
</event>
<event>
 7    1  0.2974434E-011  0.5052888E+02  0.7816164E-02  0.1300439E+00
        -11   -1    0    0    0    0  0.00000000000E+00  0.00000000000E+00  0.45593999997E+02  0.45594000000E+02  0.51100000000E-03 0.  1.
         11   -1    0    0    0    0 -0.00000000000E+00 -0.00000000000E+00 -0.45593999997E+02  0.45594000000E+02  0.51100000000E-03 0. -1.
    9900012    2    1    2    0    0  0.16854066787E+02  0.16346573321E+02 -0.33194788112E+02  0.50528880674E+02  0.30000063297E+02 0.  0.
        -12    1    1    2    0    0 -0.16854066787E+02 -0.16346573321E+02  0.33194788112E+02  0.40659119326E+02  0.00000000000E+00 0.  1.
         11    1    3    3    0    0 -0.98049574970E+00  0.11050388857E+02 -0.38327338719E+01  0.11737219219E+02  0.51100000000E-03 0. -1.
        -11    1    3    3    0    0  0.83848251497E+01 -0.85858194889E+00 -0.12742301494E+01  0.85244424151E+01  0.51100000000E-03 0.  1.
         12    1    3    3    0    0  0.94497373868E+01  0.61547664128E+01 -0.28087824091E+02  0.30267219040E+02  0.00000000000E+00 0. -1.
</event>
<event>
 7    1  0.2974434E-011  0.5052885E+02  0.7816164E-02  0.1300439E+00
        -11   -1    0    0    0    0  0.00000000000E+00  0.00000000000E+00  0.45593999997E+02  0.45594000000E+02  0.51100000000E-03 0.  1.
         11   -1    0    0    0    0 -0.00000000000E+00 -0.00000000000E+00 -0.45593999997E+02  0.45594000000E+02  0.51100000000E-03 0. -1.
    9900012    2    1    2    0    0 -0.92461809319E+01  0.56475192592E+01 -0.39189027232E+02  0.50528853538E+02  0.29999980815E+02 0.  0.
        -12    1    1    2    0    0  0.92461809319E+01 -0.56475192592E+01  0.39189027232E+02  0.40659146462E+02  0.00000000000E+00 0.  1.
         11    1    3    3    0    0  0.63208738001E+01 -0.83427612405E-01 -0.92518302621E+01  0.11205211699E+02  0.51100000000E-03 0. -1.
        -11    1    3    3    0    0  0.33524972532E+01  0.10528326273E+01  0.10267567527E+00  0.35154284133E+01  0.51100000000E-03 0.  1.
         12    1    3    3    0    0 -0.18919551985E+02  0.46781142443E+01 -0.30039872645E+02  0.35808213426E+02  0.00000000000E+00 0. -1.
</event>
<event>
 7    1  0.2974434E-011  0.5052886E+02  0.7816164E-02  0.1300439E+00
        -11   -1    0    0    0    0  0.00000000000E+00  0.00000000000E+00  0.45593999997E+02  0.45594000000E+02  0.51100000000E-03 0. -1.
         11   -1    0    0    0    0 -0.00000000000E+00 -0.00000000000E+00 -0.45593999997E+02  0.45594000000E+02  0.51100000000E-03 0.  1.
    9900012    2    1    2    0    0 -0.31380735038E+02 -0.25583303799E+02 -0.37296213509E+01  0.50528855392E+02  0.29999986450E+02 0.  0.
        -12    1    1    2    0    0  0.31380735038E+02  0.25583303799E+02  0.37296213509E+01  0.40659144608E+02  0.00000000000E+00 0.  1.
         11    1    3    3    0    0 -0.24847353099E+02 -0.50214815949E+01 -0.64518022009E+01  0.26157828375E+02  0.51100000000E-03 0. -1.
        -11    1    3    3    0    0 -0.59022923197E+01 -0.31432562102E+01  0.17583769481E+01  0.69144055408E+01  0.51100000000E-03 0.  1.
        -12    1    3    3    0    0 -0.63108961991E+00 -0.17418565994E+02  0.96380390183E+00  0.17456621476E+02  0.00000000000E+00 0.  1.
</event>
<event>
 7    1  0.2974434E-011  0.5052885E+02  0.7816164E-02  0.1300439E+00
        -11   -1    0    0    0    0  0.00000000000E+00  0.00000000000E+00  0.45593999997E+02  0.45594000000E+02  0.51100000000E-03 0. -1.
         11   -1    0    0    0    0 -0.00000000000E+00 -0.00000000000E+00 -0.45593999997E+02  0.45594000000E+02  0.51100000000E-03 0.  1.
    9900012    2    1    2    0    0 -0.11789335085E+02 -0.38063820579E+02 -0.80822949153E+01  0.50528851584E+02  0.29999974874E+02 0.  0.
        -12    1    1    2    0    0  0.11789335085E+02  0.38063820579E+02  0.80822949153E+01  0.40659148416E+02  0.00000000000E+00 0.  1.
         11    1    3    3    0    0 -0.43776897285E+01 -0.18455262559E+02 -0.28670974668E+01  0.19182834296E+02  0.51100000000E-03 0.  1.
        -11    1    3    3    0    0 -0.47395703314E+01 -0.23445190834E+02  0.54685419706E+00  0.23925708975E+02  0.51100000000E-03 0. -1.
        -12    1    3    3    0    0 -0.26720750251E+01  0.38366328139E+01 -0.57620516455E+01  0.74203083126E+01  0.00000000000E+00 0.  1.
</event>
<event>
 7    1  0.2974434E-011  0.5052887E+02  0.7816164E-02  0.1300439E+00
        -11   -1    0    0    0    0  0.00000000000E+00  0.00000000000E+00  0.45593999997E+02  0.45594000000E+02  0.51100000000E-03 0.  1.
         11   -1    0    0    0    0 -0.00000000000E+00 -0.00000000000E+00 -0.45593999997E+02  0.45594000000E+02  0.51100000000E-03 0. -1.
    9900012    2    1    2    0    0 -0.92271208081E+01 -0.78930204063E+01 -0.38803677924E+02  0.50528868800E+02  0.30000027204E+02 0.  0.
        -12    1    1    2    0    0  0.92271208081E+01  0.78930204063E+01  0.38803677924E+02  0.40659131200E+02  0.00000000000E+00 0.  1.
         11    1    3    3    0    0  0.23650190625E+01 -0.86025134783E+01 -0.75864986280E+01  0.11711170522E+02  0.51100000000E-03 0. -1.
        -11    1    3    3    0    0  0.19297953862E+01 -0.25650764726E+01  0.12891587956E+01  0.34591412525E+01  0.51100000000E-03 0.  1.
         12    1    3    3    0    0 -0.13521935257E+02  0.32745695446E+01 -0.32506338091E+02  0.35358557025E+02  0.00000000000E+00 0. -1.
</event>
<event>
 7    1  0.2974434E-011  0.5052886E+02  0.7816164E-02  0.1300439E+00
        -11   -1    0    0    0    0  0.00000000000E+00  0.00000000000E+00  0.45593999997E+02  0.45594000000E+02  0.51100000000E-03 0. -1.
         11   -1    0    0    0    0 -0.00000000000E+00 -0.00000000000E+00 -0.45593999997E+02  0.45594000000E+02  0.51100000000E-03 0.  1.
    9900012    2    1    2    0    0 -0.42318147552E+01 -0.21771011637E+02  0.34077563606E+02  0.50528861481E+02  0.30000004957E+02 0.  0.
        -12    1    1    2    0    0  0.42318147552E+01  0.21771011637E+02 -0.34077563606E+02  0.40659138519E+02  0.00000000000E+00 0.  1.
         11    1    3    3    0    0 -0.15895041418E+01  0.31063544339E+01  0.77731456062E+01  0.85204315714E+01  0.51100000000E-03 0. -1.
        -11    1    3    3    0    0  0.32486740440E+01  0.26082944748E+01  0.12397218227E+01  0.43467221640E+01  0.51100000000E-03 0.  1.
         12    1    3    3    0    0 -0.58909846574E+01 -0.27485660546E+02  0.25064696177E+02  0.37661707745E+02  0.00000000000E+00 0. -1.
</event>
<event>
 7    1  0.2974434E-011  0.5052886E+02  0.7816164E-02  0.1300439E+00
        -11   -1    0    0    0    0  0.00000000000E+00  0.00000000000E+00  0.45593999997E+02  0.45594000000E+02  0.51100000000E-03 0.  1.
         11   -1    0    0    0    0 -0.00000000000E+00 -0.00000000000E+00 -0.45593999997E+02  0.45594000000E+02  0.51100000000E-03 0. -1.
    9900012    2    1    2    0    0  0.27184280157E+02 -0.24749307672E+02 -0.17368147699E+02  0.50528857457E+02  0.29999992725E+02 0.  0.
        -12    1    1    2    0    0 -0.27184280157E+02  0.24749307672E+02  0.17368147699E+02  0.40659142543E+02  0.00000000000E+00 0.  1.
         11    1    3    3    0    0  0.44124587521E+01 -0.59055866245E+01 -0.74187469128E+01  0.10458659170E+02  0.51100000000E-03 0. -1.
        -11    1    3    3    0    0 -0.32936562289E+01 -0.81139587031E+01 -0.79241182490E+01  0.11810002010E+02  0.51100000000E-03 0.  1.
         12    1    3    3    0    0  0.26065477634E+02 -0.10729762344E+02 -0.20252825370E+01  0.28260196277E+02  0.00000000000E+00 0. -1.
</event>
<event>
 7    1  0.2974434E-011  0.5052886E+02  0.7816164E-02  0.1300439E+00
        -11   -1    0    0    0    0  0.00000000000E+00  0.00000000000E+00  0.45593999997E+02  0.45594000000E+02  0.51100000000E-03 0. -1.
         11   -1    0    0    0    0 -0.00000000000E+00 -0.00000000000E+00 -0.45593999997E+02  0.45594000000E+02  0.51100000000E-03 0.  1.
    9900012    2    1    2    0    0 -0.13951361748E+02 -0.34238298671E+02  0.16919334272E+02  0.50528862494E+02  0.30000008038E+02 0.  0.
        -12    1    1    2    0    0  0.13951361748E+02  0.34238298671E+02 -0.16919334272E+02  0.40659137506E+02  0.00000000000E+00 0.  1.
         11    1    3    3    0    0 -0.13488407818E+02 -0.15608392996E+02  0.82910672311E+01  0.22232878210E+02  0.51100000000E-03 0. -1.
        -11    1    3    3    0    0 -0.65926900919E+01 -0.18172033589E+02  0.22891253328E+01  0.19466033557E+02  0.51100000000E-03 0.  1.
        -12    1    3    3    0    0  0.61297361617E+01 -0.45787208556E+00  0.63391417080E+01  0.88299507276E+01  0.00000000000E+00 0.  1.
</event>
<event>
 7    1  0.2974434E-011  0.5052886E+02  0.7816164E-02  0.1300439E+00
        -11   -1    0    0    0    0  0.00000000000E+00  0.00000000000E+00  0.45593999997E+02  0.45594000000E+02  0.51100000000E-03 0. -1.
         11   -1    0    0    0    0 -0.00000000000E+00 -0.00000000000E+00 -0.45593999997E+02  0.45594000000E+02  0.51100000000E-03 0.  1.
    9900012    2    1    2    0    0  0.39230349665E+02 -0.97927651598E+01  0.42716221466E+01  0.50528864002E+02  0.30000012621E+02 0.  0.
        -12    1    1    2    0    0 -0.39230349665E+02  0.97927651598E+01 -0.42716221466E+01  0.40659135998E+02  0.00000000000E+00 0.  1.
         11    1    3    3    0    0  0.65895863312E+01  0.12436764310E+01  0.12195270040E+01  0.68159097307E+01  0.51100000000E-03 0. -1.
        -11    1    3    3    0    0  0.16455823556E+02  0.16998482281E+01 -0.99992622469E+01  0.19330516254E+02  0.51100000000E-03 0.  1.
        -12    1    3    3    0    0  0.16184939778E+02 -0.12736289819E+02  0.13051357390E+02  0.24382438017E+02  0.00000000000E+00 0.  1.
</event>
<event>
 7    1  0.2974434E-011  0.5052886E+02  0.7816164E-02  0.1300439E+00
        -11   -1    0    0    0    0  0.00000000000E+00  0.00000000000E+00  0.45593999997E+02  0.45594000000E+02  0.51100000000E-03 0.  1.
         11   -1    0    0    0    0 -0.00000000000E+00 -0.00000000000E+00 -0.45593999997E+02  0.45594000000E+02  0.51100000000E-03 0. -1.
    9900012    2    1    2    0    0  0.34268493527E+02  0.17868079366E+02 -0.12632006332E+02  0.50528862124E+02  0.30000006913E+02 0.  0.
        -12    1    1    2    0    0 -0.34268493527E+02 -0.17868079366E+02  0.12632006332E+02  0.40659137876E+02  0.00000000000E+00 0.  1.
         11    1    3    3    0    0  0.15931130638E+02  0.66780906719E+00 -0.10699617776E+02  0.19202310100E+02  0.51100000000E-03 0. -1.
        -11    1    3    3    0    0  0.10846967942E+02  0.54984468573E+01 -0.95671622007E+01  0.15473209888E+02  0.51100000000E-03 0.  1.
        -12    1    3    3    0    0  0.74903949460E+01  0.11701823442E+02  0.76347736446E+01  0.15853342137E+02  0.00000000000E+00 0.  1.
</event>
<event>
 7    1  0.2974434E-011  0.5052886E+02  0.7816164E-02  0.1300439E+00
        -11   -1    0    0    0    0  0.00000000000E+00  0.00000000000E+00  0.45593999997E+02  0.45594000000E+02  0.51100000000E-03 0. -1.
         11   -1    0    0    0    0 -0.00000000000E+00 -0.00000000000E+00 -0.45593999997E+02  0.45594000000E+02  0.51100000000E-03 0.  1.
    9900012    2    1    2    0    0 -0.44175804070E+01  0.13511363833E+02  0.38093226069E+02  0.50528857835E+02  0.29999993875E+02 0.  0.
        -12    1    1    2    0    0  0.44175804070E+01 -0.13511363833E+02 -0.38093226069E+02  0.40659142165E+02  0.00000000000E+00 0.  1.
         11    1    3    3    0    0  0.64183415833E+01  0.94188641493E+01  0.24047399289E+02  0.26611792937E+02  0.51100000000E-03 0. -1.
        -11    1    3    3    0    0  0.35597763417E+01  0.31908028028E+01  0.22477023677E+01  0.52825558515E+01  0.51100000000E-03 0.  1.
         12    1    3    3    0    0 -0.14395698332E+02  0.90169688111E+00  0.11798124412E+02  0.18634509046E+02  0.00000000000E+00 0. -1.
</event>
<event>
 7    1  0.2974434E-011  0.5052886E+02  0.7816164E-02  0.1300439E+00
        -11   -1    0    0    0    0  0.00000000000E+00  0.00000000000E+00  0.45593999997E+02  0.45594000000E+02  0.51100000000E-03 0. -1.
         11   -1    0    0    0    0 -0.00000000000E+00 -0.00000000000E+00 -0.45593999997E+02  0.45594000000E+02  0.51100000000E-03 0.  1.
    9900012    2    1    2    0    0  0.26621217896E+02  0.26456270550E+02 -0.15637847058E+02  0.50528858909E+02  0.29999997139E+02 0.  0.
        -12    1    1    2    0    0 -0.26621217896E+02 -0.26456270550E+02  0.15637847058E+02  0.40659141091E+02  0.00000000000E+00 0.  1.
         11    1    3    3    0    0  0.93717851637E+01  0.14075025237E+01 -0.10133742332E+02  0.13874586640E+02  0.51100000000E-03 0. -1.
        -11    1    3    3    0    0  0.66289154957E+01 -0.38919198090E+00 -0.61924400385E+01  0.90796643627E+01  0.51100000000E-03 0.  1.
         12    1    3    3    0    0  0.10620517237E+02  0.25437960007E+02  0.68833531269E+00  0.27574607906E+02  0.00000000000E+00 0. -1.
</event>
<event>
 7    1  0.2974434E-011  0.5052886E+02  0.7816164E-02  0.1300439E+00
        -11   -1    0    0    0    0  0.00000000000E+00  0.00000000000E+00  0.45593999997E+02  0.45594000000E+02  0.51100000000E-03 0.  1.
         11   -1    0    0    0    0 -0.00000000000E+00 -0.00000000000E+00 -0.45593999997E+02  0.45594000000E+02  0.51100000000E-03 0. -1.
    9900012    2    1    2    0    0  0.13984266697E+01  0.37683907037E+02 -0.15203058273E+02  0.50528862926E+02  0.30000009351E+02 0.  0.
        -12    1    1    2    0    0 -0.13984266697E+01 -0.37683907037E+02  0.15203058273E+02  0.40659137074E+02  0.00000000000E+00 0.  1.
         11    1    3    3    0    0  0.13551051304E+02  0.18014543024E+02 -0.12954081470E+02  0.25999288044E+02  0.51100000000E-03 0.  1.
        -11    1    3    3    0    0 -0.25000831279E+00  0.31305338978E+01 -0.27095006541E+01  0.41477874460E+01  0.51100000000E-03 0. -1.
        -12    1    3    3    0    0 -0.11902616322E+02  0.16538830115E+02  0.46052385113E+00  0.20381787436E+02  0.00000000000E+00 0.  1.
</event>
<event>
 7    1  0.2974434E-011  0.5052886E+02  0.7816164E-02  0.1300439E+00
        -11   -1    0    0    0    0  0.00000000000E+00  0.00000000000E+00  0.45593999997E+02  0.45594000000E+02  0.51100000000E-03 0. -1.
         11   -1    0    0    0    0 -0.00000000000E+00 -0.00000000000E+00 -0.45593999997E+02  0.45594000000E+02  0.51100000000E-03 0.  1.
    9900012    2    1    2    0    0 -0.11985574345E+02  0.92549358195E+01  0.37734040547E+02  0.50528860248E+02  0.30000001209E+02 0.  0.
        -12    1    1    2    0    0  0.11985574345E+02 -0.92549358195E+01 -0.37734040547E+02  0.40659139752E+02  0.00000000000E+00 0.  1.
         11    1    3    3    0    0  0.74702517113E+01  0.50204213367E+01  0.12337010959E+02  0.15271251772E+02  0.51100000000E-03 0. -1.
        -11    1    3    3    0    0  0.26602096364E+00 -0.21816901903E+01 -0.31887573189E+00  0.22208604713E+01  0.51100000000E-03 0.  1.
        -12    1    3    3    0    0 -0.19721847020E+02  0.64162046731E+01  0.25715905319E+02  0.33036748004E+02  0.00000000000E+00 0.  1.
</event>
<event>
 7    1  0.2974434E-011  0.5052888E+02  0.7816164E-02  0.1300439E+00
        -11   -1    0    0    0    0  0.00000000000E+00  0.00000000000E+00  0.45593999997E+02  0.45594000000E+02  0.51100000000E-03 0. -1.
         11   -1    0    0    0    0 -0.00000000000E+00 -0.00000000000E+00 -0.45593999997E+02  0.45594000000E+02  0.51100000000E-03 0.  1.
    9900012    2    1    2    0    0  0.28326714506E+02  0.22006832075E+02  0.19143163692E+02  0.50528878897E+02  0.30000057895E+02 0.  0.
        -12    1    1    2    0    0 -0.28326714506E+02 -0.22006832075E+02 -0.19143163692E+02  0.40659121103E+02  0.00000000000E+00 0.  1.
         11    1    3    3    0    0  0.27196325979E+01 -0.15366040726E+00  0.51789089862E+01  0.58515905134E+01  0.51100000000E-03 0. -1.
        -11    1    3    3    0    0  0.28729456362E+02  0.16460703602E+02  0.17315354412E+02  0.37365196702E+02  0.51100000000E-03 0.  1.
        -12    1    3    3    0    0 -0.31223744532E+01  0.56997888811E+01 -0.33510997063E+01  0.73120916814E+01  0.00000000000E+00 0.  1.
</event>
<event>
 7    1  0.2974434E-011  0.5052880E+02  0.7816164E-02  0.1300439E+00
        -11   -1    0    0    0    0  0.00000000000E+00  0.00000000000E+00  0.45593999997E+02  0.45594000000E+02  0.51100000000E-03 0.  1.
         11   -1    0    0    0    0 -0.00000000000E+00 -0.00000000000E+00 -0.45593999997E+02  0.45594000000E+02  0.51100000000E-03 0. -1.
    9900012    2    1    2    0    0 -0.20424966031E+02  0.48202651242E+01 -0.34824649608E+02  0.50528801611E+02  0.29999822978E+02 0.  0.
        -12    1    1    2    0    0  0.20424966031E+02 -0.48202651242E+01  0.34824649608E+02  0.40659198389E+02  0.00000000000E+00 0.  1.
         11    1    3    3    0    0 -0.23186525307E+02 -0.83313450213E+00 -0.24854702971E+02  0.34000960706E+02  0.51100000000E-03 0. -1.
        -11    1    3    3    0    0 -0.23987049197E+01  0.11997462253E+01  0.15826810733E+01  0.31141701845E+01  0.51100000000E-03 0.  1.
        -12    1    3    3    0    0  0.51602641953E+01  0.44536534010E+01 -0.11552627711E+02  0.13413670721E+02  0.00000000000E+00 0.  1.
</event>
<event>
 7    1  0.2974434E-011  0.5052888E+02  0.7816164E-02  0.1300439E+00
        -11   -1    0    0    0    0  0.00000000000E+00  0.00000000000E+00  0.45593999997E+02  0.45594000000E+02  0.51100000000E-03 0.  1.
         11   -1    0    0    0    0 -0.00000000000E+00 -0.00000000000E+00 -0.45593999997E+02  0.45594000000E+02  0.51100000000E-03 0. -1.
    9900012    2    1    2    0    0 -0.32229967439E+02  0.19308291302E+02 -0.15542936130E+02  0.50528883216E+02  0.30000071022E+02 0.  0.
        -12    1    1    2    0    0  0.32229967439E+02 -0.19308291302E+02  0.15542936130E+02  0.40659116784E+02  0.00000000000E+00 0.  1.
         11    1    3    3    0    0 -0.15810473655E+02  0.39684638862E+00 -0.79574268677E+01  0.17704496798E+02  0.51100000000E-03 0. -1.
        -11    1    3    3    0    0 -0.15353409915E+02  0.33618701125E+01 -0.55749148518E+00  0.15727051971E+02  0.51100000000E-03 0.  1.
        -12    1    3    3    0    0 -0.10660838689E+01  0.15549574801E+02 -0.70280177774E+01  0.17097334447E+02  0.00000000000E+00 0.  1.
</event>
<event>
 7    1  0.2974434E-011  0.5052886E+02  0.7816164E-02  0.1300439E+00
        -11   -1    0    0    0    0  0.00000000000E+00  0.00000000000E+00  0.45593999997E+02  0.45594000000E+02  0.51100000000E-03 0.  1.
         11   -1    0    0    0    0 -0.00000000000E+00 -0.00000000000E+00 -0.45593999997E+02  0.45594000000E+02  0.51100000000E-03 0. -1.
    9900012    2    1    2    0    0  0.31591754658E+02 -0.12055678077E+02 -0.22578471905E+02  0.50528859209E+02  0.29999998053E+02 0.  0.
        -12    1    1    2    0    0 -0.31591754658E+02  0.12055678077E+02  0.22578471905E+02  0.40659140791E+02  0.00000000000E+00 0.  1.
         11    1    3    3    0    0  0.19554681153E+02 -0.98900058324E+01 -0.14021162873E+02  0.26015202842E+02  0.51100000000E-03 0. -1.
        -11    1    3    3    0    0  0.89902396705E+01  0.37329546054E+01  0.38288721696E+01  0.10460383443E+02  0.51100000000E-03 0.  1.
         12    1    3    3    0    0  0.30468338350E+01 -0.58986268503E+01 -0.12386181201E+02  0.14053272925E+02  0.00000000000E+00 0. -1.
</event>
<event>
 7    1  0.2974434E-011  0.5052886E+02  0.7816164E-02  0.1300439E+00
        -11   -1    0    0    0    0  0.00000000000E+00  0.00000000000E+00  0.45593999997E+02  0.45594000000E+02  0.51100000000E-03 0. -1.
         11   -1    0    0    0    0 -0.00000000000E+00 -0.00000000000E+00 -0.45593999997E+02  0.45594000000E+02  0.51100000000E-03 0.  1.
    9900012    2    1    2    0    0 -0.37993373318E+02  0.92855091864E+01  0.11110749000E+02  0.50528857851E+02  0.29999993924E+02 0.  0.
        -12    1    1    2    0    0  0.37993373318E+02 -0.92855091864E+01 -0.11110749000E+02  0.40659142149E+02  0.00000000000E+00 0.  1.
         11    1    3    3    0    0 -0.14934900070E+01  0.56592912989E+01 -0.20008667423E+01  0.61855928082E+01  0.51100000000E-03 0.  1.
        -11    1    3    3    0    0 -0.23464915824E+02  0.29034286493E+01  0.18697476515E+02  0.30143453697E+02  0.51100000000E-03 0. -1.
         12    1    3    3    0    0 -0.13034967488E+02  0.72278923810E+00 -0.55858607719E+01  0.14199811345E+02  0.00000000000E+00 0. -1.
</event>
<event>
 7    1  0.2974434E-011  0.5052892E+02  0.7816164E-02  0.1300439E+00
        -11   -1    0    0    0    0  0.00000000000E+00  0.00000000000E+00  0.45593999997E+02  0.45594000000E+02  0.51100000000E-03 0.  1.
         11   -1    0    0    0    0 -0.00000000000E+00 -0.00000000000E+00 -0.45593999997E+02  0.45594000000E+02  0.51100000000E-03 0. -1.
    9900012    2    1    2    0    0 -0.64010435316E+01  0.39337304672E+02 -0.80475941075E+01  0.50528921456E+02  0.30000187256E+02 0.  0.
        -12    1    1    2    0    0  0.64010435316E+01 -0.39337304672E+02  0.80475941075E+01  0.40659078544E+02  0.00000000000E+00 0.  1.
         11    1    3    3    0    0 -0.50788020032E+01  0.25389317674E+02 -0.75627390305E+01  0.26974185875E+02  0.51100000000E-03 0. -1.
        -11    1    3    3    0    0 -0.68592348238E+01  0.14308966573E+02 -0.47415143747E+01  0.16561328014E+02  0.51100000000E-03 0.  1.
        -12    1    3    3    0    0  0.55369932954E+01 -0.36097957542E+00  0.42566592977E+01  0.69934075660E+01  0.00000000000E+00 0.  1.
</event>
<event>
 7    1  0.2974434E-011  0.5052888E+02  0.7816164E-02  0.1300439E+00
        -11   -1    0    0    0    0  0.00000000000E+00  0.00000000000E+00  0.45593999997E+02  0.45594000000E+02  0.51100000000E-03 0. -1.
         11   -1    0    0    0    0 -0.00000000000E+00 -0.00000000000E+00 -0.45593999997E+02  0.45594000000E+02  0.51100000000E-03 0.  1.
    9900012    2    1    2    0    0 -0.40399703523E+02 -0.32242280339E+01 -0.32607272487E+01  0.50528880071E+02  0.30000061465E+02 0.  0.
        -12    1    1    2    0    0  0.40399703523E+02  0.32242280339E+01  0.32607272487E+01  0.40659119929E+02  0.00000000000E+00 0.  1.
         11    1    3    3    0    0 -0.63180797961E+01  0.34242036680E+01 -0.31217520311E+01  0.78350902403E+01  0.51100000000E-03 0. -1.
        -11    1    3    3    0    0 -0.98749489492E+00  0.51385855044E+01 -0.49892579072E+01  0.72300001299E+01  0.51100000000E-03 0.  1.
        -12    1    3    3    0    0 -0.33094128832E+02 -0.11787017206E+02  0.48502826896E+01  0.35463789701E+02  0.00000000000E+00 0.  1.
</event>
<event>
 7    1  0.2974434E-011  0.5052886E+02  0.7816164E-02  0.1300439E+00
        -11   -1    0    0    0    0  0.00000000000E+00  0.00000000000E+00  0.45593999997E+02  0.45594000000E+02  0.51100000000E-03 0.  1.
         11   -1    0    0    0    0 -0.00000000000E+00 -0.00000000000E+00 -0.45593999997E+02  0.45594000000E+02  0.51100000000E-03 0. -1.
    9900012    2    1    2    0    0 -0.29492062221E+01 -0.28766713991E+01 -0.40449875691E+02  0.50528862047E+02  0.30000006678E+02 0.  0.
        -12    1    1    2    0    0  0.29492062221E+01  0.28766713991E+01  0.40449875691E+02  0.40659137953E+02  0.00000000000E+00 0.  1.
         11    1    3    3    0    0 -0.61987688969E+01 -0.10252250970E+02 -0.78925679295E+01  0.14346637745E+02  0.51100000000E-03 0. -1.
        -11    1    3    3    0    0  0.59342980893E+00  0.15945175211E+00  0.13131898060E+01  0.14498453459E+01  0.51100000000E-03 0.  1.
         12    1    3    3    0    0  0.26561328659E+01  0.72161278191E+01 -0.33870497567E+02  0.34732378956E+02  0.00000000000E+00 0. -1.
</event>
<event>
 7    1  0.2974434E-011  0.5052887E+02  0.7816164E-02  0.1300439E+00
        -11   -1    0    0    0    0  0.00000000000E+00  0.00000000000E+00  0.45593999997E+02  0.45594000000E+02  0.51100000000E-03 0.  1.
         11   -1    0    0    0    0 -0.00000000000E+00 -0.00000000000E+00 -0.45593999997E+02  0.45594000000E+02  0.51100000000E-03 0. -1.
    9900012    2    1    2    0    0 -0.31853620149E+02 -0.22130087558E+02 -0.12197180365E+02  0.50528866945E+02  0.30000021566E+02 0.  0.
        -12    1    1    2    0    0  0.31853620149E+02  0.22130087558E+02  0.12197180365E+02  0.40659133055E+02  0.00000000000E+00 0.  1.
         11    1    3    3    0    0 -0.63855225649E+01  0.22435150098E+01  0.21382983209E+01  0.70979277255E+01  0.51100000000E-03 0. -1.
        -11    1    3    3    0    0 -0.14839742046E+02 -0.29577514445E+01  0.76900331937E+00  0.15151158502E+02  0.51100000000E-03 0.  1.
         12    1    3    3    0    0 -0.10628355538E+02 -0.21415851123E+02 -0.15104482005E+02  0.28279780718E+02  0.00000000000E+00 0. -1.
</event>
<event>
 7    1  0.2974434E-011  0.5052886E+02  0.7816164E-02  0.1300439E+00
        -11   -1    0    0    0    0  0.00000000000E+00  0.00000000000E+00  0.45593999997E+02  0.45594000000E+02  0.51100000000E-03 0.  1.
         11   -1    0    0    0    0 -0.00000000000E+00 -0.00000000000E+00 -0.45593999997E+02  0.45594000000E+02  0.51100000000E-03 0. -1.
    9900012    2    1    2    0    0 -0.12516044843E+02 -0.29219956202E+02 -0.25351697301E+02  0.50528858654E+02  0.29999996364E+02 0.  0.
        -12    1    1    2    0    0  0.12516044843E+02  0.29219956202E+02  0.25351697301E+02  0.40659141346E+02  0.00000000000E+00 0.  1.
         11    1    3    3    0    0 -0.14811774418E+01 -0.21466647971E+02 -0.98094563566E+01  0.23648177435E+02  0.51100000000E-03 0. -1.
        -11    1    3    3    0    0 -0.44982427793E+00 -0.10273515314E+02 -0.40433055269E+01  0.11049695861E+02  0.51100000000E-03 0.  1.
        -12    1    3    3    0    0 -0.10585043124E+02  0.25202070821E+01 -0.11498935417E+02  0.15830985358E+02  0.00000000000E+00 0.  1.
</event>
<event>
 7    1  0.2974434E-011  0.5052886E+02  0.7816164E-02  0.1300439E+00
        -11   -1    0    0    0    0  0.00000000000E+00  0.00000000000E+00  0.45593999997E+02  0.45594000000E+02  0.51100000000E-03 0. -1.
         11   -1    0    0    0    0 -0.00000000000E+00 -0.00000000000E+00 -0.45593999997E+02  0.45594000000E+02  0.51100000000E-03 0.  1.
    9900012    2    1    2    0    0  0.25312724427E+02  0.14712645506E+01  0.31784700790E+02  0.50528857835E+02  0.29999993874E+02 0.  0.
        -12    1    1    2    0    0 -0.25312724427E+02 -0.14712645506E+01 -0.31784700790E+02  0.40659142165E+02  0.00000000000E+00 0.  1.
         11    1    3    3    0    0  0.13439509726E+02  0.84389247075E+01  0.22982454237E+02  0.27929000607E+02  0.51100000000E-03 0. -1.
        -11    1    3    3    0    0  0.40002455795E+01 -0.45082416508E+01  0.12255975317E+02  0.13657786743E+02  0.51100000000E-03 0.  1.
        -12    1    3    3    0    0  0.78729691215E+01 -0.24594185062E+01 -0.34537287641E+01  0.89420704847E+01  0.00000000000E+00 0.  1.
</event>
<event>
 7    1  0.2974434E-011  0.5052886E+02  0.7816164E-02  0.1300439E+00
        -11   -1    0    0    0    0  0.00000000000E+00  0.00000000000E+00  0.45593999997E+02  0.45594000000E+02  0.51100000000E-03 0.  1.
         11   -1    0    0    0    0 -0.00000000000E+00 -0.00000000000E+00 -0.45593999997E+02  0.45594000000E+02  0.51100000000E-03 0. -1.
    9900012    2    1    2    0    0 -0.37926229070E+02 -0.99175077955E+01 -0.10789341676E+02  0.50528859500E+02  0.29999998937E+02 0.  0.
        -12    1    1    2    0    0  0.37926229070E+02  0.99175077955E+01  0.10789341676E+02  0.40659140500E+02  0.00000000000E+00 0.  1.
         11    1    3    3    0    0 -0.94871754799E+01 -0.10843503351E+02  0.31686233746E+01  0.14752228234E+02  0.51100000000E-03 0. -1.
        -11    1    3    3    0    0 -0.33681980408E+01  0.18302442028E+01 -0.95692398966E+01  0.10308487006E+02  0.51100000000E-03 0.  1.
         12    1    3    3    0    0 -0.25070855550E+02 -0.90424864710E+00 -0.43887251541E+01  0.25468144261E+02  0.00000000000E+00 0. -1.
</event>
<event>
 7    1  0.2974434E-011  0.5052885E+02  0.7816164E-02  0.1300439E+00
        -11   -1    0    0    0    0  0.00000000000E+00  0.00000000000E+00  0.45593999997E+02  0.45594000000E+02  0.51100000000E-03 0. -1.
         11   -1    0    0    0    0 -0.00000000000E+00 -0.00000000000E+00 -0.45593999997E+02  0.45594000000E+02  0.51100000000E-03 0.  1.
    9900012    2    1    2    0    0  0.38590982538E+01 -0.33629451234E+01  0.40335648461E+02  0.50528848804E+02  0.29999966424E+02 0.  0.
        -12    1    1    2    0    0 -0.38590982538E+01  0.33629451234E+01 -0.40335648461E+02  0.40659151196E+02  0.00000000000E+00 0.  1.
         11    1    3    3    0    0 -0.63814454218E+01  0.40099419610E+01  0.62088721157E+01  0.97648642290E+01  0.51100000000E-03 0. -1.
        -11    1    3    3    0    0 -0.13947262557E+01  0.11200160634E+01 -0.15004339517E+01  0.23347375902E+01  0.51100000000E-03 0.  1.
         12    1    3    3    0    0  0.11635269931E+02 -0.84929031478E+01  0.35627210297E+02  0.38429246984E+02  0.00000000000E+00 0. -1.
</event>
<event>
 7    1  0.2974434E-011  0.5052885E+02  0.7816164E-02  0.1300439E+00
        -11   -1    0    0    0    0  0.00000000000E+00  0.00000000000E+00  0.45593999997E+02  0.45594000000E+02  0.51100000000E-03 0.  1.
         11   -1    0    0    0    0 -0.00000000000E+00 -0.00000000000E+00 -0.45593999997E+02  0.45594000000E+02  0.51100000000E-03 0. -1.
    9900012    2    1    2    0    0 -0.19729459864E+02  0.23628387738E+02 -0.26563392327E+02  0.50528854589E+02  0.29999984009E+02 0.  0.
        -12    1    1    2    0    0  0.19729459864E+02 -0.23628387738E+02  0.26563392327E+02  0.40659145411E+02  0.00000000000E+00 0.  1.
         11    1    3    3    0    0 -0.88264707657E+01  0.15952183421E+01 -0.10023187732E+01  0.90252950600E+01  0.51100000000E-03 0. -1.
        -11    1    3    3    0    0 -0.11338215288E+02  0.81119089580E+00 -0.73576469651E+01  0.13540610241E+02  0.51100000000E-03 0.  1.
         12    1    3    3    0    0  0.43522618955E+00  0.21221978500E+02 -0.18203426589E+02  0.27962949288E+02  0.00000000000E+00 0. -1.
</event>
<event>
 7    1  0.2974434E-011  0.5052885E+02  0.7816164E-02  0.1300439E+00
        -11   -1    0    0    0    0  0.00000000000E+00  0.00000000000E+00  0.45593999997E+02  0.45594000000E+02  0.51100000000E-03 0. -1.
         11   -1    0    0    0    0 -0.00000000000E+00 -0.00000000000E+00 -0.45593999997E+02  0.45594000000E+02  0.51100000000E-03 0.  1.
    9900012    2    1    2    0    0  0.38887499175E+02 -0.84119575864E+01  0.83766131460E+01  0.50528852563E+02  0.29999977851E+02 0.  0.
        -12    1    1    2    0    0 -0.38887499175E+02  0.84119575864E+01 -0.83766131460E+01  0.40659147437E+02  0.00000000000E+00 0.  1.
         11    1    3    3    0    0  0.78088260447E+01 -0.21348015420E+01  0.60625465805E+01  0.10113832761E+02  0.51100000000E-03 0. -1.
        -11    1    3    3    0    0  0.25653046921E+02  0.53203659706E+01  0.64104070734E+01  0.26971808050E+02  0.51100000000E-03 0.  1.
        -12    1    3    3    0    0  0.54256262093E+01 -0.11597522015E+02 -0.40963405080E+01  0.13443211752E+02  0.00000000000E+00 0.  1.
</event>
<event>
 7    1  0.2974434E-011  0.5052887E+02  0.7816164E-02  0.1300439E+00
        -11   -1    0    0    0    0  0.00000000000E+00  0.00000000000E+00  0.45593999997E+02  0.45594000000E+02  0.51100000000E-03 0. -1.
         11   -1    0    0    0    0 -0.00000000000E+00 -0.00000000000E+00 -0.45593999997E+02  0.45594000000E+02  0.51100000000E-03 0.  1.
    9900012    2    1    2    0    0 -0.15493909549E+02 -0.61520126927E+01  0.37084454380E+02  0.50528865110E+02  0.30000015989E+02 0.  0.
        -12    1    1    2    0    0  0.15493909549E+02  0.61520126927E+01 -0.37084454380E+02  0.40659134890E+02  0.00000000000E+00 0.  1.
         11    1    3    3    0    0 -0.15426071620E+02 -0.82025882465E+01  0.20112122823E+02  0.26641013950E+02  0.51100000000E-03 0. -1.
        -11    1    3    3    0    0 -0.35954829843E+01 -0.60349605442E+01  0.36685444866E+01  0.79250530327E+01  0.51100000000E-03 0.  1.
        -12    1    3    3    0    0  0.35276450555E+01  0.80855360980E+01  0.13303787071E+02  0.15962798127E+02  0.00000000000E+00 0.  1.
</event>
<event>
 7    1  0.2974434E-011  0.5052887E+02  0.7816164E-02  0.1300439E+00
        -11   -1    0    0    0    0  0.00000000000E+00  0.00000000000E+00  0.45593999997E+02  0.45594000000E+02  0.51100000000E-03 0.  1.
         11   -1    0    0    0    0 -0.00000000000E+00 -0.00000000000E+00 -0.45593999997E+02  0.45594000000E+02  0.51100000000E-03 0. -1.
    9900012    2    1    2    0    0 -0.29120220645E+02  0.25609463984E+02  0.12220190667E+02  0.50528868727E+02  0.30000026981E+02 0.  0.
        -12    1    1    2    0    0  0.29120220645E+02 -0.25609463984E+02 -0.12220190667E+02  0.40659131273E+02  0.00000000000E+00 0.  1.
         11    1    3    3    0    0 -0.19729133005E+02  0.80643744683E+01  0.10051440980E+02  0.23564895305E+02  0.51100000000E-03 0. -1.
        -11    1    3    3    0    0 -0.63581796001E+01  0.81933662557E+01  0.99909110272E+01  0.14400555609E+02  0.51100000000E-03 0.  1.
        -12    1    3    3    0    0 -0.30329080398E+01  0.93517232600E+01 -0.78221613399E+01  0.12563417813E+02  0.00000000000E+00 0.  1.
</event>
<event>
 7    1  0.2974434E-011  0.5052886E+02  0.7816164E-02  0.1300439E+00
        -11   -1    0    0    0    0  0.00000000000E+00  0.00000000000E+00  0.45593999997E+02  0.45594000000E+02  0.51100000000E-03 0.  1.
         11   -1    0    0    0    0 -0.00000000000E+00 -0.00000000000E+00 -0.45593999997E+02  0.45594000000E+02  0.51100000000E-03 0. -1.
    9900012    2    1    2    0    0  0.18406565639E+02  0.35658352548E+02  0.65456784005E+01  0.50528859936E+02  0.30000000261E+02 0.  0.
        -12    1    1    2    0    0 -0.18406565639E+02 -0.35658352548E+02 -0.65456784005E+01  0.40659140064E+02  0.00000000000E+00 0.  1.
         11    1    3    3    0    0 -0.30076273696E+00  0.14894703970E+02 -0.70459476566E+01  0.16479928495E+02  0.51100000000E-03 0. -1.
        -11    1    3    3    0    0 -0.19231149388E+01  0.18225921448E+01 -0.50082049116E+00  0.26964856053E+01  0.51100000000E-03 0.  1.
         12    1    3    3    0    0  0.20630443314E+02  0.18941056433E+02  0.14092446548E+02  0.31352445836E+02  0.00000000000E+00 0. -1.
</event>
<event>
 7    1  0.2974434E-011  0.5052886E+02  0.7816164E-02  0.1300439E+00
        -11   -1    0    0    0    0  0.00000000000E+00  0.00000000000E+00  0.45593999997E+02  0.45594000000E+02  0.51100000000E-03 0.  1.
         11   -1    0    0    0    0 -0.00000000000E+00 -0.00000000000E+00 -0.45593999997E+02  0.45594000000E+02  0.51100000000E-03 0. -1.
    9900012    2    1    2    0    0 -0.86913571126E+01 -0.12084357133E+02 -0.37836417681E+02  0.50528857379E+02  0.29999992488E+02 0.  0.
        -12    1    1    2    0    0  0.86913571126E+01  0.12084357133E+02  0.37836417681E+02  0.40659142621E+02  0.00000000000E+00 0.  1.
         11    1    3    3    0    0  0.19917840986E+01 -0.14127528221E+02 -0.39068112057E+01  0.14792478886E+02  0.51100000000E-03 0.  1.
        -11    1    3    3    0    0 -0.67748493478E+01  0.16149194778E+01 -0.17321813474E+02  0.18669541261E+02  0.51100000000E-03 0. -1.
        -12    1    3    3    0    0 -0.39082918634E+01  0.42825160971E+00 -0.16607793001E+02  0.17066837232E+02  0.00000000000E+00 0.  1.
</event>
<event>
 7    1  0.2974434E-011  0.5052886E+02  0.7816164E-02  0.1300439E+00
        -11   -1    0    0    0    0  0.00000000000E+00  0.00000000000E+00  0.45593999997E+02  0.45594000000E+02  0.51100000000E-03 0. -1.
         11   -1    0    0    0    0 -0.00000000000E+00 -0.00000000000E+00 -0.45593999997E+02  0.45594000000E+02  0.51100000000E-03 0.  1.
    9900012    2    1    2    0    0  0.19493939216E+02  0.19678995278E+02  0.29763893074E+02  0.50528857704E+02  0.29999993478E+02 0.  0.
        -12    1    1    2    0    0 -0.19493939216E+02 -0.19678995278E+02 -0.29763893074E+02  0.40659142296E+02  0.00000000000E+00 0.  1.
         11    1    3    3    0    0  0.12206748892E+01  0.32945276277E+01 -0.43898941552E-01  0.35136714208E+01  0.51100000000E-03 0. -1.
        -11    1    3    3    0    0  0.19819426957E+02  0.12813191039E+02  0.80857282532E+01  0.24947275426E+02  0.51100000000E-03 0.  1.
        -12    1    3    3    0    0 -0.15461626306E+01  0.35712766109E+01  0.21722063762E+02  0.22067910857E+02  0.00000000000E+00 0.  1.
</event>
<event>
 7    1  0.2974434E-011  0.5052886E+02  0.7816164E-02  0.1300439E+00
        -11   -1    0    0    0    0  0.00000000000E+00  0.00000000000E+00  0.45593999997E+02  0.45594000000E+02  0.51100000000E-03 0.  1.
         11   -1    0    0    0    0 -0.00000000000E+00 -0.00000000000E+00 -0.45593999997E+02  0.45594000000E+02  0.51100000000E-03 0. -1.
    9900012    2    1    2    0    0  0.53098966212E+01 -0.37687131294E+02  0.14305619390E+02  0.50528860641E+02  0.30000002404E+02 0.  0.
        -12    1    1    2    0    0 -0.53098966212E+01  0.37687131294E+02 -0.14305619390E+02  0.40659139359E+02  0.00000000000E+00 0.  1.
         11    1    3    3    0    0 -0.16653292451E+01 -0.17501628341E+02  0.14560464235E+02  0.22827339641E+02  0.51100000000E-03 0. -1.
        -11    1    3    3    0    0 -0.15409011893E+01 -0.21221235346E+01  0.61854840678E+01  0.67184818364E+01  0.51100000000E-03 0.  1.
         12    1    3    3    0    0  0.85161270556E+01 -0.18063379418E+02 -0.64403289127E+01  0.20983039163E+02  0.00000000000E+00 0. -1.
</event>
<event>
 7    1  0.2974434E-011  0.5052890E+02  0.7816164E-02  0.1300439E+00
        -11   -1    0    0    0    0  0.00000000000E+00  0.00000000000E+00  0.45593999997E+02  0.45594000000E+02  0.51100000000E-03 0.  1.
         11   -1    0    0    0    0 -0.00000000000E+00 -0.00000000000E+00 -0.45593999997E+02  0.45594000000E+02  0.51100000000E-03 0. -1.
    9900012    2    1    2    0    0  0.16526914085E+02 -0.25681098895E+02 -0.26842224358E+02  0.50528895999E+02  0.30000109879E+02 0.  0.
        -12    1    1    2    0    0 -0.16526914085E+02  0.25681098895E+02  0.26842224358E+02  0.40659104001E+02  0.00000000000E+00 0.  1.
         11    1    3    3    0    0  0.21329444344E+01 -0.15109168811E+02 -0.11909704026E+02  0.19356587622E+02  0.51100000000E-03 0. -1.
        -11    1    3    3    0    0  0.10621948253E+02 -0.12905318778E+02 -0.18893476454E+02  0.25225710896E+02  0.51100000000E-03 0.  1.
        -12    1    3    3    0    0  0.37720213970E+01  0.23333886929E+01  0.39609561214E+01  0.59465974815E+01  0.00000000000E+00 0.  1.
</event>
<event>
 7    1  0.2974434E-011  0.5052886E+02  0.7816164E-02  0.1300439E+00
        -11   -1    0    0    0    0  0.00000000000E+00  0.00000000000E+00  0.45593999997E+02  0.45594000000E+02  0.51100000000E-03 0.  1.
         11   -1    0    0    0    0 -0.00000000000E+00 -0.00000000000E+00 -0.45593999997E+02  0.45594000000E+02  0.51100000000E-03 0. -1.
    9900012    2    1    2    0    0 -0.39008283361E+02  0.29970422296E+01 -0.11069640020E+02  0.50528863720E+02  0.30000011763E+02 0.  0.
        -12    1    1    2    0    0  0.39008283361E+02 -0.29970422296E+01  0.11069640020E+02  0.40659136280E+02  0.00000000000E+00 0.  1.
         11    1    3    3    0    0 -0.22229819714E+01  0.46185675088E+01 -0.96424454214E+01  0.10920145083E+02  0.51100000000E-03 0. -1.
        -11    1    3    3    0    0 -0.19488939248E+01  0.30776373404E+01 -0.25371569544E+01  0.44392797616E+01  0.51100000000E-03 0.  1.
         12    1    3    3    0    0 -0.34836407464E+02 -0.46991626196E+01  0.11099623558E+01  0.35169438875E+02  0.00000000000E+00 0. -1.
</event>
<event>
 7    1  0.2974434E-011  0.5052886E+02  0.7816164E-02  0.1300439E+00
        -11   -1    0    0    0    0  0.00000000000E+00  0.00000000000E+00  0.45593999997E+02  0.45594000000E+02  0.51100000000E-03 0.  1.
         11   -1    0    0    0    0 -0.00000000000E+00 -0.00000000000E+00 -0.45593999997E+02  0.45594000000E+02  0.51100000000E-03 0. -1.
    9900012    2    1    2    0    0 -0.15403647815E+02 -0.36281448768E+02 -0.99774510356E+01  0.50528863021E+02  0.30000009638E+02 0.  0.
        -12    1    1    2    0    0  0.15403647815E+02  0.36281448768E+02  0.99774510356E+01  0.40659136979E+02  0.00000000000E+00 0.  1.
         11    1    3    3    0    0 -0.10760870168E+02 -0.17565559837E+02 -0.70673392922E+01  0.21778257600E+02  0.51100000000E-03 0. -1.
        -11    1    3    3    0    0  0.46709459090E+01 -0.12995600595E+02 -0.87598737573E+01  0.16353554935E+02  0.51100000000E-03 0.  1.
        -12    1    3    3    0    0 -0.93137235558E+01 -0.57202883360E+01  0.58497620139E+01  0.12397050486E+02  0.00000000000E+00 0.  1.
</event>
<event>
 7    1  0.2974434E-011  0.5052886E+02  0.7816164E-02  0.1300439E+00
        -11   -1    0    0    0    0  0.00000000000E+00  0.00000000000E+00  0.45593999997E+02  0.45594000000E+02  0.51100000000E-03 0.  1.
         11   -1    0    0    0    0 -0.00000000000E+00 -0.00000000000E+00 -0.45593999997E+02  0.45594000000E+02  0.51100000000E-03 0. -1.
    9900012    2    1    2    0    0  0.17142617014E+02 -0.19242265239E+02 -0.31448871495E+02  0.50528860709E+02  0.30000002612E+02 0.  0.
        -12    1    1    2    0    0 -0.17142617014E+02  0.19242265239E+02  0.31448871495E+02  0.40659139291E+02  0.00000000000E+00 0.  1.
         11    1    3    3    0    0 -0.93471152699E+00 -0.51260090984E+01 -0.57855077402E+01  0.77859973663E+01  0.51100000000E-03 0. -1.
        -11    1    3    3    0    0  0.20816194773E+02 -0.13536363294E+01 -0.13140585686E+02  0.24654031893E+02  0.51100000000E-03 0.  1.
        -12    1    3    3    0    0 -0.27388662323E+01 -0.12762619811E+02 -0.12522778069E+02  0.18088831450E+02  0.00000000000E+00 0.  1.
</event>
<event>
 7    1  0.2974434E-011  0.5052886E+02  0.7816164E-02  0.1300439E+00
        -11   -1    0    0    0    0  0.00000000000E+00  0.00000000000E+00  0.45593999997E+02  0.45594000000E+02  0.51100000000E-03 0.  1.
         11   -1    0    0    0    0 -0.00000000000E+00 -0.00000000000E+00 -0.45593999997E+02  0.45594000000E+02  0.51100000000E-03 0. -1.
    9900012    2    1    2    0    0  0.15898737622E+02  0.36338990522E+02 -0.89372241874E+01  0.50528855071E+02  0.29999985475E+02 0.  0.
        -12    1    1    2    0    0 -0.15898737622E+02 -0.36338990522E+02  0.89372241874E+01  0.40659144929E+02  0.00000000000E+00 0.  1.
         11    1    3    3    0    0  0.40241479914E+01  0.66625275109E+01 -0.12797737130E+02  0.14978822243E+02  0.51100000000E-03 0. -1.
        -11    1    3    3    0    0  0.59606340901E+01  0.98800332884E+00  0.91038574215E+00  0.61101646291E+01  0.51100000000E-03 0.  1.
         12    1    3    3    0    0  0.59139555408E+01  0.28688459682E+02  0.29501272001E+01  0.29439868199E+02  0.00000000000E+00 0. -1.
</event>
<event>
 7    1  0.2974434E-011  0.5052885E+02  0.7816164E-02  0.1300439E+00
        -11   -1    0    0    0    0  0.00000000000E+00  0.00000000000E+00  0.45593999997E+02  0.45594000000E+02  0.51100000000E-03 0.  1.
         11   -1    0    0    0    0 -0.00000000000E+00 -0.00000000000E+00 -0.45593999997E+02  0.45594000000E+02  0.51100000000E-03 0. -1.
    9900012    2    1    2    0    0  0.33457553218E+02  0.16764542237E+02  0.15896809720E+02  0.50528852161E+02  0.29999976629E+02 0.  0.
        -12    1    1    2    0    0 -0.33457553218E+02 -0.16764542237E+02 -0.15896809720E+02  0.40659147839E+02  0.00000000000E+00 0.  1.
         11    1    3    3    0    0  0.89349914711E+01  0.30226905357E+01 -0.44864206518E+01  0.10445032369E+02  0.51100000000E-03 0. -1.
        -11    1    3    3    0    0  0.37459327997E+01 -0.18799344430E+01 -0.29724092213E+01  0.51382276020E+01  0.51100000000E-03 0.  1.
         12    1    3    3    0    0  0.20776628947E+02  0.15621786144E+02  0.23355639593E+02  0.34945592190E+02  0.00000000000E+00 0. -1.
</event>
<event>
 7    1  0.2974434E-011  0.5052886E+02  0.7816164E-02  0.1300439E+00
        -11   -1    0    0    0    0  0.00000000000E+00  0.00000000000E+00  0.45593999997E+02  0.45594000000E+02  0.51100000000E-03 0.  1.
         11   -1    0    0    0    0 -0.00000000000E+00 -0.00000000000E+00 -0.45593999997E+02  0.45594000000E+02  0.51100000000E-03 0. -1.
    9900012    2    1    2    0    0  0.48241887427E+01  0.38521882249E+02  0.12081285822E+02  0.50528859870E+02  0.30000000060E+02 0.  0.
        -12    1    1    2    0    0 -0.48241887427E+01 -0.38521882249E+02 -0.12081285822E+02  0.40659140130E+02  0.00000000000E+00 0.  1.
         11    1    3    3    0    0  0.45809302015E+01  0.25508527286E+02  0.11096356152E+02  0.28192179872E+02  0.51100000000E-03 0. -1.
        -11    1    3    3    0    0  0.36167300231E+01  0.15351799868E+02  0.50488881122E+01  0.16560488117E+02  0.51100000000E-03 0.  1.
        -12    1    3    3    0    0 -0.33734714819E+01 -0.23384449058E+01 -0.40639584424E+01  0.57761918803E+01  0.00000000000E+00 0.  1.
</event>
<event>
 7    1  0.2974434E-011  0.5052886E+02  0.7816164E-02  0.1300439E+00
        -11   -1    0    0    0    0  0.00000000000E+00  0.00000000000E+00  0.45593999997E+02  0.45594000000E+02  0.51100000000E-03 0. -1.
         11   -1    0    0    0    0 -0.00000000000E+00 -0.00000000000E+00 -0.45593999997E+02  0.45594000000E+02  0.51100000000E-03 0.  1.
    9900012    2    1    2    0    0 -0.18159499724E+02  0.26058089242E+02  0.25384532676E+02  0.50528856571E+02  0.29999990035E+02 0.  0.
        -12    1    1    2    0    0  0.18159499724E+02 -0.26058089242E+02 -0.25384532676E+02  0.40659143429E+02  0.00000000000E+00 0.  1.
         11    1    3    3    0    0  0.31897943283E+01  0.10060614997E+02  0.15341555529E+01  0.10665101758E+02  0.51100000000E-03 0. -1.
        -11    1    3    3    0    0 -0.41026034432E+01  0.45945017525E+01 -0.22578315209E+01  0.65603814526E+01  0.51100000000E-03 0.  1.
         12    1    3    3    0    0 -0.17246690610E+02  0.11402972492E+02  0.26108208644E+02  0.33303373361E+02  0.00000000000E+00 0. -1.
</event>
<event>
 7    1  0.2974434E-011  0.5052886E+02  0.7816164E-02  0.1300439E+00
        -11   -1    0    0    0    0  0.00000000000E+00  0.00000000000E+00  0.45593999997E+02  0.45594000000E+02  0.51100000000E-03 0.  1.
         11   -1    0    0    0    0 -0.00000000000E+00 -0.00000000000E+00 -0.45593999997E+02  0.45594000000E+02  0.51100000000E-03 0. -1.
    9900012    2    1    2    0    0 -0.13878808294E+02 -0.29917712546E+02 -0.23779712855E+02  0.50528860965E+02  0.30000003388E+02 0.  0.
        -12    1    1    2    0    0  0.13878808294E+02  0.29917712546E+02  0.23779712855E+02  0.40659139035E+02  0.00000000000E+00 0.  1.
         11    1    3    3    0    0 -0.62802722408E+01  0.43253176687E+01 -0.34465761630E+01  0.83683379391E+01  0.51100000000E-03 0. -1.
        -11    1    3    3    0    0 -0.70719919751E+00 -0.55356230825E+01 -0.88920396471E+01  0.10498172363E+02  0.51100000000E-03 0.  1.
        -12    1    3    3    0    0 -0.68913368559E+01 -0.28707407132E+02 -0.11441097045E+02  0.31662350663E+02  0.00000000000E+00 0.  1.
</event>
<event>
 7    1  0.2974434E-011  0.5052885E+02  0.7816164E-02  0.1300439E+00
        -11   -1    0    0    0    0  0.00000000000E+00  0.00000000000E+00  0.45593999997E+02  0.45594000000E+02  0.51100000000E-03 0. -1.
         11   -1    0    0    0    0 -0.00000000000E+00 -0.00000000000E+00 -0.45593999997E+02  0.45594000000E+02  0.51100000000E-03 0.  1.
    9900012    2    1    2    0    0  0.38047708987E+02  0.80598458699E+01  0.11856542817E+02  0.50528845039E+02  0.29999954980E+02 0.  0.
        -12    1    1    2    0    0 -0.38047708987E+02 -0.80598458699E+01 -0.11856542817E+02  0.40659154961E+02  0.00000000000E+00 0.  1.
         11    1    3    3    0    0  0.12558421307E+02  0.22469114668E+01  0.34968494853E+01  0.13228397992E+02  0.51100000000E-03 0. -1.
        -11    1    3    3    0    0  0.20574243718E+02 -0.63959230048E+01 -0.29714470909E+00  0.21547520296E+02  0.51100000000E-03 0.  1.
         12    1    3    3    0    0  0.49150439620E+01  0.12208857408E+02  0.86568380409E+01  0.15752926751E+02  0.00000000000E+00 0. -1.
</event>
<event>
 7    1  0.2974434E-011  0.5052886E+02  0.7816164E-02  0.1300439E+00
        -11   -1    0    0    0    0  0.00000000000E+00  0.00000000000E+00  0.45593999997E+02  0.45594000000E+02  0.51100000000E-03 0. -1.
         11   -1    0    0    0    0 -0.00000000000E+00 -0.00000000000E+00 -0.45593999997E+02  0.45594000000E+02  0.51100000000E-03 0.  1.
    9900012    2    1    2    0    0 -0.12817113906E+01  0.19000618379E+02  0.35923522466E+02  0.50528858971E+02  0.29999997328E+02 0.  0.
        -12    1    1    2    0    0  0.12817113906E+01 -0.19000618379E+02 -0.35923522466E+02  0.40659141029E+02  0.00000000000E+00 0.  1.
         11    1    3    3    0    0  0.84184903376E+01  0.75271064276E+01  0.42293234162E+01  0.12058834419E+02  0.51100000000E-03 0. -1.
        -11    1    3    3    0    0 -0.82746465160E+00  0.61203146047E+01  0.12375481593E+01  0.62987676825E+01  0.51100000000E-03 0.  1.
         12    1    3    3    0    0 -0.88727370766E+01  0.53531973462E+01  0.30456650891E+02  0.32171256869E+02  0.00000000000E+00 0. -1.
</event>
<event>
 7    1  0.2974434E-011  0.5052886E+02  0.7816164E-02  0.1300439E+00
        -11   -1    0    0    0    0  0.00000000000E+00  0.00000000000E+00  0.45593999997E+02  0.45594000000E+02  0.51100000000E-03 0.  1.
         11   -1    0    0    0    0 -0.00000000000E+00 -0.00000000000E+00 -0.45593999997E+02  0.45594000000E+02  0.51100000000E-03 0. -1.
    9900012    2    1    2    0    0 -0.21574954239E+02 -0.13000075209E+02 -0.31916849414E+02  0.50528857334E+02  0.29999992352E+02 0.  0.
        -12    1    1    2    0    0  0.21574954239E+02  0.13000075209E+02  0.31916849414E+02  0.40659142666E+02  0.00000000000E+00 0.  1.
         11    1    3    3    0    0 -0.50260255404E+00 -0.18727581966E+01  0.15433441476E+01  0.24782542261E+01  0.51100000000E-03 0.  1.
        -11    1    3    3    0    0 -0.97600420185E+00 -0.42075306465E+01 -0.24678359803E+02  0.25053489600E+02  0.51100000000E-03 0. -1.
         12    1    3    3    0    0 -0.20096347483E+02 -0.69197863656E+01 -0.87818337584E+01  0.22997113507E+02  0.00000000000E+00 0. -1.
</event>
<event>
 7    1  0.2974434E-011  0.5052886E+02  0.7816164E-02  0.1300439E+00
        -11   -1    0    0    0    0  0.00000000000E+00  0.00000000000E+00  0.45593999997E+02  0.45594000000E+02  0.51100000000E-03 0. -1.
         11   -1    0    0    0    0 -0.00000000000E+00 -0.00000000000E+00 -0.45593999997E+02  0.45594000000E+02  0.51100000000E-03 0.  1.
    9900012    2    1    2    0    0 -0.25787085080E+02 -0.29694325381E+02  0.10316932970E+02  0.50528858067E+02  0.29999994582E+02 0.  0.
        -12    1    1    2    0    0  0.25787085080E+02  0.29694325381E+02 -0.10316932970E+02  0.40659141933E+02  0.00000000000E+00 0.  1.
         11    1    3    3    0    0  0.62057266349E+00 -0.82568594725E+01  0.48856204190E+01  0.96140587641E+01  0.51100000000E-03 0. -1.
        -11    1    3    3    0    0  0.20889114265E+01  0.10281935116E+01  0.39649453044E+01  0.45979913411E+01  0.51100000000E-03 0.  1.
         12    1    3    3    0    0 -0.28496569170E+02 -0.22465659421E+02  0.14663672463E+01  0.36316807962E+02  0.00000000000E+00 0. -1.
</event>
<event>
 7    1  0.2974434E-011  0.5052887E+02  0.7816164E-02  0.1300439E+00
        -11   -1    0    0    0    0  0.00000000000E+00  0.00000000000E+00  0.45593999997E+02  0.45594000000E+02  0.51100000000E-03 0.  1.
         11   -1    0    0    0    0 -0.00000000000E+00 -0.00000000000E+00 -0.45593999997E+02  0.45594000000E+02  0.51100000000E-03 0. -1.
    9900012    2    1    2    0    0 -0.21582777470E+02 -0.15091877906E+02 -0.30977144783E+02  0.50528873584E+02  0.30000041746E+02 0.  0.
        -12    1    1    2    0    0  0.21582777470E+02  0.15091877906E+02  0.30977144783E+02  0.40659126416E+02  0.00000000000E+00 0.  1.
         11    1    3    3    0    0 -0.12810187013E+02 -0.87090630373E+01 -0.35900081275E+01  0.15900843654E+02  0.51100000000E-03 0.  1.
        -11    1    3    3    0    0  0.43774496711E+01  0.13590520834E+01 -0.12481116692E+02  0.13296140881E+02  0.51100000000E-03 0. -1.
         12    1    3    3    0    0 -0.13150040128E+02 -0.77418669518E+01 -0.14906019963E+02  0.21331889049E+02  0.00000000000E+00 0. -1.
</event>
<event>
 7    1  0.2974434E-011  0.5052879E+02  0.7816164E-02  0.1300439E+00
        -11   -1    0    0    0    0  0.00000000000E+00  0.00000000000E+00  0.45593999997E+02  0.45594000000E+02  0.51100000000E-03 0.  1.
         11   -1    0    0    0    0 -0.00000000000E+00 -0.00000000000E+00 -0.45593999997E+02  0.45594000000E+02  0.51100000000E-03 0. -1.
    9900012    2    1    2    0    0 -0.12575132040E+02  0.14612880612E+02 -0.35798056748E+02  0.50528793262E+02  0.29999797598E+02 0.  0.
        -12    1    1    2    0    0  0.12575132040E+02 -0.14612880612E+02  0.35798056748E+02  0.40659206738E+02  0.00000000000E+00 0.  1.
         11    1    3    3    0    0 -0.72228674993E+01  0.37786892874E+01 -0.13014170242E+02  0.15356332081E+02  0.51100000000E-03 0. -1.
        -11    1    3    3    0    0 -0.11297270219E+02  0.23622195512E+01 -0.21937259929E+02  0.24788137668E+02  0.51100000000E-03 0.  1.
        -12    1    3    3    0    0  0.59450056783E+01  0.84719717737E+01 -0.84662657756E+00  0.10384323512E+02  0.00000000000E+00 0.  1.
</event>
<event>
 7    1  0.2974434E-011  0.5052885E+02  0.7816164E-02  0.1300439E+00
        -11   -1    0    0    0    0  0.00000000000E+00  0.00000000000E+00  0.45593999997E+02  0.45594000000E+02  0.51100000000E-03 0. -1.
         11   -1    0    0    0    0 -0.00000000000E+00 -0.00000000000E+00 -0.45593999997E+02  0.45594000000E+02  0.51100000000E-03 0.  1.
    9900012    2    1    2    0    0 -0.31427545591E+01 -0.38981932692E+02  0.11121987377E+02  0.50528848683E+02  0.29999966056E+02 0.  0.
        -12    1    1    2    0    0  0.31427545591E+01  0.38981932692E+02 -0.11121987377E+02  0.40659151317E+02  0.00000000000E+00 0.  1.
         11    1    3    3    0    0  0.86794108979E+01 -0.17988578562E+02  0.77108658490E+01  0.21409777781E+02  0.51100000000E-03 0. -1.
        -11    1    3    3    0    0 -0.22535467663E+01 -0.81003401102E+01 -0.61635699764E+01  0.10425141632E+02  0.51100000000E-03 0.  1.
        -12    1    3    3    0    0 -0.95686186907E+01 -0.12893014020E+02  0.95746915042E+01  0.18693929270E+02  0.00000000000E+00 0.  1.
</event>
<event>
 7    1  0.2974434E-011  0.5052885E+02  0.7816164E-02  0.1300439E+00
        -11   -1    0    0    0    0  0.00000000000E+00  0.00000000000E+00  0.45593999997E+02  0.45594000000E+02  0.51100000000E-03 0. -1.
         11   -1    0    0    0    0 -0.00000000000E+00 -0.00000000000E+00 -0.45593999997E+02  0.45594000000E+02  0.51100000000E-03 0.  1.
    9900012    2    1    2    0    0 -0.23722682925E+02  0.26296552154E+02  0.19972290708E+02  0.50528846830E+02  0.29999960424E+02 0.  0.
        -12    1    1    2    0    0  0.23722682925E+02 -0.26296552154E+02 -0.19972290708E+02  0.40659153170E+02  0.00000000000E+00 0.  1.
         11    1    3    3    0    0 -0.15205998460E+02  0.18145898245E+02  0.14346194086E+02  0.27682292125E+02  0.51100000000E-03 0.  1.
        -11    1    3    3    0    0 -0.87471088758E+01  0.13312482046E+02  0.71491398762E+01  0.17459790753E+02  0.51100000000E-03 0. -1.
        -12    1    3    3    0    0  0.23042440991E+00 -0.51618281365E+01 -0.15230432541E+01  0.53867639519E+01  0.00000000000E+00 0.  1.
</event>
<event>
 7    1  0.2974434E-011  0.5052886E+02  0.7816164E-02  0.1300439E+00
        -11   -1    0    0    0    0  0.00000000000E+00  0.00000000000E+00  0.45593999997E+02  0.45594000000E+02  0.51100000000E-03 0.  1.
         11   -1    0    0    0    0 -0.00000000000E+00 -0.00000000000E+00 -0.45593999997E+02  0.45594000000E+02  0.51100000000E-03 0. -1.
    9900012    2    1    2    0    0  0.74492277399E+01 -0.35376490139E+02 -0.18605873741E+02  0.50528860977E+02  0.30000003424E+02 0.  0.
        -12    1    1    2    0    0 -0.74492277399E+01  0.35376490139E+02  0.18605873741E+02  0.40659139023E+02  0.00000000000E+00 0.  1.
         11    1    3    3    0    0  0.41182934446E+01  0.31325524824E+00 -0.29346423135E+01  0.50666157853E+01  0.51100000000E-03 0. -1.
        -11    1    3    3    0    0 -0.96109355438E+01 -0.10044291180E+02 -0.61292157754E+01  0.15192931041E+02  0.51100000000E-03 0.  1.
         12    1    3    3    0    0  0.12941869839E+02 -0.25645454207E+02 -0.95420156519E+01  0.30269314150E+02  0.00000000000E+00 0. -1.
</event>
<event>
 7    1  0.2974434E-011  0.5052886E+02  0.7816164E-02  0.1300439E+00
        -11   -1    0    0    0    0  0.00000000000E+00  0.00000000000E+00  0.45593999997E+02  0.45594000000E+02  0.51100000000E-03 0. -1.
         11   -1    0    0    0    0 -0.00000000000E+00 -0.00000000000E+00 -0.45593999997E+02  0.45594000000E+02  0.51100000000E-03 0.  1.
    9900012    2    1    2    0    0 -0.15894238416E+02 -0.23563607927E+02  0.29073960788E+02  0.50528860446E+02  0.30000001812E+02 0.  0.
        -12    1    1    2    0    0  0.15894238416E+02  0.23563607927E+02 -0.29073960788E+02  0.40659139554E+02  0.00000000000E+00 0.  1.
         11    1    3    3    0    0 -0.50837196424E+01 -0.24464070125E+01  0.35827608636E+01  0.66832094341E+01  0.51100000000E-03 0. -1.
        -11    1    3    3    0    0 -0.17969959136E+01  0.63437605131E+01  0.65232562180E+01  0.92749859142E+01  0.51100000000E-03 0.  1.
         12    1    3    3    0    0 -0.90135228602E+01 -0.27460961428E+02  0.18967943706E+02  0.34570665098E+02  0.00000000000E+00 0. -1.
</event>
<event>
 7    1  0.2974434E-011  0.5052886E+02  0.7816164E-02  0.1300439E+00
        -11   -1    0    0    0    0  0.00000000000E+00  0.00000000000E+00  0.45593999997E+02  0.45594000000E+02  0.51100000000E-03 0.  1.
         11   -1    0    0    0    0 -0.00000000000E+00 -0.00000000000E+00 -0.45593999997E+02  0.45594000000E+02  0.51100000000E-03 0. -1.
    9900012    2    1    2    0    0 -0.76751606307E+01  0.22234651142E+02 -0.33164411590E+02  0.50528855909E+02  0.29999988020E+02 0.  0.
        -12    1    1    2    0    0  0.76751606307E+01 -0.22234651142E+02  0.33164411590E+02  0.40659144091E+02  0.00000000000E+00 0.  1.
         11    1    3    3    0    0 -0.95707168619E+00  0.10697032114E+02  0.13494780922E+01  0.10824212380E+02  0.51100000000E-03 0. -1.
        -11    1    3    3    0    0 -0.62695131443E+01 -0.61231982268E+00 -0.59683828430E+01  0.86777488241E+01  0.51100000000E-03 0.  1.
        -12    1    3    3    0    0 -0.44857580022E+00  0.12149938850E+02 -0.28545506839E+02  0.31026894705E+02  0.00000000000E+00 0.  1.
</event>
<event>
 7    1  0.2974434E-011  0.5052886E+02  0.7816164E-02  0.1300439E+00
        -11   -1    0    0    0    0  0.00000000000E+00  0.00000000000E+00  0.45593999997E+02  0.45594000000E+02  0.51100000000E-03 0.  1.
         11   -1    0    0    0    0 -0.00000000000E+00 -0.00000000000E+00 -0.45593999997E+02  0.45594000000E+02  0.51100000000E-03 0. -1.
    9900012    2    1    2    0    0 -0.49393736718E+01 -0.38797370270E+01 -0.40171086499E+02  0.50528856352E+02  0.29999989368E+02 0.  0.
        -12    1    1    2    0    0  0.49393736718E+01  0.38797370270E+01  0.40171086499E+02  0.40659143648E+02  0.00000000000E+00 0.  1.
         11    1    3    3    0    0  0.28960806824E+01  0.38097417542E+01 -0.17772939599E+01  0.51049181809E+01  0.51100000000E-03 0. -1.
        -11    1    3    3    0    0 -0.14317421277E+02 -0.34857632794E+01 -0.16080633012E+02  0.21811140639E+02  0.51100000000E-03 0.  1.
         12    1    3    3    0    0  0.64819669227E+01 -0.42037155019E+01 -0.22313159527E+02  0.23612797532E+02  0.00000000000E+00 0. -1.
</event>
<event>
 7    1  0.2974434E-011  0.5052880E+02  0.7816164E-02  0.1300439E+00
        -11   -1    0    0    0    0  0.00000000000E+00  0.00000000000E+00  0.45593999997E+02  0.45594000000E+02  0.51100000000E-03 0.  1.
         11   -1    0    0    0    0 -0.00000000000E+00 -0.00000000000E+00 -0.45593999997E+02  0.45594000000E+02  0.51100000000E-03 0. -1.
    9900012    2    1    2    0    0  0.28678993210E+02  0.84793586705E+01 -0.27546079215E+02  0.50528798641E+02  0.29999813950E+02 0.  0.
        -12    1    1    2    0    0 -0.28678993210E+02 -0.84793586705E+01  0.27546079215E+02  0.40659201359E+02  0.00000000000E+00 0.  1.
         11    1    3    3    0    0  0.13881295191E+01  0.93327650755E+01 -0.30175141487E+01  0.99062000492E+01  0.51100000000E-03 0. -1.
        -11    1    3    3    0    0  0.12827653912E+02  0.80661058054E+01 -0.91292684417E+01  0.17690514698E+02  0.51100000000E-03 0.  1.
        -12    1    3    3    0    0  0.14463209779E+02 -0.89195122104E+01 -0.15399296624E+02  0.22932083894E+02  0.00000000000E+00 0.  1.
</event>
<event>
 7    1  0.2974434E-011  0.5052886E+02  0.7816164E-02  0.1300439E+00
        -11   -1    0    0    0    0  0.00000000000E+00  0.00000000000E+00  0.45593999997E+02  0.45594000000E+02  0.51100000000E-03 0. -1.
         11   -1    0    0    0    0 -0.00000000000E+00 -0.00000000000E+00 -0.45593999997E+02  0.45594000000E+02  0.51100000000E-03 0.  1.
    9900012    2    1    2    0    0 -0.10295995233E+02 -0.39134103139E+02  0.39598445962E+01  0.50528856925E+02  0.29999991110E+02 0.  0.
        -12    1    1    2    0    0  0.10295995233E+02  0.39134103139E+02 -0.39598445962E+01  0.40659143075E+02  0.00000000000E+00 0.  1.
         11    1    3    3    0    0  0.12317671766E+01 -0.14378633438E+02 -0.96731623484E+01  0.17373324955E+02  0.51100000000E-03 0. -1.
        -11    1    3    3    0    0  0.10961771282E+01 -0.35727751432E+01 -0.17132160762E+01  0.41111356223E+01  0.51100000000E-03 0.  1.
        -12    1    3    3    0    0 -0.12623939538E+02 -0.21182694559E+02  0.15346223021E+02  0.29044396348E+02  0.00000000000E+00 0.  1.
</event>
<event>
 7    1  0.2974434E-011  0.5052885E+02  0.7816164E-02  0.1300439E+00
        -11   -1    0    0    0    0  0.00000000000E+00  0.00000000000E+00  0.45593999997E+02  0.45594000000E+02  0.51100000000E-03 0.  1.
         11   -1    0    0    0    0 -0.00000000000E+00 -0.00000000000E+00 -0.45593999997E+02  0.45594000000E+02  0.51100000000E-03 0. -1.
    9900012    2    1    2    0    0 -0.27912008218E+02 -0.29556858339E+02 -0.69173364859E+00  0.50528848840E+02  0.29999966534E+02 0.  0.
        -12    1    1    2    0    0  0.27912008218E+02  0.29556858339E+02  0.69173364859E+00  0.40659151160E+02  0.00000000000E+00 0.  1.
         11    1    3    3    0    0 -0.86732498455E+01 -0.19165508375E+00  0.33362787883E+01  0.92947700869E+01  0.51100000000E-03 0. -1.
        -11    1    3    3    0    0 -0.14937086733E+02 -0.29128750168E+02  0.31247294864E+01  0.32884108335E+02  0.51100000000E-03 0.  1.
         12    1    3    3    0    0 -0.43016716393E+01 -0.23645308763E+00 -0.71527419232E+01  0.83499704176E+01  0.00000000000E+00 0. -1.
</event>
<event>
 7    1  0.2974434E-011  0.5052886E+02  0.7816164E-02  0.1300439E+00
        -11   -1    0    0    0    0  0.00000000000E+00  0.00000000000E+00  0.45593999997E+02  0.45594000000E+02  0.51100000000E-03 0.  1.
         11   -1    0    0    0    0 -0.00000000000E+00 -0.00000000000E+00 -0.45593999997E+02  0.45594000000E+02  0.51100000000E-03 0. -1.
    9900012    2    1    2    0    0 -0.27888280513E+02  0.13571346137E+02 -0.26291209275E+02  0.50528864359E+02  0.30000013705E+02 0.  0.
        -12    1    1    2    0    0  0.27888280513E+02 -0.13571346137E+02  0.26291209275E+02  0.40659135641E+02  0.00000000000E+00 0.  1.
         11    1    3    3    0    0 -0.35484871147E+01  0.81641461270E+01 -0.17387427615E+02  0.19533757501E+02  0.51100000000E-03 0. -1.
        -11    1    3    3    0    0 -0.16030915305E+02  0.90302173228E+01 -0.11334643470E+02  0.21610395954E+02  0.51100000000E-03 0.  1.
        -12    1    3    3    0    0 -0.83088780935E+01 -0.36230173131E+01  0.24308618094E+01  0.93847109045E+01  0.00000000000E+00 0.  1.
</event>
<event>
 7    1  0.2974434E-011  0.5052887E+02  0.7816164E-02  0.1300439E+00
        -11   -1    0    0    0    0  0.00000000000E+00  0.00000000000E+00  0.45593999997E+02  0.45594000000E+02  0.51100000000E-03 0. -1.
         11   -1    0    0    0    0 -0.00000000000E+00 -0.00000000000E+00 -0.45593999997E+02  0.45594000000E+02  0.51100000000E-03 0.  1.
    9900012    2    1    2    0    0  0.11857483306E+02  0.85901022398E+01  0.37931186229E+02  0.50528872420E+02  0.30000038207E+02 0.  0.
        -12    1    1    2    0    0 -0.11857483306E+02 -0.85901022398E+01 -0.37931186229E+02  0.40659127580E+02  0.00000000000E+00 0.  1.
         11    1    3    3    0    0  0.29012767079E+00 -0.21682133694E+01 -0.18699624256E+01  0.28778608400E+01  0.51100000000E-03 0.  1.
        -11    1    3    3    0    0  0.59356731810E+01  0.15372021272E+02  0.35641125903E+02  0.39266029975E+02  0.51100000000E-03 0. -1.
         12    1    3    3    0    0  0.56316824547E+01 -0.46137056630E+01  0.41600227516E+01  0.83849816045E+01  0.00000000000E+00 0. -1.
</event>
<event>
 7    1  0.2974434E-011  0.5052886E+02  0.7816164E-02  0.1300439E+00
        -11   -1    0    0    0    0  0.00000000000E+00  0.00000000000E+00  0.45593999997E+02  0.45594000000E+02  0.51100000000E-03 0.  1.
         11   -1    0    0    0    0 -0.00000000000E+00 -0.00000000000E+00 -0.45593999997E+02  0.45594000000E+02  0.51100000000E-03 0. -1.
    9900012    2    1    2    0    0 -0.26526015801E+02  0.26669433458E+02 -0.15436239970E+02  0.50528859580E+02  0.29999999179E+02 0.  0.
        -12    1    1    2    0    0  0.26526015801E+02 -0.26669433458E+02  0.15436239970E+02  0.40659140420E+02  0.00000000000E+00 0.  1.
         11    1    3    3    0    0 -0.54709279099E+01 -0.81057991882E+00 -0.93281633453E+01  0.10844478948E+02  0.51100000000E-03 0. -1.
        -11    1    3    3    0    0 -0.13256141082E+02  0.56096914648E+01 -0.78576529882E+01  0.16399287346E+02  0.51100000000E-03 0.  1.
         12    1    3    3    0    0 -0.77989468093E+01  0.21870321912E+02  0.17495763630E+01  0.23285093286E+02  0.00000000000E+00 0. -1.
</event>
<event>
 7    1  0.2974434E-011  0.5052886E+02  0.7816164E-02  0.1300439E+00
        -11   -1    0    0    0    0  0.00000000000E+00  0.00000000000E+00  0.45593999997E+02  0.45594000000E+02  0.51100000000E-03 0.  1.
         11   -1    0    0    0    0 -0.00000000000E+00 -0.00000000000E+00 -0.45593999997E+02  0.45594000000E+02  0.51100000000E-03 0. -1.
    9900012    2    1    2    0    0 -0.22709721817E+00 -0.36034102720E+02 -0.18832343052E+02  0.50528864781E+02  0.30000014987E+02 0.  0.
        -12    1    1    2    0    0  0.22709721817E+00  0.36034102720E+02  0.18832343052E+02  0.40659135219E+02  0.00000000000E+00 0.  1.
         11    1    3    3    0    0 -0.41192204067E+01 -0.99659615885E+01 -0.12310578448E+01  0.10853749160E+02  0.51100000000E-03 0. -1.
        -11    1    3    3    0    0  0.45362435200E+01 -0.11041074195E+02  0.46557444480E+01  0.12812446342E+02  0.51100000000E-03 0.  1.
         12    1    3    3    0    0 -0.64412033150E+00 -0.15027066936E+02 -0.22257029655E+02  0.26862669279E+02  0.00000000000E+00 0. -1.
</event>
<event>
 7    1  0.2974434E-011  0.5052886E+02  0.7816164E-02  0.1300439E+00
        -11   -1    0    0    0    0  0.00000000000E+00  0.00000000000E+00  0.45593999997E+02  0.45594000000E+02  0.51100000000E-03 0.  1.
         11   -1    0    0    0    0 -0.00000000000E+00 -0.00000000000E+00 -0.45593999997E+02  0.45594000000E+02  0.51100000000E-03 0. -1.
    9900012    2    1    2    0    0  0.28611297277E+02  0.23104126143E+02 -0.17342392105E+02  0.50528861536E+02  0.30000005124E+02 0.  0.
        -12    1    1    2    0    0 -0.28611297277E+02 -0.23104126143E+02  0.17342392105E+02  0.40659138464E+02  0.00000000000E+00 0.  1.
         11    1    3    3    0    0 -0.34247325160E+01  0.24608790099E+01 -0.51478621964E+01  0.66547128985E+01  0.51100000000E-03 0. -1.
        -11    1    3    3    0    0  0.17379013079E+01  0.84116738354E+01  0.97804519402E+00  0.86448325798E+01  0.51100000000E-03 0.  1.
         12    1    3    3    0    0  0.30298128485E+02  0.12231573298E+02 -0.13172575103E+02  0.35229316058E+02  0.00000000000E+00 0. -1.
</event>
<event>
 7    1  0.2974434E-011  0.5052888E+02  0.7816164E-02  0.1300439E+00
        -11   -1    0    0    0    0  0.00000000000E+00  0.00000000000E+00  0.45593999997E+02  0.45594000000E+02  0.51100000000E-03 0.  1.
         11   -1    0    0    0    0 -0.00000000000E+00 -0.00000000000E+00 -0.45593999997E+02  0.45594000000E+02  0.51100000000E-03 0. -1.
    9900012    2    1    2    0    0  0.34481860167E+02  0.12631546903E+02 -0.17453068758E+02  0.50528877201E+02  0.30000052740E+02 0.  0.
        -12    1    1    2    0    0 -0.34481860167E+02 -0.12631546903E+02  0.17453068758E+02  0.40659122799E+02  0.00000000000E+00 0.  1.
         11    1    3    3    0    0  0.67263574022E+01  0.73765227569E+01 -0.11780285408E+01  0.10052100447E+02  0.51100000000E-03 0. -1.
        -11    1    3    3    0    0  0.13818692391E+01  0.30282073453E+00  0.56498757766E+01  0.58242904755E+01  0.51100000000E-03 0.  1.
         12    1    3    3    0    0  0.26373633525E+02  0.49522034118E+01 -0.21924915994E+02  0.34652486279E+02  0.00000000000E+00 0. -1.
</event>
<event>
 7    1  0.2974434E-011  0.5052886E+02  0.7816164E-02  0.1300439E+00
        -11   -1    0    0    0    0  0.00000000000E+00  0.00000000000E+00  0.45593999997E+02  0.45594000000E+02  0.51100000000E-03 0. -1.
         11   -1    0    0    0    0 -0.00000000000E+00 -0.00000000000E+00 -0.45593999997E+02  0.45594000000E+02  0.51100000000E-03 0.  1.
    9900012    2    1    2    0    0 -0.38433131821E+02 -0.11471272413E+02  0.66685542561E+01  0.50528864148E+02  0.30000013065E+02 0.  0.
        -12    1    1    2    0    0  0.38433131821E+02  0.11471272413E+02 -0.66685542561E+01  0.40659135852E+02  0.00000000000E+00 0.  1.
         11    1    3    3    0    0 -0.23216785945E+02  0.82978016153E+00  0.27843301872E+01  0.23397866988E+02  0.51100000000E-03 0. -1.
        -11    1    3    3    0    0 -0.88493963699E+01  0.19832162957E+01 -0.36449252971E+01  0.97739676524E+01  0.51100000000E-03 0.  1.
         12    1    3    3    0    0 -0.63669495064E+01 -0.14284268870E+02  0.75291493659E+01  0.17357029508E+02  0.00000000000E+00 0. -1.
</event>
<event>
 7    1  0.2974434E-011  0.5052885E+02  0.7816164E-02  0.1300439E+00
        -11   -1    0    0    0    0  0.00000000000E+00  0.00000000000E+00  0.45593999997E+02  0.45594000000E+02  0.51100000000E-03 0. -1.
         11   -1    0    0    0    0 -0.00000000000E+00 -0.00000000000E+00 -0.45593999997E+02  0.45594000000E+02  0.51100000000E-03 0.  1.
    9900012    2    1    2    0    0 -0.89066659564E+01  0.47351589352E+01  0.39388014342E+02  0.50528854628E+02  0.29999984126E+02 0.  0.
        -12    1    1    2    0    0  0.89066659564E+01 -0.47351589352E+01 -0.39388014342E+02  0.40659145372E+02  0.00000000000E+00 0.  1.
         11    1    3    3    0    0 -0.14811990776E+01 -0.44212723168E+01  0.68578562007E+01  0.82928759510E+01  0.51100000000E-03 0.  1.
        -11    1    3    3    0    0 -0.10016671119E+02  0.13758527024E+02  0.11468233996E+02  0.20521967679E+02  0.51100000000E-03 0. -1.
         12    1    3    3    0    0  0.25912042402E+01 -0.46020957718E+01  0.21061924145E+02  0.21714010998E+02  0.00000000000E+00 0. -1.
</event>
<event>
 7    1  0.2974434E-011  0.5052886E+02  0.7816164E-02  0.1300439E+00
        -11   -1    0    0    0    0  0.00000000000E+00  0.00000000000E+00  0.45593999997E+02  0.45594000000E+02  0.51100000000E-03 0. -1.
         11   -1    0    0    0    0 -0.00000000000E+00 -0.00000000000E+00 -0.45593999997E+02  0.45594000000E+02  0.51100000000E-03 0.  1.
    9900012    2    1    2    0    0 -0.32123707485E+02 -0.47038367574E+01  0.24476658170E+02  0.50528862553E+02  0.30000008215E+02 0.  0.
        -12    1    1    2    0    0  0.32123707485E+02  0.47038367574E+01 -0.24476658170E+02  0.40659137447E+02  0.00000000000E+00 0.  1.
         11    1    3    3    0    0 -0.66586012188E+00  0.21071365649E+01  0.40135629098E+01  0.45817116558E+01  0.51100000000E-03 0. -1.
        -11    1    3    3    0    0 -0.11345614783E+02 -0.11647759875E+02 -0.80293815280E+00  0.16279987557E+02  0.51100000000E-03 0.  1.
         12    1    3    3    0    0 -0.20112232580E+02  0.48367865531E+01  0.21266033413E+02  0.29667163340E+02  0.00000000000E+00 0. -1.
</event>
<event>
 7    1  0.2974434E-011  0.5052885E+02  0.7816164E-02  0.1300439E+00
        -11   -1    0    0    0    0  0.00000000000E+00  0.00000000000E+00  0.45593999997E+02  0.45594000000E+02  0.51100000000E-03 0. -1.
         11   -1    0    0    0    0 -0.00000000000E+00 -0.00000000000E+00 -0.45593999997E+02  0.45594000000E+02  0.51100000000E-03 0.  1.
    9900012    2    1    2    0    0 -0.26076957226E+02 -0.45480898522E+01 -0.30862165848E+02  0.50528854654E+02  0.29999984206E+02 0.  0.
        -12    1    1    2    0    0  0.26076957226E+02  0.45480898522E+01  0.30862165848E+02  0.40659145346E+02  0.00000000000E+00 0.  1.
         11    1    3    3    0    0 -0.54951183220E+01  0.56578869501E+01 -0.21604457804E+01  0.81777464098E+01  0.51100000000E-03 0. -1.
        -11    1    3    3    0    0 -0.12441833246E+02  0.46970083008E+01 -0.77879555496E+01  0.15411468243E+02  0.51100000000E-03 0.  1.
         12    1    3    3    0    0 -0.81400056583E+01 -0.14902985103E+02 -0.20913764518E+02  0.26939640001E+02  0.00000000000E+00 0. -1.
</event>
<event>
 7    1  0.2974434E-011  0.5052888E+02  0.7816164E-02  0.1300439E+00
        -11   -1    0    0    0    0  0.00000000000E+00  0.00000000000E+00  0.45593999997E+02  0.45594000000E+02  0.51100000000E-03 0.  1.
         11   -1    0    0    0    0 -0.00000000000E+00 -0.00000000000E+00 -0.45593999997E+02  0.45594000000E+02  0.51100000000E-03 0. -1.
    9900012    2    1    2    0    0 -0.35940812081E+02 -0.71535285276E+01 -0.17613884282E+02  0.50528882167E+02  0.30000067834E+02 0.  0.
        -12    1    1    2    0    0  0.35940812081E+02  0.71535285276E+01  0.17613884282E+02  0.40659117833E+02  0.00000000000E+00 0.  1.
         11    1    3    3    0    0 -0.66446873680E+00  0.35125886122E+01 -0.64201653446E+01  0.73483549706E+01  0.51100000000E-03 0.  1.
        -11    1    3    3    0    0 -0.87162001840E+01 -0.46685850444E+01 -0.12478835377E+02  0.15921343052E+02  0.51100000000E-03 0. -1.
        -12    1    3    3    0    0 -0.26560143161E+02 -0.59975320955E+01  0.12851164391E+01  0.27259184144E+02  0.00000000000E+00 0.  1.
</event>
<event>
 7    1  0.2974434E-011  0.5052886E+02  0.7816164E-02  0.1300439E+00
        -11   -1    0    0    0    0  0.00000000000E+00  0.00000000000E+00  0.45593999997E+02  0.45594000000E+02  0.51100000000E-03 0.  1.
         11   -1    0    0    0    0 -0.00000000000E+00 -0.00000000000E+00 -0.45593999997E+02  0.45594000000E+02  0.51100000000E-03 0. -1.
    9900012    2    1    2    0    0  0.77119089778E+00 -0.37330659344E+02  0.16093263002E+02  0.50528856176E+02  0.29999988832E+02 0.  0.
        -12    1    1    2    0    0 -0.77119089778E+00  0.37330659344E+02 -0.16093263002E+02  0.40659143824E+02  0.00000000000E+00 0.  1.
         11    1    3    3    0    0  0.96017039791E+01 -0.21727600668E+02  0.59084643201E+01  0.24478384362E+02  0.51100000000E-03 0. -1.
        -11    1    3    3    0    0 -0.30863052698E+01 -0.15851022585E+02  0.11889593996E+02  0.20053494530E+02  0.51100000000E-03 0.  1.
        -12    1    3    3    0    0 -0.57442078115E+01  0.24796390859E+00 -0.17047953139E+01  0.59969772840E+01  0.00000000000E+00 0.  1.
</event>
<event>
 7    1  0.2974434E-011  0.5052878E+02  0.7816164E-02  0.1300439E+00
        -11   -1    0    0    0    0  0.00000000000E+00  0.00000000000E+00  0.45593999997E+02  0.45594000000E+02  0.51100000000E-03 0.  1.
         11   -1    0    0    0    0 -0.00000000000E+00 -0.00000000000E+00 -0.45593999997E+02  0.45594000000E+02  0.51100000000E-03 0. -1.
    9900012    2    1    2    0    0  0.66103077155E+01  0.62938325627E+01 -0.39621508857E+02  0.50528776440E+02  0.29999746466E+02 0.  0.
        -12    1    1    2    0    0 -0.66103077155E+01 -0.62938325627E+01  0.39621508857E+02  0.40659223560E+02  0.00000000000E+00 0.  1.
         11    1    3    3    0    0 -0.99250638530E+01 -0.97879941136E+00 -0.10003362189E+02  0.14125586576E+02  0.51100000000E-03 0. -1.
        -11    1    3    3    0    0  0.73837788409E+01  0.43699488510E+01 -0.23503161052E+02  0.25020296214E+02  0.51100000000E-03 0.  1.
        -12    1    3    3    0    0  0.91515927275E+01  0.29026831231E+01 -0.61149856154E+01  0.11382893650E+02  0.00000000000E+00 0.  1.
</event>
<event>
 7    1  0.2974434E-011  0.5052882E+02  0.7816164E-02  0.1300439E+00
        -11   -1    0    0    0    0  0.00000000000E+00  0.00000000000E+00  0.45593999997E+02  0.45594000000E+02  0.51100000000E-03 0.  1.
         11   -1    0    0    0    0 -0.00000000000E+00 -0.00000000000E+00 -0.45593999997E+02  0.45594000000E+02  0.51100000000E-03 0. -1.
    9900012    2    1    2    0    0  0.27340281869E+02 -0.30054703245E+02 -0.15467304528E+01  0.50528824223E+02  0.29999891707E+02 0.  0.
        -12    1    1    2    0    0 -0.27340281869E+02  0.30054703245E+02  0.15467304528E+01  0.40659175777E+02  0.00000000000E+00 0.  1.
         11    1    3    3    0    0  0.83538404838E+01 -0.27863546327E+02  0.61912722172E+01  0.29740472704E+02  0.51100000000E-03 0. -1.
        -11    1    3    3    0    0  0.10816134161E+01  0.30267775730E+00  0.26257415102E-02  0.11231689821E+01  0.51100000000E-03 0.  1.
         12    1    3    3    0    0  0.17904827969E+02 -0.24938346754E+01 -0.77406284115E+01  0.19665182536E+02  0.00000000000E+00 0. -1.
</event>
<event>
 7    1  0.2974434E-011  0.5052885E+02  0.7816164E-02  0.1300439E+00
        -11   -1    0    0    0    0  0.00000000000E+00  0.00000000000E+00  0.45593999997E+02  0.45594000000E+02  0.51100000000E-03 0. -1.
         11   -1    0    0    0    0 -0.00000000000E+00 -0.00000000000E+00 -0.45593999997E+02  0.45594000000E+02  0.51100000000E-03 0.  1.
    9900012    2    1    2    0    0  0.55690970236E+01 -0.27003413531E+02  0.29882552217E+02  0.50528854522E+02  0.29999983805E+02 0.  0.
        -12    1    1    2    0    0 -0.55690970236E+01  0.27003413531E+02 -0.29882552217E+02  0.40659145478E+02  0.00000000000E+00 0.  1.
         11    1    3    3    0    0  0.49236432749E+00 -0.67380580274E+01  0.15761052019E+01  0.69374315478E+01  0.51100000000E-03 0. -1.
        -11    1    3    3    0    0 -0.77280840477E+01 -0.14730366343E+02  0.68299883686E+01  0.17982094345E+02  0.51100000000E-03 0.  1.
        -12    1    3    3    0    0  0.12804816744E+02 -0.55349891606E+01  0.21476458647E+02  0.25609328630E+02  0.00000000000E+00 0.  1.
</event>
<event>
 7    1  0.2974434E-011  0.5052886E+02  0.7816164E-02  0.1300439E+00
        -11   -1    0    0    0    0  0.00000000000E+00  0.00000000000E+00  0.45593999997E+02  0.45594000000E+02  0.51100000000E-03 0.  1.
         11   -1    0    0    0    0 -0.00000000000E+00 -0.00000000000E+00 -0.45593999997E+02  0.45594000000E+02  0.51100000000E-03 0. -1.
    9900012    2    1    2    0    0 -0.36866631771E+02  0.12403243525E+02  0.11839622739E+02  0.50528860133E+02  0.30000000862E+02 0.  0.
        -12    1    1    2    0    0  0.36866631771E+02 -0.12403243525E+02 -0.11839622739E+02  0.40659139867E+02  0.00000000000E+00 0.  1.
         11    1    3    3    0    0 -0.41627115753E+01  0.13211219027E+02  0.42702682650E+01  0.14494815182E+02  0.51100000000E-03 0. -1.
        -11    1    3    3    0    0 -0.13947856160E+01 -0.77138604425E+00  0.42624813067E+01  0.45507373573E+01  0.51100000000E-03 0.  1.
         12    1    3    3    0    0 -0.31309134580E+02 -0.36589457888E-01  0.33068731673E+01  0.31483307594E+02  0.00000000000E+00 0. -1.
</event>
<event>
 7    1  0.2974434E-011  0.5052886E+02  0.7816164E-02  0.1300439E+00
        -11   -1    0    0    0    0  0.00000000000E+00  0.00000000000E+00  0.45593999997E+02  0.45594000000E+02  0.51100000000E-03 0.  1.
         11   -1    0    0    0    0 -0.00000000000E+00 -0.00000000000E+00 -0.45593999997E+02  0.45594000000E+02  0.51100000000E-03 0. -1.
    9900012    2    1    2    0    0  0.27414767888E+02 -0.20097186145E+02 -0.22309175826E+02  0.50528859387E+02  0.29999998593E+02 0.  0.
        -12    1    1    2    0    0 -0.27414767888E+02  0.20097186145E+02  0.22309175826E+02  0.40659140613E+02  0.00000000000E+00 0.  1.
         11    1    3    3    0    0  0.15010581604E+02 -0.10391211634E+02 -0.80235085332E+00  0.18273987153E+02  0.51100000000E-03 0. -1.
        -11    1    3    3    0    0 -0.33094081304E+01  0.11322633570E+01  0.10352413408E-02  0.34977426744E+01  0.51100000000E-03 0.  1.
         12    1    3    3    0    0  0.15713594414E+02 -0.10838237868E+02 -0.21507860214E+02  0.28757129560E+02  0.00000000000E+00 0. -1.
</event>
<event>
 7    1  0.2974434E-011  0.5052884E+02  0.7816164E-02  0.1300439E+00
        -11   -1    0    0    0    0  0.00000000000E+00  0.00000000000E+00  0.45593999997E+02  0.45594000000E+02  0.51100000000E-03 0. -1.
         11   -1    0    0    0    0 -0.00000000000E+00 -0.00000000000E+00 -0.45593999997E+02  0.45594000000E+02  0.51100000000E-03 0.  1.
    9900012    2    1    2    0    0  0.38122400803E+02 -0.65883898497E+01  0.12507700901E+02  0.50528844750E+02  0.29999954101E+02 0.  0.
        -12    1    1    2    0    0 -0.38122400803E+02  0.65883898497E+01 -0.12507700901E+02  0.40659155250E+02  0.00000000000E+00 0.  1.
         11    1    3    3    0    0  0.24239410279E+01 -0.11009183840E+01  0.44347636869E+01  0.51724888221E+01  0.51100000000E-03 0. -1.
        -11    1    3    3    0    0  0.70559166452E+01  0.48249185168E+01  0.11924003440E+02  0.14671320891E+02  0.51100000000E-03 0.  1.
         12    1    3    3    0    0  0.28642543130E+02 -0.10312389982E+02 -0.38510662256E+01  0.30685035037E+02  0.00000000000E+00 0. -1.
</event>
<event>
 7    1  0.2974434E-011  0.5052886E+02  0.7816164E-02  0.1300439E+00
        -11   -1    0    0    0    0  0.00000000000E+00  0.00000000000E+00  0.45593999997E+02  0.45594000000E+02  0.51100000000E-03 0.  1.
         11   -1    0    0    0    0 -0.00000000000E+00 -0.00000000000E+00 -0.45593999997E+02  0.45594000000E+02  0.51100000000E-03 0. -1.
    9900012    2    1    2    0    0 -0.94749411518E+01 -0.14775412907E+02 -0.36675311630E+02  0.50528858106E+02  0.29999994699E+02 0.  0.
        -12    1    1    2    0    0  0.94749411518E+01  0.14775412907E+02  0.36675311630E+02  0.40659141894E+02  0.00000000000E+00 0.  1.
         11    1    3    3    0    0  0.86792660401E+00  0.47365293603E+01 -0.59764207850E+01  0.76749991943E+01  0.51100000000E-03 0.  1.
        -11    1    3    3    0    0 -0.18632578473E+01 -0.12146421635E+02 -0.28997528486E+02  0.31493871576E+02  0.51100000000E-03 0. -1.
         12    1    3    3    0    0 -0.84796099085E+01 -0.73655206321E+01 -0.17013623595E+01  0.11359987335E+02  0.00000000000E+00 0. -1.
</event>
<event>
 7    1  0.2974434E-011  0.5052886E+02  0.7816164E-02  0.1300439E+00
        -11   -1    0    0    0    0  0.00000000000E+00  0.00000000000E+00  0.45593999997E+02  0.45594000000E+02  0.51100000000E-03 0.  1.
         11   -1    0    0    0    0 -0.00000000000E+00 -0.00000000000E+00 -0.45593999997E+02  0.45594000000E+02  0.51100000000E-03 0. -1.
    9900012    2    1    2    0    0 -0.27634950485E+02  0.26397068040E+02 -0.13880569253E+02  0.50528857212E+02  0.29999991983E+02 0.  0.
        -12    1    1    2    0    0  0.27634950485E+02 -0.26397068040E+02  0.13880569253E+02  0.40659142788E+02  0.00000000000E+00 0.  1.
         11    1    3    3    0    0 -0.16194189465E+01  0.18672990706E+01 -0.10073468133E+02  0.10372274776E+02  0.51100000000E-03 0. -1.
        -11    1    3    3    0    0 -0.24358851234E+02  0.13424415007E+02  0.12519157881E+01  0.27841261557E+02  0.51100000000E-03 0.  1.
         12    1    3    3    0    0 -0.16566803050E+01  0.11105353963E+02 -0.50590169079E+01  0.12315320879E+02  0.00000000000E+00 0. -1.
</event>
<event>
 7    1  0.2974434E-011  0.5052886E+02  0.7816164E-02  0.1300439E+00
        -11   -1    0    0    0    0  0.00000000000E+00  0.00000000000E+00  0.45593999997E+02  0.45594000000E+02  0.51100000000E-03 0.  1.
         11   -1    0    0    0    0 -0.00000000000E+00 -0.00000000000E+00 -0.45593999997E+02  0.45594000000E+02  0.51100000000E-03 0. -1.
    9900012    2    1    2    0    0 -0.12030582120E+02  0.15661878584E+02 -0.35540629625E+02  0.50528859563E+02  0.29999999127E+02 0.  0.
        -12    1    1    2    0    0  0.12030582120E+02 -0.15661878584E+02  0.35540629625E+02  0.40659140437E+02  0.00000000000E+00 0.  1.
         11    1    3    3    0    0 -0.56399780348E+01 -0.13265134200E+01 -0.10040010165E+02  0.11591841720E+02  0.51100000000E-03 0. -1.
        -11    1    3    3    0    0  0.50750219507E+01  0.91333092340E+01 -0.65599271739E+00  0.10469169598E+02  0.51100000000E-03 0.  1.
         12    1    3    3    0    0 -0.11465626036E+02  0.78550827704E+01 -0.24844626743E+02  0.28467848245E+02  0.00000000000E+00 0. -1.
</event>
<event>
 7    1  0.2974434E-011  0.5052884E+02  0.7816164E-02  0.1300439E+00
        -11   -1    0    0    0    0  0.00000000000E+00  0.00000000000E+00  0.45593999997E+02  0.45594000000E+02  0.51100000000E-03 0.  1.
         11   -1    0    0    0    0 -0.00000000000E+00 -0.00000000000E+00 -0.45593999997E+02  0.45594000000E+02  0.51100000000E-03 0. -1.
    9900012    2    1    2    0    0 -0.25936201259E+02  0.20461746478E+02 -0.23702266560E+02  0.50528843039E+02  0.29999948902E+02 0.  0.
        -12    1    1    2    0    0  0.25936201259E+02 -0.20461746478E+02  0.23702266560E+02  0.40659156961E+02  0.00000000000E+00 0.  1.
         11    1    3    3    0    0 -0.49412616075E+01  0.53796780246E+01 -0.13553203344E+02  0.15396308748E+02  0.51100000000E-03 0. -1.
        -11    1    3    3    0    0 -0.21725070709E+01 -0.29137630608E+01  0.40747332435E+01  0.54601514095E+01  0.51100000000E-03 0.  1.
         12    1    3    3    0    0 -0.18822432581E+02  0.17995831514E+02 -0.14223796459E+02  0.29672382881E+02  0.00000000000E+00 0. -1.
</event>
<event>
 7    1  0.2974434E-011  0.5052886E+02  0.7816164E-02  0.1300439E+00
        -11   -1    0    0    0    0  0.00000000000E+00  0.00000000000E+00  0.45593999997E+02  0.45594000000E+02  0.51100000000E-03 0.  1.
         11   -1    0    0    0    0 -0.00000000000E+00 -0.00000000000E+00 -0.45593999997E+02  0.45594000000E+02  0.51100000000E-03 0. -1.
    9900012    2    1    2    0    0  0.14599198807E+02 -0.18521020870E+02 -0.33121006113E+02  0.50528857537E+02  0.29999992969E+02 0.  0.
        -12    1    1    2    0    0 -0.14599198807E+02  0.18521020870E+02  0.33121006113E+02  0.40659142463E+02  0.00000000000E+00 0.  1.
         11    1    3    3    0    0  0.13787843455E+02  0.35148897474E+01 -0.17930736554E+02  0.22890399531E+02  0.51100000000E-03 0. -1.
        -11    1    3    3    0    0 -0.67753504737E+00 -0.25805610624E+01 -0.48994676074E+01  0.55788110054E+01  0.51100000000E-03 0.  1.
        -12    1    3    3    0    0  0.14888903999E+01 -0.19455349556E+02 -0.10290801952E+02  0.22059647000E+02  0.00000000000E+00 0.  1.
</event>
<event>
 7    1  0.2974434E-011  0.5052885E+02  0.7816164E-02  0.1300439E+00
        -11   -1    0    0    0    0  0.00000000000E+00  0.00000000000E+00  0.45593999997E+02  0.45594000000E+02  0.51100000000E-03 0.  1.
         11   -1    0    0    0    0 -0.00000000000E+00 -0.00000000000E+00 -0.45593999997E+02  0.45594000000E+02  0.51100000000E-03 0. -1.
    9900012    2    1    2    0    0  0.27165412088E+02 -0.30247879309E+02 -0.52251387252E+00  0.50528845590E+02  0.29999956655E+02 0.  0.
        -12    1    1    2    0    0 -0.27165412088E+02  0.30247879309E+02  0.52251387252E+00  0.40659154410E+02  0.00000000000E+00 0.  1.
         11    1    3    3    0    0  0.24884507916E+01 -0.99293238624E+01  0.54753170161E+01  0.11608744824E+02  0.51100000000E-03 0.  1.
        -11    1    3    3    0    0  0.14607171669E+02 -0.14180979878E+02  0.68505006679E+01  0.21480200514E+02  0.51100000000E-03 0. -1.
        -12    1    3    3    0    0  0.10069789627E+02 -0.61375755685E+01 -0.12848331557E+02  0.17439900251E+02  0.00000000000E+00 0.  1.
</event>
<event>
 7    1  0.2974434E-011  0.5052894E+02  0.7816164E-02  0.1300439E+00
        -11   -1    0    0    0    0  0.00000000000E+00  0.00000000000E+00  0.45593999997E+02  0.45594000000E+02  0.51100000000E-03 0.  1.
         11   -1    0    0    0    0 -0.00000000000E+00 -0.00000000000E+00 -0.45593999997E+02  0.45594000000E+02  0.51100000000E-03 0. -1.
    9900012    2    1    2    0    0  0.13481863006E+02  0.18155375556E+02 -0.33790247821E+02  0.50528940253E+02  0.30000244392E+02 0.  0.
        -12    1    1    2    0    0 -0.13481863006E+02 -0.18155375556E+02  0.33790247821E+02  0.40659059747E+02  0.00000000000E+00 0.  1.
         11    1    3    3    0    0  0.13407511798E+02  0.10736555795E+02 -0.25763445135E+02  0.30964336073E+02  0.51100000000E-03 0. -1.
        -11    1    3    3    0    0 -0.32646291114E+01 -0.19999511003E+01 -0.87443809710E+01  0.95457742727E+01  0.51100000000E-03 0.  1.
         12    1    3    3    0    0  0.33389803196E+01  0.94187708613E+01  0.71757828540E+00  0.10018829907E+02  0.00000000000E+00 0. -1.
</event>
<event>
 7    1  0.2974434E-011  0.5052882E+02  0.7816164E-02  0.1300439E+00
        -11   -1    0    0    0    0  0.00000000000E+00  0.00000000000E+00  0.45593999997E+02  0.45594000000E+02  0.51100000000E-03 0. -1.
         11   -1    0    0    0    0 -0.00000000000E+00 -0.00000000000E+00 -0.45593999997E+02  0.45594000000E+02  0.51100000000E-03 0.  1.
    9900012    2    1    2    0    0  0.27550746160E+02  0.23376891329E+02  0.18645265462E+02  0.50528824083E+02  0.29999891282E+02 0.  0.
        -12    1    1    2    0    0 -0.27550746160E+02 -0.23376891329E+02 -0.18645265462E+02  0.40659175917E+02  0.00000000000E+00 0.  1.
         11    1    3    3    0    0  0.27463461729E+01  0.13814977476E+02  0.18269806140E+02  0.23069066661E+02  0.51100000000E-03 0. -1.
        -11    1    3    3    0    0  0.31448912362E+00  0.84331839626E+00 -0.11012647381E+01  0.14222776138E+01  0.51100000000E-03 0.  1.
        -12    1    3    3    0    0  0.24489910863E+02  0.87185954563E+01  0.14767240600E+01  0.26037479808E+02  0.00000000000E+00 0.  1.
</event>
<event>
 7    1  0.2974434E-011  0.5052887E+02  0.7816164E-02  0.1300439E+00
        -11   -1    0    0    0    0  0.00000000000E+00  0.00000000000E+00  0.45593999997E+02  0.45594000000E+02  0.51100000000E-03 0. -1.
         11   -1    0    0    0    0 -0.00000000000E+00 -0.00000000000E+00 -0.45593999997E+02  0.45594000000E+02  0.51100000000E-03 0.  1.
    9900012    2    1    2    0    0 -0.34480217885E+02 -0.21357528625E+02  0.28522530563E+01  0.50528870621E+02  0.30000032740E+02 0.  0.
        -12    1    1    2    0    0  0.34480217885E+02  0.21357528625E+02 -0.28522530563E+01  0.40659129379E+02  0.00000000000E+00 0.  1.
         11    1    3    3    0    0 -0.16556846500E+02 -0.16558176892E+02  0.89503854042E+00  0.23432957181E+02  0.51100000000E-03 0. -1.
        -11    1    3    3    0    0 -0.25828891551E+01 -0.32778926025E+01  0.91709554361E+01  0.10075828511E+02  0.51100000000E-03 0.  1.
        -12    1    3    3    0    0 -0.15340482230E+02 -0.15214591300E+01 -0.72137409202E+01  0.17020084929E+02  0.00000000000E+00 0.  1.
</event>
<event>
 7    1  0.2974434E-011  0.5052886E+02  0.7816164E-02  0.1300439E+00
        -11   -1    0    0    0    0  0.00000000000E+00  0.00000000000E+00  0.45593999997E+02  0.45594000000E+02  0.51100000000E-03 0.  1.
         11   -1    0    0    0    0 -0.00000000000E+00 -0.00000000000E+00 -0.45593999997E+02  0.45594000000E+02  0.51100000000E-03 0. -1.
    9900012    2    1    2    0    0 -0.24430958245E+02  0.27028493522E+02 -0.18048662229E+02  0.50528863374E+02  0.30000010713E+02 0.  0.
        -12    1    1    2    0    0  0.24430958245E+02 -0.27028493522E+02  0.18048662229E+02  0.40659136626E+02  0.00000000000E+00 0.  1.
         11    1    3    3    0    0 -0.21685852774E+01  0.12006408125E+01  0.35770593024E+01  0.43519712752E+01  0.51100000000E-03 0. -1.
        -11    1    3    3    0    0 -0.21552580602E+01 -0.31294610413E+01  0.14226636648E+01  0.40574173903E+01  0.51100000000E-03 0.  1.
        -12    1    3    3    0    0 -0.20107114908E+02  0.28957313751E+02 -0.23048385197E+02  0.42119474709E+02  0.00000000000E+00 0.  1.
</event>
<event>
 7    1  0.2974434E-011  0.5052885E+02  0.7816164E-02  0.1300439E+00
        -11   -1    0    0    0    0  0.00000000000E+00  0.00000000000E+00  0.45593999997E+02  0.45594000000E+02  0.51100000000E-03 0. -1.
         11   -1    0    0    0    0 -0.00000000000E+00 -0.00000000000E+00 -0.45593999997E+02  0.45594000000E+02  0.51100000000E-03 0.  1.
    9900012    2    1    2    0    0  0.91282539674E+01  0.34758031747E+02  0.19018948923E+02  0.50528853310E+02  0.29999980122E+02 0.  0.
        -12    1    1    2    0    0 -0.91282539674E+01 -0.34758031747E+02 -0.19018948923E+02  0.40659146690E+02  0.00000000000E+00 0.  1.
         11    1    3    3    0    0 -0.63392841906E+01  0.48979069209E+01 -0.15572504002E+01  0.81609463498E+01  0.51100000000E-03 0. -1.
        -11    1    3    3    0    0  0.37469341642E+01 -0.50930867169E+00 -0.13736520727E+00  0.37838843026E+01  0.51100000000E-03 0.  1.
         12    1    3    3    0    0  0.11720603994E+02  0.30369433498E+02  0.20713564530E+02  0.38584022658E+02  0.00000000000E+00 0. -1.
</event>
<event>
 7    1  0.2974434E-011  0.5052885E+02  0.7816164E-02  0.1300439E+00
        -11   -1    0    0    0    0  0.00000000000E+00  0.00000000000E+00  0.45593999997E+02  0.45594000000E+02  0.51100000000E-03 0.  1.
         11   -1    0    0    0    0 -0.00000000000E+00 -0.00000000000E+00 -0.45593999997E+02  0.45594000000E+02  0.51100000000E-03 0. -1.
    9900012    2    1    2    0    0  0.26015606347E+02 -0.18163621913E+02 -0.25425136525E+02  0.50528849715E+02  0.29999969193E+02 0.  0.
        -12    1    1    2    0    0 -0.26015606347E+02  0.18163621913E+02  0.25425136525E+02  0.40659150285E+02  0.00000000000E+00 0.  1.
         11    1    3    3    0    0  0.11881345967E+02 -0.28701574188E+01 -0.71731839099E+01  0.14172464615E+02  0.51100000000E-03 0. -1.
        -11    1    3    3    0    0  0.13426421229E+02  0.19548281252E+01 -0.11618991226E+02  0.17863121155E+02  0.51100000000E-03 0.  1.
         12    1    3    3    0    0  0.70783915113E+00 -0.17248292620E+02 -0.66329613889E+01  0.18493263945E+02  0.00000000000E+00 0. -1.
</event>
<event>
 7    1  0.2974434E-011  0.5052886E+02  0.7816164E-02  0.1300439E+00
        -11   -1    0    0    0    0  0.00000000000E+00  0.00000000000E+00  0.45593999997E+02  0.45594000000E+02  0.51100000000E-03 0.  1.
         11   -1    0    0    0    0 -0.00000000000E+00 -0.00000000000E+00 -0.45593999997E+02  0.45594000000E+02  0.51100000000E-03 0. -1.
    9900012    2    1    2    0    0 -0.33479479596E+01 -0.42035998193E+01 -0.40302440330E+02  0.50528859533E+02  0.29999999036E+02 0.  0.
        -12    1    1    2    0    0  0.33479479596E+01  0.42035998193E+01  0.40302440330E+02  0.40659140467E+02  0.00000000000E+00 0.  1.
         11    1    3    3    0    0 -0.13443077643E+01  0.26947763021E+01 -0.76656068538E+01  0.82359280826E+01  0.51100000000E-03 0. -1.
        -11    1    3    3    0    0 -0.13875756190E+02 -0.37982423390E+01 -0.20412432680E+02  0.24972598241E+02  0.51100000000E-03 0.  1.
        -12    1    3    3    0    0  0.11872115995E+02 -0.31001337824E+01 -0.12224400796E+02  0.17320333209E+02  0.00000000000E+00 0.  1.
</event>
<event>
 7    1  0.2974434E-011  0.5052886E+02  0.7816164E-02  0.1300439E+00
        -11   -1    0    0    0    0  0.00000000000E+00  0.00000000000E+00  0.45593999997E+02  0.45594000000E+02  0.51100000000E-03 0.  1.
         11   -1    0    0    0    0 -0.00000000000E+00 -0.00000000000E+00 -0.45593999997E+02  0.45594000000E+02  0.51100000000E-03 0. -1.
    9900012    2    1    2    0    0  0.11008210920E+02  0.36665703461E+01 -0.38968459834E+02  0.50528864402E+02  0.30000013835E+02 0.  0.
        -12    1    1    2    0    0 -0.11008210920E+02 -0.36665703461E+01  0.38968459834E+02  0.40659135598E+02  0.00000000000E+00 0.  1.
         11    1    3    3    0    0  0.94562119513E+01 -0.76691586939E+01 -0.30979953160E+02  0.33286535380E+02  0.51100000000E-03 0. -1.
        -11    1    3    3    0    0 -0.32392703035E+01  0.18241256129E+01 -0.49052125199E+01  0.61547880936E+01  0.51100000000E-03 0.  1.
        -12    1    3    3    0    0  0.47912692723E+01  0.95116034271E+01 -0.30832941547E+01  0.11087540928E+02  0.00000000000E+00 0.  1.
</event>
<event>
 7    1  0.2974434E-011  0.5052886E+02  0.7816164E-02  0.1300439E+00
        -11   -1    0    0    0    0  0.00000000000E+00  0.00000000000E+00  0.45593999997E+02  0.45594000000E+02  0.51100000000E-03 0.  1.
         11   -1    0    0    0    0 -0.00000000000E+00 -0.00000000000E+00 -0.45593999997E+02  0.45594000000E+02  0.51100000000E-03 0. -1.
    9900012    2    1    2    0    0  0.26948185601E+02 -0.94363250031E+01 -0.28946793370E+02  0.50528858554E+02  0.29999996060E+02 0.  0.
        -12    1    1    2    0    0 -0.26948185601E+02  0.94363250031E+01  0.28946793370E+02  0.40659141446E+02  0.00000000000E+00 0.  1.
         11    1    3    3    0    0 -0.23203542624E+01  0.15210477823E+01 -0.48949599436E+00  0.28173102152E+01  0.51100000000E-03 0. -1.
        -11    1    3    3    0    0  0.86658954954E+01 -0.12807780694E+02 -0.45967862173E+01  0.16132806167E+02  0.51100000000E-03 0.  1.
         12    1    3    3    0    0  0.20602644368E+02  0.18504079087E+01 -0.23860511159E+02  0.31578742171E+02  0.00000000000E+00 0. -1.
</event>
<event>
 7    1  0.2974434E-011  0.5052886E+02  0.7816164E-02  0.1300439E+00
        -11   -1    0    0    0    0  0.00000000000E+00  0.00000000000E+00  0.45593999997E+02  0.45594000000E+02  0.51100000000E-03 0.  1.
         11   -1    0    0    0    0 -0.00000000000E+00 -0.00000000000E+00 -0.45593999997E+02  0.45594000000E+02  0.51100000000E-03 0. -1.
    9900012    2    1    2    0    0 -0.20673940345E+02 -0.18708313678E+02 -0.29593125782E+02  0.50528857073E+02  0.29999991558E+02 0.  0.
        -12    1    1    2    0    0  0.20673940345E+02  0.18708313678E+02  0.29593125782E+02  0.40659142927E+02  0.00000000000E+00 0.  1.
         11    1    3    3    0    0 -0.13342575148E+01 -0.10846687110E+02 -0.75947854512E+01  0.13308329373E+02  0.51100000000E-03 0. -1.
        -11    1    3    3    0    0 -0.18503232136E+02 -0.14279400501E+02 -0.18833061030E+02  0.30015913548E+02  0.51100000000E-03 0.  1.
        -12    1    3    3    0    0 -0.83645069428E+00  0.64177739331E+01 -0.31652793010E+01  0.72046141516E+01  0.00000000000E+00 0.  1.
</event>
<event>
 7    1  0.4123187E-011  0.5052886E+02  0.7816164E-02  0.1300439E+00
        -11   -1    0    0    0    0  0.00000000000E+00  0.00000000000E+00  0.45593999997E+02  0.45594000000E+02  0.51100000000E-03 0. -1.
         11   -1    0    0    0    0 -0.00000000000E+00 -0.00000000000E+00 -0.45593999997E+02  0.45594000000E+02  0.51100000000E-03 0.  1.
    9900012    2    1    2    0    0  0.65535365047E+01 -0.18341670585E+02  0.35690331348E+02  0.50528862376E+02  0.30000007679E+02 0.  0.
        -12    1    1    2    0    0 -0.65535365047E+01  0.18341670585E+02 -0.35690331348E+02  0.40659137624E+02  0.00000000000E+00 0.  1.
         11    1    3    3    0    0 -0.39892240657E+01 -0.12241811087E+02  0.26083445307E+02  0.29088175720E+02  0.51100000000E-03 0. -1.
        -11    1    3    3    0    0  0.76159328871E+01 -0.27202176576E+01  0.13350886529E+02  0.15609234101E+02  0.51100000000E-03 0.  1.
        -12    1    3    3    0    0  0.29268276833E+01 -0.33796418407E+01 -0.37440004881E+01  0.58314525561E+01  0.00000000000E+00 0.  1.
</event>
<event>
 7    1  0.2974434E-011  0.5052888E+02  0.7816164E-02  0.1300439E+00
        -11   -1    0    0    0    0  0.00000000000E+00  0.00000000000E+00  0.45593999997E+02  0.45594000000E+02  0.51100000000E-03 0.  1.
         11   -1    0    0    0    0 -0.00000000000E+00 -0.00000000000E+00 -0.45593999997E+02  0.45594000000E+02  0.51100000000E-03 0. -1.
    9900012    2    1    2    0    0 -0.31313942057E+02 -0.25724318019E+02  0.32955276607E+01  0.50528880392E+02  0.30000062440E+02 0.  0.
        -12    1    1    2    0    0  0.31313942057E+02  0.25724318019E+02 -0.32955276607E+01  0.40659119608E+02  0.00000000000E+00 0.  1.
         11    1    3    3    0    0 -0.40843322566E+01 -0.11731479101E+02 -0.74132980990E+01  0.14466041644E+02  0.51100000000E-03 0. -1.
        -11    1    3    3    0    0  0.39582986165E+00  0.85087128080E+00 -0.20121321209E+01  0.22202115100E+01  0.51100000000E-03 0.  1.
        -12    1    3    3    0    0 -0.27625439662E+02 -0.14843710199E+02  0.12720957881E+02  0.33842627239E+02  0.00000000000E+00 0.  1.
</event>
<event>
 7    1  0.2974434E-011  0.5052884E+02  0.7816164E-02  0.1300439E+00
        -11   -1    0    0    0    0  0.00000000000E+00  0.00000000000E+00  0.45593999997E+02  0.45594000000E+02  0.51100000000E-03 0. -1.
         11   -1    0    0    0    0 -0.00000000000E+00 -0.00000000000E+00 -0.45593999997E+02  0.45594000000E+02  0.51100000000E-03 0.  1.
    9900012    2    1    2    0    0 -0.31713058270E+02  0.14274713614E+02  0.21063760389E+02  0.50528837253E+02  0.29999931314E+02 0.  0.
        -12    1    1    2    0    0  0.31713058270E+02 -0.14274713614E+02 -0.21063760389E+02  0.40659162747E+02  0.00000000000E+00 0.  1.
         11    1    3    3    0    0 -0.43549433714E+01 -0.17880033027E+01  0.65631005260E+01  0.80769286461E+01  0.51100000000E-03 0. -1.
        -11    1    3    3    0    0 -0.15045324949E+02 -0.26713544281E+01  0.12863425985E+02  0.19974124903E+02  0.51100000000E-03 0.  1.
         12    1    3    3    0    0 -0.12312789950E+02  0.18734071344E+02  0.16372338783E+01  0.22477783704E+02  0.00000000000E+00 0. -1.
</event>
<event>
 7    1  0.2974434E-011  0.5052886E+02  0.7816164E-02  0.1300439E+00
        -11   -1    0    0    0    0  0.00000000000E+00  0.00000000000E+00  0.45593999997E+02  0.45594000000E+02  0.51100000000E-03 0.  1.
         11   -1    0    0    0    0 -0.00000000000E+00 -0.00000000000E+00 -0.45593999997E+02  0.45594000000E+02  0.51100000000E-03 0. -1.
    9900012    2    1    2    0    0 -0.78581046487E+01  0.27953229924E+02 -0.28461079037E+02  0.50528857218E+02  0.29999991998E+02 0.  0.
        -12    1    1    2    0    0  0.78581046487E+01 -0.27953229924E+02  0.28461079037E+02  0.40659142782E+02  0.00000000000E+00 0.  1.
         11    1    3    3    0    0  0.79422570779E+01  0.28747950507E+01 -0.10631091425E+01  0.85131718757E+01  0.51100000000E-03 0. -1.
        -11    1    3    3    0    0  0.93118265129E+00  0.92813507890E+00 -0.47247953726E+01  0.49043070284E+01  0.51100000000E-03 0.  1.
         12    1    3    3    0    0 -0.16731544378E+02  0.24150299795E+02 -0.22673174522E+02  0.37111378313E+02  0.00000000000E+00 0. -1.
</event>
<event>
 7    1  0.2974434E-011  0.5052887E+02  0.7816164E-02  0.1300439E+00
        -11   -1    0    0    0    0  0.00000000000E+00  0.00000000000E+00  0.45593999997E+02  0.45594000000E+02  0.51100000000E-03 0.  1.
         11   -1    0    0    0    0 -0.00000000000E+00 -0.00000000000E+00 -0.45593999997E+02  0.45594000000E+02  0.51100000000E-03 0. -1.
    9900012    2    1    2    0    0 -0.35808378009E+02  0.69996394792E+01 -0.17942403292E+02  0.50528871574E+02  0.30000035636E+02 0.  0.
        -12    1    1    2    0    0  0.35808378009E+02 -0.69996394792E+01  0.17942403292E+02  0.40659128426E+02  0.00000000000E+00 0.  1.
         11    1    3    3    0    0 -0.12835105564E+02  0.13825814352E+02 -0.98849642821E+01  0.21298018604E+02  0.51100000000E-03 0. -1.
        -11    1    3    3    0    0  0.12864042642E+00  0.66073638887E+00 -0.46613773757E+01  0.47097303781E+01  0.51100000000E-03 0.  1.
        -12    1    3    3    0    0 -0.23101912871E+02 -0.74869112614E+01 -0.33960616339E+01  0.24521122592E+02  0.00000000000E+00 0.  1.
</event>
<event>
 7    1  0.2974434E-011  0.5052887E+02  0.7816164E-02  0.1300439E+00
        -11   -1    0    0    0    0  0.00000000000E+00  0.00000000000E+00  0.45593999997E+02  0.45594000000E+02  0.51100000000E-03 0. -1.
         11   -1    0    0    0    0 -0.00000000000E+00 -0.00000000000E+00 -0.45593999997E+02  0.45594000000E+02  0.51100000000E-03 0.  1.
    9900012    2    1    2    0    0 -0.43645398844E+01  0.37094784534E+02  0.16065267387E+02  0.50528867394E+02  0.30000022932E+02 0.  0.
        -12    1    1    2    0    0  0.43645398844E+01 -0.37094784534E+02 -0.16065267387E+02  0.40659132606E+02  0.00000000000E+00 0.  1.
         11    1    3    3    0    0  0.30148921527E+00 -0.27320381588E+01  0.10232119859E+01  0.29328981021E+01  0.51100000000E-03 0. -1.
        -11    1    3    3    0    0  0.75045299185E+01  0.75214911888E+01  0.31233277902E+01  0.11074564359E+02  0.51100000000E-03 0.  1.
         12    1    3    3    0    0 -0.12170559018E+02  0.32305331504E+02  0.11918727611E+02  0.36521404933E+02  0.00000000000E+00 0. -1.
</event>
<event>
 7    1  0.2974434E-011  0.5052884E+02  0.7816164E-02  0.1300439E+00
        -11   -1    0    0    0    0  0.00000000000E+00  0.00000000000E+00  0.45593999997E+02  0.45594000000E+02  0.51100000000E-03 0.  1.
         11   -1    0    0    0    0 -0.00000000000E+00 -0.00000000000E+00 -0.45593999997E+02  0.45594000000E+02  0.51100000000E-03 0. -1.
    9900012    2    1    2    0    0 -0.16620919674E+02  0.36478063792E+02 -0.68017167628E+01  0.50528837937E+02  0.29999933392E+02 0.  0.
        -12    1    1    2    0    0  0.16620919674E+02 -0.36478063792E+02  0.68017167628E+01  0.40659162063E+02  0.00000000000E+00 0.  1.
         11    1    3    3    0    0 -0.90762975351E+01  0.10958755097E+02 -0.52423908124E+01  0.15164305190E+02  0.51100000000E-03 0.  1.
        -11    1    3    3    0    0 -0.13549668621E+02  0.78031953786E+01 -0.48504968438E+01  0.16371032275E+02  0.51100000000E-03 0. -1.
         12    1    3    3    0    0  0.60050464829E+01  0.17716113316E+02  0.32911708933E+01  0.18993500471E+02  0.00000000000E+00 0. -1.
</event>
<event>
 7    1  0.2974434E-011  0.5052886E+02  0.7816164E-02  0.1300439E+00
        -11   -1    0    0    0    0  0.00000000000E+00  0.00000000000E+00  0.45593999997E+02  0.45594000000E+02  0.51100000000E-03 0.  1.
         11   -1    0    0    0    0 -0.00000000000E+00 -0.00000000000E+00 -0.45593999997E+02  0.45594000000E+02  0.51100000000E-03 0. -1.
    9900012    2    1    2    0    0 -0.36537042062E+02  0.13721798394E+02  0.11398357771E+02  0.50528858916E+02  0.29999997161E+02 0.  0.
        -12    1    1    2    0    0  0.36537042062E+02 -0.13721798394E+02 -0.11398357771E+02  0.40659141084E+02  0.00000000000E+00 0.  1.
         11    1    3    3    0    0  0.15468862885E+00  0.35979051193E+01 -0.62961541919E-01  0.36017793153E+01  0.51100000000E-03 0. -1.
        -11    1    3    3    0    0 -0.28540838365E+01  0.16863686710E+01 -0.67973642738E+01  0.75626579437E+01  0.51100000000E-03 0.  1.
        -12    1    3    3    0    0 -0.33837646854E+02  0.84375246038E+01  0.18258683587E+02  0.39364421657E+02  0.00000000000E+00 0.  1.
</event>
<event>
 7    1  0.2974434E-011  0.5052886E+02  0.7816164E-02  0.1300439E+00
        -11   -1    0    0    0    0  0.00000000000E+00  0.00000000000E+00  0.45593999997E+02  0.45594000000E+02  0.51100000000E-03 0.  1.
         11   -1    0    0    0    0 -0.00000000000E+00 -0.00000000000E+00 -0.45593999997E+02  0.45594000000E+02  0.51100000000E-03 0. -1.
    9900012    2    1    2    0    0  0.14821311432E+02 -0.24726610439E+02 -0.28672095020E+02  0.50528861185E+02  0.30000004057E+02 0.  0.
        -12    1    1    2    0    0 -0.14821311432E+02  0.24726610439E+02  0.28672095020E+02  0.40659138815E+02  0.00000000000E+00 0.  1.
         11    1    3    3    0    0  0.10935886855E+02 -0.10238033375E+02  0.34186353110E+00  0.14984252388E+02  0.51100000000E-03 0. -1.
        -11    1    3    3    0    0  0.79689408515E+01 -0.33817330085E+01 -0.13397609031E+02  0.15951052142E+02  0.51100000000E-03 0.  1.
         12    1    3    3    0    0 -0.40835162748E+01 -0.11106844056E+02 -0.15616349521E+02  0.19593556655E+02  0.00000000000E+00 0. -1.
</event>
<event>
 7    1  0.2974434E-011  0.5052885E+02  0.7816164E-02  0.1300439E+00
        -11   -1    0    0    0    0  0.00000000000E+00  0.00000000000E+00  0.45593999997E+02  0.45594000000E+02  0.51100000000E-03 0. -1.
         11   -1    0    0    0    0 -0.00000000000E+00 -0.00000000000E+00 -0.45593999997E+02  0.45594000000E+02  0.51100000000E-03 0.  1.
    9900012    2    1    2    0    0 -0.17875812515E+02  0.27039762840E+02  0.24545319711E+02  0.50528853830E+02  0.29999981703E+02 0.  0.
        -12    1    1    2    0    0  0.17875812515E+02 -0.27039762840E+02 -0.24545319711E+02  0.40659146170E+02  0.00000000000E+00 0.  1.
         11    1    3    3    0    0 -0.54983874555E+01  0.55872323253E+01  0.61888655245E+01  0.99875665909E+01  0.51100000000E-03 0. -1.
        -11    1    3    3    0    0 -0.23912349720E+00  0.17647747816E+02  0.21120212082E+02  0.27523872215E+02  0.51100000000E-03 0.  1.
        -12    1    3    3    0    0 -0.12138301563E+02  0.38047826986E+01 -0.27637578962E+01  0.13017415024E+02  0.00000000000E+00 0.  1.
</event>
<event>
 7    1  0.2974434E-011  0.5052885E+02  0.7816164E-02  0.1300439E+00
        -11   -1    0    0    0    0  0.00000000000E+00  0.00000000000E+00  0.45593999997E+02  0.45594000000E+02  0.51100000000E-03 0.  1.
         11   -1    0    0    0    0 -0.00000000000E+00 -0.00000000000E+00 -0.45593999997E+02  0.45594000000E+02  0.51100000000E-03 0. -1.
    9900012    2    1    2    0    0 -0.31630183531E+01 -0.34184484099E+02 -0.21784914822E+02  0.50528854017E+02  0.29999982271E+02 0.  0.
        -12    1    1    2    0    0  0.31630183531E+01  0.34184484099E+02  0.21784914822E+02  0.40659145983E+02  0.00000000000E+00 0.  1.
         11    1    3    3    0    0 -0.71913887384E+01 -0.15284306412E+02 -0.19181690087E+02  0.25559016595E+02  0.51100000000E-03 0. -1.
        -11    1    3    3    0    0 -0.56069059624E+01 -0.64638609730E+01 -0.34236628287E+01  0.92163094878E+01  0.51100000000E-03 0.  1.
         12    1    3    3    0    0  0.96352763477E+01 -0.12436316714E+02  0.82043809307E+00  0.15753527935E+02  0.00000000000E+00 0. -1.
</event>
<event>
 7    1  0.2974434E-011  0.5052886E+02  0.7816164E-02  0.1300439E+00
        -11   -1    0    0    0    0  0.00000000000E+00  0.00000000000E+00  0.45593999997E+02  0.45594000000E+02  0.51100000000E-03 0. -1.
         11   -1    0    0    0    0 -0.00000000000E+00 -0.00000000000E+00 -0.45593999997E+02  0.45594000000E+02  0.51100000000E-03 0.  1.
    9900012    2    1    2    0    0  0.39923377419E+00 -0.33772909863E+02  0.22636189599E+02  0.50528857021E+02  0.29999991402E+02 0.  0.
        -12    1    1    2    0    0 -0.39923377419E+00  0.33772909863E+02 -0.22636189599E+02  0.40659142979E+02  0.00000000000E+00 0.  1.
         11    1    3    3    0    0  0.75093395336E+01 -0.25563316630E+02  0.85123954087E+01  0.27970237990E+02  0.51100000000E-03 0. -1.
        -11    1    3    3    0    0  0.35137145712E+01 -0.38834900544E+01  0.13867298011E+01  0.54176290841E+01  0.51100000000E-03 0.  1.
        -12    1    3    3    0    0 -0.10623820331E+02 -0.43261031780E+01  0.12737064389E+02  0.17140989947E+02  0.00000000000E+00 0.  1.
</event>
<event>
 7    1  0.2974434E-011  0.5052886E+02  0.7816164E-02  0.1300439E+00
        -11   -1    0    0    0    0  0.00000000000E+00  0.00000000000E+00  0.45593999997E+02  0.45594000000E+02  0.51100000000E-03 0.  1.
         11   -1    0    0    0    0 -0.00000000000E+00 -0.00000000000E+00 -0.45593999997E+02  0.45594000000E+02  0.51100000000E-03 0. -1.
    9900012    2    1    2    0    0 -0.17844619089E+02  0.28542490098E+02 -0.22804848346E+02  0.50528864748E+02  0.30000014887E+02 0.  0.
        -12    1    1    2    0    0  0.17844619089E+02 -0.28542490098E+02  0.22804848346E+02  0.40659135252E+02  0.00000000000E+00 0.  1.
         11    1    3    3    0    0 -0.75657418493E+01  0.74683741087E+01  0.77884570569E+00  0.10659440063E+02  0.51100000000E-03 0. -1.
        -11    1    3    3    0    0  0.57370392424E+01  0.20797715637E+01 -0.79190965688E+00  0.61535510229E+01  0.51100000000E-03 0.  1.
         12    1    3    3    0    0 -0.16015916482E+02  0.18994344425E+02 -0.22791784395E+02  0.33715873662E+02  0.00000000000E+00 0. -1.
</event>
<event>
 7    1  0.2974434E-011  0.5052886E+02  0.7816164E-02  0.1300439E+00
        -11   -1    0    0    0    0  0.00000000000E+00  0.00000000000E+00  0.45593999997E+02  0.45594000000E+02  0.51100000000E-03 0. -1.
         11   -1    0    0    0    0 -0.00000000000E+00 -0.00000000000E+00 -0.45593999997E+02  0.45594000000E+02  0.51100000000E-03 0.  1.
    9900012    2    1    2    0    0  0.18351492989E+02  0.14282013724E+02  0.33352846555E+02  0.50528861000E+02  0.30000003494E+02 0.  0.
        -12    1    1    2    0    0 -0.18351492989E+02 -0.14282013724E+02 -0.33352846555E+02  0.40659139000E+02  0.00000000000E+00 0.  1.
         11    1    3    3    0    0  0.49333962769E+00  0.46181395059E+01  0.11728411806E+02  0.12614524971E+02  0.51100000000E-03 0. -1.
        -11    1    3    3    0    0  0.12360489088E+02  0.20926144902E+01  0.25000165096E+02  0.27967284119E+02  0.51100000000E-03 0.  1.
         12    1    3    3    0    0  0.54976642733E+01  0.75712597278E+01 -0.33757303468E+01  0.99470519101E+01  0.00000000000E+00 0. -1.
</event>
<event>
 7    1  0.2974434E-011  0.5052886E+02  0.7816164E-02  0.1300439E+00
        -11   -1    0    0    0    0  0.00000000000E+00  0.00000000000E+00  0.45593999997E+02  0.45594000000E+02  0.51100000000E-03 0.  1.
         11   -1    0    0    0    0 -0.00000000000E+00 -0.00000000000E+00 -0.45593999997E+02  0.45594000000E+02  0.51100000000E-03 0. -1.
    9900012    2    1    2    0    0 -0.28037729977E+02  0.21269996304E+02 -0.20362680796E+02  0.50528858171E+02  0.29999994898E+02 0.  0.
        -12    1    1    2    0    0  0.28037729977E+02 -0.21269996304E+02  0.20362680796E+02  0.40659141829E+02  0.00000000000E+00 0.  1.
         11    1    3    3    0    0  0.18488356699E+00  0.86827883482E+00 -0.47610194441E+00  0.10073546500E+01  0.51100000000E-03 0. -1.
        -11    1    3    3    0    0 -0.31858549217E+02  0.15127045342E+02 -0.82216346366E+01  0.36213118277E+02  0.51100000000E-03 0.  1.
        -12    1    3    3    0    0  0.36359356732E+01  0.52746721269E+01 -0.11664944215E+02  0.13308385244E+02  0.00000000000E+00 0.  1.
</event>
<event>
 7    1  0.2974434E-011  0.5052886E+02  0.7816164E-02  0.1300439E+00
        -11   -1    0    0    0    0  0.00000000000E+00  0.00000000000E+00  0.45593999997E+02  0.45594000000E+02  0.51100000000E-03 0.  1.
         11   -1    0    0    0    0 -0.00000000000E+00 -0.00000000000E+00 -0.45593999997E+02  0.45594000000E+02  0.51100000000E-03 0. -1.
    9900012    2    1    2    0    0  0.15740122960E+02 -0.35420803358E+02 -0.12279276198E+02  0.50528863201E+02  0.30000010185E+02 0.  0.
        -12    1    1    2    0    0 -0.15740122960E+02  0.35420803358E+02  0.12279276198E+02  0.40659136799E+02  0.00000000000E+00 0.  1.
         11    1    3    3    0    0  0.16301915800E+02 -0.15248794999E+02 -0.86803239621E+01  0.23950495444E+02  0.51100000000E-03 0. -1.
        -11    1    3    3    0    0  0.71102222557E+01 -0.77817535497E+01 -0.54867411015E+01  0.11883403427E+02  0.51100000000E-03 0.  1.
        -12    1    3    3    0    0 -0.76720150951E+01 -0.12390254809E+02  0.18877888652E+01  0.14694964330E+02  0.00000000000E+00 0.  1.
</event>
<event>
 7    1  0.2974434E-011  0.5052897E+02  0.7816164E-02  0.1300438E+00
        -11   -1    0    0    0    0  0.00000000000E+00  0.00000000000E+00  0.45593999997E+02  0.45594000000E+02  0.51100000000E-03 0.  1.
         11   -1    0    0    0    0 -0.00000000000E+00 -0.00000000000E+00 -0.45593999997E+02  0.45594000000E+02  0.51100000000E-03 0. -1.
    9900012    2    1    2    0    0 -0.10034962003E+02  0.72993675831E+01 -0.38719184203E+02  0.50528973267E+02  0.30000344741E+02 0.  0.
        -12    1    1    2    0    0  0.10034962003E+02 -0.72993675831E+01  0.38719184203E+02  0.40659026733E+02  0.00000000000E+00 0.  1.
         11    1    3    3    0    0  0.44577695441E+01 -0.29173033220E+01 -0.83852523743E-01  0.53281703697E+01  0.51100000000E-03 0. -1.
        -11    1    3    3    0    0 -0.21278066019E+01 -0.40291913046E+01 -0.86159801208E+01  0.97466433815E+01  0.51100000000E-03 0.  1.
        -12    1    3    3    0    0 -0.12364924945E+02  0.14245862210E+02 -0.30019351558E+02  0.35454159516E+02  0.00000000000E+00 0.  1.
</event>
<event>
 7    1  0.2974434E-011  0.5052884E+02  0.7816164E-02  0.1300439E+00
        -11   -1    0    0    0    0  0.00000000000E+00  0.00000000000E+00  0.45593999997E+02  0.45594000000E+02  0.51100000000E-03 0. -1.
         11   -1    0    0    0    0 -0.00000000000E+00 -0.00000000000E+00 -0.45593999997E+02  0.45594000000E+02  0.51100000000E-03 0.  1.
    9900012    2    1    2    0    0  0.38448398812E+02  0.12953992730E+02 -0.26611548153E+01  0.50528843051E+02  0.29999948938E+02 0.  0.
        -12    1    1    2    0    0 -0.38448398812E+02 -0.12953992730E+02  0.26611548153E+01  0.40659156949E+02  0.00000000000E+00 0.  1.
         11    1    3    3    0    0  0.36088901382E+02  0.22717659286E+01 -0.18805820289E+01  0.36209202041E+02  0.51100000000E-03 0. -1.
        -11    1    3    3    0    0 -0.27027414014E+01  0.58031021634E+00  0.87532733261E+00  0.28996153590E+01  0.51100000000E-03 0.  1.
        -12    1    3    3    0    0  0.50622388313E+01  0.10101916585E+02 -0.16559001189E+01  0.11420025651E+02  0.00000000000E+00 0.  1.
</event>
<event>
 7    1  0.2974434E-011  0.5052885E+02  0.7816164E-02  0.1300439E+00
        -11   -1    0    0    0    0  0.00000000000E+00  0.00000000000E+00  0.45593999997E+02  0.45594000000E+02  0.51100000000E-03 0. -1.
         11   -1    0    0    0    0 -0.00000000000E+00 -0.00000000000E+00 -0.45593999997E+02  0.45594000000E+02  0.51100000000E-03 0.  1.
    9900012    2    1    2    0    0  0.23725784136E+02  0.76736617490E+01 -0.32114928923E+02  0.50528848789E+02  0.29999966378E+02 0.  0.
        -12    1    1    2    0    0 -0.23725784136E+02 -0.76736617490E+01  0.32114928923E+02  0.40659151211E+02  0.00000000000E+00 0.  1.
         11    1    3    3    0    0  0.10751033191E+02  0.11221853274E+01  0.72899627988E+00  0.10833995128E+02  0.51100000000E-03 0. -1.
        -11    1    3    3    0    0  0.75877204694E+01  0.11470022730E+02 -0.14653397772E+02  0.20096193417E+02  0.51100000000E-03 0.  1.
        -12    1    3    3    0    0  0.53870304751E+01 -0.49185463079E+01 -0.18190527431E+02  0.19598660243E+02  0.00000000000E+00 0.  1.
</event>
<event>
 7    1  0.2974434E-011  0.5052886E+02  0.7816164E-02  0.1300439E+00
        -11   -1    0    0    0    0  0.00000000000E+00  0.00000000000E+00  0.45593999997E+02  0.45594000000E+02  0.51100000000E-03 0.  1.
         11   -1    0    0    0    0 -0.00000000000E+00 -0.00000000000E+00 -0.45593999997E+02  0.45594000000E+02  0.51100000000E-03 0. -1.
    9900012    2    1    2    0    0  0.21964348475E+02 -0.15735706694E+02 -0.30382893971E+02  0.50528864309E+02  0.30000013553E+02 0.  0.
        -12    1    1    2    0    0 -0.21964348475E+02  0.15735706694E+02  0.30382893971E+02  0.40659135691E+02  0.00000000000E+00 0.  1.
         11    1    3    3    0    0  0.43785531514E+01  0.25914393819E+01 -0.12184791605E+01  0.52318235344E+01  0.51100000000E-03 0. -1.
        -11    1    3    3    0    0 -0.10362049989E+00  0.34585656181E+01  0.14633081134E+01  0.37568183665E+01  0.51100000000E-03 0.  1.
         12    1    3    3    0    0  0.17689415824E+02 -0.21785711694E+02 -0.30627722924E+02  0.41540222408E+02  0.00000000000E+00 0. -1.
</event>
<event>
 7    1  0.2974434E-011  0.5052885E+02  0.7816164E-02  0.1300439E+00
        -11   -1    0    0    0    0  0.00000000000E+00  0.00000000000E+00  0.45593999997E+02  0.45594000000E+02  0.51100000000E-03 0. -1.
         11   -1    0    0    0    0 -0.00000000000E+00 -0.00000000000E+00 -0.45593999997E+02  0.45594000000E+02  0.51100000000E-03 0.  1.
    9900012    2    1    2    0    0 -0.29650622489E+02  0.27776653362E+02 -0.15698176081E+01  0.50528853264E+02  0.29999979980E+02 0.  0.
        -12    1    1    2    0    0  0.29650622489E+02 -0.27776653362E+02  0.15698176081E+01  0.40659146736E+02  0.00000000000E+00 0.  1.
         11    1    3    3    0    0 -0.20871247727E+02  0.50128525014E+01 -0.60994198331E+01  0.22314582552E+02  0.51100000000E-03 0. -1.
        -11    1    3    3    0    0 -0.15958180482E+01  0.78134965232E+01 -0.46757553849E+01  0.92444606031E+01  0.51100000000E-03 0.  1.
        -12    1    3    3    0    0 -0.71835567137E+01  0.14950304338E+02  0.92053576100E+01  0.18969810109E+02  0.00000000000E+00 0.  1.
</event>
<event>
 7    1  0.2974434E-011  0.5052882E+02  0.7816164E-02  0.1300439E+00
        -11   -1    0    0    0    0  0.00000000000E+00  0.00000000000E+00  0.45593999997E+02  0.45594000000E+02  0.51100000000E-03 0. -1.
         11   -1    0    0    0    0 -0.00000000000E+00 -0.00000000000E+00 -0.45593999997E+02  0.45594000000E+02  0.51100000000E-03 0.  1.
    9900012    2    1    2    0    0  0.58318728770E+01 -0.38943633094E+02  0.10126761699E+02  0.50528823885E+02  0.29999890681E+02 0.  0.
        -12    1    1    2    0    0 -0.58318728770E+01  0.38943633094E+02 -0.10126761699E+02  0.40659176115E+02  0.00000000000E+00 0.  1.
         11    1    3    3    0    0  0.72405675081E+01 -0.57795615882E+01 -0.17187702657E+01  0.94224901952E+01  0.51100000000E-03 0. -1.
        -11    1    3    3    0    0  0.48115978259E+01 -0.14125939769E+02 -0.41332874644E+01  0.15484757457E+02  0.51100000000E-03 0.  1.
         12    1    3    3    0    0 -0.62202924570E+01 -0.19038131737E+02  0.15978819429E+02  0.25621576233E+02  0.00000000000E+00 0. -1.
</event>
<event>
 7    1  0.2974434E-011  0.5052887E+02  0.7816164E-02  0.1300439E+00
        -11   -1    0    0    0    0  0.00000000000E+00  0.00000000000E+00  0.45593999997E+02  0.45594000000E+02  0.51100000000E-03 0. -1.
         11   -1    0    0    0    0 -0.00000000000E+00 -0.00000000000E+00 -0.45593999997E+02  0.45594000000E+02  0.51100000000E-03 0.  1.
    9900012    2    1    2    0    0 -0.10970766382E+02  0.35979163877E+02  0.15437189607E+02  0.50528870997E+02  0.30000033882E+02 0.  0.
        -12    1    1    2    0    0  0.10970766382E+02 -0.35979163877E+02 -0.15437189607E+02  0.40659129003E+02  0.00000000000E+00 0.  1.
         11    1    3    3    0    0  0.40388454935E+01  0.84138542420E+01  0.83288496079E+01  0.12508994851E+02  0.51100000000E-03 0. -1.
        -11    1    3    3    0    0  0.38910018269E+01  0.74300027647E+01  0.61257535117E+01  0.10386033538E+02  0.51100000000E-03 0.  1.
        -12    1    3    3    0    0 -0.18900613702E+02  0.20135306871E+02  0.98258648727E+00  0.27633842608E+02  0.00000000000E+00 0.  1.
</event>
<event>
 7    1  0.2974434E-011  0.5052887E+02  0.7816164E-02  0.1300439E+00
        -11   -1    0    0    0    0  0.00000000000E+00  0.00000000000E+00  0.45593999997E+02  0.45594000000E+02  0.51100000000E-03 0. -1.
         11   -1    0    0    0    0 -0.00000000000E+00 -0.00000000000E+00 -0.45593999997E+02  0.45594000000E+02  0.51100000000E-03 0.  1.
    9900012    2    1    2    0    0 -0.23101834834E+02  0.33096284268E+02  0.49098241455E+01  0.50528865993E+02  0.30000018672E+02 0.  0.
        -12    1    1    2    0    0  0.23101834834E+02 -0.33096284268E+02 -0.49098241455E+01  0.40659134007E+02  0.00000000000E+00 0.  1.
         11    1    3    3    0    0 -0.13061289150E+02  0.58589813197E+01 -0.49037363013E+01  0.15131806447E+02  0.51100000000E-03 0. -1.
        -11    1    3    3    0    0 -0.11307780728E+01  0.68064262201E+01 -0.50989735197E+01  0.85793722472E+01  0.51100000000E-03 0.  1.
         12    1    3    3    0    0 -0.89097676110E+01  0.20430876729E+02  0.14912533966E+02  0.26817687299E+02  0.00000000000E+00 0. -1.
</event>
<event>
 7    1  0.2974434E-011  0.5052886E+02  0.7816164E-02  0.1300439E+00
        -11   -1    0    0    0    0  0.00000000000E+00  0.00000000000E+00  0.45593999997E+02  0.45594000000E+02  0.51100000000E-03 0.  1.
         11   -1    0    0    0    0 -0.00000000000E+00 -0.00000000000E+00 -0.45593999997E+02  0.45594000000E+02  0.51100000000E-03 0. -1.
    9900012    2    1    2    0    0  0.90802148279E+01 -0.38562772250E+02 -0.91448213408E+01  0.50528862499E+02  0.30000008052E+02 0.  0.
        -12    1    1    2    0    0 -0.90802148279E+01  0.38562772250E+02  0.91448213408E+01  0.40659137501E+02  0.00000000000E+00 0.  1.
         11    1    3    3    0    0  0.45398172883E+00 -0.36624142074E+01 -0.47255571786E+01  0.59958542465E+01  0.51100000000E-03 0. -1.
        -11    1    3    3    0    0  0.53181667551E+01 -0.18231444178E+02 -0.15271243260E+02  0.24369639419E+02  0.51100000000E-03 0.  1.
        -12    1    3    3    0    0  0.33080663440E+01 -0.16668913865E+02  0.10851979098E+02  0.20163368833E+02  0.00000000000E+00 0.  1.
</event>
<event>
 7    1  0.2974434E-011  0.5052891E+02  0.7816164E-02  0.1300439E+00
        -11   -1    0    0    0    0  0.00000000000E+00  0.00000000000E+00  0.45593999997E+02  0.45594000000E+02  0.51100000000E-03 0.  1.
         11   -1    0    0    0    0 -0.00000000000E+00 -0.00000000000E+00 -0.45593999997E+02  0.45594000000E+02  0.51100000000E-03 0. -1.
    9900012    2    1    2    0    0  0.31358892530E+02 -0.25050194373E+02 -0.65014842005E+01  0.50528909065E+02  0.30000149594E+02 0.  0.
        -12    1    1    2    0    0 -0.31358892530E+02  0.25050194373E+02  0.65014842005E+01  0.40659090935E+02  0.00000000000E+00 0.  1.
         11    1    3    3    0    0  0.34264459091E+01 -0.82242814529E+01 -0.85107481173E+00  0.89500651160E+01  0.51100000000E-03 0. -1.
        -11    1    3    3    0    0  0.26392866316E+02 -0.19125340241E+02  0.27738588342E+01  0.32711715406E+02  0.51100000000E-03 0.  1.
         12    1    3    3    0    0  0.15395803045E+01  0.22994273202E+01 -0.84242682229E+01  0.88671285435E+01  0.00000000000E+00 0. -1.
</event>
<event>
 7    1  0.2974434E-011  0.5052886E+02  0.7816164E-02  0.1300439E+00
        -11   -1    0    0    0    0  0.00000000000E+00  0.00000000000E+00  0.45593999997E+02  0.45594000000E+02  0.51100000000E-03 0. -1.
         11   -1    0    0    0    0 -0.00000000000E+00 -0.00000000000E+00 -0.45593999997E+02  0.45594000000E+02  0.51100000000E-03 0.  1.
    9900012    2    1    2    0    0 -0.14330954363E+02 -0.32547282118E+02  0.19709485591E+02  0.50528860210E+02  0.30000001093E+02 0.  0.
        -12    1    1    2    0    0  0.14330954363E+02  0.32547282118E+02 -0.19709485591E+02  0.40659139790E+02  0.00000000000E+00 0.  1.
         11    1    3    3    0    0 -0.79335078408E+01 -0.20981007170E+01  0.14215029054E+02  0.16413702341E+02  0.51100000000E-03 0. -1.
        -11    1    3    3    0    0 -0.75661465329E+01 -0.12086245293E+02  0.65356823696E+01  0.15685631735E+02  0.51100000000E-03 0.  1.
        -12    1    3    3    0    0  0.11687000109E+01 -0.18362936109E+02 -0.10412258331E+01  0.18429526133E+02  0.00000000000E+00 0.  1.
</event>
<event>
 7    1  0.2974434E-011  0.5052886E+02  0.7816164E-02  0.1300439E+00
        -11   -1    0    0    0    0  0.00000000000E+00  0.00000000000E+00  0.45593999997E+02  0.45594000000E+02  0.51100000000E-03 0.  1.
         11   -1    0    0    0    0 -0.00000000000E+00 -0.00000000000E+00 -0.45593999997E+02  0.45594000000E+02  0.51100000000E-03 0. -1.
    9900012    2    1    2    0    0 -0.20585752155E+02  0.16252022605E+02 -0.31068697583E+02  0.50528863264E+02  0.30000010378E+02 0.  0.
        -12    1    1    2    0    0  0.20585752155E+02 -0.16252022605E+02  0.31068697583E+02  0.40659136736E+02  0.00000000000E+00 0.  1.
         11    1    3    3    0    0 -0.19989423051E+02  0.12037581950E+02 -0.20504891420E+02  0.31063338287E+02  0.51100000000E-03 0. -1.
        -11    1    3    3    0    0 -0.64910717162E+01  0.60938391507E+00 -0.10728161561E+02  0.12553836526E+02  0.51100000000E-03 0.  1.
        -12    1    3    3    0    0  0.58947426118E+01  0.36050567405E+01  0.16435539724E+00  0.69116884520E+01  0.00000000000E+00 0.  1.
</event>
<event>
 7    1  0.2974434E-011  0.5052886E+02  0.7816164E-02  0.1300439E+00
        -11   -1    0    0    0    0  0.00000000000E+00  0.00000000000E+00  0.45593999997E+02  0.45594000000E+02  0.51100000000E-03 0. -1.
         11   -1    0    0    0    0 -0.00000000000E+00 -0.00000000000E+00 -0.45593999997E+02  0.45594000000E+02  0.51100000000E-03 0.  1.
    9900012    2    1    2    0    0  0.28339959787E+02 -0.65604680005E+01  0.28407264178E+02  0.50528859340E+02  0.29999998449E+02 0.  0.
        -12    1    1    2    0    0 -0.28339959787E+02  0.65604680005E+01 -0.28407264178E+02  0.40659140660E+02  0.00000000000E+00 0.  1.
         11    1    3    3    0    0 -0.40817688199E+01  0.82251407380E-02  0.71950051489E+01  0.82721825237E+01  0.51100000000E-03 0. -1.
        -11    1    3    3    0    0  0.14434295243E+02  0.13168238347E+01  0.16685455925E+02  0.22101749792E+02  0.51100000000E-03 0.  1.
         12    1    3    3    0    0  0.17987433364E+02 -0.78855169759E+01  0.45268031045E+01  0.20154927024E+02  0.00000000000E+00 0. -1.
</event>
<event>
 7    1  0.2974434E-011  0.5052886E+02  0.7816164E-02  0.1300439E+00
        -11   -1    0    0    0    0  0.00000000000E+00  0.00000000000E+00  0.45593999997E+02  0.45594000000E+02  0.51100000000E-03 0.  1.
         11   -1    0    0    0    0 -0.00000000000E+00 -0.00000000000E+00 -0.45593999997E+02  0.45594000000E+02  0.51100000000E-03 0. -1.
    9900012    2    1    2    0    0 -0.15773716985E+02  0.19013612574E+02 -0.32293003605E+02  0.50528859669E+02  0.29999999449E+02 0.  0.
        -12    1    1    2    0    0  0.15773716985E+02 -0.19013612574E+02  0.32293003605E+02  0.40659140331E+02  0.00000000000E+00 0.  1.
         11    1    3    3    0    0 -0.40425887176E+01  0.16834531337E+02 -0.16817905666E+02  0.24136816695E+02  0.51100000000E-03 0. -1.
        -11    1    3    3    0    0 -0.58010134888E+00  0.83052156574E+01 -0.84326133538E+01  0.11849982824E+02  0.51100000000E-03 0.  1.
        -12    1    3    3    0    0 -0.11151026918E+02 -0.61261344208E+01 -0.70424845852E+01  0.14542060150E+02  0.00000000000E+00 0.  1.
</event>
<event>
 7    1  0.2974434E-011  0.5052886E+02  0.7816164E-02  0.1300439E+00
        -11   -1    0    0    0    0  0.00000000000E+00  0.00000000000E+00  0.45593999997E+02  0.45594000000E+02  0.51100000000E-03 0. -1.
         11   -1    0    0    0    0 -0.00000000000E+00 -0.00000000000E+00 -0.45593999997E+02  0.45594000000E+02  0.51100000000E-03 0.  1.
    9900012    2    1    2    0    0  0.28218630169E+02 -0.24353986321E+02  0.16240627824E+02  0.50528859202E+02  0.29999998029E+02 0.  0.
        -12    1    1    2    0    0 -0.28218630169E+02  0.24353986321E+02 -0.16240627824E+02  0.40659140798E+02  0.00000000000E+00 0.  1.
         11    1    3    3    0    0  0.19958579918E+02 -0.65913589261E+01  0.14690770460E+02  0.25643901065E+02  0.51100000000E-03 0. -1.
        -11    1    3    3    0    0  0.59222765134E+01 -0.14130363747E+02  0.78742015579E+01  0.17226247100E+02  0.51100000000E-03 0.  1.
        -12    1    3    3    0    0  0.23377737380E+01 -0.36322636482E+01 -0.63243441943E+01  0.76587110370E+01  0.00000000000E+00 0.  1.
</event>
<event>
 7    1  0.2974434E-011  0.5052887E+02  0.7816164E-02  0.1300439E+00
        -11   -1    0    0    0    0  0.00000000000E+00  0.00000000000E+00  0.45593999997E+02  0.45594000000E+02  0.51100000000E-03 0.  1.
         11   -1    0    0    0    0 -0.00000000000E+00 -0.00000000000E+00 -0.45593999997E+02  0.45594000000E+02  0.51100000000E-03 0. -1.
    9900012    2    1    2    0    0 -0.17875850501E+02  0.15229534393E+02 -0.33191572187E+02  0.50528865563E+02  0.30000017366E+02 0.  0.
        -12    1    1    2    0    0  0.17875850501E+02 -0.15229534393E+02  0.33191572187E+02  0.40659134437E+02  0.00000000000E+00 0.  1.
         11    1    3    3    0    0  0.94799465747E+00  0.72454975074E+01 -0.16801612901E+02  0.18321848278E+02  0.51100000000E-03 0. -1.
        -11    1    3    3    0    0 -0.91496047950E+00  0.89035274494E+01 -0.93464388375E+01  0.12940860595E+02  0.51100000000E-03 0.  1.
        -12    1    3    3    0    0 -0.17908884679E+02 -0.91949056422E+00 -0.70435204485E+01  0.19266156691E+02  0.00000000000E+00 0.  1.
</event>
<event>
 7    1  0.2974434E-011  0.5052887E+02  0.7816164E-02  0.1300439E+00
        -11   -1    0    0    0    0  0.00000000000E+00  0.00000000000E+00  0.45593999997E+02  0.45594000000E+02  0.51100000000E-03 0.  1.
         11   -1    0    0    0    0 -0.00000000000E+00 -0.00000000000E+00 -0.45593999997E+02  0.45594000000E+02  0.51100000000E-03 0. -1.
    9900012    2    1    2    0    0 -0.29990290940E+00 -0.14515875492E+02 -0.37978472440E+02  0.50528868775E+02  0.30000027130E+02 0.  0.
        -12    1    1    2    0    0  0.29990290940E+00  0.14515875492E+02  0.37978472440E+02  0.40659131225E+02  0.00000000000E+00 0.  1.
         11    1    3    3    0    0  0.24211534459E+01  0.11482641193E+01 -0.26936272110E+01  0.37994897432E+01  0.51100000000E-03 0. -1.
        -11    1    3    3    0    0  0.85789551029E+01 -0.23254754597E+01 -0.19667859608E+01  0.91035462347E+01  0.51100000000E-03 0.  1.
         12    1    3    3    0    0 -0.11300011458E+02 -0.13338664152E+02 -0.33318059268E+02  0.37625832798E+02  0.00000000000E+00 0. -1.
</event>
<event>
 7    1  0.2974434E-011  0.5052886E+02  0.7816164E-02  0.1300439E+00
        -11   -1    0    0    0    0  0.00000000000E+00  0.00000000000E+00  0.45593999997E+02  0.45594000000E+02  0.51100000000E-03 0.  1.
         11   -1    0    0    0    0 -0.00000000000E+00 -0.00000000000E+00 -0.45593999997E+02  0.45594000000E+02  0.51100000000E-03 0. -1.
    9900012    2    1    2    0    0 -0.15139384720E+01 -0.14742240465E+02 -0.37862118369E+02  0.50528859932E+02  0.30000000250E+02 0.  0.
        -12    1    1    2    0    0  0.15139384720E+01  0.14742240465E+02  0.37862118369E+02  0.40659140068E+02  0.00000000000E+00 0.  1.
         11    1    3    3    0    0  0.88475308286E-01 -0.10460726468E+02 -0.65477918315E+01  0.12341321009E+02  0.51100000000E-03 0. -1.
        -11    1    3    3    0    0  0.11152476468E+01  0.54145838426E+01 -0.25222994070E+00  0.55339963594E+01  0.51100000000E-03 0.  1.
         12    1    3    3    0    0 -0.27176614271E+01 -0.96960978402E+01 -0.31062096597E+02  0.32653542564E+02  0.00000000000E+00 0. -1.
</event>
<event>
 7    1  0.2974434E-011  0.5052886E+02  0.7816164E-02  0.1300439E+00
        -11   -1    0    0    0    0  0.00000000000E+00  0.00000000000E+00  0.45593999997E+02  0.45594000000E+02  0.51100000000E-03 0. -1.
         11   -1    0    0    0    0 -0.00000000000E+00 -0.00000000000E+00 -0.45593999997E+02  0.45594000000E+02  0.51100000000E-03 0.  1.
    9900012    2    1    2    0    0  0.33366842688E+02 -0.96425738824E-01 -0.23233815197E+02  0.50528860099E+02  0.30000000757E+02 0.  0.
        -12    1    1    2    0    0 -0.33366842688E+02  0.96425738824E-01  0.23233815197E+02  0.40659139901E+02  0.00000000000E+00 0.  1.
         11    1    3    3    0    0  0.91915061061E+01  0.19230126960E+01 -0.20328629807E+02  0.22392743298E+02  0.51100000000E-03 0.  1.
        -11    1    3    3    0    0  0.60978506069E-01 -0.10522378543E+01  0.30934130259E+01  0.32680464027E+01  0.51100000000E-03 0. -1.
        -12    1    3    3    0    0  0.24114358076E+02 -0.96720058054E+00 -0.59985984164E+01  0.24868070398E+02  0.00000000000E+00 0.  1.
</event>
<event>
 7    1  0.2974434E-011  0.5052885E+02  0.7816164E-02  0.1300439E+00
        -11   -1    0    0    0    0  0.00000000000E+00  0.00000000000E+00  0.45593999997E+02  0.45594000000E+02  0.51100000000E-03 0. -1.
         11   -1    0    0    0    0 -0.00000000000E+00 -0.00000000000E+00 -0.45593999997E+02  0.45594000000E+02  0.51100000000E-03 0.  1.
    9900012    2    1    2    0    0  0.61283769679E+01 -0.37974533108E+02  0.13173635173E+02  0.50528845647E+02  0.29999956829E+02 0.  0.
        -12    1    1    2    0    0 -0.61283769679E+01  0.37974533108E+02 -0.13173635173E+02  0.40659154353E+02  0.00000000000E+00 0.  1.
         11    1    3    3    0    0 -0.85846892215E+01 -0.23315944425E+02  0.90820467273E+01  0.26453992637E+02  0.51100000000E-03 0. -1.
        -11    1    3    3    0    0  0.23687198129E+01 -0.10364327479E+02  0.13074156668E+01  0.10711650369E+02  0.51100000000E-03 0.  1.
        -12    1    3    3    0    0  0.12344346377E+02 -0.42942612044E+01  0.27841727793E+01  0.13363202641E+02  0.00000000000E+00 0.  1.
</event>
<event>
 7    1  0.2974434E-011  0.5052884E+02  0.7816164E-02  0.1300439E+00
        -11   -1    0    0    0    0  0.00000000000E+00  0.00000000000E+00  0.45593999997E+02  0.45594000000E+02  0.51100000000E-03 0.  1.
         11   -1    0    0    0    0 -0.00000000000E+00 -0.00000000000E+00 -0.45593999997E+02  0.45594000000E+02  0.51100000000E-03 0. -1.
    9900012    2    1    2    0    0 -0.23578836807E+01 -0.11609835324E+02 -0.38894976899E+02  0.50528842118E+02  0.29999946103E+02 0.  0.
        -12    1    1    2    0    0  0.23578836807E+01  0.11609835324E+02  0.38894976899E+02  0.40659157882E+02  0.00000000000E+00 0.  1.
         11    1    3    3    0    0  0.34356754796E+01  0.19964960233E+01 -0.70922032242E+01  0.81295269977E+01  0.51100000000E-03 0. -1.
        -11    1    3    3    0    0  0.92985903794E+00  0.57051864910E+01 -0.14510325035E+02  0.15619325325E+02  0.51100000000E-03 0.  1.
         12    1    3    3    0    0 -0.67234181982E+01 -0.19311517839E+02 -0.17292448639E+02  0.26779989795E+02  0.00000000000E+00 0. -1.
</event>
<event>
 7    1  0.2974434E-011  0.5052885E+02  0.7816164E-02  0.1300439E+00
        -11   -1    0    0    0    0  0.00000000000E+00  0.00000000000E+00  0.45593999997E+02  0.45594000000E+02  0.51100000000E-03 0.  1.
         11   -1    0    0    0    0 -0.00000000000E+00 -0.00000000000E+00 -0.45593999997E+02  0.45594000000E+02  0.51100000000E-03 0. -1.
    9900012    2    1    2    0    0 -0.29326750173E+02 -0.95165360220E+01  0.26505534756E+02  0.50528854580E+02  0.29999983982E+02 0.  0.
        -12    1    1    2    0    0  0.29326750173E+02  0.95165360220E+01 -0.26505534756E+02  0.40659145420E+02  0.00000000000E+00 0.  1.
         11    1    3    3    0    0  0.14694622980E+01  0.46699979005E+01  0.25820936375E+01  0.55349261648E+01  0.51100000000E-03 0. -1.
        -11    1    3    3    0    0 -0.26038667804E+01 -0.12923106987E+01  0.11050339322E+02  0.11426293736E+02  0.51100000000E-03 0.  1.
         12    1    3    3    0    0 -0.28192345690E+02 -0.12894223224E+02  0.12873101797E+02  0.33567634679E+02  0.00000000000E+00 0. -1.
</event>
<event>
 7    1  0.2974434E-011  0.5052886E+02  0.7816164E-02  0.1300439E+00
        -11   -1    0    0    0    0  0.00000000000E+00  0.00000000000E+00  0.45593999997E+02  0.45594000000E+02  0.51100000000E-03 0. -1.
         11   -1    0    0    0    0 -0.00000000000E+00 -0.00000000000E+00 -0.45593999997E+02  0.45594000000E+02  0.51100000000E-03 0.  1.
    9900012    2    1    2    0    0  0.12604084915E+02  0.34570362678E+02  0.17297199155E+02  0.50528855508E+02  0.29999986802E+02 0.  0.
        -12    1    1    2    0    0 -0.12604084915E+02 -0.34570362678E+02 -0.17297199155E+02  0.40659144492E+02  0.00000000000E+00 0.  1.
         11    1    3    3    0    0  0.18284304996E+01 -0.27682740438E+00  0.20290500951E+01  0.27453298624E+01  0.51100000000E-03 0. -1.
        -11    1    3    3    0    0 -0.39210358350E+01 -0.13497698958E+01  0.65555046783E+01  0.77569995900E+01  0.51100000000E-03 0.  1.
         12    1    3    3    0    0  0.14696690250E+02  0.36196959978E+02  0.87126443818E+01  0.40026526056E+02  0.00000000000E+00 0. -1.
</event>
<event>
 7    1  0.2974434E-011  0.5052886E+02  0.7816164E-02  0.1300439E+00
        -11   -1    0    0    0    0  0.00000000000E+00  0.00000000000E+00  0.45593999997E+02  0.45594000000E+02  0.51100000000E-03 0.  1.
         11   -1    0    0    0    0 -0.00000000000E+00 -0.00000000000E+00 -0.45593999997E+02  0.45594000000E+02  0.51100000000E-03 0. -1.
    9900012    2    1    2    0    0  0.32825673525E+02 -0.17474702320E+02 -0.16440072703E+02  0.50528855223E+02  0.29999985936E+02 0.  0.
        -12    1    1    2    0    0 -0.32825673525E+02  0.17474702320E+02  0.16440072703E+02  0.40659144777E+02  0.00000000000E+00 0.  1.
         11    1    3    3    0    0  0.15782863489E+02 -0.66472334311E+01 -0.13165309883E+02  0.21601154525E+02  0.51100000000E-03 0. -1.
        -11    1    3    3    0    0  0.21162353298E+02 -0.72181334710E+01  0.34578697751E+00  0.22362160379E+02  0.51100000000E-03 0.  1.
        -12    1    3    3    0    0 -0.41195432627E+01 -0.36093354181E+01 -0.36205497973E+01  0.65655403197E+01  0.00000000000E+00 0.  1.
</event>
<event>
 7    1  0.2974434E-011  0.5052886E+02  0.7816164E-02  0.1300439E+00
        -11   -1    0    0    0    0  0.00000000000E+00  0.00000000000E+00  0.45593999997E+02  0.45594000000E+02  0.51100000000E-03 0.  1.
         11   -1    0    0    0    0 -0.00000000000E+00 -0.00000000000E+00 -0.45593999997E+02  0.45594000000E+02  0.51100000000E-03 0. -1.
    9900012    2    1    2    0    0  0.86955137916E+01 -0.55270632983E+01 -0.39331985041E+02  0.50528862822E+02  0.30000009033E+02 0.  0.
        -12    1    1    2    0    0 -0.86955137916E+01  0.55270632983E+01  0.39331985041E+02  0.40659137178E+02  0.00000000000E+00 0.  1.
         11    1    3    3    0    0  0.14406675998E+02 -0.69470683698E+01 -0.16983605593E+02  0.23329314852E+02  0.51100000000E-03 0. -1.
        -11    1    3    3    0    0 -0.19680920515E+01 -0.59162823169E+01 -0.49884914694E+01  0.79850378946E+01  0.51100000000E-03 0.  1.
         12    1    3    3    0    0 -0.37430701543E+01  0.73362873885E+01 -0.17359887978E+02  0.19214510076E+02  0.00000000000E+00 0. -1.
</event>
<event>
 7    1  0.2974434E-011  0.5052886E+02  0.7816164E-02  0.1300439E+00
        -11   -1    0    0    0    0  0.00000000000E+00  0.00000000000E+00  0.45593999997E+02  0.45594000000E+02  0.51100000000E-03 0.  1.
         11   -1    0    0    0    0 -0.00000000000E+00 -0.00000000000E+00 -0.45593999997E+02  0.45594000000E+02  0.51100000000E-03 0. -1.
    9900012    2    1    2    0    0 -0.15496128919E+02  0.23137176664E+02 -0.29626114487E+02  0.50528860621E+02  0.30000002343E+02 0.  0.
        -12    1    1    2    0    0  0.15496128919E+02 -0.23137176664E+02  0.29626114487E+02  0.40659139379E+02  0.00000000000E+00 0.  1.
         11    1    3    3    0    0 -0.28190318177E+00  0.14737479670E+02 -0.11572892961E+02  0.18740454322E+02  0.51100000000E-03 0.  1.
        -11    1    3    3    0    0 -0.94698646000E+01  0.74650061597E+01  0.77299299823E+00  0.12083135808E+02  0.51100000000E-03 0. -1.
         12    1    3    3    0    0 -0.57443611375E+01  0.93469083384E+00 -0.18826214524E+02  0.19705270492E+02  0.00000000000E+00 0. -1.
</event>
<event>
 7    1  0.2974434E-011  0.5052886E+02  0.7816164E-02  0.1300439E+00
        -11   -1    0    0    0    0  0.00000000000E+00  0.00000000000E+00  0.45593999997E+02  0.45594000000E+02  0.51100000000E-03 0.  1.
         11   -1    0    0    0    0 -0.00000000000E+00 -0.00000000000E+00 -0.45593999997E+02  0.45594000000E+02  0.51100000000E-03 0. -1.
    9900012    2    1    2    0    0 -0.19429507565E+02 -0.31591225752E+02 -0.16662966374E+02  0.50528858874E+02  0.29999997034E+02 0.  0.
        -12    1    1    2    0    0  0.19429507565E+02  0.31591225752E+02  0.16662966374E+02  0.40659141126E+02  0.00000000000E+00 0.  1.
         11    1    3    3    0    0 -0.50119153560E+01 -0.35496709945E+01  0.30658490542E+01  0.68643200967E+01  0.51100000000E-03 0. -1.
        -11    1    3    3    0    0 -0.12142672259E+02 -0.17487287358E+02 -0.13164534803E+00  0.21290069035E+02  0.51100000000E-03 0.  1.
         12    1    3    3    0    0 -0.22749199500E+01 -0.10554267399E+02 -0.19597170080E+02  0.22374469743E+02  0.00000000000E+00 0. -1.
</event>
<event>
 7    1  0.2974434E-011  0.5052886E+02  0.7816164E-02  0.1300439E+00
        -11   -1    0    0    0    0  0.00000000000E+00  0.00000000000E+00  0.45593999997E+02  0.45594000000E+02  0.51100000000E-03 0.  1.
         11   -1    0    0    0    0 -0.00000000000E+00 -0.00000000000E+00 -0.45593999997E+02  0.45594000000E+02  0.51100000000E-03 0. -1.
    9900012    2    1    2    0    0  0.33680203241E+02 -0.15333648655E+02 -0.16843054988E+02  0.50528863601E+02  0.30000011401E+02 0.  0.
        -12    1    1    2    0    0 -0.33680203241E+02  0.15333648655E+02  0.16843054988E+02  0.40659136399E+02  0.00000000000E+00 0.  1.
         11    1    3    3    0    0  0.25764941784E+02 -0.95026675523E+01 -0.90519904807E+01  0.28914900098E+02  0.51100000000E-03 0. -1.
        -11    1    3    3    0    0  0.31526726479E+01 -0.55486062294E+01  0.49063804364E+01  0.80497791996E+01  0.51100000000E-03 0.  1.
         12    1    3    3    0    0  0.47625888092E+01 -0.28237487354E+00 -0.12697444943E+02  0.13564184304E+02  0.00000000000E+00 0. -1.
</event>
<event>
 7    1  0.2974434E-011  0.5052887E+02  0.7816164E-02  0.1300439E+00
        -11   -1    0    0    0    0  0.00000000000E+00  0.00000000000E+00  0.45593999997E+02  0.45594000000E+02  0.51100000000E-03 0.  1.
         11   -1    0    0    0    0 -0.00000000000E+00 -0.00000000000E+00 -0.45593999997E+02  0.45594000000E+02  0.51100000000E-03 0. -1.
    9900012    2    1    2    0    0  0.11949628837E+02 -0.35275426123E+02 -0.16309985575E+02  0.50528868837E+02  0.30000027317E+02 0.  0.
        -12    1    1    2    0    0 -0.11949628837E+02  0.35275426123E+02  0.16309985575E+02  0.40659131163E+02  0.00000000000E+00 0.  1.
         11    1    3    3    0    0  0.92341894551E+01 -0.28341577785E+02 -0.11592109203E+02  0.31982687227E+02  0.51100000000E-03 0. -1.
        -11    1    3    3    0    0  0.95477998472E+01 -0.51863540674E+01 -0.32689891084E+01  0.11346587174E+02  0.51100000000E-03 0.  1.
        -12    1    3    3    0    0 -0.68323604651E+01 -0.17474942706E+01 -0.14488872635E+01  0.71995944368E+01  0.00000000000E+00 0.  1.
</event>
<event>
 7    1  0.2974434E-011  0.5052886E+02  0.7816164E-02  0.1300439E+00
        -11   -1    0    0    0    0  0.00000000000E+00  0.00000000000E+00  0.45593999997E+02  0.45594000000E+02  0.51100000000E-03 0. -1.
         11   -1    0    0    0    0 -0.00000000000E+00 -0.00000000000E+00 -0.45593999997E+02  0.45594000000E+02  0.51100000000E-03 0.  1.
    9900012    2    1    2    0    0 -0.18870619932E+02  0.35654339392E+02  0.50826720528E+01  0.50528858724E+02  0.29999996578E+02 0.  0.
        -12    1    1    2    0    0  0.18870619932E+02 -0.35654339392E+02 -0.50826720528E+01  0.40659141276E+02  0.00000000000E+00 0.  1.
         11    1    3    3    0    0 -0.15598070168E+02  0.17920694054E+02 -0.56251062000E+01  0.24415013585E+02  0.51100000000E-03 0. -1.
        -11    1    3    3    0    0 -0.38534096442E+01  0.17433041329E+02  0.26733973856E+01  0.18052887573E+02  0.51100000000E-03 0.  1.
         12    1    3    3    0    0  0.58085988049E+00  0.30060400959E+00  0.80343808671E+01  0.80609575665E+01  0.00000000000E+00 0. -1.
</event>
<event>
 7    1  0.2974434E-011  0.5052881E+02  0.7816164E-02  0.1300439E+00
        -11   -1    0    0    0    0  0.00000000000E+00  0.00000000000E+00  0.45593999997E+02  0.45594000000E+02  0.51100000000E-03 0. -1.
         11   -1    0    0    0    0 -0.00000000000E+00 -0.00000000000E+00 -0.45593999997E+02  0.45594000000E+02  0.51100000000E-03 0.  1.
    9900012    2    1    2    0    0  0.34322323972E+02 -0.17402946876E+02  0.13125761936E+02  0.50528805355E+02  0.29999834357E+02 0.  0.
        -12    1    1    2    0    0 -0.34322323972E+02  0.17402946876E+02 -0.13125761936E+02  0.40659194645E+02  0.00000000000E+00 0.  1.
         11    1    3    3    0    0  0.19661150160E+01 -0.97930420083E+01  0.86618352271E+01  0.13221069162E+02  0.51100000000E-03 0. -1.
        -11    1    3    3    0    0  0.67182270849E+01 -0.61537781834E+01  0.70200849410E+01  0.11501528330E+02  0.51100000000E-03 0.  1.
         12    1    3    3    0    0  0.25637981871E+02 -0.14561266840E+01 -0.25561582319E+01  0.25806207862E+02  0.00000000000E+00 0. -1.
</event>
<event>
 7    1  0.2974434E-011  0.5052886E+02  0.7816164E-02  0.1300439E+00
        -11   -1    0    0    0    0  0.00000000000E+00  0.00000000000E+00  0.45593999997E+02  0.45594000000E+02  0.51100000000E-03 0. -1.
         11   -1    0    0    0    0 -0.00000000000E+00 -0.00000000000E+00 -0.45593999997E+02  0.45594000000E+02  0.51100000000E-03 0.  1.
    9900012    2    1    2    0    0  0.32307043258E+02  0.12193390295E+02  0.21464906255E+02  0.50528855746E+02  0.29999987525E+02 0.  0.
        -12    1    1    2    0    0 -0.32307043258E+02 -0.12193390295E+02 -0.21464906255E+02  0.40659144254E+02  0.00000000000E+00 0.  1.
         11    1    3    3    0    0 -0.48438698754E+00 -0.15851218083E+01  0.78443519024E+00  0.18337340946E+01  0.51100000000E-03 0.  1.
        -11    1    3    3    0    0  0.10817887431E+02 -0.61379330943E+01  0.13144195624E+02  0.18096154011E+02  0.51100000000E-03 0. -1.
        -12    1    3    3    0    0  0.21973542814E+02  0.19916445198E+02  0.75362754411E+01  0.30598967640E+02  0.00000000000E+00 0.  1.
</event>
<event>
 7    1  0.2974434E-011  0.5052882E+02  0.7816164E-02  0.1300439E+00
        -11   -1    0    0    0    0  0.00000000000E+00  0.00000000000E+00  0.45593999997E+02  0.45594000000E+02  0.51100000000E-03 0.  1.
         11   -1    0    0    0    0 -0.00000000000E+00 -0.00000000000E+00 -0.45593999997E+02  0.45594000000E+02  0.51100000000E-03 0. -1.
    9900012    2    1    2    0    0  0.20953213368E+02 -0.23276524773E+02 -0.25929421211E+02  0.50528823418E+02  0.29999889261E+02 0.  0.
        -12    1    1    2    0    0 -0.20953213368E+02  0.23276524773E+02  0.25929421211E+02  0.40659176582E+02  0.00000000000E+00 0.  1.
         11    1    3    3    0    0  0.26461181133E+01 -0.84397863316E+01 -0.15951432827E+02  0.18239521481E+02  0.51100000000E-03 0. -1.
        -11    1    3    3    0    0  0.19158338810E+02 -0.14323697194E+02 -0.17318972476E+01  0.23983530091E+02  0.51100000000E-03 0.  1.
         12    1    3    3    0    0 -0.85124355565E+00 -0.51304124805E+00 -0.82460911373E+01  0.83057718460E+01  0.00000000000E+00 0. -1.
</event>
<event>
 7    1  0.2974434E-011  0.5052886E+02  0.7816164E-02  0.1300439E+00
        -11   -1    0    0    0    0  0.00000000000E+00  0.00000000000E+00  0.45593999997E+02  0.45594000000E+02  0.51100000000E-03 0.  1.
         11   -1    0    0    0    0 -0.00000000000E+00 -0.00000000000E+00 -0.45593999997E+02  0.45594000000E+02  0.51100000000E-03 0. -1.
    9900012    2    1    2    0    0  0.10635053703E+02 -0.10913502440E+02 -0.37695574939E+02  0.50528864830E+02  0.30000015138E+02 0.  0.
        -12    1    1    2    0    0 -0.10635053703E+02  0.10913502440E+02  0.37695574939E+02  0.40659135170E+02  0.00000000000E+00 0.  1.
         11    1    3    3    0    0  0.90424053751E+01 -0.16805504644E+01 -0.14783274725E+02  0.17410759796E+02  0.51100000000E-03 0. -1.
        -11    1    3    3    0    0  0.11130350825E+02 -0.22473020480E+01 -0.71637863578E+01  0.13425904484E+02  0.51100000000E-03 0.  1.
        -12    1    3    3    0    0 -0.95377024967E+01 -0.69856499273E+01 -0.15748513856E+02  0.19692200550E+02  0.00000000000E+00 0.  1.
</event>
<event>
 7    1  0.2974434E-011  0.5052886E+02  0.7816164E-02  0.1300439E+00
        -11   -1    0    0    0    0  0.00000000000E+00  0.00000000000E+00  0.45593999997E+02  0.45594000000E+02  0.51100000000E-03 0.  1.
         11   -1    0    0    0    0 -0.00000000000E+00 -0.00000000000E+00 -0.45593999997E+02  0.45594000000E+02  0.51100000000E-03 0. -1.
    9900012    2    1    2    0    0  0.30488906334E+02 -0.62425301874E-01 -0.26899599076E+02  0.50528859124E+02  0.29999997793E+02 0.  0.
        -12    1    1    2    0    0 -0.30488906334E+02  0.62425301874E-01  0.26899599076E+02  0.40659140876E+02  0.00000000000E+00 0.  1.
         11    1    3    3    0    0  0.51744685849E+01  0.54491745512E+01 -0.86337454550E+01  0.11445968254E+02  0.51100000000E-03 0. -1.
        -11    1    3    3    0    0 -0.32410641870E+01  0.52493670436E-02 -0.73241347167E+01  0.80092118358E+01  0.51100000000E-03 0.  1.
        -12    1    3    3    0    0  0.28555501936E+02 -0.55168492201E+01 -0.10941718904E+02  0.31073679034E+02  0.00000000000E+00 0.  1.
</event>
<event>
 7    1  0.2974434E-011  0.5052886E+02  0.7816164E-02  0.1300439E+00
        -11   -1    0    0    0    0  0.00000000000E+00  0.00000000000E+00  0.45593999997E+02  0.45594000000E+02  0.51100000000E-03 0.  1.
         11   -1    0    0    0    0 -0.00000000000E+00 -0.00000000000E+00 -0.45593999997E+02  0.45594000000E+02  0.51100000000E-03 0. -1.
    9900012    2    1    2    0    0 -0.24555844735E+02 -0.41608323600E+01 -0.32138191882E+02  0.50528863093E+02  0.30000009859E+02 0.  0.
        -12    1    1    2    0    0  0.24555844735E+02  0.41608323600E+01  0.32138191882E+02  0.40659136907E+02  0.00000000000E+00 0.  1.
         11    1    3    3    0    0 -0.26169120244E+01 -0.43717413609E+01 -0.27670221961E+01  0.57979964785E+01  0.51100000000E-03 0. -1.
        -11    1    3    3    0    0 -0.15066331698E+02 -0.12231818822E+02 -0.15107356371E+02  0.24593575569E+02  0.51100000000E-03 0.  1.
        -12    1    3    3    0    0 -0.68726010126E+01  0.12442727823E+02 -0.14263813315E+02  0.20137291045E+02  0.00000000000E+00 0.  1.
</event>
<event>
 7    1  0.2974434E-011  0.5052886E+02  0.7816164E-02  0.1300439E+00
        -11   -1    0    0    0    0  0.00000000000E+00  0.00000000000E+00  0.45593999997E+02  0.45594000000E+02  0.51100000000E-03 0.  1.
         11   -1    0    0    0    0 -0.00000000000E+00 -0.00000000000E+00 -0.45593999997E+02  0.45594000000E+02  0.51100000000E-03 0. -1.
    9900012    2    1    2    0    0 -0.31482550847E+01 -0.22799570734E+02 -0.33517665862E+02  0.50528857602E+02  0.29999993166E+02 0.  0.
        -12    1    1    2    0    0  0.31482550847E+01  0.22799570734E+02  0.33517665862E+02  0.40659142398E+02  0.00000000000E+00 0.  1.
         11    1    3    3    0    0 -0.57420271892E+01 -0.20283794409E+02 -0.25509661665E+02  0.33092990654E+02  0.51100000000E-03 0. -1.
        -11    1    3    3    0    0 -0.24643454211E+01 -0.77539035985E+01 -0.33951608904E+01  0.88160726575E+01  0.51100000000E-03 0.  1.
         12    1    3    3    0    0  0.50581175256E+01  0.52381272737E+01 -0.46128433065E+01  0.86197942904E+01  0.00000000000E+00 0. -1.
</event>
<event>
 7    1  0.2974434E-011  0.5052885E+02  0.7816164E-02  0.1300439E+00
        -11   -1    0    0    0    0  0.00000000000E+00  0.00000000000E+00  0.45593999997E+02  0.45594000000E+02  0.51100000000E-03 0. -1.
         11   -1    0    0    0    0 -0.00000000000E+00 -0.00000000000E+00 -0.45593999997E+02  0.45594000000E+02  0.51100000000E-03 0.  1.
    9900012    2    1    2    0    0  0.18291850219E+02 -0.33638968014E+02  0.13674595937E+02  0.50528849400E+02  0.29999968235E+02 0.  0.
        -12    1    1    2    0    0 -0.18291850219E+02  0.33638968014E+02 -0.13674595937E+02  0.40659150600E+02  0.00000000000E+00 0.  1.
         11    1    3    3    0    0  0.58507740412E+01 -0.97712243743E+00  0.57724448379E+01  0.82769224236E+01  0.51100000000E-03 0. -1.
        -11    1    3    3    0    0  0.13840675057E+02 -0.24969688268E+02 -0.31408952421E+01  0.28721330774E+02  0.51100000000E-03 0.  1.
         12    1    3    3    0    0 -0.13995988792E+01 -0.76921573090E+01  0.11043046342E+02  0.13530596203E+02  0.00000000000E+00 0. -1.
</event>
<event>
 7    1  0.2974434E-011  0.5052886E+02  0.7816164E-02  0.1300439E+00
        -11   -1    0    0    0    0  0.00000000000E+00  0.00000000000E+00  0.45593999997E+02  0.45594000000E+02  0.51100000000E-03 0.  1.
         11   -1    0    0    0    0 -0.00000000000E+00 -0.00000000000E+00 -0.45593999997E+02  0.45594000000E+02  0.51100000000E-03 0. -1.
    9900012    2    1    2    0    0  0.26533765912E+02 -0.73954603986E+01 -0.29907060571E+02  0.50528857854E+02  0.29999993934E+02 0.  0.
        -12    1    1    2    0    0 -0.26533765912E+02  0.73954603986E+01  0.29907060571E+02  0.40659142146E+02  0.00000000000E+00 0.  1.
         11    1    3    3    0    0  0.72134020343E+01  0.66516501017E+01 -0.37516037414E+01  0.10504863106E+02  0.51100000000E-03 0. -1.
        -11    1    3    3    0    0  0.63073752556E+01 -0.85429783119E+01 -0.37514519665E+00  0.10625732692E+02  0.51100000000E-03 0.  1.
         12    1    3    3    0    0  0.13012988622E+02 -0.55041321885E+01 -0.25780311633E+02  0.29398262057E+02  0.00000000000E+00 0. -1.
</event>
<event>
 7    1  0.2974434E-011  0.5052886E+02  0.7816164E-02  0.1300439E+00
        -11   -1    0    0    0    0  0.00000000000E+00  0.00000000000E+00  0.45593999997E+02  0.45594000000E+02  0.51100000000E-03 0.  1.
         11   -1    0    0    0    0 -0.00000000000E+00 -0.00000000000E+00 -0.45593999997E+02  0.45594000000E+02  0.51100000000E-03 0. -1.
    9900012    2    1    2    0    0 -0.15732037624E+02  0.33426468461E+02 -0.16980582562E+02  0.50528856062E+02  0.29999988487E+02 0.  0.
        -12    1    1    2    0    0  0.15732037624E+02 -0.33426468461E+02  0.16980582562E+02  0.40659143938E+02  0.00000000000E+00 0.  1.
         11    1    3    3    0    0 -0.96241333412E+01  0.18765412265E+02 -0.12853821701E+00  0.21089835523E+02  0.51100000000E-03 0. -1.
        -11    1    3    3    0    0  0.20783878191E+00  0.16977297526E+02 -0.94281780578E+01  0.19420668629E+02  0.51100000000E-03 0.  1.
        -12    1    3    3    0    0 -0.63157430644E+01 -0.23162413296E+01 -0.74238662874E+01  0.10018351911E+02  0.00000000000E+00 0.  1.
</event>
<event>
 7    1  0.2974434E-011  0.5052884E+02  0.7816164E-02  0.1300439E+00
        -11   -1    0    0    0    0  0.00000000000E+00  0.00000000000E+00  0.45593999997E+02  0.45594000000E+02  0.51100000000E-03 0. -1.
         11   -1    0    0    0    0 -0.00000000000E+00 -0.00000000000E+00 -0.45593999997E+02  0.45594000000E+02  0.51100000000E-03 0.  1.
    9900012    2    1    2    0    0  0.18543861605E+02  0.15322016302E+02  0.32779999511E+02  0.50528839228E+02  0.29999937316E+02 0.  0.
        -12    1    1    2    0    0 -0.18543861605E+02 -0.15322016302E+02 -0.32779999511E+02  0.40659160772E+02  0.00000000000E+00 0.  1.
         11    1    3    3    0    0  0.17755406071E+02  0.44393111328E+01  0.33382000536E+01  0.18603911092E+02  0.51100000000E-03 0. -1.
        -11    1    3    3    0    0  0.16032862222E+01  0.55266808062E+00  0.21918597407E+01  0.27713206422E+01  0.51100000000E-03 0.  1.
        -12    1    3    3    0    0 -0.81483068845E+00  0.10330037089E+02  0.27249939717E+02  0.29153607493E+02  0.00000000000E+00 0.  1.
</event>
<event>
 7    1  0.2974434E-011  0.5052888E+02  0.7816164E-02  0.1300439E+00
        -11   -1    0    0    0    0  0.00000000000E+00  0.00000000000E+00  0.45593999997E+02  0.45594000000E+02  0.51100000000E-03 0. -1.
         11   -1    0    0    0    0 -0.00000000000E+00 -0.00000000000E+00 -0.45593999997E+02  0.45594000000E+02  0.51100000000E-03 0.  1.
    9900012    2    1    2    0    0 -0.37589211825E+02  0.15389028115E+02 -0.18420665632E+01  0.50528877516E+02  0.30000053697E+02 0.  0.
        -12    1    1    2    0    0  0.37589211825E+02 -0.15389028115E+02  0.18420665632E+01  0.40659122484E+02  0.00000000000E+00 0.  1.
         11    1    3    3    0    0 -0.29909163889E+02  0.10690156627E+02 -0.57100713242E+01  0.32271387451E+02  0.51100000000E-03 0. -1.
        -11    1    3    3    0    0 -0.65516897467E+01 -0.14979984368E+01 -0.42731160633E+01  0.79641797446E+01  0.51100000000E-03 0.  1.
        -12    1    3    3    0    0 -0.11283581897E+01  0.61968699253E+01  0.81411208243E+01  0.10293310320E+02  0.00000000000E+00 0.  1.
</event>
<event>
 7    1  0.2974434E-011  0.5052886E+02  0.7816164E-02  0.1300439E+00
        -11   -1    0    0    0    0  0.00000000000E+00  0.00000000000E+00  0.45593999997E+02  0.45594000000E+02  0.51100000000E-03 0.  1.
         11   -1    0    0    0    0 -0.00000000000E+00 -0.00000000000E+00 -0.45593999997E+02  0.45594000000E+02  0.51100000000E-03 0. -1.
    9900012    2    1    2    0    0 -0.10303404548E+02 -0.99273395726E+00 -0.39319460657E+02  0.50528860162E+02  0.30000000948E+02 0.  0.
        -12    1    1    2    0    0  0.10303404548E+02  0.99273395726E+00  0.39319460657E+02  0.40659139838E+02  0.00000000000E+00 0.  1.
         11    1    3    3    0    0 -0.22077454803E+01  0.19040456799E+01 -0.23626851491E+02  0.23806042125E+02  0.51100000000E-03 0.  1.
        -11    1    3    3    0    0 -0.12942388099E+02 -0.72339691296E+01 -0.12867238159E+02  0.19631646319E+02  0.51100000000E-03 0. -1.
        -12    1    3    3    0    0  0.48467290315E+01  0.43371894924E+01 -0.28253710074E+01  0.70911717175E+01  0.00000000000E+00 0.  1.
</event>
<event>
 7    1  0.2974434E-011  0.5052886E+02  0.7816164E-02  0.1300439E+00
        -11   -1    0    0    0    0  0.00000000000E+00  0.00000000000E+00  0.45593999997E+02  0.45594000000E+02  0.51100000000E-03 0.  1.
         11   -1    0    0    0    0 -0.00000000000E+00 -0.00000000000E+00 -0.45593999997E+02  0.45594000000E+02  0.51100000000E-03 0. -1.
    9900012    2    1    2    0    0  0.23796241880E+02  0.18207354577E+01 -0.32917914614E+02  0.50528864400E+02  0.30000013829E+02 0.  0.
        -12    1    1    2    0    0 -0.23796241880E+02 -0.18207354577E+01  0.32917914614E+02  0.40659135600E+02  0.00000000000E+00 0.  1.
         11    1    3    3    0    0  0.17666094654E+02  0.40016141219E+01 -0.18279200797E+02  0.25733888123E+02  0.51100000000E-03 0. -1.
        -11    1    3    3    0    0  0.98754204514E+01  0.55008672737E+01 -0.98801170059E+01  0.15013333479E+02  0.51100000000E-03 0.  1.
         12    1    3    3    0    0 -0.37452732259E+01 -0.76817459380E+01 -0.47585968118E+01  0.97816427971E+01  0.00000000000E+00 0. -1.
</event>
<event>
 7    1  0.2974434E-011  0.5052887E+02  0.7816164E-02  0.1300439E+00
        -11   -1    0    0    0    0  0.00000000000E+00  0.00000000000E+00  0.45593999997E+02  0.45594000000E+02  0.51100000000E-03 0.  1.
         11   -1    0    0    0    0 -0.00000000000E+00 -0.00000000000E+00 -0.45593999997E+02  0.45594000000E+02  0.51100000000E-03 0. -1.
    9900012    2    1    2    0    0  0.28258031364E+02  0.17649526557E+02 -0.23305425003E+02  0.50528868691E+02  0.30000026872E+02 0.  0.
        -12    1    1    2    0    0 -0.28258031364E+02 -0.17649526557E+02  0.23305425003E+02  0.40659131309E+02  0.00000000000E+00 0.  1.
         11    1    3    3    0    0  0.18566991445E+02  0.23260197905E+01 -0.18590554094E+02  0.26377115861E+02  0.51100000000E-03 0. -1.
        -11    1    3    3    0    0 -0.35330089857E+01  0.35221900025E+00 -0.17472491361E+01  0.39571568736E+01  0.51100000000E-03 0.  1.
         12    1    3    3    0    0  0.13224048905E+02  0.14971287766E+02 -0.29676217730E+01  0.20194595955E+02  0.00000000000E+00 0. -1.
</event>
<event>
 7    1  0.2974434E-011  0.5052892E+02  0.7816164E-02  0.1300439E+00
        -11   -1    0    0    0    0  0.00000000000E+00  0.00000000000E+00  0.45593999997E+02  0.45594000000E+02  0.51100000000E-03 0. -1.
         11   -1    0    0    0    0 -0.00000000000E+00 -0.00000000000E+00 -0.45593999997E+02  0.45594000000E+02  0.51100000000E-03 0.  1.
    9900012    2    1    2    0    0  0.34370837995E+02 -0.18076412960E+02  0.12043636598E+02  0.50528924845E+02  0.30000197557E+02 0.  0.
        -12    1    1    2    0    0 -0.34370837995E+02  0.18076412960E+02 -0.12043636598E+02  0.40659075155E+02  0.00000000000E+00 0.  1.
         11    1    3    3    0    0  0.18447719470E+02  0.30845122321E+01  0.17443642129E+01  0.18784977405E+02  0.51100000000E-03 0. -1.
        -11    1    3    3    0    0  0.38540634938E+01  0.16585144490E+01  0.10796794722E+01  0.43324569953E+01  0.51100000000E-03 0.  1.
         12    1    3    3    0    0  0.12069055032E+02 -0.22819439641E+02  0.92195929132E+01  0.27411490444E+02  0.00000000000E+00 0. -1.
</event>
<event>
 7    1  0.2974434E-011  0.5052886E+02  0.7816164E-02  0.1300439E+00
        -11   -1    0    0    0    0  0.00000000000E+00  0.00000000000E+00  0.45593999997E+02  0.45594000000E+02  0.51100000000E-03 0.  1.
         11   -1    0    0    0    0 -0.00000000000E+00 -0.00000000000E+00 -0.45593999997E+02  0.45594000000E+02  0.51100000000E-03 0. -1.
    9900012    2    1    2    0    0  0.19227862282E+02  0.15756841341E+02 -0.32174171320E+02  0.50528855431E+02  0.29999986567E+02 0.  0.
        -12    1    1    2    0    0 -0.19227862282E+02 -0.15756841341E+02  0.32174171320E+02  0.40659144569E+02  0.00000000000E+00 0.  1.
         11    1    3    3    0    0  0.10223582521E+02  0.12926479420E+02 -0.10440917908E+02  0.19509696993E+02  0.51100000000E-03 0. -1.
        -11    1    3    3    0    0  0.17256788655E+01  0.66187926002E+01  0.94226407181E+00  0.69046538562E+01  0.51100000000E-03 0.  1.
         12    1    3    3    0    0  0.72786008950E+01 -0.37884306793E+01 -0.22675517485E+02  0.24114504581E+02  0.00000000000E+00 0. -1.
</event>
<event>
 7    1  0.2974434E-011  0.5052887E+02  0.7816164E-02  0.1300439E+00
        -11   -1    0    0    0    0  0.00000000000E+00  0.00000000000E+00  0.45593999997E+02  0.45594000000E+02  0.51100000000E-03 0. -1.
         11   -1    0    0    0    0 -0.00000000000E+00 -0.00000000000E+00 -0.45593999997E+02  0.45594000000E+02  0.51100000000E-03 0.  1.
    9900012    2    1    2    0    0  0.14102085617E+02 -0.29344776336E+02  0.24355287535E+02  0.50528871285E+02  0.30000034757E+02 0.  0.
        -12    1    1    2    0    0 -0.14102085617E+02  0.29344776336E+02 -0.24355287535E+02  0.40659128715E+02  0.00000000000E+00 0.  1.
         11    1    3    3    0    0  0.40632855167E+01 -0.13131091341E+01  0.41153620410E+01  0.59304932154E+01  0.51100000000E-03 0. -1.
        -11    1    3    3    0    0  0.18600583858E+02 -0.23708291008E+02  0.14813908970E+02  0.33578515178E+02  0.51100000000E-03 0.  1.
        -12    1    3    3    0    0 -0.85617837572E+01 -0.43233761943E+01  0.54260165237E+01  0.11019862891E+02  0.00000000000E+00 0.  1.
</event>
<event>
 7    1  0.2974434E-011  0.5052890E+02  0.7816164E-02  0.1300439E+00
        -11   -1    0    0    0    0  0.00000000000E+00  0.00000000000E+00  0.45593999997E+02  0.45594000000E+02  0.51100000000E-03 0.  1.
         11   -1    0    0    0    0 -0.00000000000E+00 -0.00000000000E+00 -0.45593999997E+02  0.45594000000E+02  0.51100000000E-03 0. -1.
    9900012    2    1    2    0    0  0.94621832398E+00  0.25721918416E+02 -0.31474589214E+02  0.50528902834E+02  0.30000130655E+02 0.  0.
        -12    1    1    2    0    0 -0.94621832398E+00 -0.25721918416E+02  0.31474589214E+02  0.40659097166E+02  0.00000000000E+00 0.  1.
         11    1    3    3    0    0 -0.47896458290E+00  0.16525593729E+02 -0.26666298480E+02  0.31375406453E+02  0.51100000000E-03 0. -1.
        -11    1    3    3    0    0 -0.58949401445E+01  0.30713462163E+01  0.25317659905E+01  0.71128985779E+01  0.51100000000E-03 0.  1.
        -12    1    3    3    0    0  0.73201230514E+01  0.61249784707E+01 -0.73400567243E+01  0.12040597804E+02  0.00000000000E+00 0.  1.
</event>
<event>
 7    1  0.2974434E-011  0.5052885E+02  0.7816164E-02  0.1300439E+00
        -11   -1    0    0    0    0  0.00000000000E+00  0.00000000000E+00  0.45593999997E+02  0.45594000000E+02  0.51100000000E-03 0.  1.
         11   -1    0    0    0    0 -0.00000000000E+00 -0.00000000000E+00 -0.45593999997E+02  0.45594000000E+02  0.51100000000E-03 0. -1.
    9900012    2    1    2    0    0  0.14758324695E+02 -0.96400938895E+01 -0.36639142199E+02  0.50528852210E+02  0.29999976776E+02 0.  0.
        -12    1    1    2    0    0 -0.14758324695E+02  0.96400938895E+01  0.36639142199E+02  0.40659147790E+02  0.00000000000E+00 0.  1.
         11    1    3    3    0    0  0.90035189976E-01 -0.72408669767E+01 -0.22054654306E+01  0.75698308394E+01  0.51100000000E-03 0. -1.
        -11    1    3    3    0    0  0.28621906973E+01 -0.56124544942E+01  0.12176305892E+00  0.63013179209E+01  0.51100000000E-03 0.  1.
         12    1    3    3    0    0  0.11806098808E+02  0.32132275814E+01 -0.34555439827E+02  0.36657703449E+02  0.00000000000E+00 0. -1.
</event>
<event>
 7    1  0.2974434E-011  0.5052885E+02  0.7816164E-02  0.1300439E+00
        -11   -1    0    0    0    0  0.00000000000E+00  0.00000000000E+00  0.45593999997E+02  0.45594000000E+02  0.51100000000E-03 0.  1.
         11   -1    0    0    0    0 -0.00000000000E+00 -0.00000000000E+00 -0.45593999997E+02  0.45594000000E+02  0.51100000000E-03 0. -1.
    9900012    2    1    2    0    0 -0.15800686196E+02 -0.16715017697E+02 -0.33527791331E+02  0.50528852291E+02  0.29999977023E+02 0.  0.
        -12    1    1    2    0    0  0.15800686196E+02  0.16715017697E+02  0.33527791331E+02  0.40659147709E+02  0.00000000000E+00 0.  1.
         11    1    3    3    0    0 -0.15781616552E+02 -0.40673831965E+01 -0.19735663846E+02  0.25594910720E+02  0.51100000000E-03 0. -1.
        -11    1    3    3    0    0 -0.81395517837E+01 -0.50176652646E+01 -0.53712878646E+01  0.10967223967E+02  0.51100000000E-03 0.  1.
        -12    1    3    3    0    0  0.81204821397E+01 -0.76299692363E+01 -0.84208396206E+01  0.13966717604E+02  0.00000000000E+00 0.  1.
</event>
<event>
 7    1  0.2974434E-011  0.5052885E+02  0.7816164E-02  0.1300439E+00
        -11   -1    0    0    0    0  0.00000000000E+00  0.00000000000E+00  0.45593999997E+02  0.45594000000E+02  0.51100000000E-03 0.  1.
         11   -1    0    0    0    0 -0.00000000000E+00 -0.00000000000E+00 -0.45593999997E+02  0.45594000000E+02  0.51100000000E-03 0. -1.
    9900012    2    1    2    0    0 -0.27158627826E+02 -0.56721660896E+01 -0.29722076350E+02  0.50528851508E+02  0.29999974645E+02 0.  0.
        -12    1    1    2    0    0  0.27158627826E+02  0.56721660896E+01  0.29722076350E+02  0.40659148492E+02  0.00000000000E+00 0.  1.
         11    1    3    3    0    0 -0.74026634660E+01 -0.10199591152E+02 -0.10732178418E+02  0.16553269765E+02  0.51100000000E-03 0.  1.
        -11    1    3    3    0    0 -0.53052126804E+01 -0.26231871375E+01 -0.16666235739E+02  0.17685864590E+02  0.51100000000E-03 0. -1.
        -12    1    3    3    0    0 -0.14450751679E+02  0.71506122003E+01 -0.23236621931E+01  0.16289717153E+02  0.00000000000E+00 0.  1.
</event>
<event>
 7    1  0.2974434E-011  0.5052887E+02  0.7816164E-02  0.1300439E+00
        -11   -1    0    0    0    0  0.00000000000E+00  0.00000000000E+00  0.45593999997E+02  0.45594000000E+02  0.51100000000E-03 0.  1.
         11   -1    0    0    0    0 -0.00000000000E+00 -0.00000000000E+00 -0.45593999997E+02  0.45594000000E+02  0.51100000000E-03 0. -1.
    9900012    2    1    2    0    0 -0.31036956738E+02  0.11661350266E+02 -0.23534766162E+02  0.50528868284E+02  0.30000025637E+02 0.  0.
        -12    1    1    2    0    0  0.31036956738E+02 -0.11661350266E+02  0.23534766162E+02  0.40659131716E+02  0.00000000000E+00 0.  1.
         11    1    3    3    0    0 -0.16486004377E+02  0.15580318152E+02 -0.21074448653E+02  0.30962348754E+02  0.51100000000E-03 0. -1.
        -11    1    3    3    0    0 -0.42476300057E+01 -0.34118883941E+01 -0.65058345976E+01  0.84858250719E+01  0.51100000000E-03 0.  1.
        -12    1    3    3    0    0 -0.10303322356E+02 -0.50707949260E+00  0.40455170886E+01  0.11080694459E+02  0.00000000000E+00 0.  1.
</event>
<event>
 7    1  0.2974434E-011  0.5052886E+02  0.7816164E-02  0.1300439E+00
        -11   -1    0    0    0    0  0.00000000000E+00  0.00000000000E+00  0.45593999997E+02  0.45594000000E+02  0.51100000000E-03 0.  1.
         11   -1    0    0    0    0 -0.00000000000E+00 -0.00000000000E+00 -0.45593999997E+02  0.45594000000E+02  0.51100000000E-03 0. -1.
    9900012    2    1    2    0    0  0.44684623212E+01  0.30314263240E+02 -0.26725336017E+02  0.50528864538E+02  0.30000014250E+02 0.  0.
        -12    1    1    2    0    0 -0.44684623212E+01 -0.30314263240E+02  0.26725336017E+02  0.40659135462E+02  0.00000000000E+00 0.  1.
         11    1    3    3    0    0  0.21406075438E+01  0.50637139749E+01 -0.55946437054E+00  0.55259750740E+01  0.51100000000E-03 0. -1.
        -11    1    3    3    0    0  0.69083323285E+01  0.33543328591E+01  0.30009936934E+01  0.82451542072E+01  0.51100000000E-03 0.  1.
         12    1    3    3    0    0 -0.45804775511E+01  0.21896216406E+02 -0.29166865339E+02  0.36757735257E+02  0.00000000000E+00 0. -1.
</event>
<event>
 7    1  0.2974434E-011  0.5052886E+02  0.7816164E-02  0.1300439E+00
        -11   -1    0    0    0    0  0.00000000000E+00  0.00000000000E+00  0.45593999997E+02  0.45594000000E+02  0.51100000000E-03 0. -1.
         11   -1    0    0    0    0 -0.00000000000E+00 -0.00000000000E+00 -0.45593999997E+02  0.45594000000E+02  0.51100000000E-03 0.  1.
    9900012    2    1    2    0    0  0.24453124598E+02  0.76481916498E+01  0.31570800480E+02  0.50528861038E+02  0.30000003612E+02 0.  0.
        -12    1    1    2    0    0 -0.24453124598E+02 -0.76481916498E+01 -0.31570800480E+02  0.40659138962E+02  0.00000000000E+00 0.  1.
         11    1    3    3    0    0 -0.21852030355E+01  0.13686724082E+01  0.27001370121E+00  0.25925439489E+01  0.51100000000E-03 0. -1.
        -11    1    3    3    0    0  0.96016552778E+01  0.11342443016E+02  0.40514721482E+01  0.15403156315E+02  0.51100000000E-03 0.  1.
        -12    1    3    3    0    0  0.17036672356E+02 -0.50629237744E+01  0.27249314631E+02  0.32533160774E+02  0.00000000000E+00 0.  1.
</event>
<event>
 7    1  0.2974434E-011  0.5052883E+02  0.7816164E-02  0.1300439E+00
        -11   -1    0    0    0    0  0.00000000000E+00  0.00000000000E+00  0.45593999997E+02  0.45594000000E+02  0.51100000000E-03 0.  1.
         11   -1    0    0    0    0 -0.00000000000E+00 -0.00000000000E+00 -0.45593999997E+02  0.45594000000E+02  0.51100000000E-03 0. -1.
    9900012    2    1    2    0    0 -0.12919159022E+02  0.31159365170E+02 -0.22701479271E+02  0.50528832907E+02  0.29999918103E+02 0.  0.
        -12    1    1    2    0    0  0.12919159022E+02 -0.31159365170E+02  0.22701479271E+02  0.40659167093E+02  0.00000000000E+00 0.  1.
         11    1    3    3    0    0  0.25456961155E+01 -0.22460406261E+00  0.10749510261E+01  0.27724602192E+01  0.51100000000E-03 0. -1.
        -11    1    3    3    0    0  0.86259439204E+00  0.53673366749E+01  0.36745658386E+01  0.65616161447E+01  0.51100000000E-03 0.  1.
         12    1    3    3    0    0 -0.16327449529E+02  0.26016632558E+02 -0.27450996135E+02  0.41194756543E+02  0.00000000000E+00 0. -1.
</event>
<event>
 7    1  0.2974434E-011  0.5052886E+02  0.7816164E-02  0.1300439E+00
        -11   -1    0    0    0    0  0.00000000000E+00  0.00000000000E+00  0.45593999997E+02  0.45594000000E+02  0.51100000000E-03 0. -1.
         11   -1    0    0    0    0 -0.00000000000E+00 -0.00000000000E+00 -0.45593999997E+02  0.45594000000E+02  0.51100000000E-03 0.  1.
    9900012    2    1    2    0    0 -0.14114329813E+02  0.37949281646E+02  0.37153023963E+01  0.50528858895E+02  0.29999997096E+02 0.  0.
        -12    1    1    2    0    0  0.14114329813E+02 -0.37949281646E+02 -0.37153023963E+01  0.40659141105E+02  0.00000000000E+00 0.  1.
         11    1    3    3    0    0 -0.58784770671E+01  0.17561940538E+01 -0.51712002522E+00  0.61569573301E+01  0.51100000000E-03 0. -1.
        -11    1    3    3    0    0 -0.16850642789E+01 -0.28812618445E+01 -0.25182627394E+01  0.41812389224E+01  0.51100000000E-03 0.  1.
         12    1    3    3    0    0 -0.65507884671E+01  0.39074349437E+02  0.67506851609E+01  0.40190662642E+02  0.00000000000E+00 0. -1.
</event>
<event>
 7    1  0.2974434E-011  0.5052887E+02  0.7816164E-02  0.1300439E+00
        -11   -1    0    0    0    0  0.00000000000E+00  0.00000000000E+00  0.45593999997E+02  0.45594000000E+02  0.51100000000E-03 0.  1.
         11   -1    0    0    0    0 -0.00000000000E+00 -0.00000000000E+00 -0.45593999997E+02  0.45594000000E+02  0.51100000000E-03 0. -1.
    9900012    2    1    2    0    0 -0.17073522837E+02 -0.35622647622E+02 -0.96273964214E+01  0.50528868584E+02  0.30000026547E+02 0.  0.
        -12    1    1    2    0    0  0.17073522837E+02  0.35622647622E+02  0.96273964214E+01  0.40659131416E+02  0.00000000000E+00 0.  1.
         11    1    3    3    0    0 -0.18728690636E+02 -0.10198665138E+02 -0.39665465177E+01  0.21691245125E+02  0.51100000000E-03 0. -1.
        -11    1    3    3    0    0 -0.13498883912E+00 -0.15199830639E+02 -0.93219330146E+01  0.17831194824E+02  0.51100000000E-03 0.  1.
        -12    1    3    3    0    0  0.17901566386E+01 -0.10224151845E+02  0.36610831108E+01  0.11006428635E+02  0.00000000000E+00 0.  1.
</event>
<event>
 7    1  0.2974434E-011  0.5052886E+02  0.7816164E-02  0.1300439E+00
        -11   -1    0    0    0    0  0.00000000000E+00  0.00000000000E+00  0.45593999997E+02  0.45594000000E+02  0.51100000000E-03 0. -1.
         11   -1    0    0    0    0 -0.00000000000E+00 -0.00000000000E+00 -0.45593999997E+02  0.45594000000E+02  0.51100000000E-03 0.  1.
    9900012    2    1    2    0    0 -0.36286275662E+02 -0.47651811100E+01 -0.17713411461E+02  0.50528859601E+02  0.29999999243E+02 0.  0.
        -12    1    1    2    0    0  0.36286275662E+02  0.47651811100E+01  0.17713411461E+02  0.40659140399E+02  0.00000000000E+00 0.  1.
         11    1    3    3    0    0 -0.88544206495E+01  0.20062827626E+01  0.26051823161E+01  0.94452586372E+01  0.51100000000E-03 0. -1.
        -11    1    3    3    0    0 -0.58351747066E+01 -0.70208239146E+01  0.26988067040E+01  0.95197053622E+01  0.51100000000E-03 0.  1.
         12    1    3    3    0    0 -0.21596680306E+02  0.24936004202E+00 -0.23017400481E+02  0.31563895602E+02  0.00000000000E+00 0. -1.
</event>
<event>
 7    1  0.2974434E-011  0.5052885E+02  0.7816164E-02  0.1300439E+00
        -11   -1    0    0    0    0  0.00000000000E+00  0.00000000000E+00  0.45593999997E+02  0.45594000000E+02  0.51100000000E-03 0. -1.
         11   -1    0    0    0    0 -0.00000000000E+00 -0.00000000000E+00 -0.45593999997E+02  0.45594000000E+02  0.51100000000E-03 0.  1.
    9900012    2    1    2    0    0  0.39052033464E+02 -0.88040716491E+01  0.71129066112E+01  0.50528850528E+02  0.29999971666E+02 0.  0.
        -12    1    1    2    0    0 -0.39052033464E+02  0.88040716491E+01 -0.71129066112E+01  0.40659149472E+02  0.00000000000E+00 0.  1.
         11    1    3    3    0    0  0.12299179021E+02 -0.31021059365E+01  0.10004307525E+02  0.16154845562E+02  0.51100000000E-03 0. -1.
        -11    1    3    3    0    0  0.90685936238E+01  0.61284609372E+01  0.45225004283E+01  0.11842737612E+02  0.51100000000E-03 0.  1.
         12    1    3    3    0    0  0.17684260820E+02 -0.11830426650E+02 -0.74139013418E+01  0.22531267354E+02  0.00000000000E+00 0. -1.
</event>
<event>
 7    1  0.4057502E-011  0.5052886E+02  0.7816164E-02  0.1300439E+00
        -11   -1    0    0    0    0  0.00000000000E+00  0.00000000000E+00  0.45593999997E+02  0.45594000000E+02  0.51100000000E-03 0.  1.
         11   -1    0    0    0    0 -0.00000000000E+00 -0.00000000000E+00 -0.45593999997E+02  0.45594000000E+02  0.51100000000E-03 0. -1.
    9900012    2    1    2    0    0  0.30783932176E+02  0.24776420605E+02 -0.95731080448E+01  0.50528857168E+02  0.29999991847E+02 0.  0.
        -12    1    1    2    0    0 -0.30783932176E+02 -0.24776420605E+02  0.95731080448E+01  0.40659142832E+02  0.00000000000E+00 0.  1.
         11    1    3    3    0    0  0.22726132577E+02  0.72455464158E+01 -0.49207414080E+01  0.24355466348E+02  0.51100000000E-03 0. -1.
        -11    1    3    3    0    0  0.26010360937E+01  0.47509877406E+01  0.64242120782E+01  0.84028432307E+01  0.51100000000E-03 0.  1.
        -12    1    3    3    0    0  0.54567635054E+01  0.12779886449E+02 -0.11076578715E+02  0.17770547589E+02  0.00000000000E+00 0.  1.
</event>
<event>
 7    1  0.2974434E-011  0.5052887E+02  0.7816164E-02  0.1300439E+00
        -11   -1    0    0    0    0  0.00000000000E+00  0.00000000000E+00  0.45593999997E+02  0.45594000000E+02  0.51100000000E-03 0.  1.
         11   -1    0    0    0    0 -0.00000000000E+00 -0.00000000000E+00 -0.45593999997E+02  0.45594000000E+02  0.51100000000E-03 0. -1.
    9900012    2    1    2    0    0  0.25401073865E+02 -0.14457645803E+02 -0.28265299435E+02  0.50528865383E+02  0.30000016818E+02 0.  0.
        -12    1    1    2    0    0 -0.25401073865E+02  0.14457645803E+02  0.28265299435E+02  0.40659134617E+02  0.00000000000E+00 0.  1.
         11    1    3    3    0    0  0.15141071047E+01  0.60993430018E+01 -0.53362312083E+01  0.82443840975E+01  0.51100000000E-03 0. -1.
        -11    1    3    3    0    0  0.14545388955E+02 -0.19784983890E+01 -0.83486364150E+01  0.16887348104E+02  0.51100000000E-03 0.  1.
         12    1    3    3    0    0  0.93415778049E+01 -0.18578490416E+02 -0.14580431812E+02  0.25397133182E+02  0.00000000000E+00 0. -1.
</event>
<event>
 7    1  0.2974434E-011  0.5052884E+02  0.7816164E-02  0.1300439E+00
        -11   -1    0    0    0    0  0.00000000000E+00  0.00000000000E+00  0.45593999997E+02  0.45594000000E+02  0.51100000000E-03 0.  1.
         11   -1    0    0    0    0 -0.00000000000E+00 -0.00000000000E+00 -0.45593999997E+02  0.45594000000E+02  0.51100000000E-03 0. -1.
    9900012    2    1    2    0    0 -0.32532610137E+02  0.19472672016E+02 -0.14683720863E+02  0.50528839456E+02  0.29999938011E+02 0.  0.
        -12    1    1    2    0    0  0.32532610137E+02 -0.19472672016E+02  0.14683720863E+02  0.40659160544E+02  0.00000000000E+00 0.  1.
         11    1    3    3    0    0 -0.41924983792E+01 -0.14031826580E+01 -0.52494175790E+00  0.44521375025E+01  0.51100000000E-03 0. -1.
        -11    1    3    3    0    0 -0.26516470812E+02  0.42522221084E+01 -0.11183130996E+02  0.29090669231E+02  0.51100000000E-03 0.  1.
        -12    1    3    3    0    0 -0.18236409457E+01  0.16623632566E+02 -0.29756481090E+01  0.16986032723E+02  0.00000000000E+00 0.  1.
</event>
<event>
 7    1  0.2974434E-011  0.5052886E+02  0.7816164E-02  0.1300439E+00
        -11   -1    0    0    0    0  0.00000000000E+00  0.00000000000E+00  0.45593999997E+02  0.45594000000E+02  0.51100000000E-03 0.  1.
         11   -1    0    0    0    0 -0.00000000000E+00 -0.00000000000E+00 -0.45593999997E+02  0.45594000000E+02  0.51100000000E-03 0. -1.
    9900012    2    1    2    0    0 -0.37755953882E+02 -0.58272479717E+01 -0.13917495302E+02  0.50528861446E+02  0.30000004851E+02 0.  0.
        -12    1    1    2    0    0  0.37755953882E+02  0.58272479717E+01  0.13917495302E+02  0.40659138554E+02  0.00000000000E+00 0.  1.
         11    1    3    3    0    0 -0.20733647782E+02  0.40149017975E+01 -0.12078595627E+01  0.21153309712E+02  0.51100000000E-03 0. -1.
        -11    1    3    3    0    0 -0.13539057547E+02  0.23637642782E+01 -0.57354736122E+01  0.14892586029E+02  0.51100000000E-03 0.  1.
         12    1    3    3    0    0 -0.34832485530E+01 -0.12205914048E+02 -0.69741621270E+01  0.14482965704E+02  0.00000000000E+00 0. -1.
</event>
<event>
 7    1  0.2974434E-011  0.5052885E+02  0.7816164E-02  0.1300439E+00
        -11   -1    0    0    0    0  0.00000000000E+00  0.00000000000E+00  0.45593999997E+02  0.45594000000E+02  0.51100000000E-03 0. -1.
         11   -1    0    0    0    0 -0.00000000000E+00 -0.00000000000E+00 -0.45593999997E+02  0.45594000000E+02  0.51100000000E-03 0.  1.
    9900012    2    1    2    0    0  0.27842255958E+02  0.21824553681E+02 -0.20041552479E+02  0.50528853600E+02  0.29999981003E+02 0.  0.
        -12    1    1    2    0    0 -0.27842255958E+02 -0.21824553681E+02  0.20041552479E+02  0.40659146400E+02  0.00000000000E+00 0.  1.
         11    1    3    3    0    0  0.84832539414E+01 -0.66022569325E+01 -0.48049525658E+01  0.11774674665E+02  0.51100000000E-03 0. -1.
        -11    1    3    3    0    0  0.40257129092E+01  0.98501382990E+00 -0.24768126399E+01  0.48281691961E+01  0.51100000000E-03 0.  1.
        -12    1    3    3    0    0  0.15333289107E+02  0.27441796784E+02 -0.12759787273E+02  0.33926009739E+02  0.00000000000E+00 0.  1.
</event>
<event>
 7    1  0.2974434E-011  0.5052887E+02  0.7816164E-02  0.1300439E+00
        -11   -1    0    0    0    0  0.00000000000E+00  0.00000000000E+00  0.45593999997E+02  0.45594000000E+02  0.51100000000E-03 0.  1.
         11   -1    0    0    0    0 -0.00000000000E+00 -0.00000000000E+00 -0.45593999997E+02  0.45594000000E+02  0.51100000000E-03 0. -1.
    9900012    2    1    2    0    0 -0.19746949575E+02 -0.57263711098E+01 -0.35077511547E+02  0.50528866217E+02  0.30000019354E+02 0.  0.
        -12    1    1    2    0    0  0.19746949575E+02  0.57263711098E+01  0.35077511547E+02  0.40659133783E+02  0.00000000000E+00 0.  1.
         11    1    3    3    0    0 -0.39384016887E+01 -0.55087791777E+01 -0.76873842935E+01  0.10244683178E+02  0.51100000000E-03 0. -1.
        -11    1    3    3    0    0 -0.16189058636E+02  0.64155682764E-01 -0.37222735111E+01  0.16611594018E+02  0.51100000000E-03 0.  1.
         12    1    3    3    0    0  0.38051074930E+00 -0.28174761486E+00 -0.23667853743E+02  0.23672589020E+02  0.00000000000E+00 0. -1.
</event>
<event>
 7    1  0.2974434E-011  0.5052883E+02  0.7816164E-02  0.1300439E+00
        -11   -1    0    0    0    0  0.00000000000E+00  0.00000000000E+00  0.45593999997E+02  0.45594000000E+02  0.51100000000E-03 0.  1.
         11   -1    0    0    0    0 -0.00000000000E+00 -0.00000000000E+00 -0.45593999997E+02  0.45594000000E+02  0.51100000000E-03 0. -1.
    9900012    2    1    2    0    0 -0.21570501818E+02  0.14621199859E+02 -0.31210611739E+02  0.50528827368E+02  0.29999901269E+02 0.  0.
        -12    1    1    2    0    0  0.21570501818E+02 -0.14621199859E+02  0.31210611739E+02  0.40659172632E+02  0.00000000000E+00 0.  1.
         11    1    3    3    0    0 -0.20605495464E+02  0.60934465493E+01 -0.87567624921E+01  0.23203392505E+02  0.51100000000E-03 0. -1.
        -11    1    3    3    0    0 -0.30825705584E+01  0.61469987839E+01 -0.28161287096E+01  0.74309095316E+01  0.51100000000E-03 0.  1.
         12    1    3    3    0    0  0.21175642045E+01  0.23807545258E+01 -0.19637720537E+02  0.19894525331E+02  0.00000000000E+00 0. -1.
</event>
<event>
 7    1  0.2974434E-011  0.5052887E+02  0.7816164E-02  0.1300439E+00
        -11   -1    0    0    0    0  0.00000000000E+00  0.00000000000E+00  0.45593999997E+02  0.45594000000E+02  0.51100000000E-03 0.  1.
         11   -1    0    0    0    0 -0.00000000000E+00 -0.00000000000E+00 -0.45593999997E+02  0.45594000000E+02  0.51100000000E-03 0. -1.
    9900012    2    1    2    0    0 -0.47945261041E+01 -0.24497602811E+02 -0.32094317051E+02  0.50528865589E+02  0.30000017444E+02 0.  0.
        -12    1    1    2    0    0  0.47945261041E+01  0.24497602811E+02  0.32094317051E+02  0.40659134411E+02  0.00000000000E+00 0.  1.
         11    1    3    3    0    0 -0.42570694808E+01 -0.79480581062E+01 -0.32098664731E+01  0.95706588728E+01  0.51100000000E-03 0. -1.
        -11    1    3    3    0    0 -0.11205450627E+02 -0.28028011578E+01 -0.13100186222E+02  0.17465185295E+02  0.51100000000E-03 0.  1.
        -12    1    3    3    0    0  0.10667994004E+02 -0.13746743547E+02 -0.15784264356E+02  0.23493021421E+02  0.00000000000E+00 0.  1.
</event>
<event>
 7    1  0.2974434E-011  0.5052887E+02  0.7816164E-02  0.1300439E+00
        -11   -1    0    0    0    0  0.00000000000E+00  0.00000000000E+00  0.45593999997E+02  0.45594000000E+02  0.51100000000E-03 0.  1.
         11   -1    0    0    0    0 -0.00000000000E+00 -0.00000000000E+00 -0.45593999997E+02  0.45594000000E+02  0.51100000000E-03 0. -1.
    9900012    2    1    2    0    0 -0.40155864053E+02 -0.60072278035E+01 -0.21411686090E+01  0.50528870561E+02  0.30000032558E+02 0.  0.
        -12    1    1    2    0    0  0.40155864053E+02  0.60072278035E+01  0.21411686090E+01  0.40659129439E+02  0.00000000000E+00 0.  1.
         11    1    3    3    0    0 -0.66154729371E+01  0.35787526771E+00 -0.30646615831E+01  0.72996375094E+01  0.51100000000E-03 0. -1.
        -11    1    3    3    0    0 -0.97720784024E+01  0.13134491812E+01 -0.11652322963E+02  0.15264183429E+02  0.51100000000E-03 0.  1.
        -12    1    3    3    0    0 -0.23768312713E+02 -0.76785522524E+01  0.12575815937E+02  0.27965049623E+02  0.00000000000E+00 0.  1.
</event>
<event>
 7    1  0.2974434E-011  0.5052883E+02  0.7816164E-02  0.1300439E+00
        -11   -1    0    0    0    0  0.00000000000E+00  0.00000000000E+00  0.45593999997E+02  0.45594000000E+02  0.51100000000E-03 0.  1.
         11   -1    0    0    0    0 -0.00000000000E+00 -0.00000000000E+00 -0.45593999997E+02  0.45594000000E+02  0.51100000000E-03 0. -1.
    9900012    2    1    2    0    0 -0.26664052486E+02 -0.16820020097E+02  0.25676518630E+02  0.50528826619E+02  0.29999898992E+02 0.  0.
        -12    1    1    2    0    0  0.26664052486E+02  0.16820020097E+02 -0.25676518630E+02  0.40659173381E+02  0.00000000000E+00 0.  1.
         11    1    3    3    0    0  0.27452760447E+01 -0.22196757804E+01 -0.68971272257E+00  0.35971106506E+01  0.51100000000E-03 0.  1.
        -11    1    3    3    0    0  0.51182226252E+00 -0.67411535020E+01  0.96081499917E+01  0.11748261960E+02  0.51100000000E-03 0. -1.
         12    1    3    3    0    0 -0.29921150793E+02 -0.78591908148E+01  0.16758081361E+02  0.35183454008E+02  0.00000000000E+00 0. -1.
</event>
<event>
 7    1  0.2974434E-011  0.5052885E+02  0.7816164E-02  0.1300439E+00
        -11   -1    0    0    0    0  0.00000000000E+00  0.00000000000E+00  0.45593999997E+02  0.45594000000E+02  0.51100000000E-03 0.  1.
         11   -1    0    0    0    0 -0.00000000000E+00 -0.00000000000E+00 -0.45593999997E+02  0.45594000000E+02  0.51100000000E-03 0. -1.
    9900012    2    1    2    0    0 -0.38244431226E+02 -0.20211691368E-01 -0.13803248172E+02  0.50528848651E+02  0.29999965960E+02 0.  0.
        -12    1    1    2    0    0  0.38244431226E+02  0.20211691368E-01  0.13803248172E+02  0.40659151349E+02  0.00000000000E+00 0.  1.
         11    1    3    3    0    0 -0.22574942751E+02  0.49668586547E+01 -0.87096898865E+01  0.24701344564E+02  0.51100000000E-03 0. -1.
        -11    1    3    3    0    0 -0.63909874974E+01 -0.31439983070E+01 -0.12110268462E+02  0.14049485721E+02  0.51100000000E-03 0.  1.
         12    1    3    3    0    0 -0.92785009779E+01 -0.18430720390E+01  0.70167101762E+01  0.11778018366E+02  0.00000000000E+00 0. -1.
</event>
<event>
 7    1  0.2974434E-011  0.5052885E+02  0.7816164E-02  0.1300439E+00
        -11   -1    0    0    0    0  0.00000000000E+00  0.00000000000E+00  0.45593999997E+02  0.45594000000E+02  0.51100000000E-03 0.  1.
         11   -1    0    0    0    0 -0.00000000000E+00 -0.00000000000E+00 -0.45593999997E+02  0.45594000000E+02  0.51100000000E-03 0. -1.
    9900012    2    1    2    0    0  0.20059278885E+02 -0.33703396066E+02  0.10717876211E+02  0.50528850399E+02  0.29999971274E+02 0.  0.
        -12    1    1    2    0    0 -0.20059278885E+02  0.33703396066E+02 -0.10717876211E+02  0.40659149601E+02  0.00000000000E+00 0.  1.
         11    1    3    3    0    0  0.21389715037E+02 -0.20442754478E+02  0.74290655024E+01  0.30506018005E+02  0.51100000000E-03 0. -1.
        -11    1    3    3    0    0  0.24404798449E+01 -0.11247026741E+02  0.77258902943E+01  0.13861491027E+02  0.51100000000E-03 0.  1.
         12    1    3    3    0    0 -0.37709159966E+01 -0.20136148468E+01 -0.44370795855E+01  0.61613413680E+01  0.00000000000E+00 0. -1.
</event>
<event>
 7    1  0.2974434E-011  0.5052886E+02  0.7816164E-02  0.1300439E+00
        -11   -1    0    0    0    0  0.00000000000E+00  0.00000000000E+00  0.45593999997E+02  0.45594000000E+02  0.51100000000E-03 0.  1.
         11   -1    0    0    0    0 -0.00000000000E+00 -0.00000000000E+00 -0.45593999997E+02  0.45594000000E+02  0.51100000000E-03 0. -1.
    9900012    2    1    2    0    0  0.32225479609E+01  0.32750865460E+02 -0.23878051906E+02  0.50528863676E+02  0.30000011631E+02 0.  0.
        -12    1    1    2    0    0 -0.32225479609E+01 -0.32750865460E+02  0.23878051906E+02  0.40659136324E+02  0.00000000000E+00 0.  1.
         11    1    3    3    0    0  0.89882474142E+01  0.80400786064E+01 -0.12752853986E+02  0.17551830122E+02  0.51100000000E-03 0. -1.
        -11    1    3    3    0    0  0.47901304198E+01  0.13028063597E+02 -0.32663546874E+00  0.13884613121E+02  0.51100000000E-03 0.  1.
        -12    1    3    3    0    0 -0.10555829873E+02  0.11682723257E+02 -0.10798562451E+02  0.19092420434E+02  0.00000000000E+00 0.  1.
</event>
<event>
 7    1  0.2974434E-011  0.5052886E+02  0.7816164E-02  0.1300439E+00
        -11   -1    0    0    0    0  0.00000000000E+00  0.00000000000E+00  0.45593999997E+02  0.45594000000E+02  0.51100000000E-03 0. -1.
         11   -1    0    0    0    0 -0.00000000000E+00 -0.00000000000E+00 -0.45593999997E+02  0.45594000000E+02  0.51100000000E-03 0.  1.
    9900012    2    1    2    0    0 -0.28888117056E+01 -0.38165766154E+02 -0.13718413523E+02  0.50528858238E+02  0.29999995101E+02 0.  0.
        -12    1    1    2    0    0  0.28888117056E+01  0.38165766154E+02  0.13718413523E+02  0.40659141762E+02  0.00000000000E+00 0.  1.
         11    1    3    3    0    0  0.77402124626E+01 -0.16965017711E+02  0.22144355574E+01  0.18778350301E+02  0.51100000000E-03 0. -1.
        -11    1    3    3    0    0 -0.69592303482E+01 -0.15514519432E+02 -0.31592283770E+01  0.17294852542E+02  0.51100000000E-03 0.  1.
        -12    1    3    3    0    0 -0.36697938200E+01 -0.56862290110E+01 -0.12773620704E+02  0.14455655396E+02  0.00000000000E+00 0.  1.
</event>
<event>
 7    1  0.2974434E-011  0.5052889E+02  0.7816164E-02  0.1300439E+00
        -11   -1    0    0    0    0  0.00000000000E+00  0.00000000000E+00  0.45593999997E+02  0.45594000000E+02  0.51100000000E-03 0.  1.
         11   -1    0    0    0    0 -0.00000000000E+00 -0.00000000000E+00 -0.45593999997E+02  0.45594000000E+02  0.51100000000E-03 0. -1.
    9900012    2    1    2    0    0 -0.25129819199E+02 -0.25937975305E+02  0.18678245509E+02  0.50528889935E+02  0.30000091448E+02 0.  0.
        -12    1    1    2    0    0  0.25129819199E+02  0.25937975305E+02 -0.18678245509E+02  0.40659110065E+02  0.00000000000E+00 0.  1.
         11    1    3    3    0    0 -0.33241879631E+01 -0.81468813894E+01  0.65231839705E+01  0.10953256655E+02  0.51100000000E-03 0. -1.
        -11    1    3    3    0    0 -0.61785105642E+01 -0.18670491979E+02  0.13518628877E+02  0.23864504825E+02  0.51100000000E-03 0.  1.
         12    1    3    3    0    0 -0.15627120672E+02  0.87939806348E+00 -0.13635673381E+01  0.15711128455E+02  0.00000000000E+00 0. -1.
</event>
<event>
 7    1  0.2974434E-011  0.5052886E+02  0.7816164E-02  0.1300439E+00
        -11   -1    0    0    0    0  0.00000000000E+00  0.00000000000E+00  0.45593999997E+02  0.45594000000E+02  0.51100000000E-03 0.  1.
         11   -1    0    0    0    0 -0.00000000000E+00 -0.00000000000E+00 -0.45593999997E+02  0.45594000000E+02  0.51100000000E-03 0. -1.
    9900012    2    1    2    0    0  0.17967422233E+02  0.32403288983E+02  0.16744084054E+02  0.50528858968E+02  0.29999997319E+02 0.  0.
        -12    1    1    2    0    0 -0.17967422233E+02 -0.32403288983E+02 -0.16744084054E+02  0.40659141032E+02  0.00000000000E+00 0.  1.
         11    1    3    3    0    0 -0.55941599955E+00 -0.19219080193E+01  0.24777823657E+01  0.31852915735E+01  0.51100000000E-03 0. -1.
        -11    1    3    3    0    0 -0.89990564669E+00 -0.29479585340E+01  0.14093732098E+01  0.33891920567E+01  0.51100000000E-03 0.  1.
         12    1    3    3    0    0  0.19426743879E+02  0.37273155537E+02  0.12856928479E+02  0.43954375338E+02  0.00000000000E+00 0. -1.
</event>
<event>
 7    1  0.2974434E-011  0.5052888E+02  0.7816164E-02  0.1300439E+00
        -11   -1    0    0    0    0  0.00000000000E+00  0.00000000000E+00  0.45593999997E+02  0.45594000000E+02  0.51100000000E-03 0.  1.
         11   -1    0    0    0    0 -0.00000000000E+00 -0.00000000000E+00 -0.45593999997E+02  0.45594000000E+02  0.51100000000E-03 0. -1.
    9900012    2    1    2    0    0  0.24347556089E+02  0.18346490710E+02 -0.26902911733E+02  0.50528882098E+02  0.30000067625E+02 0.  0.
        -12    1    1    2    0    0 -0.24347556089E+02 -0.18346490710E+02  0.26902911733E+02  0.40659117902E+02  0.00000000000E+00 0.  1.
         11    1    3    3    0    0  0.16125688327E+02 -0.32910224436E+01 -0.13010973699E+02  0.20979849608E+02  0.51100000000E-03 0. -1.
        -11    1    3    3    0    0 -0.76302793599E+00  0.62296216819E+01  0.94695985216E+00  0.63472144405E+01  0.51100000000E-03 0.  1.
        -12    1    3    3    0    0  0.89848956979E+01  0.15407891472E+02 -0.14838897886E+02  0.23201818049E+02  0.00000000000E+00 0.  1.
</event>
<event>
 7    1  0.2974434E-011  0.5052886E+02  0.7816164E-02  0.1300439E+00
        -11   -1    0    0    0    0  0.00000000000E+00  0.00000000000E+00  0.45593999997E+02  0.45594000000E+02  0.51100000000E-03 0.  1.
         11   -1    0    0    0    0 -0.00000000000E+00 -0.00000000000E+00 -0.45593999997E+02  0.45594000000E+02  0.51100000000E-03 0. -1.
    9900012    2    1    2    0    0  0.38973820332E+02 -0.81876329297E+01  0.81956880313E+01  0.50528864414E+02  0.30000013873E+02 0.  0.
        -12    1    1    2    0    0 -0.38973820332E+02  0.81876329297E+01 -0.81956880313E+01  0.40659135586E+02  0.00000000000E+00 0.  1.
         11    1    3    3    0    0  0.53024785866E+01  0.19632366129E+01  0.36665828968E+00  0.56661288127E+01  0.51100000000E-03 0. -1.
        -11    1    3    3    0    0  0.31299837274E+02  0.95876665198E+00  0.45219483812E+00  0.31317782924E+02  0.51100000000E-03 0.  1.
         12    1    3    3    0    0  0.23715044718E+01 -0.11109636195E+02  0.73768349035E+01  0.13544952677E+02  0.00000000000E+00 0. -1.
</event>
<event>
 7    1  0.2974434E-011  0.5052888E+02  0.7816164E-02  0.1300439E+00
        -11   -1    0    0    0    0  0.00000000000E+00  0.00000000000E+00  0.45593999997E+02  0.45594000000E+02  0.51100000000E-03 0.  1.
         11   -1    0    0    0    0 -0.00000000000E+00 -0.00000000000E+00 -0.45593999997E+02  0.45594000000E+02  0.51100000000E-03 0. -1.
    9900012    2    1    2    0    0 -0.15897660373E+01 -0.26259334226E+02 -0.31001361616E+02  0.50528875414E+02  0.30000047309E+02 0.  0.
        -12    1    1    2    0    0  0.15897660373E+01  0.26259334226E+02  0.31001361616E+02  0.40659124586E+02  0.00000000000E+00 0.  1.
         11    1    3    3    0    0 -0.29093654307E+01 -0.27992151024E+02 -0.30412994156E+02  0.41436398733E+02  0.51100000000E-03 0. -1.
        -11    1    3    3    0    0 -0.38612907998E+00 -0.34663600286E+01 -0.93102906336E+00  0.36099256076E+01  0.51100000000E-03 0.  1.
        -12    1    3    3    0    0  0.17057284735E+01  0.51991768270E+01  0.34266160323E+00  0.54825510739E+01  0.00000000000E+00 0.  1.
</event>
<event>
 7    1  0.2974434E-011  0.5052886E+02  0.7816164E-02  0.1300439E+00
        -11   -1    0    0    0    0  0.00000000000E+00  0.00000000000E+00  0.45593999997E+02  0.45594000000E+02  0.51100000000E-03 0. -1.
         11   -1    0    0    0    0 -0.00000000000E+00 -0.00000000000E+00 -0.45593999997E+02  0.45594000000E+02  0.51100000000E-03 0.  1.
    9900012    2    1    2    0    0 -0.21712094939E+02 -0.19562336389E+02  0.28267748892E+02  0.50528859588E+02  0.29999999202E+02 0.  0.
        -12    1    1    2    0    0  0.21712094939E+02  0.19562336389E+02 -0.28267748892E+02  0.40659140412E+02  0.00000000000E+00 0.  1.
         11    1    3    3    0    0 -0.11360737126E+02 -0.17108431838E+02  0.16204277325E+02  0.26159957796E+02  0.51100000000E-03 0. -1.
        -11    1    3    3    0    0 -0.13887482300E+02 -0.12045588379E+01  0.25874526788E+01  0.14177730364E+02  0.51100000000E-03 0.  1.
         12    1    3    3    0    0  0.35361244874E+01 -0.12493457135E+01  0.94760188881E+01  0.10191171428E+02  0.00000000000E+00 0. -1.
</event>
<event>
 7    1  0.2974434E-011  0.5052885E+02  0.7816164E-02  0.1300439E+00
        -11   -1    0    0    0    0  0.00000000000E+00  0.00000000000E+00  0.45593999997E+02  0.45594000000E+02  0.51100000000E-03 0.  1.
         11   -1    0    0    0    0 -0.00000000000E+00 -0.00000000000E+00 -0.45593999997E+02  0.45594000000E+02  0.51100000000E-03 0. -1.
    9900012    2    1    2    0    0 -0.25438777996E+02 -0.27242835792E+02 -0.16243861017E+02  0.50528849140E+02  0.29999967447E+02 0.  0.
        -12    1    1    2    0    0  0.25438777996E+02  0.27242835792E+02  0.16243861017E+02  0.40659150860E+02  0.00000000000E+00 0.  1.
         11    1    3    3    0    0 -0.23057960365E+02 -0.22351431280E+02 -0.19578764379E+02  0.37610956267E+02  0.51100000000E-03 0. -1.
        -11    1    3    3    0    0 -0.82865678115E+00 -0.54252277260E+01 -0.30820449744E+01  0.62943442411E+01  0.51100000000E-03 0.  1.
        -12    1    3    3    0    0 -0.15521608495E+01  0.53382321403E+00  0.64169483368E+01  0.66235486323E+01  0.00000000000E+00 0.  1.
</event>
<event>
 7    1  0.2974434E-011  0.5052884E+02  0.7816164E-02  0.1300439E+00
        -11   -1    0    0    0    0  0.00000000000E+00  0.00000000000E+00  0.45593999997E+02  0.45594000000E+02  0.51100000000E-03 0.  1.
         11   -1    0    0    0    0 -0.00000000000E+00 -0.00000000000E+00 -0.45593999997E+02  0.45594000000E+02  0.51100000000E-03 0. -1.
    9900012    2    1    2    0    0  0.32787771846E+00 -0.40239810165E+02  0.58152744456E+01  0.50528840604E+02  0.29999941499E+02 0.  0.
        -12    1    1    2    0    0 -0.32787771846E+00  0.40239810165E+02 -0.58152744456E+01  0.40659159396E+02  0.00000000000E+00 0.  1.
         11    1    3    3    0    0 -0.52417018808E+01 -0.32973420651E+01 -0.75616767069E+01  0.97737842304E+01  0.51100000000E-03 0. -1.
        -11    1    3    3    0    0 -0.20937749047E+01 -0.13395329303E+02  0.28864238334E+01  0.13861824674E+02  0.51100000000E-03 0.  1.
        -12    1    3    3    0    0  0.76633545039E+01 -0.23547138797E+02  0.10490527319E+02  0.26893231699E+02  0.00000000000E+00 0.  1.
</event>
<event>
 7    1  0.2974434E-011  0.5052887E+02  0.7816164E-02  0.1300439E+00
        -11   -1    0    0    0    0  0.00000000000E+00  0.00000000000E+00  0.45593999997E+02  0.45594000000E+02  0.51100000000E-03 0.  1.
         11   -1    0    0    0    0 -0.00000000000E+00 -0.00000000000E+00 -0.45593999997E+02  0.45594000000E+02  0.51100000000E-03 0. -1.
    9900012    2    1    2    0    0  0.10443000385E+02  0.38309614469E+02 -0.87454226873E+01  0.50528865285E+02  0.30000016520E+02 0.  0.
        -12    1    1    2    0    0 -0.10443000385E+02 -0.38309614469E+02  0.87454226873E+01  0.40659134715E+02  0.00000000000E+00 0.  1.
         11    1    3    3    0    0 -0.31815639049E+01  0.18155357515E+02 -0.12985215547E+02  0.22546733210E+02  0.51100000000E-03 0. -1.
        -11    1    3    3    0    0  0.39854034582E+01 -0.32094083469E+00  0.35406612796E+01  0.53406672150E+01  0.51100000000E-03 0.  1.
        -12    1    3    3    0    0  0.96391608320E+01  0.20475197789E+02  0.69913158048E+00  0.22641464860E+02  0.00000000000E+00 0.  1.
</event>
<event>
 7    1  0.2974434E-011  0.5052884E+02  0.7816164E-02  0.1300439E+00
        -11   -1    0    0    0    0  0.00000000000E+00  0.00000000000E+00  0.45593999997E+02  0.45594000000E+02  0.51100000000E-03 0.  1.
         11   -1    0    0    0    0 -0.00000000000E+00 -0.00000000000E+00 -0.45593999997E+02  0.45594000000E+02  0.51100000000E-03 0. -1.
    9900012    2    1    2    0    0  0.20322751709E+02  0.32121992529E+02  0.14433656977E+02  0.50528842424E+02  0.29999947032E+02 0.  0.
        -12    1    1    2    0    0 -0.20322751709E+02 -0.32121992529E+02 -0.14433656977E+02  0.40659157576E+02  0.00000000000E+00 0.  1.
         11    1    3    3    0    0  0.16195768222E+02  0.12024531444E+02  0.77232720295E+01  0.21599564714E+02  0.51100000000E-03 0. -1.
        -11    1    3    3    0    0  0.77543243444E+01  0.11330069129E+02  0.11852036747E+02  0.18137551869E+02  0.51100000000E-03 0.  1.
         12    1    3    3    0    0 -0.36273408566E+01  0.87673919558E+01 -0.51416517993E+01  0.10791725841E+02  0.00000000000E+00 0. -1.
</event>
<event>
 7    1  0.2974434E-011  0.5052889E+02  0.7816164E-02  0.1300439E+00
        -11   -1    0    0    0    0  0.00000000000E+00  0.00000000000E+00  0.45593999997E+02  0.45594000000E+02  0.51100000000E-03 0.  1.
         11   -1    0    0    0    0 -0.00000000000E+00 -0.00000000000E+00 -0.45593999997E+02  0.45594000000E+02  0.51100000000E-03 0. -1.
    9900012    2    1    2    0    0  0.66914493539E+01  0.55756622376E+01 -0.39715230122E+02  0.50528892687E+02  0.30000099812E+02 0.  0.
        -12    1    1    2    0    0 -0.66914493539E+01 -0.55756622376E+01  0.39715230122E+02  0.40659107313E+02  0.00000000000E+00 0.  1.
         11    1    3    3    0    0  0.70316305677E+01  0.10727556497E+02 -0.32634122216E+02  0.35064372658E+02  0.51100000000E-03 0. -1.
        -11    1    3    3    0    0  0.95973488989E-01  0.38156092871E+01 -0.49255042260E+01  0.62312661060E+01  0.51100000000E-03 0.  1.
        -12    1    3    3    0    0 -0.43615470280E+00 -0.89675035464E+01 -0.21556036796E+01  0.92332539228E+01  0.00000000000E+00 0.  1.
</event>
<event>
 7    1  0.2974434E-011  0.5052887E+02  0.7816164E-02  0.1300439E+00
        -11   -1    0    0    0    0  0.00000000000E+00  0.00000000000E+00  0.45593999997E+02  0.45594000000E+02  0.51100000000E-03 0.  1.
         11   -1    0    0    0    0 -0.00000000000E+00 -0.00000000000E+00 -0.45593999997E+02  0.45594000000E+02  0.51100000000E-03 0. -1.
    9900012    2    1    2    0    0 -0.21840458328E+02  0.28495365451E+02 -0.19083335424E+02  0.50528866179E+02  0.30000019238E+02 0.  0.
        -12    1    1    2    0    0  0.21840458328E+02 -0.28495365451E+02  0.19083335424E+02  0.40659133821E+02  0.00000000000E+00 0.  1.
         11    1    3    3    0    0 -0.10174952038E+01  0.37790894753E+01  0.21009439983E+00  0.39193052535E+01  0.51100000000E-03 0. -1.
        -11    1    3    3    0    0  0.39749787439E+00  0.18606545822E+02 -0.23144033840E+01  0.18754146616E+02  0.51100000000E-03 0.  1.
         12    1    3    3    0    0 -0.21220460998E+02  0.61097301532E+01 -0.16979026440E+02  0.27855414310E+02  0.00000000000E+00 0. -1.
</event>
<event>
 7    1  0.2974434E-011  0.5052886E+02  0.7816164E-02  0.1300439E+00
        -11   -1    0    0    0    0  0.00000000000E+00  0.00000000000E+00  0.45593999997E+02  0.45594000000E+02  0.51100000000E-03 0.  1.
         11   -1    0    0    0    0 -0.00000000000E+00 -0.00000000000E+00 -0.45593999997E+02  0.45594000000E+02  0.51100000000E-03 0. -1.
    9900012    2    1    2    0    0  0.47080801227E+01  0.68538395568E+01 -0.39799809143E+02  0.50528856588E+02  0.29999990086E+02 0.  0.
        -12    1    1    2    0    0 -0.47080801227E+01 -0.68538395568E+01  0.39799809143E+02  0.40659143412E+02  0.00000000000E+00 0.  1.
         11    1    3    3    0    0 -0.58529229538E+01  0.50531804394E+01 -0.11892506732E+02  0.14185311286E+02  0.51100000000E-03 0. -1.
        -11    1    3    3    0    0 -0.18095392617E+01  0.87974255922E+01 -0.92932158822E+01  0.12924124384E+02  0.51100000000E-03 0.  1.
         12    1    3    3    0    0  0.12370542338E+02 -0.69967664748E+01 -0.18614086530E+02  0.23419420919E+02  0.00000000000E+00 0. -1.
</event>
<event>
 7    1  0.2974434E-011  0.5052886E+02  0.7816164E-02  0.1300439E+00
        -11   -1    0    0    0    0  0.00000000000E+00  0.00000000000E+00  0.45593999997E+02  0.45594000000E+02  0.51100000000E-03 0.  1.
         11   -1    0    0    0    0 -0.00000000000E+00 -0.00000000000E+00 -0.45593999997E+02  0.45594000000E+02  0.51100000000E-03 0. -1.
    9900012    2    1    2    0    0  0.39929621775E+02 -0.34381207648E+01  0.68534834472E+01  0.50528860747E+02  0.30000002726E+02 0.  0.
        -12    1    1    2    0    0 -0.39929621775E+02  0.34381207648E+01 -0.68534834472E+01  0.40659139253E+02  0.00000000000E+00 0.  1.
         11    1    3    3    0    0  0.14818746512E+02  0.18498816794E+01  0.77830987176E+01  0.16840247514E+02  0.51100000000E-03 0. -1.
        -11    1    3    3    0    0  0.10054062864E+02 -0.37442242781E+01  0.10276250342E+02  0.14856133982E+02  0.51100000000E-03 0.  1.
        -12    1    3    3    0    0  0.15056812398E+02 -0.15437781660E+01 -0.11205865613E+02  0.18832479251E+02  0.00000000000E+00 0.  1.
</event>
<event>
 7    1  0.2974434E-011  0.5052885E+02  0.7816164E-02  0.1300439E+00
        -11   -1    0    0    0    0  0.00000000000E+00  0.00000000000E+00  0.45593999997E+02  0.45594000000E+02  0.51100000000E-03 0. -1.
         11   -1    0    0    0    0 -0.00000000000E+00 -0.00000000000E+00 -0.45593999997E+02  0.45594000000E+02  0.51100000000E-03 0.  1.
    9900012    2    1    2    0    0  0.28232220633E+02  0.25058427606E+02  0.15105736469E+02  0.50528851580E+02  0.29999974863E+02 0.  0.
        -12    1    1    2    0    0 -0.28232220633E+02 -0.25058427606E+02 -0.15105736469E+02  0.40659148420E+02  0.00000000000E+00 0.  1.
         11    1    3    3    0    0  0.22803551751E+02  0.20864164470E+02  0.84611388277E+01  0.32045377233E+02  0.51100000000E-03 0. -1.
        -11    1    3    3    0    0  0.89933397148E+01  0.52420228906E+01 -0.50958038926E+00  0.10422026465E+02  0.51100000000E-03 0.  1.
        -12    1    3    3    0    0 -0.35646708328E+01 -0.10477597546E+01  0.71541780310E+01  0.80614478817E+01  0.00000000000E+00 0.  1.
</event>
<event>
 7    1  0.2974434E-011  0.5052886E+02  0.7816164E-02  0.1300439E+00
        -11   -1    0    0    0    0  0.00000000000E+00  0.00000000000E+00  0.45593999997E+02  0.45594000000E+02  0.51100000000E-03 0.  1.
         11   -1    0    0    0    0 -0.00000000000E+00 -0.00000000000E+00 -0.45593999997E+02  0.45594000000E+02  0.51100000000E-03 0. -1.
    9900012    2    1    2    0    0 -0.38354284774E+02 -0.69717977712E+01 -0.11554605614E+02  0.50528855449E+02  0.29999986624E+02 0.  0.
        -12    1    1    2    0    0  0.38354284774E+02  0.69717977712E+01  0.11554605614E+02  0.40659144551E+02  0.00000000000E+00 0.  1.
         11    1    3    3    0    0 -0.12316501992E+02  0.47692230569E+00 -0.71503694475E+01  0.14249612616E+02  0.51100000000E-03 0. -1.
        -11    1    3    3    0    0 -0.19446558789E+00  0.63388622418E+01  0.12062977822E+01  0.64555515632E+01  0.51100000000E-03 0.  1.
        -12    1    3    3    0    0 -0.25843317194E+02 -0.13787582319E+02 -0.56105339483E+01  0.29823691270E+02  0.00000000000E+00 0.  1.
</event>
<event>
 7    1  0.2974434E-011  0.5052886E+02  0.7816164E-02  0.1300439E+00
        -11   -1    0    0    0    0  0.00000000000E+00  0.00000000000E+00  0.45593999997E+02  0.45594000000E+02  0.51100000000E-03 0.  1.
         11   -1    0    0    0    0 -0.00000000000E+00 -0.00000000000E+00 -0.45593999997E+02  0.45594000000E+02  0.51100000000E-03 0. -1.
    9900012    2    1    2    0    0 -0.29187502164E+02  0.11506280536E+02 -0.25862348579E+02  0.50528857752E+02  0.29999993623E+02 0.  0.
        -12    1    1    2    0    0  0.29187502164E+02 -0.11506280536E+02  0.25862348579E+02  0.40659142248E+02  0.00000000000E+00 0.  1.
         11    1    3    3    0    0  0.11188277781E+01  0.96710757206E+01 -0.61871786920E+01  0.11535279001E+02  0.51100000000E-03 0. -1.
        -11    1    3    3    0    0 -0.16222082309E+01  0.20214146537E+01  0.18043615607E+01  0.31580686581E+01  0.51100000000E-03 0.  1.
        -12    1    3    3    0    0 -0.28684121711E+02 -0.18620983829E+00 -0.21479531447E+02  0.35835510093E+02  0.00000000000E+00 0.  1.
</event>
<event>
 7    1  0.2974434E-011  0.5052883E+02  0.7816164E-02  0.1300439E+00
        -11   -1    0    0    0    0  0.00000000000E+00  0.00000000000E+00  0.45593999997E+02  0.45594000000E+02  0.51100000000E-03 0. -1.
         11   -1    0    0    0    0 -0.00000000000E+00 -0.00000000000E+00 -0.45593999997E+02  0.45594000000E+02  0.51100000000E-03 0.  1.
    9900012    2    1    2    0    0  0.54484541644E+01  0.34268268030E+02 -0.21193584374E+02  0.50528832951E+02  0.29999918237E+02 0.  0.
        -12    1    1    2    0    0 -0.54484541644E+01 -0.34268268030E+02  0.21193584374E+02  0.40659167049E+02  0.00000000000E+00 0.  1.
         11    1    3    3    0    0  0.99205321430E+01  0.78882734992E+01 -0.10252681903E+02  0.16302125728E+02  0.51100000000E-03 0. -1.
        -11    1    3    3    0    0 -0.35726061906E+01  0.16706000403E+02 -0.15882833717E+02  0.23326345012E+02  0.51100000000E-03 0.  1.
         12    1    3    3    0    0 -0.89947178806E+00  0.96739941271E+01  0.49419312467E+01  0.10900362210E+02  0.00000000000E+00 0. -1.
</event>
<event>
 7    1  0.2974434E-011  0.5052883E+02  0.7816164E-02  0.1300439E+00
        -11   -1    0    0    0    0  0.00000000000E+00  0.00000000000E+00  0.45593999997E+02  0.45594000000E+02  0.51100000000E-03 0.  1.
         11   -1    0    0    0    0 -0.00000000000E+00 -0.00000000000E+00 -0.45593999997E+02  0.45594000000E+02  0.51100000000E-03 0. -1.
    9900012    2    1    2    0    0 -0.23795859448E+02 -0.37473849416E+01 -0.32754885007E+02  0.50528827449E+02  0.29999901513E+02 0.  0.
        -12    1    1    2    0    0  0.23795859448E+02  0.37473849416E+01  0.32754885007E+02  0.40659172551E+02  0.00000000000E+00 0.  1.
         11    1    3    3    0    0 -0.38796170243E+01 -0.73892778584E+01 -0.13352114076E+02  0.15745850440E+02  0.51100000000E-03 0. -1.
        -11    1    3    3    0    0 -0.17337306825E+02  0.57153996799E+01 -0.23345593785E+02  0.29635531898E+02  0.51100000000E-03 0.  1.
        -12    1    3    3    0    0 -0.25789355979E+01 -0.20735067630E+01  0.39428228535E+01  0.51474451108E+01  0.00000000000E+00 0.  1.
</event>
<event>
 7    1  0.2974434E-011  0.5052888E+02  0.7816164E-02  0.1300439E+00
        -11   -1    0    0    0    0  0.00000000000E+00  0.00000000000E+00  0.45593999997E+02  0.45594000000E+02  0.51100000000E-03 0.  1.
         11   -1    0    0    0    0 -0.00000000000E+00 -0.00000000000E+00 -0.45593999997E+02  0.45594000000E+02  0.51100000000E-03 0. -1.
    9900012    2    1    2    0    0 -0.21927444137E+02 -0.13982006925E+02 -0.31254669886E+02  0.50528884002E+02  0.30000073413E+02 0.  0.
        -12    1    1    2    0    0  0.21927444137E+02  0.13982006925E+02  0.31254669886E+02  0.40659115998E+02  0.00000000000E+00 0.  1.
         11    1    3    3    0    0 -0.14905398021E+02 -0.84133889133E+01 -0.29440849736E+02  0.34054656606E+02  0.51100000000E-03 0. -1.
        -11    1    3    3    0    0 -0.24478592385E+01  0.29790217074E+01 -0.49595603632E+01  0.62820239129E+01  0.51100000000E-03 0.  1.
        -12    1    3    3    0    0 -0.45741868775E+01 -0.85476397187E+01  0.31457402123E+01  0.10192203483E+02  0.00000000000E+00 0.  1.
</event>
<event>
 7    1  0.2974434E-011  0.5052886E+02  0.7816164E-02  0.1300439E+00
        -11   -1    0    0    0    0  0.00000000000E+00  0.00000000000E+00  0.45593999997E+02  0.45594000000E+02  0.51100000000E-03 0.  1.
         11   -1    0    0    0    0 -0.00000000000E+00 -0.00000000000E+00 -0.45593999997E+02  0.45594000000E+02  0.51100000000E-03 0. -1.
    9900012    2    1    2    0    0 -0.34586807419E+02  0.19889645512E+02  0.78307301823E+01  0.50528861037E+02  0.30000003609E+02 0.  0.
        -12    1    1    2    0    0  0.34586807419E+02 -0.19889645512E+02 -0.78307301823E+01  0.40659138963E+02  0.00000000000E+00 0.  1.
         11    1    3    3    0    0  0.20481249829E+01  0.44256075937E+01  0.24231083904E+01  0.54453900734E+01  0.51100000000E-03 0. -1.
        -11    1    3    3    0    0 -0.18410789130E+01 -0.16788280694E+01  0.57797495983E+01  0.62939288946E+01  0.51100000000E-03 0.  1.
         12    1    3    3    0    0 -0.34793853489E+02  0.17142865987E+02 -0.37212780642E+00  0.38789542069E+02  0.00000000000E+00 0. -1.
</event>
<event>
 7    1  0.2974434E-011  0.5052886E+02  0.7816164E-02  0.1300439E+00
        -11   -1    0    0    0    0  0.00000000000E+00  0.00000000000E+00  0.45593999997E+02  0.45594000000E+02  0.51100000000E-03 0.  1.
         11   -1    0    0    0    0 -0.00000000000E+00 -0.00000000000E+00 -0.45593999997E+02  0.45594000000E+02  0.51100000000E-03 0. -1.
    9900012    2    1    2    0    0 -0.19115934389E+01 -0.16046323102E+02 -0.37309877462E+02  0.50528860427E+02  0.30000001754E+02 0.  0.
        -12    1    1    2    0    0  0.19115934389E+01  0.16046323102E+02  0.37309877462E+02  0.40659139573E+02  0.00000000000E+00 0.  1.
         11    1    3    3    0    0 -0.60658686112E+01 -0.19596534334E+01 -0.28169655409E+02  0.28881905922E+02  0.51100000000E-03 0. -1.
        -11    1    3    3    0    0 -0.30465229736E+01 -0.24946543514E+01  0.16307307323E+01  0.42619110202E+01  0.51100000000E-03 0.  1.
        -12    1    3    3    0    0  0.72007981459E+01 -0.11592015317E+02 -0.10770952786E+02  0.17385043485E+02  0.00000000000E+00 0.  1.
</event>
<event>
 7    1  0.2974434E-011  0.5052875E+02  0.7816164E-02  0.1300439E+00
        -11   -1    0    0    0    0  0.00000000000E+00  0.00000000000E+00  0.45593999997E+02  0.45594000000E+02  0.51100000000E-03 0.  1.
         11   -1    0    0    0    0 -0.00000000000E+00 -0.00000000000E+00 -0.45593999997E+02  0.45594000000E+02  0.51100000000E-03 0. -1.
    9900012    2    1    2    0    0 -0.37022496737E+01 -0.67320291316E+01 -0.39926779101E+02  0.50528750643E+02  0.29999668053E+02 0.  0.
        -12    1    1    2    0    0  0.37022496737E+01  0.67320291316E+01  0.39926779101E+02  0.40659249357E+02  0.00000000000E+00 0.  1.
         11    1    3    3    0    0  0.61328578640E+01 -0.47608961856E+01 -0.24789557691E+01  0.81500490819E+01  0.51100000000E-03 0. -1.
        -11    1    3    3    0    0  0.11396415033E+01  0.80777668905E+00  0.13622288264E+01  0.19511416074E+01  0.51100000000E-03 0.  1.
         12    1    3    3    0    0 -0.10974749041E+02 -0.27789096350E+01 -0.38810052158E+02  0.40427559954E+02  0.00000000000E+00 0. -1.
</event>
<event>
 7    1  0.2974434E-011  0.5052886E+02  0.7816164E-02  0.1300439E+00
        -11   -1    0    0    0    0  0.00000000000E+00  0.00000000000E+00  0.45593999997E+02  0.45594000000E+02  0.51100000000E-03 0.  1.
         11   -1    0    0    0    0 -0.00000000000E+00 -0.00000000000E+00 -0.45593999997E+02  0.45594000000E+02  0.51100000000E-03 0. -1.
    9900012    2    1    2    0    0  0.14915209858E+02  0.17726066670E+02 -0.33413901759E+02  0.50528858894E+02  0.29999997095E+02 0.  0.
        -12    1    1    2    0    0 -0.14915209858E+02 -0.17726066670E+02  0.33413901759E+02  0.40659141106E+02  0.00000000000E+00 0.  1.
         11    1    3    3    0    0  0.84240462560E+01  0.95263040164E+01 -0.19245167365E+02  0.23067108416E+02  0.51100000000E-03 0. -1.
        -11    1    3    3    0    0 -0.59246050040E+01 -0.31053803650E+01 -0.48025265619E+01  0.82345973371E+01  0.51100000000E-03 0.  1.
         12    1    3    3    0    0  0.12415768606E+02  0.11305143019E+02 -0.93662078322E+01  0.19227153141E+02  0.00000000000E+00 0. -1.
</event>
<event>
 7    1  0.2974434E-011  0.5052886E+02  0.7816164E-02  0.1300439E+00
        -11   -1    0    0    0    0  0.00000000000E+00  0.00000000000E+00  0.45593999997E+02  0.45594000000E+02  0.51100000000E-03 0.  1.
         11   -1    0    0    0    0 -0.00000000000E+00 -0.00000000000E+00 -0.45593999997E+02  0.45594000000E+02  0.51100000000E-03 0. -1.
    9900012    2    1    2    0    0  0.25988111877E+02 -0.16043536703E+01 -0.31228349506E+02  0.50528859299E+02  0.29999998326E+02 0.  0.
        -12    1    1    2    0    0 -0.25988111877E+02  0.16043536703E+01  0.31228349506E+02  0.40659140701E+02  0.00000000000E+00 0.  1.
         11    1    3    3    0    0  0.11860659318E+02 -0.13875296990E+02 -0.19088573006E+02  0.26411602103E+02  0.51100000000E-03 0. -1.
        -11    1    3    3    0    0  0.98167568603E+01  0.25450533190E+01 -0.50158132255E+01  0.11313902696E+02  0.51100000000E-03 0.  1.
        -12    1    3    3    0    0  0.43106956991E+01  0.97258900002E+01 -0.71239632747E+01  0.12803354500E+02  0.00000000000E+00 0.  1.
</event>
<event>
 7    1  0.2974434E-011  0.5052886E+02  0.7816164E-02  0.1300439E+00
        -11   -1    0    0    0    0  0.00000000000E+00  0.00000000000E+00  0.45593999997E+02  0.45594000000E+02  0.51100000000E-03 0.  1.
         11   -1    0    0    0    0 -0.00000000000E+00 -0.00000000000E+00 -0.45593999997E+02  0.45594000000E+02  0.51100000000E-03 0. -1.
    9900012    2    1    2    0    0 -0.60807500590E+01  0.68694081668E+01 -0.39610621839E+02  0.50528860163E+02  0.30000000950E+02 0.  0.
        -12    1    1    2    0    0  0.60807500590E+01 -0.68694081668E+01  0.39610621839E+02  0.40659139837E+02  0.00000000000E+00 0.  1.
         11    1    3    3    0    0  0.29342668214E+01  0.12819892101E+01 -0.10347550126E+02  0.10831676324E+02  0.51100000000E-03 0. -1.
        -11    1    3    3    0    0  0.76334865753E+00  0.13400504562E+02 -0.20164435888E+02  0.24223143864E+02  0.51100000000E-03 0.  1.
         12    1    3    3    0    0 -0.97783655379E+01 -0.78130856054E+01 -0.90986358242E+01  0.15474039975E+02  0.00000000000E+00 0. -1.
</event>
<event>
 7    1  0.2974434E-011  0.5052886E+02  0.7816164E-02  0.1300439E+00
        -11   -1    0    0    0    0  0.00000000000E+00  0.00000000000E+00  0.45593999997E+02  0.45594000000E+02  0.51100000000E-03 0.  1.
         11   -1    0    0    0    0 -0.00000000000E+00 -0.00000000000E+00 -0.45593999997E+02  0.45594000000E+02  0.51100000000E-03 0. -1.
    9900012    2    1    2    0    0 -0.21495907383E+02  0.34380656030E+02 -0.30103949349E+01  0.50528855630E+02  0.29999987172E+02 0.  0.
        -12    1    1    2    0    0  0.21495907383E+02 -0.34380656030E+02  0.30103949349E+01  0.40659144370E+02  0.00000000000E+00 0.  1.
         11    1    3    3    0    0 -0.16112182592E+02  0.18037402855E+02 -0.64706572349E+01  0.25036368246E+02  0.51100000000E-03 0. -1.
        -11    1    3    3    0    0 -0.12197232780E+02  0.89920236916E+01  0.10888585467E+01  0.15192583413E+02  0.51100000000E-03 0.  1.
         12    1    3    3    0    0  0.68135079895E+01  0.73512294835E+01  0.23714037533E+01  0.10299903971E+02  0.00000000000E+00 0. -1.
</event>
<event>
 7    1  0.2974434E-011  0.5052885E+02  0.7816164E-02  0.1300439E+00
        -11   -1    0    0    0    0  0.00000000000E+00  0.00000000000E+00  0.45593999997E+02  0.45594000000E+02  0.51100000000E-03 0.  1.
         11   -1    0    0    0    0 -0.00000000000E+00 -0.00000000000E+00 -0.45593999997E+02  0.45594000000E+02  0.51100000000E-03 0. -1.
    9900012    2    1    2    0    0 -0.28452820988E+02 -0.17625775384E+02 -0.23085389536E+02  0.50528853550E+02  0.29999980849E+02 0.  0.
        -12    1    1    2    0    0  0.28452820988E+02  0.17625775384E+02  0.23085389536E+02  0.40659146450E+02  0.00000000000E+00 0.  1.
         11    1    3    3    0    0 -0.34729601960E+01  0.28885507684E+01 -0.41223423216E+01  0.61154627415E+01  0.51100000000E-03 0. -1.
        -11    1    3    3    0    0  0.32173722501E+01  0.18197856812E+01  0.11161161794E+00  0.36980483414E+01  0.51100000000E-03 0.  1.
        -12    1    3    3    0    0 -0.28197233042E+02 -0.22334111833E+02 -0.19074658832E+02  0.40715342467E+02  0.00000000000E+00 0.  1.
</event>
<event>
 7    1  0.2974434E-011  0.5052886E+02  0.7816164E-02  0.1300439E+00
        -11   -1    0    0    0    0  0.00000000000E+00  0.00000000000E+00  0.45593999997E+02  0.45594000000E+02  0.51100000000E-03 0.  1.
         11   -1    0    0    0    0 -0.00000000000E+00 -0.00000000000E+00 -0.45593999997E+02  0.45594000000E+02  0.51100000000E-03 0. -1.
    9900012    2    1    2    0    0  0.27327790626E+02 -0.18776745293E+02 -0.23532771469E+02  0.50528860347E+02  0.30000001511E+02 0.  0.
        -12    1    1    2    0    0 -0.27327790626E+02  0.18776745293E+02  0.23532771469E+02  0.40659139653E+02  0.00000000000E+00 0.  1.
         11    1    3    3    0    0  0.19442820597E+01 -0.71054259505E+01 -0.19289439361E+01  0.76149941324E+01  0.51100000000E-03 0.  1.
        -11    1    3    3    0    0  0.21524032422E+02 -0.18360873073E+02 -0.12374096719E+02  0.30879182334E+02  0.51100000000E-03 0. -1.
         12    1    3    3    0    0  0.38594761441E+01  0.66895537309E+01 -0.92297308139E+01  0.12034683881E+02  0.00000000000E+00 0. -1.
</event>
<event>
 7    1  0.2974434E-011  0.5052887E+02  0.7816164E-02  0.1300439E+00
        -11   -1    0    0    0    0  0.00000000000E+00  0.00000000000E+00  0.45593999997E+02  0.45594000000E+02  0.51100000000E-03 0.  1.
         11   -1    0    0    0    0 -0.00000000000E+00 -0.00000000000E+00 -0.45593999997E+02  0.45594000000E+02  0.51100000000E-03 0. -1.
    9900012    2    1    2    0    0  0.20233212680E+02 -0.34037076804E+02 -0.92336130293E+01  0.50528866927E+02  0.30000021511E+02 0.  0.
        -12    1    1    2    0    0 -0.20233212680E+02  0.34037076804E+02  0.92336130293E+01  0.40659133073E+02  0.00000000000E+00 0.  1.
         11    1    3    3    0    0 -0.41329102636E+01 -0.98283478745E+01 -0.40141850330E+01  0.11392587543E+02  0.51100000000E-03 0. -1.
        -11    1    3    3    0    0  0.27994690910E+01 -0.52254519331E+01 -0.83441658143E+01  0.10235598590E+02  0.51100000000E-03 0.  1.
        -12    1    3    3    0    0  0.21566653853E+02 -0.18983276996E+02  0.31247378180E+01  0.28900680794E+02  0.00000000000E+00 0.  1.
</event>
<event>
 7    1  0.2974434E-011  0.5052886E+02  0.7816164E-02  0.1300439E+00
        -11   -1    0    0    0    0  0.00000000000E+00  0.00000000000E+00  0.45593999997E+02  0.45594000000E+02  0.51100000000E-03 0. -1.
         11   -1    0    0    0    0 -0.00000000000E+00 -0.00000000000E+00 -0.45593999997E+02  0.45594000000E+02  0.51100000000E-03 0.  1.
    9900012    2    1    2    0    0 -0.34512341551E+02  0.14215432337E+02  0.16124053925E+02  0.50528863870E+02  0.30000012219E+02 0.  0.
        -12    1    1    2    0    0  0.34512341551E+02 -0.14215432337E+02 -0.16124053925E+02  0.40659136130E+02  0.00000000000E+00 0.  1.
         11    1    3    3    0    0 -0.63239266429E+01 -0.49990367883E+01  0.11313395960E+02  0.13891556623E+02  0.51100000000E-03 0. -1.
        -11    1    3    3    0    0 -0.59644255339E+01  0.20226858000E+01  0.57445496756E+01  0.85244050251E+01  0.51100000000E-03 0.  1.
        -12    1    3    3    0    0 -0.22223989375E+02  0.17191783325E+02 -0.93389171066E+00  0.28112902222E+02  0.00000000000E+00 0.  1.
</event>
<event>
 7    1  0.2974434E-011  0.5052891E+02  0.7816164E-02  0.1300439E+00
        -11   -1    0    0    0    0  0.00000000000E+00  0.00000000000E+00  0.45593999997E+02  0.45594000000E+02  0.51100000000E-03 0.  1.
         11   -1    0    0    0    0 -0.00000000000E+00 -0.00000000000E+00 -0.45593999997E+02  0.45594000000E+02  0.51100000000E-03 0. -1.
    9900012    2    1    2    0    0 -0.14991225061E+02 -0.31702489699E+02 -0.20576123925E+02  0.50528910515E+02  0.30000154002E+02 0.  0.
        -12    1    1    2    0    0  0.14991225061E+02  0.31702489699E+02  0.20576123925E+02  0.40659089485E+02  0.00000000000E+00 0.  1.
         11    1    3    3    0    0 -0.15147626285E+02 -0.24784667141E+02 -0.93875217823E+01  0.30526314432E+02  0.51100000000E-03 0. -1.
        -11    1    3    3    0    0 -0.14608361862E+01 -0.88116923548E+00  0.35802270346E+01  0.39659207588E+01  0.51100000000E-03 0.  1.
        -12    1    3    3    0    0  0.16172374099E+01 -0.60366533230E+01 -0.14768829178E+02  0.16036675324E+02  0.00000000000E+00 0.  1.
</event>
<event>
 7    1  0.2974434E-011  0.5052887E+02  0.7816164E-02  0.1300439E+00
        -11   -1    0    0    0    0  0.00000000000E+00  0.00000000000E+00  0.45593999997E+02  0.45594000000E+02  0.51100000000E-03 0.  1.
         11   -1    0    0    0    0 -0.00000000000E+00 -0.00000000000E+00 -0.45593999997E+02  0.45594000000E+02  0.51100000000E-03 0. -1.
    9900012    2    1    2    0    0  0.38278690395E+02 -0.12432971118E+02 -0.57730478967E+01  0.50528868292E+02  0.30000025661E+02 0.  0.
        -12    1    1    2    0    0 -0.38278690395E+02  0.12432971118E+02  0.57730478967E+01  0.40659131708E+02  0.00000000000E+00 0.  1.
         11    1    3    3    0    0  0.15042857574E+02 -0.86182893559E+01  0.80746908763E+01  0.19124934207E+02  0.51100000000E-03 0.  1.
        -11    1    3    3    0    0  0.15873285640E+02 -0.60046035956E+01 -0.16106537995E+02  0.23397372241E+02  0.51100000000E-03 0. -1.
         12    1    3    3    0    0  0.73625471811E+01  0.21899218333E+01  0.22587992221E+01  0.80065618436E+01  0.00000000000E+00 0. -1.
</event>
<event>
 7    1  0.2974434E-011  0.5052886E+02  0.7816164E-02  0.1300439E+00
        -11   -1    0    0    0    0  0.00000000000E+00  0.00000000000E+00  0.45593999997E+02  0.45594000000E+02  0.51100000000E-03 0. -1.
         11   -1    0    0    0    0 -0.00000000000E+00 -0.00000000000E+00 -0.45593999997E+02  0.45594000000E+02  0.51100000000E-03 0.  1.
    9900012    2    1    2    0    0  0.93545674663E+01  0.12880319030E+02  0.37413301430E+02  0.50528859887E+02  0.30000000114E+02 0.  0.
        -12    1    1    2    0    0 -0.93545674663E+01 -0.12880319030E+02 -0.37413301430E+02  0.40659140113E+02  0.00000000000E+00 0.  1.
         11    1    3    3    0    0 -0.28548812444E+01  0.10419433229E+02  0.12119566086E+02  0.16235726596E+02  0.51100000000E-03 0. -1.
        -11    1    3    3    0    0 -0.36996265117E+01  0.58114083908E+01  0.79889026400E+01  0.10549041163E+02  0.51100000000E-03 0.  1.
        -12    1    3    3    0    0  0.15909075222E+02 -0.33505225901E+01  0.17304832704E+02  0.23744092128E+02  0.00000000000E+00 0.  1.
</event>
<event>
 7    1  0.2974434E-011  0.5052887E+02  0.7816164E-02  0.1300439E+00
        -11   -1    0    0    0    0  0.00000000000E+00  0.00000000000E+00  0.45593999997E+02  0.45594000000E+02  0.51100000000E-03 0.  1.
         11   -1    0    0    0    0 -0.00000000000E+00 -0.00000000000E+00 -0.45593999997E+02  0.45594000000E+02  0.51100000000E-03 0. -1.
    9900012    2    1    2    0    0  0.76028075770E+01 -0.21953899851E+02 -0.33367481554E+02  0.50528865393E+02  0.30000016850E+02 0.  0.
        -12    1    1    2    0    0 -0.76028075770E+01  0.21953899851E+02  0.33367481554E+02  0.40659134607E+02  0.00000000000E+00 0.  1.
         11    1    3    3    0    0 -0.85425643782E+00  0.48406465495E+01 -0.73692345055E+01  0.88581730925E+01  0.51100000000E-03 0. -1.
        -11    1    3    3    0    0 -0.14221110675E-01 -0.64062857777E+00  0.21984533764E+01  0.22899355284E+01  0.51100000000E-03 0.  1.
         12    1    3    3    0    0  0.84712851255E+01 -0.26153917823E+02 -0.28196700425E+02  0.39380756773E+02  0.00000000000E+00 0. -1.
</event>
<event>
 7    1  0.2974434E-011  0.5052885E+02  0.7816164E-02  0.1300439E+00
        -11   -1    0    0    0    0  0.00000000000E+00  0.00000000000E+00  0.45593999997E+02  0.45594000000E+02  0.51100000000E-03 0. -1.
         11   -1    0    0    0    0 -0.00000000000E+00 -0.00000000000E+00 -0.45593999997E+02  0.45594000000E+02  0.51100000000E-03 0.  1.
    9900012    2    1    2    0    0  0.35792231754E+01 -0.11175227424E+02  0.38929037999E+02  0.50528849172E+02  0.29999967543E+02 0.  0.
        -12    1    1    2    0    0 -0.35792231754E+01  0.11175227424E+02 -0.38929037999E+02  0.40659150828E+02  0.00000000000E+00 0.  1.
         11    1    3    3    0    0 -0.52030587147E+01  0.16730436594E+01  0.51687643611E+01  0.75224344701E+01  0.51100000000E-03 0. -1.
        -11    1    3    3    0    0 -0.64863571547E+01 -0.59252670108E+01  0.62184081707E+01  0.10763373947E+02  0.51100000000E-03 0.  1.
         12    1    3    3    0    0  0.15268639045E+02 -0.69230040729E+01  0.27541865467E+02  0.32243040755E+02  0.00000000000E+00 0. -1.
</event>
<event>
 7    1  0.2974434E-011  0.5052886E+02  0.7816164E-02  0.1300439E+00
        -11   -1    0    0    0    0  0.00000000000E+00  0.00000000000E+00  0.45593999997E+02  0.45594000000E+02  0.51100000000E-03 0. -1.
         11   -1    0    0    0    0 -0.00000000000E+00 -0.00000000000E+00 -0.45593999997E+02  0.45594000000E+02  0.51100000000E-03 0.  1.
    9900012    2    1    2    0    0 -0.34099548614E+02  0.15409333674E+02  0.15904043532E+02  0.50528863504E+02  0.30000011107E+02 0.  0.
        -12    1    1    2    0    0  0.34099548614E+02 -0.15409333674E+02 -0.15904043532E+02  0.40659136496E+02  0.00000000000E+00 0.  1.
         11    1    3    3    0    0 -0.57917157909E+01  0.27180475619E+01  0.94659299933E+01  0.11425217077E+02  0.51100000000E-03 0. -1.
        -11    1    3    3    0    0  0.12443969703E+01 -0.28469661843E+01  0.47460159423E+01  0.56726015072E+01  0.51100000000E-03 0.  1.
         12    1    3    3    0    0 -0.29552229793E+02  0.15538252296E+02  0.16920975959E+01  0.33431044920E+02  0.00000000000E+00 0. -1.
</event>
<event>
 7    1  0.2974434E-011  0.5052886E+02  0.7816164E-02  0.1300439E+00
        -11   -1    0    0    0    0  0.00000000000E+00  0.00000000000E+00  0.45593999997E+02  0.45594000000E+02  0.51100000000E-03 0.  1.
         11   -1    0    0    0    0 -0.00000000000E+00 -0.00000000000E+00 -0.45593999997E+02  0.45594000000E+02  0.51100000000E-03 0. -1.
    9900012    2    1    2    0    0 -0.28923621241E+02  0.65011947781E+01 -0.27826684596E+02  0.50528858655E+02  0.29999996369E+02 0.  0.
        -12    1    1    2    0    0  0.28923621241E+02 -0.65011947781E+01  0.27826684596E+02  0.40659141345E+02  0.00000000000E+00 0.  1.
         11    1    3    3    0    0 -0.24990616241E+02  0.28836979057E+01 -0.21821922793E+02  0.33302296143E+02  0.51100000000E-03 0. -1.
        -11    1    3    3    0    0 -0.65524695838E+01 -0.22345244854E+01  0.17733749914E+01  0.71465247809E+01  0.51100000000E-03 0.  1.
        -12    1    3    3    0    0  0.26194645838E+01  0.58520213577E+01 -0.77781367943E+01  0.10080037732E+02  0.00000000000E+00 0.  1.
</event>
<event>
 7    1  0.2974434E-011  0.5052887E+02  0.7816164E-02  0.1300439E+00
        -11   -1    0    0    0    0  0.00000000000E+00  0.00000000000E+00  0.45593999997E+02  0.45594000000E+02  0.51100000000E-03 0. -1.
         11   -1    0    0    0    0 -0.00000000000E+00 -0.00000000000E+00 -0.45593999997E+02  0.45594000000E+02  0.51100000000E-03 0.  1.
    9900012    2    1    2    0    0  0.10611741020E+01 -0.37657308888E+02  0.15295949237E+02  0.50528867370E+02  0.30000022858E+02 0.  0.
        -12    1    1    2    0    0 -0.10611741020E+01  0.37657308888E+02 -0.15295949237E+02  0.40659132630E+02  0.00000000000E+00 0.  1.
         11    1    3    3    0    0 -0.17512807432E+00  0.30162334482E+01  0.13744801823E+01  0.33192664987E+01  0.51100000000E-03 0. -1.
        -11    1    3    3    0    0  0.40977389840E+01 -0.17322430950E+01 -0.22036490218E+01  0.49646953777E+01  0.51100000000E-03 0.  1.
         12    1    3    3    0    0 -0.28614368076E+01 -0.38941299241E+02  0.16125118077E+02  0.42244905494E+02  0.00000000000E+00 0. -1.
</event>
<event>
 7    1  0.2974434E-011  0.5052886E+02  0.7816164E-02  0.1300439E+00
        -11   -1    0    0    0    0  0.00000000000E+00  0.00000000000E+00  0.45593999997E+02  0.45594000000E+02  0.51100000000E-03 0. -1.
         11   -1    0    0    0    0 -0.00000000000E+00 -0.00000000000E+00 -0.45593999997E+02  0.45594000000E+02  0.51100000000E-03 0.  1.
    9900012    2    1    2    0    0  0.21572648893E+02  0.34397566711E+02 -0.21433006584E+01  0.50528861869E+02  0.30000006136E+02 0.  0.
        -12    1    1    2    0    0 -0.21572648893E+02 -0.34397566711E+02  0.21433006584E+01  0.40659138131E+02  0.00000000000E+00 0.  1.
         11    1    3    3    0    0  0.22883831144E+01  0.16294368548E+02  0.46843266568E+00  0.16460940832E+02  0.51100000000E-03 0. -1.
        -11    1    3    3    0    0  0.20403807992E+02  0.19117894281E+02 -0.75018201651E+01  0.28949724841E+02  0.51100000000E-03 0.  1.
         12    1    3    3    0    0 -0.11195422136E+01 -0.10146961189E+01  0.48900868410E+01  0.51181961954E+01  0.00000000000E+00 0. -1.
</event>
<event>
 7    1  0.2974434E-011  0.5052886E+02  0.7816164E-02  0.1300439E+00
        -11   -1    0    0    0    0  0.00000000000E+00  0.00000000000E+00  0.45593999997E+02  0.45594000000E+02  0.51100000000E-03 0. -1.
         11   -1    0    0    0    0 -0.00000000000E+00 -0.00000000000E+00 -0.45593999997E+02  0.45594000000E+02  0.51100000000E-03 0.  1.
    9900012    2    1    2    0    0  0.94151390235E+01 -0.17380409953E+02  0.35530863225E+02  0.50528859153E+02  0.29999997881E+02 0.  0.
        -12    1    1    2    0    0 -0.94151390235E+01  0.17380409953E+02 -0.35530863225E+02  0.40659140847E+02  0.00000000000E+00 0.  1.
         11    1    3    3    0    0  0.10646252995E+02 -0.12092953245E+02  0.26841486106E+02  0.31305711901E+02  0.51100000000E-03 0. -1.
        -11    1    3    3    0    0  0.44371667617E+01  0.41586884052E+01  0.37964362994E+01  0.71691050319E+01  0.51100000000E-03 0.  1.
         12    1    3    3    0    0 -0.56682807334E+01 -0.94461451129E+01  0.48929408196E+01  0.12054042220E+02  0.00000000000E+00 0. -1.
</event>
<event>
 7    1  0.2974434E-011  0.5052885E+02  0.7816164E-02  0.1300439E+00
        -11   -1    0    0    0    0  0.00000000000E+00  0.00000000000E+00  0.45593999997E+02  0.45594000000E+02  0.51100000000E-03 0.  1.
         11   -1    0    0    0    0 -0.00000000000E+00 -0.00000000000E+00 -0.45593999997E+02  0.45594000000E+02  0.51100000000E-03 0. -1.
    9900012    2    1    2    0    0 -0.22177524813E+01 -0.40593044125E+02 -0.67284193608E+00  0.50528851292E+02  0.29999973987E+02 0.  0.
        -12    1    1    2    0    0  0.22177524813E+01  0.40593044125E+02  0.67284193608E+00  0.40659148708E+02  0.00000000000E+00 0.  1.
         11    1    3    3    0    0 -0.10937556551E+02 -0.85436122029E+01  0.12323145498E+01  0.13933486720E+02  0.51100000000E-03 0. -1.
        -11    1    3    3    0    0  0.18560925239E+00  0.14148216447E+01  0.12754544232E+01  0.19138848784E+01  0.51100000000E-03 0.  1.
         12    1    3    3    0    0  0.85341948171E+01 -0.33464253567E+02 -0.31806109091E+01  0.34681479693E+02  0.00000000000E+00 0. -1.
</event>
<event>
 7    1  0.2974434E-011  0.5052887E+02  0.7816164E-02  0.1300439E+00
        -11   -1    0    0    0    0  0.00000000000E+00  0.00000000000E+00  0.45593999997E+02  0.45594000000E+02  0.51100000000E-03 0. -1.
         11   -1    0    0    0    0 -0.00000000000E+00 -0.00000000000E+00 -0.45593999997E+02  0.45594000000E+02  0.51100000000E-03 0.  1.
    9900012    2    1    2    0    0 -0.29334155217E+02  0.28091801068E+02 -0.18769822953E+01  0.50528868036E+02  0.30000024882E+02 0.  0.
        -12    1    1    2    0    0  0.29334155217E+02 -0.28091801068E+02  0.18769822953E+01  0.40659131964E+02  0.00000000000E+00 0.  1.
         11    1    3    3    0    0 -0.19550469556E+02  0.41703902821E+01 -0.51536469554E+01  0.20643960186E+02  0.51100000000E-03 0. -1.
        -11    1    3    3    0    0  0.19250139247E+01 -0.27095809813E+00 -0.16625889655E+01  0.25579873398E+01  0.51100000000E-03 0.  1.
         12    1    3    3    0    0 -0.11708699586E+02  0.24192368884E+02  0.49392536256E+01  0.27326920511E+02  0.00000000000E+00 0. -1.
</event>
<event>
 7    1  0.2974434E-011  0.5052884E+02  0.7816164E-02  0.1300439E+00
        -11   -1    0    0    0    0  0.00000000000E+00  0.00000000000E+00  0.45593999997E+02  0.45594000000E+02  0.51100000000E-03 0. -1.
         11   -1    0    0    0    0 -0.00000000000E+00 -0.00000000000E+00 -0.45593999997E+02  0.45594000000E+02  0.51100000000E-03 0.  1.
    9900012    2    1    2    0    0 -0.20845234564E+02  0.23556177042E+01  0.34829506712E+02  0.50528840189E+02  0.29999940237E+02 0.  0.
        -12    1    1    2    0    0  0.20845234564E+02 -0.23556177042E+01 -0.34829506712E+02  0.40659159811E+02  0.00000000000E+00 0.  1.
         11    1    3    3    0    0 -0.12798999900E+02 -0.29741534376E+01  0.25830448142E+02  0.28980545864E+02  0.51100000000E-03 0. -1.
        -11    1    3    3    0    0 -0.72151077616E+01  0.42483021639E+01  0.14028484074E+02  0.16337203462E+02  0.51100000000E-03 0.  1.
        -12    1    3    3    0    0 -0.83112690172E+00  0.10814689779E+01 -0.50294255040E+01  0.52110908625E+01  0.00000000000E+00 0.  1.
</event>
<event>
 7    1  0.2974434E-011  0.5052886E+02  0.7816164E-02  0.1300439E+00
        -11   -1    0    0    0    0  0.00000000000E+00  0.00000000000E+00  0.45593999997E+02  0.45594000000E+02  0.51100000000E-03 0.  1.
         11   -1    0    0    0    0 -0.00000000000E+00 -0.00000000000E+00 -0.45593999997E+02  0.45594000000E+02  0.51100000000E-03 0. -1.
    9900012    2    1    2    0    0 -0.33662520861E+02  0.22166353149E+02  0.53528649017E+01  0.50528859757E+02  0.29999999717E+02 0.  0.
        -12    1    1    2    0    0  0.33662520861E+02 -0.22166353149E+02 -0.53528649017E+01  0.40659140243E+02  0.00000000000E+00 0.  1.
         11    1    3    3    0    0 -0.32120390664E+01  0.72961909401E+01  0.45547560914E+01  0.91813615827E+01  0.51100000000E-03 0. -1.
        -11    1    3    3    0    0  0.28365182257E+01 -0.18175124971E+01  0.23038566687E+01  0.40812918461E+01  0.51100000000E-03 0.  1.
         12    1    3    3    0    0 -0.33287000021E+02  0.16687674706E+02 -0.15057478584E+01  0.37266206328E+02  0.00000000000E+00 0. -1.
</event>
<event>
 7    1  0.2974434E-011  0.5052885E+02  0.7816164E-02  0.1300439E+00
        -11   -1    0    0    0    0  0.00000000000E+00  0.00000000000E+00  0.45593999997E+02  0.45594000000E+02  0.51100000000E-03 0.  1.
         11   -1    0    0    0    0 -0.00000000000E+00 -0.00000000000E+00 -0.45593999997E+02  0.45594000000E+02  0.51100000000E-03 0. -1.
    9900012    2    1    2    0    0 -0.34165490746E+02 -0.12115926552E+02 -0.18414389315E+02  0.50528853822E+02  0.29999981676E+02 0.  0.
        -12    1    1    2    0    0  0.34165490746E+02  0.12115926552E+02  0.18414389315E+02  0.40659146178E+02  0.00000000000E+00 0.  1.
         11    1    3    3    0    0 -0.92500353355E+00 -0.47048167221E+01 -0.13436093642E+02  0.14266027637E+02  0.51100000000E-03 0.  1.
        -11    1    3    3    0    0 -0.64289262719E+01 -0.51962316037E+01 -0.43761159454E+01  0.93531976841E+01  0.51100000000E-03 0. -1.
        -12    1    3    3    0    0 -0.26811560940E+02 -0.22148782265E+01 -0.60217972777E+00  0.26909628500E+02  0.00000000000E+00 0.  1.
</event>
<event>
 7    1  0.2974434E-011  0.5052886E+02  0.7816164E-02  0.1300439E+00
        -11   -1    0    0    0    0  0.00000000000E+00  0.00000000000E+00  0.45593999997E+02  0.45594000000E+02  0.51100000000E-03 0.  1.
         11   -1    0    0    0    0 -0.00000000000E+00 -0.00000000000E+00 -0.45593999997E+02  0.45594000000E+02  0.51100000000E-03 0. -1.
    9900012    2    1    2    0    0 -0.60957166139E+01  0.21315114148E+02 -0.34083334123E+02  0.50528861826E+02  0.30000006005E+02 0.  0.
        -12    1    1    2    0    0  0.60957166139E+01 -0.21315114148E+02  0.34083334123E+02  0.40659138174E+02  0.00000000000E+00 0.  1.
         11    1    3    3    0    0 -0.74672803546E+01  0.81235066749E+01 -0.74930220438E+01  0.13337804025E+02  0.51100000000E-03 0. -1.
        -11    1    3    3    0    0  0.18791389849E+01 -0.22433221947E+01  0.27620294550E+01  0.40239861786E+01  0.51100000000E-03 0.  1.
         12    1    3    3    0    0 -0.50757524426E+00  0.15434929667E+02 -0.29352341534E+02  0.33167071622E+02  0.00000000000E+00 0. -1.
</event>
<event>
 7    1  0.2974434E-011  0.5052886E+02  0.7816164E-02  0.1300439E+00
        -11   -1    0    0    0    0  0.00000000000E+00  0.00000000000E+00  0.45593999997E+02  0.45594000000E+02  0.51100000000E-03 0.  1.
         11   -1    0    0    0    0 -0.00000000000E+00 -0.00000000000E+00 -0.45593999997E+02  0.45594000000E+02  0.51100000000E-03 0. -1.
    9900012    2    1    2    0    0 -0.21885591257E+02  0.17200439658E+02 -0.29636661226E+02  0.50528856899E+02  0.29999991031E+02 0.  0.
        -12    1    1    2    0    0  0.21885591257E+02 -0.17200439658E+02  0.29636661226E+02  0.40659143101E+02  0.00000000000E+00 0.  1.
         11    1    3    3    0    0 -0.42151861389E+01 -0.18611910695E+01 -0.10518738193E+02  0.11483713677E+02  0.51100000000E-03 0. -1.
        -11    1    3    3    0    0 -0.12722848814E+02 -0.43828966956E+00 -0.12565243577E+02  0.17887099435E+02  0.51100000000E-03 0.  1.
        -12    1    3    3    0    0 -0.49475563033E+01  0.19499920397E+02 -0.65526794563E+01  0.21158043788E+02  0.00000000000E+00 0.  1.
</event>
<event>
 7    1  0.2974434E-011  0.5052887E+02  0.7816164E-02  0.1300439E+00
        -11   -1    0    0    0    0  0.00000000000E+00  0.00000000000E+00  0.45593999997E+02  0.45594000000E+02  0.51100000000E-03 0.  1.
         11   -1    0    0    0    0 -0.00000000000E+00 -0.00000000000E+00 -0.45593999997E+02  0.45594000000E+02  0.51100000000E-03 0. -1.
    9900012    2    1    2    0    0  0.62485871755E+01 -0.12232473525E+02 -0.38268614917E+02  0.50528866489E+02  0.30000020180E+02 0.  0.
        -12    1    1    2    0    0 -0.62485871755E+01  0.12232473525E+02  0.38268614917E+02  0.40659133511E+02  0.00000000000E+00 0.  1.
         11    1    3    3    0    0 -0.65683179251E+01 -0.37867816693E+01 -0.39192725734E+01  0.85348235800E+01  0.51100000000E-03 0. -1.
        -11    1    3    3    0    0  0.50983210606E+01  0.57170523700E+01 -0.78231730403E+01  0.10948954385E+02  0.51100000000E-03 0.  1.
        -12    1    3    3    0    0  0.77185840401E+01 -0.14162744226E+02 -0.26526169303E+02  0.31045088524E+02  0.00000000000E+00 0.  1.
</event>
<event>
 7    1  0.2974434E-011  0.5052886E+02  0.7816164E-02  0.1300439E+00
        -11   -1    0    0    0    0  0.00000000000E+00  0.00000000000E+00  0.45593999997E+02  0.45594000000E+02  0.51100000000E-03 0. -1.
         11   -1    0    0    0    0 -0.00000000000E+00 -0.00000000000E+00 -0.45593999997E+02  0.45594000000E+02  0.51100000000E-03 0.  1.
    9900012    2    1    2    0    0  0.23602470697E+02  0.33107222654E+02  0.31460803189E-01  0.50528858289E+02  0.29999995256E+02 0.  0.
        -12    1    1    2    0    0 -0.23602470697E+02 -0.33107222654E+02 -0.31460803189E-01  0.40659141711E+02  0.00000000000E+00 0.  1.
         11    1    3    3    0    0  0.70028862155E+01  0.38107876816E+00 -0.46010104379E+01  0.83877847901E+01  0.51100000000E-03 0. -1.
        -11    1    3    3    0    0  0.49080781959E+01  0.91719411260E+01 -0.78504515892E+01  0.13032395252E+02  0.51100000000E-03 0.  1.
         12    1    3    3    0    0  0.11691506286E+02  0.23554202760E+02  0.12482922830E+02  0.29108678247E+02  0.00000000000E+00 0. -1.
</event>
<event>
 7    1  0.2974434E-011  0.5052886E+02  0.7816164E-02  0.1300439E+00
        -11   -1    0    0    0    0  0.00000000000E+00  0.00000000000E+00  0.45593999997E+02  0.45594000000E+02  0.51100000000E-03 0. -1.
         11   -1    0    0    0    0 -0.00000000000E+00 -0.00000000000E+00 -0.45593999997E+02  0.45594000000E+02  0.51100000000E-03 0.  1.
    9900012    2    1    2    0    0  0.18562080346E+02  0.25832340749E+02  0.25323995964E+02  0.50528862934E+02  0.30000009376E+02 0.  0.
        -12    1    1    2    0    0 -0.18562080346E+02 -0.25832340749E+02 -0.25323995964E+02  0.40659137066E+02  0.00000000000E+00 0.  1.
         11    1    3    3    0    0  0.68341991287E+01  0.10453676608E+02  0.74745946637E+00  0.12511767591E+02  0.51100000000E-03 0. -1.
        -11    1    3    3    0    0  0.36796203477E+01 -0.34388227984E+01 -0.11267452197E+01  0.51608781416E+01  0.51100000000E-03 0.  1.
         12    1    3    3    0    0  0.80482608691E+01  0.18817486940E+02  0.25703281717E+02  0.32856217201E+02  0.00000000000E+00 0. -1.
</event>
<event>
 7    1  0.2974434E-011  0.5052886E+02  0.7816164E-02  0.1300439E+00
        -11   -1    0    0    0    0  0.00000000000E+00  0.00000000000E+00  0.45593999997E+02  0.45594000000E+02  0.51100000000E-03 0. -1.
         11   -1    0    0    0    0 -0.00000000000E+00 -0.00000000000E+00 -0.45593999997E+02  0.45594000000E+02  0.51100000000E-03 0.  1.
    9900012    2    1    2    0    0  0.19119932623E+02  0.83389203021E+01  0.34900657911E+02  0.50528864029E+02  0.30000012702E+02 0.  0.
        -12    1    1    2    0    0 -0.19119932623E+02 -0.83389203021E+01 -0.34900657911E+02  0.40659135971E+02  0.00000000000E+00 0.  1.
         11    1    3    3    0    0  0.91093188545E+01  0.35078519935E+00  0.14981712460E+02  0.17537230361E+02  0.51100000000E-03 0. -1.
        -11    1    3    3    0    0  0.98152515783E+01  0.64514527589E+01  0.25031127675E+02  0.27649914271E+02  0.51100000000E-03 0.  1.
        -12    1    3    3    0    0  0.19536219053E+00  0.15366823439E+01 -0.51121822246E+01  0.53417193963E+01  0.00000000000E+00 0.  1.
</event>
<event>
 7    1  0.2974434E-011  0.5052886E+02  0.7816164E-02  0.1300439E+00
        -11   -1    0    0    0    0  0.00000000000E+00  0.00000000000E+00  0.45593999997E+02  0.45594000000E+02  0.51100000000E-03 0.  1.
         11   -1    0    0    0    0 -0.00000000000E+00 -0.00000000000E+00 -0.45593999997E+02  0.45594000000E+02  0.51100000000E-03 0. -1.
    9900012    2    1    2    0    0  0.29434764982E+02  0.17220019682E+02 -0.22141159864E+02  0.50528862927E+02  0.30000009353E+02 0.  0.
        -12    1    1    2    0    0 -0.29434764982E+02 -0.17220019682E+02  0.22141159864E+02  0.40659137073E+02  0.00000000000E+00 0.  1.
         11    1    3    3    0    0 -0.56828304552E+00 -0.16972715880E+01  0.35783136856E+00  0.18252999789E+01  0.51100000000E-03 0.  1.
        -11    1    3    3    0    0  0.57689737820E+01  0.57222583201E+00 -0.16809418171E+02  0.17781030353E+02  0.51100000000E-03 0. -1.
         12    1    3    3    0    0  0.24234074246E+02  0.18345065438E+02 -0.56895730612E+01  0.30922532595E+02  0.00000000000E+00 0. -1.
</event>
<event>
 7    1  0.2974434E-011  0.5052885E+02  0.7816164E-02  0.1300439E+00
        -11   -1    0    0    0    0  0.00000000000E+00  0.00000000000E+00  0.45593999997E+02  0.45594000000E+02  0.51100000000E-03 0.  1.
         11   -1    0    0    0    0 -0.00000000000E+00 -0.00000000000E+00 -0.45593999997E+02  0.45594000000E+02  0.51100000000E-03 0. -1.
    9900012    2    1    2    0    0  0.72369119000E+01  0.37601042578E+02  0.13673145884E+02  0.50528853241E+02  0.29999979911E+02 0.  0.
        -12    1    1    2    0    0 -0.72369119000E+01 -0.37601042578E+02 -0.13673145884E+02  0.40659146759E+02  0.00000000000E+00 0.  1.
         11    1    3    3    0    0  0.27683317522E+01  0.15871180896E+02 -0.58862401614E+01  0.17152430359E+02  0.51100000000E-03 0. -1.
        -11    1    3    3    0    0  0.94386643649E+00  0.10658420090E+02  0.86379688961E-01  0.10700479633E+02  0.51100000000E-03 0.  1.
        -12    1    3    3    0    0  0.35247137112E+01  0.11071441593E+02  0.19473006356E+02  0.22675943249E+02  0.00000000000E+00 0.  1.
</event>
<event>
 7    1  0.2974434E-011  0.5052886E+02  0.7816164E-02  0.1300439E+00
        -11   -1    0    0    0    0  0.00000000000E+00  0.00000000000E+00  0.45593999997E+02  0.45594000000E+02  0.51100000000E-03 0.  1.
         11   -1    0    0    0    0 -0.00000000000E+00 -0.00000000000E+00 -0.45593999997E+02  0.45594000000E+02  0.51100000000E-03 0. -1.
    9900012    2    1    2    0    0 -0.18340687550E+02 -0.30645106417E+02 -0.19433533706E+02  0.50528860813E+02  0.30000002927E+02 0.  0.
        -12    1    1    2    0    0  0.18340687550E+02  0.30645106417E+02  0.19433533706E+02  0.40659139187E+02  0.00000000000E+00 0.  1.
         11    1    3    3    0    0 -0.70152100393E+01 -0.91794409849E+01 -0.61212462934E+01  0.13074592351E+02  0.51100000000E-03 0. -1.
        -11    1    3    3    0    0 -0.35210198251E+01  0.22938119232E-02 -0.14164739241E+02  0.14595801585E+02  0.51100000000E-03 0.  1.
         12    1    3    3    0    0 -0.78044576853E+01 -0.21467959244E+02  0.85245182832E+00  0.22858466878E+02  0.00000000000E+00 0. -1.
</event>
<event>
 7    1  0.2974434E-011  0.5052887E+02  0.7816164E-02  0.1300439E+00
        -11   -1    0    0    0    0  0.00000000000E+00  0.00000000000E+00  0.45593999997E+02  0.45594000000E+02  0.51100000000E-03 0.  1.
         11   -1    0    0    0    0 -0.00000000000E+00 -0.00000000000E+00 -0.45593999997E+02  0.45594000000E+02  0.51100000000E-03 0. -1.
    9900012    2    1    2    0    0  0.62333625361E+01 -0.16108506041E+02 -0.36807961853E+02  0.50528870261E+02  0.30000031644E+02 0.  0.
        -12    1    1    2    0    0 -0.62333625361E+01  0.16108506041E+02  0.36807961853E+02  0.40659129739E+02  0.00000000000E+00 0.  1.
         11    1    3    3    0    0  0.50551748586E+01 -0.25817985503E+01 -0.15923038884E+02  0.16904545075E+02  0.51100000000E-03 0. -1.
        -11    1    3    3    0    0 -0.99314813298E+01 -0.52384116808E+01 -0.14565355624E+02  0.18390890763E+02  0.51100000000E-03 0.  1.
        -12    1    3    3    0    0  0.11109669007E+02 -0.82882958102E+01 -0.63195673444E+01  0.15233434423E+02  0.00000000000E+00 0.  1.
</event>
<event>
 7    1  0.2974434E-011  0.5052889E+02  0.7816164E-02  0.1300439E+00
        -11   -1    0    0    0    0  0.00000000000E+00  0.00000000000E+00  0.45593999997E+02  0.45594000000E+02  0.51100000000E-03 0.  1.
         11   -1    0    0    0    0 -0.00000000000E+00 -0.00000000000E+00 -0.45593999997E+02  0.45594000000E+02  0.51100000000E-03 0. -1.
    9900012    2    1    2    0    0  0.23975447590E+02  0.13740000799E+02 -0.29825386078E+02  0.50528888305E+02  0.30000086493E+02 0.  0.
        -12    1    1    2    0    0 -0.23975447590E+02 -0.13740000799E+02  0.29825386078E+02  0.40659111695E+02  0.00000000000E+00 0.  1.
         11    1    3    3    0    0 -0.15518364609E+01  0.64744830771E+01 -0.18155473295E+02  0.19337743879E+02  0.51100000000E-03 0. -1.
        -11    1    3    3    0    0  0.30653187244E+01 -0.15332975663E+00 -0.61902644901E+01  0.69093461062E+01  0.51100000000E-03 0.  1.
        -12    1    3    3    0    0  0.22461965326E+02  0.74188474784E+01 -0.54796482932E+01  0.24281798320E+02  0.00000000000E+00 0.  1.
</event>
<event>
 7    1  0.2974434E-011  0.5052884E+02  0.7816164E-02  0.1300439E+00
        -11   -1    0    0    0    0  0.00000000000E+00  0.00000000000E+00  0.45593999997E+02  0.45594000000E+02  0.51100000000E-03 0. -1.
         11   -1    0    0    0    0 -0.00000000000E+00 -0.00000000000E+00 -0.45593999997E+02  0.45594000000E+02  0.51100000000E-03 0.  1.
    9900012    2    1    2    0    0  0.16517143206E+01  0.51214260178E+01  0.40301485999E+02  0.50528844348E+02  0.29999952879E+02 0.  0.
        -12    1    1    2    0    0 -0.16517143206E+01 -0.51214260178E+01 -0.40301485999E+02  0.40659155652E+02  0.00000000000E+00 0.  1.
         11    1    3    3    0    0 -0.26865641991E+01  0.18141789355E+01  0.64302505232E+01  0.72011800740E+01  0.51100000000E-03 0. -1.
        -11    1    3    3    0    0 -0.93374930431E+01  0.58265584351E+00  0.36463482483E+01  0.10041121450E+02  0.51100000000E-03 0.  1.
        -12    1    3    3    0    0  0.13675771563E+02  0.27245912388E+01  0.30224887227E+02  0.33286542824E+02  0.00000000000E+00 0.  1.
</event>
<event>
 7    1  0.2974434E-011  0.5052890E+02  0.7816164E-02  0.1300439E+00
        -11   -1    0    0    0    0  0.00000000000E+00  0.00000000000E+00  0.45593999997E+02  0.45594000000E+02  0.51100000000E-03 0.  1.
         11   -1    0    0    0    0 -0.00000000000E+00 -0.00000000000E+00 -0.45593999997E+02  0.45594000000E+02  0.51100000000E-03 0. -1.
    9900012    2    1    2    0    0 -0.25974272470E+02  0.15631869372E+02  0.27095093394E+02  0.50528901923E+02  0.30000127885E+02 0.  0.
        -12    1    1    2    0    0  0.25974272470E+02 -0.15631869372E+02 -0.27095093394E+02  0.40659098077E+02  0.00000000000E+00 0.  1.
         11    1    3    3    0    0 -0.32416248717E+01  0.75235939368E+01  0.61500594504E+01  0.10243819065E+02  0.51100000000E-03 0. -1.
        -11    1    3    3    0    0 -0.42383812321E+01  0.12418196665E+02  0.15941389015E+02  0.20647115244E+02  0.51100000000E-03 0.  1.
        -12    1    3    3    0    0 -0.18494266366E+02 -0.43099212305E+01  0.50036449281E+01  0.19637967614E+02  0.00000000000E+00 0.  1.
</event>
<event>
 7    1  0.2974434E-011  0.5052886E+02  0.7816164E-02  0.1300439E+00
        -11   -1    0    0    0    0  0.00000000000E+00  0.00000000000E+00  0.45593999997E+02  0.45594000000E+02  0.51100000000E-03 0. -1.
         11   -1    0    0    0    0 -0.00000000000E+00 -0.00000000000E+00 -0.45593999997E+02  0.45594000000E+02  0.51100000000E-03 0.  1.
    9900012    2    1    2    0    0 -0.12176199809E+02 -0.38314108227E+02  0.60774348516E+01  0.50528856558E+02  0.29999989994E+02 0.  0.
        -12    1    1    2    0    0  0.12176199809E+02  0.38314108227E+02 -0.60774348516E+01  0.40659143442E+02  0.00000000000E+00 0.  1.
         11    1    3    3    0    0 -0.35125327065E+01 -0.45506687872E+01  0.48326919538E+01  0.75100854993E+01  0.51100000000E-03 0. -1.
        -11    1    3    3    0    0 -0.30320788185E+01 -0.25293638948E+02  0.12048716470E+02  0.28180369800E+02  0.51100000000E-03 0.  1.
        -12    1    3    3    0    0 -0.56315882836E+01 -0.84698004917E+01 -0.10803973573E+02  0.14838401259E+02  0.00000000000E+00 0.  1.
</event>
<event>
 7    1  0.2974434E-011  0.5052885E+02  0.7816164E-02  0.1300439E+00
        -11   -1    0    0    0    0  0.00000000000E+00  0.00000000000E+00  0.45593999997E+02  0.45594000000E+02  0.51100000000E-03 0.  1.
         11   -1    0    0    0    0 -0.00000000000E+00 -0.00000000000E+00 -0.45593999997E+02  0.45594000000E+02  0.51100000000E-03 0. -1.
    9900012    2    1    2    0    0 -0.33778742125E+02  0.54497330918E+01 -0.21965042795E+02  0.50528854468E+02  0.29999983642E+02 0.  0.
        -12    1    1    2    0    0  0.33778742125E+02 -0.54497330918E+01  0.21965042795E+02  0.40659145532E+02  0.00000000000E+00 0.  1.
         11    1    3    3    0    0  0.36217384990E+00  0.21460225807E+00 -0.20328066612E+01  0.20759400785E+01  0.51100000000E-03 0.  1.
        -11    1    3    3    0    0 -0.32997982706E+02 -0.19327543056E-01 -0.24737887790E+02  0.41241124243E+02  0.51100000000E-03 0. -1.
        -12    1    3    3    0    0 -0.11429332691E+01  0.52544583768E+01  0.48056516557E+01  0.72117901472E+01  0.00000000000E+00 0.  1.
</event>
<event>
 7    1  0.2974434E-011  0.5052886E+02  0.7816164E-02  0.1300439E+00
        -11   -1    0    0    0    0  0.00000000000E+00  0.00000000000E+00  0.45593999997E+02  0.45594000000E+02  0.51100000000E-03 0.  1.
         11   -1    0    0    0    0 -0.00000000000E+00 -0.00000000000E+00 -0.45593999997E+02  0.45594000000E+02  0.51100000000E-03 0. -1.
    9900012    2    1    2    0    0 -0.33926490411E+02 -0.19297575484E+02  0.11391341552E+02  0.50528857935E+02  0.29999994178E+02 0.  0.
        -12    1    1    2    0    0  0.33926490411E+02  0.19297575484E+02 -0.11391341552E+02  0.40659142065E+02  0.00000000000E+00 0.  1.
         11    1    3    3    0    0  0.32159349081E+01 -0.27363454923E+01 -0.25276582658E+01  0.49212681858E+01  0.51100000000E-03 0. -1.
        -11    1    3    3    0    0 -0.31882320409E+01 -0.69510365418E+01  0.52327041889E+01  0.92662250103E+01  0.51100000000E-03 0.  1.
         12    1    3    3    0    0 -0.33954193278E+02 -0.96101934497E+01  0.86862956287E+01  0.36341364738E+02  0.00000000000E+00 0. -1.
</event>
<event>
 7    1  0.2974434E-011  0.5052886E+02  0.7816164E-02  0.1300439E+00
        -11   -1    0    0    0    0  0.00000000000E+00  0.00000000000E+00  0.45593999997E+02  0.45594000000E+02  0.51100000000E-03 0.  1.
         11   -1    0    0    0    0 -0.00000000000E+00 -0.00000000000E+00 -0.45593999997E+02  0.45594000000E+02  0.51100000000E-03 0. -1.
    9900012    2    1    2    0    0  0.33708679619E+01 -0.24051607093E+01 -0.40447717811E+02  0.50528862959E+02  0.30000009449E+02 0.  0.
        -12    1    1    2    0    0 -0.33708679619E+01  0.24051607093E+01  0.40447717811E+02  0.40659137041E+02  0.00000000000E+00 0.  1.
         11    1    3    3    0    0  0.20980575573E+01  0.46255768809E+01 -0.25832576535E+02  0.26327168812E+02  0.51100000000E-03 0. -1.
        -11    1    3    3    0    0 -0.22430095092E-01  0.57053724421E+01 -0.79021528702E+01  0.97465787874E+01  0.51100000000E-03 0.  1.
        -12    1    3    3    0    0  0.12952404997E+01 -0.12736110032E+02 -0.67129884059E+01  0.14455115359E+02  0.00000000000E+00 0.  1.
</event>
<event>
 7    1  0.2974434E-011  0.5052887E+02  0.7816164E-02  0.1300439E+00
        -11   -1    0    0    0    0  0.00000000000E+00  0.00000000000E+00  0.45593999997E+02  0.45594000000E+02  0.51100000000E-03 0.  1.
         11   -1    0    0    0    0 -0.00000000000E+00 -0.00000000000E+00 -0.45593999997E+02  0.45594000000E+02  0.51100000000E-03 0. -1.
    9900012    2    1    2    0    0  0.23542199478E+02  0.32331347753E+02 -0.73221537592E+01  0.50528866469E+02  0.30000020119E+02 0.  0.
        -12    1    1    2    0    0 -0.23542199478E+02 -0.32331347753E+02  0.73221537592E+01  0.40659133531E+02  0.00000000000E+00 0.  1.
         11    1    3    3    0    0  0.30760612027E+01  0.11594394878E+02 -0.67483697065E+01  0.13763453021E+02  0.51100000000E-03 0. -1.
        -11    1    3    3    0    0  0.11423531528E+02  0.16035549922E+02 -0.10691705020E+02  0.22404206980E+02  0.51100000000E-03 0.  1.
        -12    1    3    3    0    0  0.90426067475E+01  0.47014029531E+01  0.10117920968E+02  0.14361206468E+02  0.00000000000E+00 0.  1.
</event>
<event>
 7    1  0.2974434E-011  0.5052885E+02  0.7816164E-02  0.1300439E+00
        -11   -1    0    0    0    0  0.00000000000E+00  0.00000000000E+00  0.45593999997E+02  0.45594000000E+02  0.51100000000E-03 0. -1.
         11   -1    0    0    0    0 -0.00000000000E+00 -0.00000000000E+00 -0.45593999997E+02  0.45594000000E+02  0.51100000000E-03 0.  1.
    9900012    2    1    2    0    0 -0.27900242010E+02 -0.20745854490E+02  0.21079662719E+02  0.50528853882E+02  0.29999981859E+02 0.  0.
        -12    1    1    2    0    0  0.27900242010E+02  0.20745854490E+02 -0.21079662719E+02  0.40659146118E+02  0.00000000000E+00 0.  1.
         11    1    3    3    0    0 -0.28701892453E+01 -0.36556762073E+01  0.30740048993E+01  0.55723838004E+01  0.51100000000E-03 0. -1.
        -11    1    3    3    0    0 -0.51018001509E+01 -0.12447243585E+02 -0.48312992594E+01  0.14293484195E+02  0.51100000000E-03 0.  1.
         12    1    3    3    0    0 -0.19928252613E+02 -0.46429346978E+01  0.22836957079E+02  0.30662985886E+02  0.00000000000E+00 0. -1.
</event>
<event>
 7    1  0.2974434E-011  0.5052887E+02  0.7816164E-02  0.1300439E+00
        -11   -1    0    0    0    0  0.00000000000E+00  0.00000000000E+00  0.45593999997E+02  0.45594000000E+02  0.51100000000E-03 0.  1.
         11   -1    0    0    0    0 -0.00000000000E+00 -0.00000000000E+00 -0.45593999997E+02  0.45594000000E+02  0.51100000000E-03 0. -1.
    9900012    2    1    2    0    0  0.62727142067E+00 -0.81260748808E+01 -0.39833887961E+02  0.50528865817E+02  0.30000018138E+02 0.  0.
        -12    1    1    2    0    0 -0.62727142067E+00  0.81260748808E+01  0.39833887961E+02  0.40659134183E+02  0.00000000000E+00 0.  1.
         11    1    3    3    0    0 -0.37052522621E+01 -0.50314787714E+00 -0.80404749734E+01  0.88674286110E+01  0.51100000000E-03 0. -1.
        -11    1    3    3    0    0 -0.18270140806E+01 -0.30459810800E+01 -0.33592282952E+02  0.33779541965E+02  0.51100000000E-03 0.  1.
        -12    1    3    3    0    0  0.61595377634E+01 -0.45769459236E+01  0.17988699640E+01  0.78818952412E+01  0.00000000000E+00 0.  1.
</event>
<event>
 7    1  0.2974434E-011  0.5052886E+02  0.7816164E-02  0.1300439E+00
        -11   -1    0    0    0    0  0.00000000000E+00  0.00000000000E+00  0.45593999997E+02  0.45594000000E+02  0.51100000000E-03 0.  1.
         11   -1    0    0    0    0 -0.00000000000E+00 -0.00000000000E+00 -0.45593999997E+02  0.45594000000E+02  0.51100000000E-03 0. -1.
    9900012    2    1    2    0    0  0.25470944461E+02 -0.30925455636E+02  0.69291060812E+01  0.50528864137E+02  0.30000013031E+02 0.  0.
        -12    1    1    2    0    0 -0.25470944461E+02  0.30925455636E+02 -0.69291060812E+01  0.40659135863E+02  0.00000000000E+00 0.  1.
         11    1    3    3    0    0  0.94228942212E+01 -0.18892281313E+02  0.21862985135E+00  0.21112958769E+02  0.51100000000E-03 0.  1.
        -11    1    3    3    0    0  0.13113349419E+02 -0.56544620112E+01 -0.55224531435E+01  0.15311118921E+02  0.51100000000E-03 0. -1.
        -12    1    3    3    0    0  0.29347008201E+01 -0.63787123125E+01  0.12232929373E+02  0.14104786447E+02  0.00000000000E+00 0.  1.
</event>
<event>
 7    1  0.2974434E-011  0.5052886E+02  0.7816164E-02  0.1300439E+00
        -11   -1    0    0    0    0  0.00000000000E+00  0.00000000000E+00  0.45593999997E+02  0.45594000000E+02  0.51100000000E-03 0.  1.
         11   -1    0    0    0    0 -0.00000000000E+00 -0.00000000000E+00 -0.45593999997E+02  0.45594000000E+02  0.51100000000E-03 0. -1.
    9900012    2    1    2    0    0  0.30492893876E+02 -0.26465585978E+02  0.47876983936E+01  0.50528857436E+02  0.29999992663E+02 0.  0.
        -12    1    1    2    0    0 -0.30492893876E+02  0.26465585978E+02 -0.47876983936E+01  0.40659142564E+02  0.00000000000E+00 0.  1.
         11    1    3    3    0    0 -0.35004416480E+00  0.96058151405E+00 -0.16104994159E+01  0.19076048837E+01  0.51100000000E-03 0. -1.
        -11    1    3    3    0    0  0.21099286323E+02 -0.25100387597E+01  0.65474456494E+00  0.21258148288E+02  0.51100000000E-03 0.  1.
        -12    1    3    3    0    0  0.97436517180E+01 -0.24916128733E+02  0.57434532446E+01  0.27363104265E+02  0.00000000000E+00 0.  1.
</event>
<event>
 7    1  0.2974434E-011  0.5052885E+02  0.7816164E-02  0.1300439E+00
        -11   -1    0    0    0    0  0.00000000000E+00  0.00000000000E+00  0.45593999997E+02  0.45594000000E+02  0.51100000000E-03 0. -1.
         11   -1    0    0    0    0 -0.00000000000E+00 -0.00000000000E+00 -0.45593999997E+02  0.45594000000E+02  0.51100000000E-03 0.  1.
    9900012    2    1    2    0    0 -0.14345979881E+02 -0.36023683531E+02  0.12233313777E+02  0.50528845067E+02  0.29999955065E+02 0.  0.
        -12    1    1    2    0    0  0.14345979881E+02  0.36023683531E+02 -0.12233313777E+02  0.40659154933E+02  0.00000000000E+00 0.  1.
         11    1    3    3    0    0 -0.62572980774E+00 -0.75394679221E+01  0.12266393738E+02  0.14411784412E+02  0.51100000000E-03 0. -1.
        -11    1    3    3    0    0  0.39897725350E+01 -0.34190645489E+01  0.12454321797E+01  0.53999434114E+01  0.51100000000E-03 0.  1.
         12    1    3    3    0    0 -0.17710022608E+02 -0.25065151060E+02 -0.12785121411E+01  0.30717117244E+02  0.00000000000E+00 0. -1.
</event>
<event>
 7    1  0.2974434E-011  0.5052895E+02  0.7816164E-02  0.1300438E+00
        -11   -1    0    0    0    0  0.00000000000E+00  0.00000000000E+00  0.45593999997E+02  0.45594000000E+02  0.51100000000E-03 0.  1.
         11   -1    0    0    0    0 -0.00000000000E+00 -0.00000000000E+00 -0.45593999997E+02  0.45594000000E+02  0.51100000000E-03 0. -1.
    9900012    2    1    2    0    0  0.75484809828E+01  0.35297981858E+02 -0.18714469083E+02  0.50528948837E+02  0.30000270484E+02 0.  0.
        -12    1    1    2    0    0 -0.75484809828E+01 -0.35297981858E+02  0.18714469083E+02  0.40659051163E+02  0.00000000000E+00 0.  1.
         11    1    3    3    0    0  0.53912797950E+01 -0.22154240427E+01 -0.35911388230E+01  0.68461872472E+01  0.51100000000E-03 0. -1.
        -11    1    3    3    0    0  0.37087717770E+01  0.23618913947E+01  0.16591241432E+01  0.46995970293E+01  0.51100000000E-03 0.  1.
         12    1    3    3    0    0 -0.15515705892E+01  0.35151514506E+02 -0.16782454403E+02  0.38983164561E+02  0.00000000000E+00 0. -1.
</event>
<event>
 7    1  0.2974434E-011  0.5052887E+02  0.7816164E-02  0.1300439E+00
        -11   -1    0    0    0    0  0.00000000000E+00  0.00000000000E+00  0.45593999997E+02  0.45594000000E+02  0.51100000000E-03 0.  1.
         11   -1    0    0    0    0 -0.00000000000E+00 -0.00000000000E+00 -0.45593999997E+02  0.45594000000E+02  0.51100000000E-03 0. -1.
    9900012    2    1    2    0    0  0.91885535010E+01 -0.20924613187E+02 -0.33628796971E+02  0.50528868945E+02  0.30000027645E+02 0.  0.
        -12    1    1    2    0    0 -0.91885535010E+01  0.20924613187E+02  0.33628796971E+02  0.40659131055E+02  0.00000000000E+00 0.  1.
         11    1    3    3    0    0  0.50317380523E+01 -0.36493998778E+01 -0.76152036026E+01  0.98299457509E+01  0.51100000000E-03 0. -1.
        -11    1    3    3    0    0 -0.21111525738E+00 -0.81826140312E+01 -0.29036680869E+02  0.30168337345E+02  0.51100000000E-03 0.  1.
        -12    1    3    3    0    0  0.43679307061E+01 -0.90925992781E+01  0.30230875007E+01  0.10530585849E+02  0.00000000000E+00 0.  1.
</event>
<event>
 7    1  0.2974434E-011  0.5052885E+02  0.7816164E-02  0.1300439E+00
        -11   -1    0    0    0    0  0.00000000000E+00  0.00000000000E+00  0.45593999997E+02  0.45594000000E+02  0.51100000000E-03 0.  1.
         11   -1    0    0    0    0 -0.00000000000E+00 -0.00000000000E+00 -0.45593999997E+02  0.45594000000E+02  0.51100000000E-03 0. -1.
    9900012    2    1    2    0    0  0.27402874444E+01  0.90352263756E+01 -0.39547713820E+02  0.50528853928E+02  0.29999982000E+02 0.  0.
        -12    1    1    2    0    0 -0.27402874444E+01 -0.90352263756E+01  0.39547713820E+02  0.40659146072E+02  0.00000000000E+00 0.  1.
         11    1    3    3    0    0 -0.18278846017E+01  0.32926874219E+01 -0.18203819845E+02  0.18589298260E+02  0.51100000000E-03 0. -1.
        -11    1    3    3    0    0 -0.34273774828E+01 -0.28638392136E+01 -0.19552904363E+02  0.20056534116E+02  0.51100000000E-03 0.  1.
        -12    1    3    3    0    0  0.79955495289E+01  0.86063781672E+01 -0.17909896113E+01  0.11883021552E+02  0.00000000000E+00 0.  1.
</event>
<event>
 7    1  0.2974434E-011  0.5052887E+02  0.7816164E-02  0.1300439E+00
        -11   -1    0    0    0    0  0.00000000000E+00  0.00000000000E+00  0.45593999997E+02  0.45594000000E+02  0.51100000000E-03 0.  1.
         11   -1    0    0    0    0 -0.00000000000E+00 -0.00000000000E+00 -0.45593999997E+02  0.45594000000E+02  0.51100000000E-03 0. -1.
    9900012    2    1    2    0    0  0.11179523064E+02  0.12696261987E+02 -0.36972798896E+02  0.50528872333E+02  0.30000037944E+02 0.  0.
        -12    1    1    2    0    0 -0.11179523064E+02 -0.12696261987E+02  0.36972798896E+02  0.40659127667E+02  0.00000000000E+00 0.  1.
         11    1    3    3    0    0 -0.19422320291E+01  0.49003389471E+01 -0.16100964830E+02  0.16941861048E+02  0.51100000000E-03 0. -1.
        -11    1    3    3    0    0  0.81365665010E+01  0.15155900025E+02 -0.11633522558E+02  0.20766412000E+02  0.51100000000E-03 0.  1.
        -12    1    3    3    0    0  0.49851885918E+01 -0.73599769847E+01 -0.92383115080E+01  0.12820599285E+02  0.00000000000E+00 0.  1.
</event>
<event>
 7    1  0.2974434E-011  0.5052886E+02  0.7816164E-02  0.1300439E+00
        -11   -1    0    0    0    0  0.00000000000E+00  0.00000000000E+00  0.45593999997E+02  0.45594000000E+02  0.51100000000E-03 0.  1.
         11   -1    0    0    0    0 -0.00000000000E+00 -0.00000000000E+00 -0.45593999997E+02  0.45594000000E+02  0.51100000000E-03 0. -1.
    9900012    2    1    2    0    0 -0.95607701812E+01  0.38847046547E+02 -0.72570055606E+01  0.50528862262E+02  0.30000007332E+02 0.  0.
        -12    1    1    2    0    0  0.95607701812E+01 -0.38847046547E+02  0.72570055606E+01  0.40659137738E+02  0.00000000000E+00 0.  1.
         11    1    3    3    0    0 -0.70439525599E+01  0.44491395596E+00  0.40603970440E+00  0.70696594399E+01  0.51100000000E-03 0. -1.
        -11    1    3    3    0    0 -0.25022935480E+01  0.34115891710E+01  0.47231896603E+01  0.63410515295E+01  0.51100000000E-03 0.  1.
         12    1    3    3    0    0 -0.14524073343E-01  0.34990543420E+02 -0.12386234925E+02  0.37118151293E+02  0.00000000000E+00 0. -1.
</event>
<event>
 7    1  0.2974434E-011  0.5052887E+02  0.7816164E-02  0.1300439E+00
        -11   -1    0    0    0    0  0.00000000000E+00  0.00000000000E+00  0.45593999997E+02  0.45594000000E+02  0.51100000000E-03 0.  1.
         11   -1    0    0    0    0 -0.00000000000E+00 -0.00000000000E+00 -0.45593999997E+02  0.45594000000E+02  0.51100000000E-03 0. -1.
    9900012    2    1    2    0    0  0.14753380228E+02 -0.17018830113E+02 -0.33850579323E+02  0.50528874000E+02  0.30000043010E+02 0.  0.
        -12    1    1    2    0    0 -0.14753380228E+02  0.17018830113E+02  0.33850579323E+02  0.40659126000E+02  0.00000000000E+00 0.  1.
         11    1    3    3    0    0  0.11067011420E+01 -0.47450445150E+01  0.45839625519E+01  0.66897644058E+01  0.51100000000E-03 0. -1.
        -11    1    3    3    0    0  0.10424337429E+01  0.17657221175E+01 -0.23431505090E+01  0.31136469411E+01  0.51100000000E-03 0.  1.
         12    1    3    3    0    0  0.12604245343E+02 -0.14039507716E+02 -0.36091391366E+02  0.40725462653E+02  0.00000000000E+00 0. -1.
</event>
<event>
 7    1  0.2974434E-011  0.5052886E+02  0.7816164E-02  0.1300439E+00
        -11   -1    0    0    0    0  0.00000000000E+00  0.00000000000E+00  0.45593999997E+02  0.45594000000E+02  0.51100000000E-03 0.  1.
         11   -1    0    0    0    0 -0.00000000000E+00 -0.00000000000E+00 -0.45593999997E+02  0.45594000000E+02  0.51100000000E-03 0. -1.
    9900012    2    1    2    0    0 -0.22668935418E+01  0.40540033879E+02 -0.21289255262E+01  0.50528862316E+02  0.30000007497E+02 0.  0.
        -12    1    1    2    0    0  0.22668935418E+01 -0.40540033879E+02  0.21289255262E+01  0.40659137684E+02  0.00000000000E+00 0.  1.
         11    1    3    3    0    0 -0.68007846021E+01  0.21566278439E+02 -0.21442865394E+01  0.22714598873E+02  0.51100000000E-03 0. -1.
        -11    1    3    3    0    0  0.16686663889E+01 -0.41350062424E+01  0.72594575011E+00  0.45177119911E+01  0.51100000000E-03 0.  1.
         12    1    3    3    0    0  0.28652246714E+01  0.23108761683E+02 -0.71058473687E+00  0.23296551453E+02  0.00000000000E+00 0. -1.
</event>
<event>
 7    1  0.2974434E-011  0.5052886E+02  0.7816164E-02  0.1300439E+00
        -11   -1    0    0    0    0  0.00000000000E+00  0.00000000000E+00  0.45593999997E+02  0.45594000000E+02  0.51100000000E-03 0. -1.
         11   -1    0    0    0    0 -0.00000000000E+00 -0.00000000000E+00 -0.45593999997E+02  0.45594000000E+02  0.51100000000E-03 0.  1.
    9900012    2    1    2    0    0 -0.32116585120E+02  0.44225574298E+01  0.24538368571E+02  0.50528860976E+02  0.30000003424E+02 0.  0.
        -12    1    1    2    0    0  0.32116585120E+02 -0.44225574298E+01 -0.24538368571E+02  0.40659139024E+02  0.00000000000E+00 0.  1.
         11    1    3    3    0    0 -0.30983822911E+01  0.51773835213E+01 -0.13625315763E+01  0.61856095500E+01  0.51100000000E-03 0. -1.
        -11    1    3    3    0    0 -0.17544517741E+01  0.16991517634E+01 -0.34379362575E+01  0.42171819637E+01  0.51100000000E-03 0.  1.
        -12    1    3    3    0    0 -0.27263751055E+02 -0.24539778549E+01  0.29338836405E+02  0.40126069463E+02  0.00000000000E+00 0.  1.
</event>
<event>
 7    1  0.2974434E-011  0.5052878E+02  0.7816164E-02  0.1300439E+00
        -11   -1    0    0    0    0  0.00000000000E+00  0.00000000000E+00  0.45593999997E+02  0.45594000000E+02  0.51100000000E-03 0.  1.
         11   -1    0    0    0    0 -0.00000000000E+00 -0.00000000000E+00 -0.45593999997E+02  0.45594000000E+02  0.51100000000E-03 0. -1.
    9900012    2    1    2    0    0 -0.39244505538E+02  0.57619989254E+01 -0.89353223125E+01  0.50528784176E+02  0.29999769982E+02 0.  0.
        -12    1    1    2    0    0  0.39244505538E+02 -0.57619989254E+01  0.89353223125E+01  0.40659215824E+02  0.00000000000E+00 0.  1.
         11    1    3    3    0    0 -0.16531582892E+00  0.36525787057E+01 -0.14550289504E+01  0.39351963144E+01  0.51100000000E-03 0. -1.
        -11    1    3    3    0    0 -0.15168191542E+02  0.11703006758E+02 -0.81535202861E+01  0.20821006103E+02  0.51100000000E-03 0.  1.
        -12    1    3    3    0    0 -0.23910998167E+02 -0.95935865383E+01  0.67322692400E+00  0.25772581759E+02  0.00000000000E+00 0.  1.
</event>
<event>
 7    1  0.2974434E-011  0.5052886E+02  0.7816164E-02  0.1300439E+00
        -11   -1    0    0    0    0  0.00000000000E+00  0.00000000000E+00  0.45593999997E+02  0.45594000000E+02  0.51100000000E-03 0. -1.
         11   -1    0    0    0    0 -0.00000000000E+00 -0.00000000000E+00 -0.45593999997E+02  0.45594000000E+02  0.51100000000E-03 0.  1.
    9900012    2    1    2    0    0  0.29792894870E+02  0.27648684126E+02 -0.10484791689E+01  0.50528860472E+02  0.30000001889E+02 0.  0.
        -12    1    1    2    0    0 -0.29792894870E+02 -0.27648684126E+02  0.10484791689E+01  0.40659139528E+02  0.00000000000E+00 0.  1.
         11    1    3    3    0    0  0.17586454747E+01  0.22052841619E+01 -0.68148854702E+01  0.73755526148E+01  0.51100000000E-03 0. -1.
        -11    1    3    3    0    0  0.13036449965E+01 -0.16918400265E+01 -0.33635780577E+01  0.39844034138E+01  0.51100000000E-03 0.  1.
         12    1    3    3    0    0  0.26730604399E+02  0.27135239990E+02  0.91299843590E+01  0.39168904443E+02  0.00000000000E+00 0. -1.
</event>
<event>
 7    1  0.2974434E-011  0.5052886E+02  0.7816164E-02  0.1300439E+00
        -11   -1    0    0    0    0  0.00000000000E+00  0.00000000000E+00  0.45593999997E+02  0.45594000000E+02  0.51100000000E-03 0.  1.
         11   -1    0    0    0    0 -0.00000000000E+00 -0.00000000000E+00 -0.45593999997E+02  0.45594000000E+02  0.51100000000E-03 0. -1.
    9900012    2    1    2    0    0  0.15997803675E+02  0.10953600641E+02 -0.35738697578E+02  0.50528860880E+02  0.30000003130E+02 0.  0.
        -12    1    1    2    0    0 -0.15997803675E+02 -0.10953600641E+02  0.35738697578E+02  0.40659139120E+02  0.00000000000E+00 0.  1.
         11    1    3    3    0    0  0.13508584449E+01  0.71651424956E+01 -0.33720735724E+01  0.80333657927E+01  0.51100000000E-03 0. -1.
        -11    1    3    3    0    0 -0.53048911668E+01  0.76224907588E-01 -0.14271399453E+01  0.54940339653E+01  0.51100000000E-03 0.  1.
         12    1    3    3    0    0  0.19951836397E+02  0.37122332379E+01 -0.30939484060E+02  0.37001461122E+02  0.00000000000E+00 0. -1.
</event>
<event>
 7    1  0.2974434E-011  0.5052886E+02  0.7816164E-02  0.1300439E+00
        -11   -1    0    0    0    0  0.00000000000E+00  0.00000000000E+00  0.45593999997E+02  0.45594000000E+02  0.51100000000E-03 0. -1.
         11   -1    0    0    0    0 -0.00000000000E+00 -0.00000000000E+00 -0.45593999997E+02  0.45594000000E+02  0.51100000000E-03 0.  1.
    9900012    2    1    2    0    0 -0.96682157319E+01 -0.33566139114E+02  0.20808794045E+02  0.50528855886E+02  0.29999987952E+02 0.  0.
        -12    1    1    2    0    0  0.96682157319E+01  0.33566139114E+02 -0.20808794045E+02  0.40659144114E+02  0.00000000000E+00 0.  1.
         11    1    3    3    0    0 -0.60593576706E+01 -0.14516355004E+02  0.99593998731E+00  0.15761734508E+02  0.51100000000E-03 0. -1.
        -11    1    3    3    0    0 -0.11752535526E+02 -0.14878323200E+02  0.10337826613E+02  0.21595306247E+02  0.51100000000E-03 0.  1.
         12    1    3    3    0    0  0.81436774651E+01 -0.41714609093E+01  0.94750274449E+01  0.13171815131E+02  0.00000000000E+00 0. -1.
</event>
<event>
 7    1  0.2974434E-011  0.5052886E+02  0.7816164E-02  0.1300439E+00
        -11   -1    0    0    0    0  0.00000000000E+00  0.00000000000E+00  0.45593999997E+02  0.45594000000E+02  0.51100000000E-03 0. -1.
         11   -1    0    0    0    0 -0.00000000000E+00 -0.00000000000E+00 -0.45593999997E+02  0.45594000000E+02  0.51100000000E-03 0.  1.
    9900012    2    1    2    0    0  0.18870962759E+02 -0.20099487886E+02  0.29884165891E+02  0.50528855644E+02  0.29999987216E+02 0.  0.
        -12    1    1    2    0    0 -0.18870962759E+02  0.20099487886E+02 -0.29884165891E+02  0.40659144356E+02  0.00000000000E+00 0.  1.
         11    1    3    3    0    0  0.49511448419E+01 -0.12023442162E+02  0.26831256360E+02  0.29815990924E+02  0.51100000000E-03 0. -1.
        -11    1    3    3    0    0  0.41962919610E+01 -0.52450480479E+01  0.71299872413E+01  0.97957191451E+01  0.51100000000E-03 0.  1.
        -12    1    3    3    0    0  0.97235259562E+01 -0.28309976759E+01 -0.40770777099E+01  0.10917145575E+02  0.00000000000E+00 0.  1.
</event>
<event>
 7    1  0.2974434E-011  0.5052889E+02  0.7816164E-02  0.1300439E+00
        -11   -1    0    0    0    0  0.00000000000E+00  0.00000000000E+00  0.45593999997E+02  0.45594000000E+02  0.51100000000E-03 0.  1.
         11   -1    0    0    0    0 -0.00000000000E+00 -0.00000000000E+00 -0.45593999997E+02  0.45594000000E+02  0.51100000000E-03 0. -1.
    9900012    2    1    2    0    0 -0.14149286612E+02 -0.37986623549E+02  0.31586955062E+01  0.50528889858E+02  0.30000091211E+02 0.  0.
        -12    1    1    2    0    0  0.14149286612E+02  0.37986623549E+02 -0.31586955062E+01  0.40659110142E+02  0.00000000000E+00 0.  1.
         11    1    3    3    0    0 -0.10327494732E+02 -0.25536866727E+01  0.40620718755E+01  0.11387663994E+02  0.51100000000E-03 0. -1.
        -11    1    3    3    0    0  0.22342345747E+01  0.77368800493E+00  0.44927270970E+00  0.24067080198E+01  0.51100000000E-03 0.  1.
        -12    1    3    3    0    0 -0.60560264551E+01 -0.36206624881E+02 -0.13526490790E+01  0.36734517844E+02  0.00000000000E+00 0.  1.
</event>
<event>
 7    1  0.2974434E-011  0.5052885E+02  0.7816164E-02  0.1300439E+00
        -11   -1    0    0    0    0  0.00000000000E+00  0.00000000000E+00  0.45593999997E+02  0.45594000000E+02  0.51100000000E-03 0.  1.
         11   -1    0    0    0    0 -0.00000000000E+00 -0.00000000000E+00 -0.45593999997E+02  0.45594000000E+02  0.51100000000E-03 0. -1.
    9900012    2    1    2    0    0 -0.31027803021E+02 -0.79556578768E+01 -0.25042944244E+02  0.50528854547E+02  0.29999983880E+02 0.  0.
        -12    1    1    2    0    0  0.31027803021E+02  0.79556578768E+01  0.25042944244E+02  0.40659145453E+02  0.00000000000E+00 0.  1.
         11    1    3    3    0    0 -0.26597746894E+02 -0.10793530479E+02 -0.25105025276E+02  0.38134010207E+02  0.51100000000E-03 0. -1.
        -11    1    3    3    0    0 -0.49708809165E+01 -0.30603852451E+01 -0.19262131225E+01  0.61470246615E+01  0.51100000000E-03 0.  1.
        -12    1    3    3    0    0  0.54082478961E+00  0.58982578476E+01  0.19882941548E+01  0.62478196786E+01  0.00000000000E+00 0.  1.
</event>
<event>
 7    1  0.2974434E-011  0.5052886E+02  0.7816164E-02  0.1300439E+00
        -11   -1    0    0    0    0  0.00000000000E+00  0.00000000000E+00  0.45593999997E+02  0.45594000000E+02  0.51100000000E-03 0.  1.
         11   -1    0    0    0    0 -0.00000000000E+00 -0.00000000000E+00 -0.45593999997E+02  0.45594000000E+02  0.51100000000E-03 0. -1.
    9900012    2    1    2    0    0 -0.31611236411E+02  0.25557926057E+02 -0.82938311827E+00  0.50528859231E+02  0.29999998117E+02 0.  0.
        -12    1    1    2    0    0  0.31611236411E+02 -0.25557926057E+02  0.82938311827E+00  0.40659140769E+02  0.00000000000E+00 0.  1.
         11    1    3    3    0    0 -0.73011058231E+01  0.16780000598E+02  0.30394877639E+01  0.18550284430E+02  0.51100000000E-03 0. -1.
        -11    1    3    3    0    0  0.21878238891E+01  0.20676045394E+01  0.24988480774E+01  0.39122632678E+01  0.51100000000E-03 0.  1.
         12    1    3    3    0    0 -0.26497954477E+02  0.67103209192E+01 -0.63677189596E+01  0.28066311533E+02  0.00000000000E+00 0. -1.
</event>
<event>
 7    1  0.4086589E-011  0.5052886E+02  0.7816164E-02  0.1300439E+00
        -11   -1    0    0    0    0  0.00000000000E+00  0.00000000000E+00  0.45593999997E+02  0.45594000000E+02  0.51100000000E-03 0. -1.
         11   -1    0    0    0    0 -0.00000000000E+00 -0.00000000000E+00 -0.45593999997E+02  0.45594000000E+02  0.51100000000E-03 0.  1.
    9900012    2    1    2    0    0 -0.32260565680E+02 -0.31530925831E+00  0.24745144047E+02  0.50528859923E+02  0.30000000222E+02 0.  0.
        -12    1    1    2    0    0  0.32260565680E+02  0.31530925831E+00 -0.24745144047E+02  0.40659140077E+02  0.00000000000E+00 0.  1.
         11    1    3    3    0    0 -0.13095592929E+02  0.15095150236E+01  0.19932648301E+02  0.23897356722E+02  0.51100000000E-03 0. -1.
        -11    1    3    3    0    0  0.23606549155E+01  0.32039032991E+01 -0.12477952081E+00  0.39816150203E+01  0.51100000000E-03 0.  1.
        -12    1    3    3    0    0 -0.21525627667E+02 -0.50287275810E+01  0.49372752662E+01  0.22649888180E+02  0.00000000000E+00 0.  1.
</event>
<event>
 7    1  0.2974434E-011  0.5052886E+02  0.7816164E-02  0.1300439E+00
        -11   -1    0    0    0    0  0.00000000000E+00  0.00000000000E+00  0.45593999997E+02  0.45594000000E+02  0.51100000000E-03 0.  1.
         11   -1    0    0    0    0 -0.00000000000E+00 -0.00000000000E+00 -0.45593999997E+02  0.45594000000E+02  0.51100000000E-03 0. -1.
    9900012    2    1    2    0    0 -0.25504982341E+02  0.43084402002E+01 -0.31370354442E+02  0.50528856883E+02  0.29999990981E+02 0.  0.
        -12    1    1    2    0    0  0.25504982341E+02 -0.43084402002E+01  0.31370354442E+02  0.40659143117E+02  0.00000000000E+00 0.  1.
         11    1    3    3    0    0  0.13039959913E+01 -0.39272997740E+01 -0.18082664859E+01  0.45159624672E+01  0.51100000000E-03 0. -1.
        -11    1    3    3    0    0 -0.20806736663E+01 -0.62559301483E+01 -0.52176434008E+01  0.84077147814E+01  0.51100000000E-03 0.  1.
         12    1    3    3    0    0 -0.24728304666E+02  0.14491670123E+02 -0.24344444556E+02  0.37605179634E+02  0.00000000000E+00 0. -1.
</event>
<event>
 7    1  0.2974434E-011  0.5052886E+02  0.7816164E-02  0.1300439E+00
        -11   -1    0    0    0    0  0.00000000000E+00  0.00000000000E+00  0.45593999997E+02  0.45594000000E+02  0.51100000000E-03 0. -1.
         11   -1    0    0    0    0 -0.00000000000E+00 -0.00000000000E+00 -0.45593999997E+02  0.45594000000E+02  0.51100000000E-03 0.  1.
    9900012    2    1    2    0    0  0.22796180994E+02 -0.11608403062E+02  0.31602918095E+02  0.50528864229E+02  0.30000013311E+02 0.  0.
        -12    1    1    2    0    0 -0.22796180994E+02  0.11608403062E+02 -0.31602918095E+02  0.40659135771E+02  0.00000000000E+00 0.  1.
         11    1    3    3    0    0  0.72244580019E+01 -0.53723835598E+01  0.10300011545E+02  0.13680114642E+02  0.51100000000E-03 0. -1.
        -11    1    3    3    0    0  0.21698455547E+02 -0.58323887233E+01  0.20914942720E+02  0.30696491015E+02  0.51100000000E-03 0.  1.
        -12    1    3    3    0    0 -0.61267325553E+01 -0.40363077844E+00  0.38796382976E+00  0.61522585725E+01  0.00000000000E+00 0.  1.
</event>
<event>
 7    1  0.2974434E-011  0.5052883E+02  0.7816164E-02  0.1300439E+00
        -11   -1    0    0    0    0  0.00000000000E+00  0.00000000000E+00  0.45593999997E+02  0.45594000000E+02  0.51100000000E-03 0. -1.
         11   -1    0    0    0    0 -0.00000000000E+00 -0.00000000000E+00 -0.45593999997E+02  0.45594000000E+02  0.51100000000E-03 0.  1.
    9900012    2    1    2    0    0  0.26839500005E+02  0.68297685135E+00  0.30534286367E+02  0.50528832991E+02  0.29999918360E+02 0.  0.
        -12    1    1    2    0    0 -0.26839500005E+02 -0.68297685135E+00 -0.30534286367E+02  0.40659167009E+02  0.00000000000E+00 0.  1.
         11    1    3    3    0    0  0.59119912227E+01 -0.58518205047E+01  0.80567266056E+01  0.11580426905E+02  0.51100000000E-03 0. -1.
        -11    1    3    3    0    0  0.21369836121E+00 -0.46588712541E+01 -0.19191937690E+01  0.50432185493E+01  0.51100000000E-03 0.  1.
         12    1    3    3    0    0  0.20713810421E+02  0.11193668610E+02  0.24396753531E+02  0.33905187537E+02  0.00000000000E+00 0. -1.
</event>
<event>
 7    1  0.2974434E-011  0.5052887E+02  0.7816164E-02  0.1300439E+00
        -11   -1    0    0    0    0  0.00000000000E+00  0.00000000000E+00  0.45593999997E+02  0.45594000000E+02  0.51100000000E-03 0.  1.
         11   -1    0    0    0    0 -0.00000000000E+00 -0.00000000000E+00 -0.45593999997E+02  0.45594000000E+02  0.51100000000E-03 0. -1.
    9900012    2    1    2    0    0  0.16526491496E+02  0.36937279814E+02  0.39594589345E+01  0.50528869706E+02  0.30000029957E+02 0.  0.
        -12    1    1    2    0    0 -0.16526491496E+02 -0.36937279814E+02 -0.39594589345E+01  0.40659130294E+02  0.00000000000E+00 0.  1.
         11    1    3    3    0    0 -0.44552004548E+01  0.80311458286E+01 -0.63255061870E+01  0.11151687908E+02  0.51100000000E-03 0. -1.
        -11    1    3    3    0    0 -0.63220830152E+00 -0.35982471302E+00 -0.10436367508E+01  0.12721395715E+01  0.51100000000E-03 0.  1.
         12    1    3    3    0    0  0.21613900253E+02  0.29265958699E+02  0.11328601872E+02  0.38105042226E+02  0.00000000000E+00 0. -1.
</event>
<event>
 7    1  0.2974434E-011  0.5052886E+02  0.7816164E-02  0.1300439E+00
        -11   -1    0    0    0    0  0.00000000000E+00  0.00000000000E+00  0.45593999997E+02  0.45594000000E+02  0.51100000000E-03 0.  1.
         11   -1    0    0    0    0 -0.00000000000E+00 -0.00000000000E+00 -0.45593999997E+02  0.45594000000E+02  0.51100000000E-03 0. -1.
    9900012    2    1    2    0    0  0.31322788435E+02  0.12990122581E+02 -0.22434464786E+02  0.50528861172E+02  0.30000004017E+02 0.  0.
        -12    1    1    2    0    0 -0.31322788435E+02 -0.12990122581E+02  0.22434464786E+02  0.40659138828E+02  0.00000000000E+00 0.  1.
         11    1    3    3    0    0  0.47616436128E+01 -0.19773429237E+01 -0.20813998923E+01  0.55601583346E+01  0.51100000000E-03 0. -1.
        -11    1    3    3    0    0 -0.30263312368E+01 -0.18939969170E+01 -0.79688377961E+01  0.87320261771E+01  0.51100000000E-03 0.  1.
         12    1    3    3    0    0  0.29587476059E+02  0.16861462421E+02 -0.12384227098E+02  0.36236676660E+02  0.00000000000E+00 0. -1.
</event>
<event>
 7    1  0.2974434E-011  0.5052886E+02  0.7816164E-02  0.1300439E+00
        -11   -1    0    0    0    0  0.00000000000E+00  0.00000000000E+00  0.45593999997E+02  0.45594000000E+02  0.51100000000E-03 0. -1.
         11   -1    0    0    0    0 -0.00000000000E+00 -0.00000000000E+00 -0.45593999997E+02  0.45594000000E+02  0.51100000000E-03 0.  1.
    9900012    2    1    2    0    0  0.15063402576E+02 -0.22412368250E+02  0.30396464633E+02  0.50528863144E+02  0.30000010012E+02 0.  0.
        -12    1    1    2    0    0 -0.15063402576E+02  0.22412368250E+02 -0.30396464633E+02  0.40659136856E+02  0.00000000000E+00 0.  1.
         11    1    3    3    0    0 -0.26699278054E+01 -0.13877661254E+02  0.21409767412E+02  0.25653384518E+02  0.51100000000E-03 0. -1.
        -11    1    3    3    0    0  0.20490904742E+01 -0.63762487071E+00  0.68590068249E+01  0.71868847307E+01  0.51100000000E-03 0.  1.
         12    1    3    3    0    0  0.15684239907E+02 -0.78970821250E+01  0.21276903963E+01  0.17688593895E+02  0.00000000000E+00 0. -1.
</event>
<event>
 7    1  0.2974434E-011  0.5052886E+02  0.7816164E-02  0.1300439E+00
        -11   -1    0    0    0    0  0.00000000000E+00  0.00000000000E+00  0.45593999997E+02  0.45594000000E+02  0.51100000000E-03 0.  1.
         11   -1    0    0    0    0 -0.00000000000E+00 -0.00000000000E+00 -0.45593999997E+02  0.45594000000E+02  0.51100000000E-03 0. -1.
    9900012    2    1    2    0    0 -0.35595675214E+02  0.11277380181E+02 -0.16091434388E+02  0.50528860088E+02  0.30000000725E+02 0.  0.
        -12    1    1    2    0    0  0.35595675214E+02 -0.11277380181E+02  0.16091434388E+02  0.40659139912E+02  0.00000000000E+00 0.  1.
         11    1    3    3    0    0 -0.60516507506E+01  0.11278346824E+02 -0.96486391172E+01  0.16028718631E+02  0.51100000000E-03 0. -1.
        -11    1    3    3    0    0  0.15550577943E+01  0.11761298816E+01 -0.24386466850E+01  0.31222562607E+01  0.51100000000E-03 0.  1.
         12    1    3    3    0    0 -0.31099082258E+02 -0.11770965249E+01 -0.40041485863E+01  0.31377885196E+02  0.00000000000E+00 0. -1.
</event>
<event>
 7    1  0.2974434E-011  0.5052888E+02  0.7816164E-02  0.1300439E+00
        -11   -1    0    0    0    0  0.00000000000E+00  0.00000000000E+00  0.45593999997E+02  0.45594000000E+02  0.51100000000E-03 0. -1.
         11   -1    0    0    0    0 -0.00000000000E+00 -0.00000000000E+00 -0.45593999997E+02  0.45594000000E+02  0.51100000000E-03 0.  1.
    9900012    2    1    2    0    0  0.34631435297E+02  0.21176678876E+02 -0.23186957470E+01  0.50528875699E+02  0.30000048175E+02 0.  0.
        -12    1    1    2    0    0 -0.34631435297E+02 -0.21176678876E+02  0.23186957470E+01  0.40659124301E+02  0.00000000000E+00 0.  1.
         11    1    3    3    0    0  0.30018611388E+01 -0.21923679527E+01  0.63805590305E+00  0.37715730317E+01  0.51100000000E-03 0. -1.
        -11    1    3    3    0    0  0.16884727199E+02 -0.87789999538E+00 -0.65920233331E+01  0.18147162116E+02  0.51100000000E-03 0.  1.
         12    1    3    3    0    0  0.14744846959E+02  0.24246946824E+02  0.36352716830E+01  0.28610140551E+02  0.00000000000E+00 0. -1.
</event>
<event>
 7    1  0.2974434E-011  0.5052888E+02  0.7816164E-02  0.1300439E+00
        -11   -1    0    0    0    0  0.00000000000E+00  0.00000000000E+00  0.45593999997E+02  0.45594000000E+02  0.51100000000E-03 0. -1.
         11   -1    0    0    0    0 -0.00000000000E+00 -0.00000000000E+00 -0.45593999997E+02  0.45594000000E+02  0.51100000000E-03 0.  1.
    9900012    2    1    2    0    0 -0.16579558352E+02 -0.34068013411E+02  0.14753067885E+02  0.50528876732E+02  0.30000051314E+02 0.  0.
        -12    1    1    2    0    0  0.16579558352E+02  0.34068013411E+02 -0.14753067885E+02  0.40659123268E+02  0.00000000000E+00 0.  1.
         11    1    3    3    0    0 -0.11838474444E+01 -0.83912962235E+01  0.66938733676E+01  0.10799226269E+02  0.51100000000E-03 0. -1.
        -11    1    3    3    0    0 -0.49996978722E+01 -0.11450746525E+02  0.16085336165E+02  0.20367980131E+02  0.51100000000E-03 0.  1.
         12    1    3    3    0    0 -0.10396013035E+02 -0.14225970662E+02 -0.80261416474E+01  0.19361670332E+02  0.00000000000E+00 0. -1.
</event>
<event>
 7    1  0.2974434E-011  0.5052885E+02  0.7816164E-02  0.1300439E+00
        -11   -1    0    0    0    0  0.00000000000E+00  0.00000000000E+00  0.45593999997E+02  0.45594000000E+02  0.51100000000E-03 0.  1.
         11   -1    0    0    0    0 -0.00000000000E+00 -0.00000000000E+00 -0.45593999997E+02  0.45594000000E+02  0.51100000000E-03 0. -1.
    9900012    2    1    2    0    0 -0.22034537154E+02  0.29124500718E+02 -0.17872019161E+02  0.50528850494E+02  0.29999971562E+02 0.  0.
        -12    1    1    2    0    0  0.22034537154E+02 -0.29124500718E+02  0.17872019161E+02  0.40659149506E+02  0.00000000000E+00 0.  1.
         11    1    3    3    0    0 -0.42757863333E+01  0.81344622753E+01 -0.84833301572E+01  0.12506746823E+02  0.51100000000E-03 0. -1.
        -11    1    3    3    0    0 -0.12011572561E+02  0.17102275945E+02 -0.17563830769E+02  0.27299338260E+02  0.51100000000E-03 0.  1.
        -12    1    3    3    0    0 -0.57471782593E+01  0.38877624982E+01  0.81751417655E+01  0.10722765412E+02  0.00000000000E+00 0.  1.
</event>
<event>
 7    1  0.2974434E-011  0.5052886E+02  0.7816164E-02  0.1300439E+00
        -11   -1    0    0    0    0  0.00000000000E+00  0.00000000000E+00  0.45593999997E+02  0.45594000000E+02  0.51100000000E-03 0. -1.
         11   -1    0    0    0    0 -0.00000000000E+00 -0.00000000000E+00 -0.45593999997E+02  0.45594000000E+02  0.51100000000E-03 0.  1.
    9900012    2    1    2    0    0  0.69517646947E+01  0.37995933763E+02  0.12694399265E+02  0.50528858499E+02  0.29999995894E+02 0.  0.
        -12    1    1    2    0    0 -0.69517646947E+01 -0.37995933763E+02 -0.12694399265E+02  0.40659141501E+02  0.00000000000E+00 0.  1.
         11    1    3    3    0    0  0.12866786438E+02  0.24469901203E+02  0.14381351678E+02  0.31163336383E+02  0.51100000000E-03 0. -1.
        -11    1    3    3    0    0 -0.27505550041E+01 -0.11152526404E+01  0.24242036149E+01  0.38322453875E+01  0.51100000000E-03 0.  1.
        -12    1    3    3    0    0 -0.31644667396E+01  0.14641285200E+02 -0.41111560281E+01  0.15533276729E+02  0.00000000000E+00 0.  1.
</event>
<event>
 7    1  0.2974434E-011  0.5052887E+02  0.7816164E-02  0.1300439E+00
        -11   -1    0    0    0    0  0.00000000000E+00  0.00000000000E+00  0.45593999997E+02  0.45594000000E+02  0.51100000000E-03 0.  1.
         11   -1    0    0    0    0 -0.00000000000E+00 -0.00000000000E+00 -0.45593999997E+02  0.45594000000E+02  0.51100000000E-03 0. -1.
    9900012    2    1    2    0    0 -0.15714044502E+02 -0.93182842914E+01 -0.36323596187E+02  0.50528865027E+02  0.30000015737E+02 0.  0.
        -12    1    1    2    0    0  0.15714044502E+02  0.93182842914E+01  0.36323596187E+02  0.40659134973E+02  0.00000000000E+00 0.  1.
         11    1    3    3    0    0 -0.67445528720E+01 -0.11823504637E+00 -0.20979925358E+02  0.22037700453E+02  0.51100000000E-03 0.  1.
        -11    1    3    3    0    0  0.40782945723E+01  0.34300427607E+01 -0.61484600277E+01  0.81364145010E+01  0.51100000000E-03 0. -1.
        -12    1    3    3    0    0 -0.13047786202E+02 -0.12630092006E+02 -0.91952108015E+01  0.20354750073E+02  0.00000000000E+00 0.  1.
</event>
<event>
 7    1  0.2974434E-011  0.5052886E+02  0.7816164E-02  0.1300439E+00
        -11   -1    0    0    0    0  0.00000000000E+00  0.00000000000E+00  0.45593999997E+02  0.45594000000E+02  0.51100000000E-03 0.  1.
         11   -1    0    0    0    0 -0.00000000000E+00 -0.00000000000E+00 -0.45593999997E+02  0.45594000000E+02  0.51100000000E-03 0. -1.
    9900012    2    1    2    0    0 -0.81471845861E+01  0.28142654196E+02 -0.28191842897E+02  0.50528860710E+02  0.30000002614E+02 0.  0.
        -12    1    1    2    0    0  0.81471845861E+01 -0.28142654196E+02  0.28191842897E+02  0.40659139290E+02  0.00000000000E+00 0.  1.
         11    1    3    3    0    0 -0.86208359839E+01  0.99106267031E+01 -0.19808392723E+02  0.23767872375E+02  0.51100000000E-03 0. -1.
        -11    1    3    3    0    0 -0.36824831786E+01  0.14738131955E+02 -0.12718992731E+02  0.19812773462E+02  0.51100000000E-03 0.  1.
        -12    1    3    3    0    0  0.41561345764E+01  0.34938955376E+01  0.43355425576E+01  0.69482148725E+01  0.00000000000E+00 0.  1.
</event>
<event>
 7    1  0.2974434E-011  0.5052885E+02  0.7816164E-02  0.1300439E+00
        -11   -1    0    0    0    0  0.00000000000E+00  0.00000000000E+00  0.45593999997E+02  0.45594000000E+02  0.51100000000E-03 0. -1.
         11   -1    0    0    0    0 -0.00000000000E+00 -0.00000000000E+00 -0.45593999997E+02  0.45594000000E+02  0.51100000000E-03 0.  1.
    9900012    2    1    2    0    0 -0.18642288088E+02  0.30614661162E+02  0.19193077190E+02  0.50528848568E+02  0.29999965706E+02 0.  0.
        -12    1    1    2    0    0  0.18642288088E+02 -0.30614661162E+02 -0.19193077190E+02  0.40659151432E+02  0.00000000000E+00 0.  1.
         11    1    3    3    0    0 -0.90085204413E+01  0.23502843349E+02  0.13746215598E+02  0.28679182860E+02  0.51100000000E-03 0. -1.
        -11    1    3    3    0    0 -0.11479541021E+02  0.11174971721E+02  0.18679962764E+01  0.16129143355E+02  0.51100000000E-03 0.  1.
        -12    1    3    3    0    0  0.18457733747E+01 -0.40631539082E+01  0.35788653155E+01  0.57205223520E+01  0.00000000000E+00 0.  1.
</event>
<event>
 7    1  0.2974434E-011  0.5052887E+02  0.7816164E-02  0.1300439E+00
        -11   -1    0    0    0    0  0.00000000000E+00  0.00000000000E+00  0.45593999997E+02  0.45594000000E+02  0.51100000000E-03 0.  1.
         11   -1    0    0    0    0 -0.00000000000E+00 -0.00000000000E+00 -0.45593999997E+02  0.45594000000E+02  0.51100000000E-03 0. -1.
    9900012    2    1    2    0    0  0.11074610456E+02  0.10911745303E+02 -0.37569290543E+02  0.50528870961E+02  0.30000033773E+02 0.  0.
        -12    1    1    2    0    0 -0.11074610456E+02 -0.10911745303E+02  0.37569290543E+02  0.40659129039E+02  0.00000000000E+00 0.  1.
         11    1    3    3    0    0 -0.42127216779E+01  0.15757866444E+00 -0.63390350938E+01  0.76128326628E+01  0.51100000000E-03 0. -1.
        -11    1    3    3    0    0 -0.25174807675E+01  0.68515470045E+01 -0.20508961957E+02  0.21769219706E+02  0.51100000000E-03 0.  1.
         12    1    3    3    0    0  0.17804812901E+02  0.39026196337E+01 -0.10721293492E+02  0.21146818592E+02  0.00000000000E+00 0. -1.
</event>
<event>
 7    1  0.2974434E-011  0.5052883E+02  0.7816164E-02  0.1300439E+00
        -11   -1    0    0    0    0  0.00000000000E+00  0.00000000000E+00  0.45593999997E+02  0.45594000000E+02  0.51100000000E-03 0.  1.
         11   -1    0    0    0    0 -0.00000000000E+00 -0.00000000000E+00 -0.45593999997E+02  0.45594000000E+02  0.51100000000E-03 0. -1.
    9900012    2    1    2    0    0  0.31827013995E+02 -0.54514681297E+01 -0.24708116538E+02  0.50528827019E+02  0.29999900207E+02 0.  0.
        -12    1    1    2    0    0 -0.31827013995E+02  0.54514681297E+01  0.24708116538E+02  0.40659172981E+02  0.00000000000E+00 0.  1.
         11    1    3    3    0    0  0.74982818234E+01  0.44595177623E+01 -0.34013421320E+01  0.93637950392E+01  0.51100000000E-03 0. -1.
        -11    1    3    3    0    0  0.13289365131E+02 -0.12441470812E+02 -0.23400335785E+02  0.29647481119E+02  0.51100000000E-03 0.  1.
         12    1    3    3    0    0  0.11039367041E+02  0.25304849199E+01  0.20935613790E+01  0.11517550861E+02  0.00000000000E+00 0. -1.
</event>
<event>
 7    1  0.2974434E-011  0.5052886E+02  0.7816164E-02  0.1300439E+00
        -11   -1    0    0    0    0  0.00000000000E+00  0.00000000000E+00  0.45593999997E+02  0.45594000000E+02  0.51100000000E-03 0. -1.
         11   -1    0    0    0    0 -0.00000000000E+00 -0.00000000000E+00 -0.45593999997E+02  0.45594000000E+02  0.51100000000E-03 0.  1.
    9900012    2    1    2    0    0  0.35453606717E+02  0.19846072283E+02 -0.15300986961E+01  0.50528855686E+02  0.29999987343E+02 0.  0.
        -12    1    1    2    0    0 -0.35453606717E+02 -0.19846072283E+02  0.15300986961E+01  0.40659144314E+02  0.00000000000E+00 0.  1.
         11    1    3    3    0    0  0.13248434566E+02  0.55397422786E+01  0.78968788784E+01  0.16388119454E+02  0.51100000000E-03 0. -1.
        -11    1    3    3    0    0 -0.12387234057E+01  0.14398389361E+01  0.38430673044E+01  0.42868098168E+01  0.51100000000E-03 0.  1.
         12    1    3    3    0    0  0.23443895557E+02  0.12866491069E+02 -0.13270044879E+02  0.29853926415E+02  0.00000000000E+00 0. -1.
</event>
<event>
 7    1  0.2974434E-011  0.5052889E+02  0.7816164E-02  0.1300439E+00
        -11   -1    0    0    0    0  0.00000000000E+00  0.00000000000E+00  0.45593999997E+02  0.45594000000E+02  0.51100000000E-03 0.  1.
         11   -1    0    0    0    0 -0.00000000000E+00 -0.00000000000E+00 -0.45593999997E+02  0.45594000000E+02  0.51100000000E-03 0. -1.
    9900012    2    1    2    0    0  0.11967042681E+02  0.22443681544E+02 -0.31721196680E+02  0.50528889452E+02  0.30000089977E+02 0.  0.
        -12    1    1    2    0    0 -0.11967042681E+02 -0.22443681544E+02  0.31721196680E+02  0.40659110548E+02  0.00000000000E+00 0.  1.
         11    1    3    3    0    0 -0.17167009078E+01  0.28127972446E+01 -0.48865892732E+01  0.58938650588E+01  0.51100000000E-03 0. -1.
        -11    1    3    3    0    0  0.11232843122E+01  0.22160250525E+02 -0.21021510966E+02  0.30565379018E+02  0.51100000000E-03 0.  1.
        -12    1    3    3    0    0  0.12560459277E+02 -0.25293662255E+01 -0.58130964411E+01  0.14069645375E+02  0.00000000000E+00 0.  1.
</event>
<event>
 7    1  0.2974434E-011  0.5052887E+02  0.7816164E-02  0.1300439E+00
        -11   -1    0    0    0    0  0.00000000000E+00  0.00000000000E+00  0.45593999997E+02  0.45594000000E+02  0.51100000000E-03 0.  1.
         11   -1    0    0    0    0 -0.00000000000E+00 -0.00000000000E+00 -0.45593999997E+02  0.45594000000E+02  0.51100000000E-03 0. -1.
    9900012    2    1    2    0    0 -0.15893506287E+02  0.37358539007E+02  0.22137649192E+01  0.50528871456E+02  0.30000035277E+02 0.  0.
        -12    1    1    2    0    0  0.15893506287E+02 -0.37358539007E+02 -0.22137649192E+01  0.40659128544E+02  0.00000000000E+00 0.  1.
         11    1    3    3    0    0 -0.74603196208E+01  0.21965017963E+02  0.27578780140E+01  0.23360742162E+02  0.51100000000E-03 0. -1.
        -11    1    3    3    0    0 -0.90727616643E+01  0.17112340182E+02  0.60754454157E+01  0.20299217423E+02  0.51100000000E-03 0.  1.
        -12    1    3    3    0    0  0.63957499788E+00 -0.17188191381E+01 -0.66195585106E+01  0.68689118703E+01  0.00000000000E+00 0.  1.
</event>
<event>
 7    1  0.2974434E-011  0.5052885E+02  0.7816164E-02  0.1300439E+00
        -11   -1    0    0    0    0  0.00000000000E+00  0.00000000000E+00  0.45593999997E+02  0.45594000000E+02  0.51100000000E-03 0.  1.
         11   -1    0    0    0    0 -0.00000000000E+00 -0.00000000000E+00 -0.45593999997E+02  0.45594000000E+02  0.51100000000E-03 0. -1.
    9900012    2    1    2    0    0 -0.17759231734E+02 -0.17745725010E+02 -0.31982264448E+02  0.50528852110E+02  0.29999976474E+02 0.  0.
        -12    1    1    2    0    0  0.17759231734E+02  0.17745725010E+02  0.31982264448E+02  0.40659147890E+02  0.00000000000E+00 0.  1.
         11    1    3    3    0    0  0.21360086183E+01  0.87792830281E+00  0.23101123903E+01  0.32664828852E+01  0.51100000000E-03 0. -1.
        -11    1    3    3    0    0 -0.25598523769E+01 -0.26993604965E+00  0.18540439670E+01  0.31722529778E+01  0.51100000000E-03 0.  1.
         12    1    3    3    0    0 -0.17335387976E+02 -0.18353717263E+02 -0.36146420805E+02  0.44090116247E+02  0.00000000000E+00 0. -1.
</event>
<event>
 7    1  0.2974434E-011  0.5052886E+02  0.7816164E-02  0.1300439E+00
        -11   -1    0    0    0    0  0.00000000000E+00  0.00000000000E+00  0.45593999997E+02  0.45594000000E+02  0.51100000000E-03 0.  1.
         11   -1    0    0    0    0 -0.00000000000E+00 -0.00000000000E+00 -0.45593999997E+02  0.45594000000E+02  0.51100000000E-03 0. -1.
    9900012    2    1    2    0    0  0.19150158758E+02 -0.17798918586E+02 -0.31138976385E+02  0.50528856704E+02  0.29999990438E+02 0.  0.
        -12    1    1    2    0    0 -0.19150158758E+02  0.17798918586E+02  0.31138976385E+02  0.40659143296E+02  0.00000000000E+00 0.  1.
         11    1    3    3    0    0  0.11671139207E+02 -0.80311322309E+01 -0.14800577377E+02  0.20488330001E+02  0.51100000000E-03 0. -1.
        -11    1    3    3    0    0  0.14013785789E+02 -0.10678328493E+02 -0.15353154600E+02  0.23369472565E+02  0.51100000000E-03 0.  1.
        -12    1    3    3    0    0 -0.65347662376E+01  0.91054213824E+00 -0.98524440825E+00  0.66710541378E+01  0.00000000000E+00 0.  1.
</event>
<event>
 7    1  0.2974434E-011  0.5052886E+02  0.7816164E-02  0.1300439E+00
        -11   -1    0    0    0    0  0.00000000000E+00  0.00000000000E+00  0.45593999997E+02  0.45594000000E+02  0.51100000000E-03 0.  1.
         11   -1    0    0    0    0 -0.00000000000E+00 -0.00000000000E+00 -0.45593999997E+02  0.45594000000E+02  0.51100000000E-03 0. -1.
    9900012    2    1    2    0    0 -0.24837074792E+02  0.31772296108E+02 -0.51775040708E+01  0.50528860405E+02  0.30000001686E+02 0.  0.
        -12    1    1    2    0    0  0.24837074792E+02 -0.31772296108E+02  0.51775040708E+01  0.40659139595E+02  0.00000000000E+00 0.  1.
         11    1    3    3    0    0 -0.37413262574E+01 -0.43217922418E+00  0.43515305422E+01  0.57550081987E+01  0.51100000000E-03 0. -1.
        -11    1    3    3    0    0 -0.25935240828E+01  0.11745436199E+02  0.56495195992E+01  0.13289044760E+02  0.51100000000E-03 0.  1.
         12    1    3    3    0    0 -0.18502224452E+02  0.20459039134E+02 -0.15178554212E+02  0.31484807446E+02  0.00000000000E+00 0. -1.
</event>
<event>
 7    1  0.2974434E-011  0.5052887E+02  0.7816164E-02  0.1300439E+00
        -11   -1    0    0    0    0  0.00000000000E+00  0.00000000000E+00  0.45593999997E+02  0.45594000000E+02  0.51100000000E-03 0. -1.
         11   -1    0    0    0    0 -0.00000000000E+00 -0.00000000000E+00 -0.45593999997E+02  0.45594000000E+02  0.51100000000E-03 0.  1.
    9900012    2    1    2    0    0  0.30675018906E+02  0.25111592178E+02  0.90341399055E+01  0.50528873959E+02  0.30000042885E+02 0.  0.
        -12    1    1    2    0    0 -0.30675018906E+02 -0.25111592178E+02 -0.90341399055E+01  0.40659126041E+02  0.00000000000E+00 0.  1.
         11    1    3    3    0    0 -0.21805607524E+01 -0.46045961239E+00  0.12353049504E+01  0.25481065188E+01  0.51100000000E-03 0.  1.
        -11    1    3    3    0    0 -0.84302378534E+00  0.16278408589E+01  0.63575294364E+01  0.66165501404E+01  0.51100000000E-03 0. -1.
         12    1    3    3    0    0  0.33698603444E+02  0.23944210931E+02  0.14413055187E+01  0.41364217300E+02  0.00000000000E+00 0. -1.
</event>
<event>
 7    1  0.2974434E-011  0.5052886E+02  0.7816164E-02  0.1300439E+00
        -11   -1    0    0    0    0  0.00000000000E+00  0.00000000000E+00  0.45593999997E+02  0.45594000000E+02  0.51100000000E-03 0.  1.
         11   -1    0    0    0    0 -0.00000000000E+00 -0.00000000000E+00 -0.45593999997E+02  0.45594000000E+02  0.51100000000E-03 0. -1.
    9900012    2    1    2    0    0  0.95822228922E+01 -0.14698854495E+02 -0.36678195495E+02  0.50528863956E+02  0.30000012482E+02 0.  0.
        -12    1    1    2    0    0 -0.95822228922E+01  0.14698854495E+02  0.36678195495E+02  0.40659136044E+02  0.00000000000E+00 0.  1.
         11    1    3    3    0    0  0.58589344800E+00 -0.24210170850E+01 -0.22154704820E+01  0.33336023422E+01  0.51100000000E-03 0. -1.
        -11    1    3    3    0    0  0.15863977278E+02  0.23938855771E+01 -0.16920578286E+02  0.23317427667E+02  0.51100000000E-03 0.  1.
        -12    1    3    3    0    0 -0.68676478340E+01 -0.14671722987E+02 -0.17542146728E+02  0.23877833947E+02  0.00000000000E+00 0.  1.
</event>
<event>
 7    1  0.2974434E-011  0.5052886E+02  0.7816164E-02  0.1300439E+00
        -11   -1    0    0    0    0  0.00000000000E+00  0.00000000000E+00  0.45593999997E+02  0.45594000000E+02  0.51100000000E-03 0.  1.
         11   -1    0    0    0    0 -0.00000000000E+00 -0.00000000000E+00 -0.45593999997E+02  0.45594000000E+02  0.51100000000E-03 0. -1.
    9900012    2    1    2    0    0 -0.15132753092E+01  0.58551856029E+01 -0.40206874895E+02  0.50528856017E+02  0.29999988349E+02 0.  0.
        -12    1    1    2    0    0  0.15132753092E+01 -0.58551856029E+01  0.40206874895E+02  0.40659143983E+02  0.00000000000E+00 0.  1.
         11    1    3    3    0    0 -0.75869557096E+01  0.91849567145E+01 -0.28458296622E+02  0.30851255626E+02  0.51100000000E-03 0. -1.
        -11    1    3    3    0    0 -0.45341165112E+01 -0.11058555482E+01 -0.53163945398E+01  0.70742618127E+01  0.51100000000E-03 0.  1.
        -12    1    3    3    0    0  0.10607796912E+02 -0.22239155634E+01 -0.64321837333E+01  0.12603338579E+02  0.00000000000E+00 0.  1.
</event>
<event>
 7    1  0.2974434E-011  0.5052884E+02  0.7816164E-02  0.1300439E+00
        -11   -1    0    0    0    0  0.00000000000E+00  0.00000000000E+00  0.45593999997E+02  0.45594000000E+02  0.51100000000E-03 0. -1.
         11   -1    0    0    0    0 -0.00000000000E+00 -0.00000000000E+00 -0.45593999997E+02  0.45594000000E+02  0.51100000000E-03 0.  1.
    9900012    2    1    2    0    0 -0.17538566656E+02 -0.34820694099E+02  0.11536268738E+02  0.50528836773E+02  0.29999929856E+02 0.  0.
        -12    1    1    2    0    0  0.17538566656E+02  0.34820694099E+02 -0.11536268738E+02  0.40659163227E+02  0.00000000000E+00 0.  1.
         11    1    3    3    0    0 -0.95855364480E+01 -0.15464571414E+02  0.27400611033E+01  0.18399549265E+02  0.51100000000E-03 0. -1.
        -11    1    3    3    0    0  0.20888186899E+00  0.44114889283E+01 -0.19125198922E+01  0.48127537646E+01  0.51100000000E-03 0.  1.
         12    1    3    3    0    0 -0.81619120770E+01 -0.23767611613E+02  0.10708727527E+02  0.27316533744E+02  0.00000000000E+00 0. -1.
</event>
<event>
 7    1  0.2974434E-011  0.5052887E+02  0.7816164E-02  0.1300439E+00
        -11   -1    0    0    0    0  0.00000000000E+00  0.00000000000E+00  0.45593999997E+02  0.45594000000E+02  0.51100000000E-03 0.  1.
         11   -1    0    0    0    0 -0.00000000000E+00 -0.00000000000E+00 -0.45593999997E+02  0.45594000000E+02  0.51100000000E-03 0. -1.
    9900012    2    1    2    0    0 -0.13521097380E+02  0.25481244943E+02 -0.28653982277E+02  0.50528872876E+02  0.30000039593E+02 0.  0.
        -12    1    1    2    0    0  0.13521097380E+02 -0.25481244943E+02  0.28653982277E+02  0.40659127124E+02  0.00000000000E+00 0.  1.
         11    1    3    3    0    0 -0.13282546398E+02  0.10025036276E+02 -0.19066982502E+02  0.25307651276E+02  0.51100000000E-03 0. -1.
        -11    1    3    3    0    0 -0.80810380332E+01  0.35504020636E+01 -0.19172714113E+01  0.90324116621E+01  0.51100000000E-03 0.  1.
         12    1    3    3    0    0  0.78424870512E+01  0.11905806603E+02 -0.76697283636E+01  0.16188809937E+02  0.00000000000E+00 0. -1.
</event>
<event>
 7    1  0.2974434E-011  0.5052886E+02  0.7816164E-02  0.1300439E+00
        -11   -1    0    0    0    0  0.00000000000E+00  0.00000000000E+00  0.45593999997E+02  0.45594000000E+02  0.51100000000E-03 0.  1.
         11   -1    0    0    0    0 -0.00000000000E+00 -0.00000000000E+00 -0.45593999997E+02  0.45594000000E+02  0.51100000000E-03 0. -1.
    9900012    2    1    2    0    0 -0.25219181024E+02 -0.59127288538E+01 -0.31340041065E+02  0.50528860462E+02  0.30000001860E+02 0.  0.
        -12    1    1    2    0    0  0.25219181024E+02  0.59127288538E+01  0.31340041065E+02  0.40659139538E+02  0.00000000000E+00 0.  1.
         11    1    3    3    0    0 -0.16666953052E+02  0.66312748232E+01 -0.92044233037E+01  0.20161412114E+02  0.51100000000E-03 0. -1.
        -11    1    3    3    0    0  0.29726136015E+01 -0.44427100754E+01 -0.18227337913E+01  0.56476953860E+01  0.51100000000E-03 0.  1.
        -12    1    3    3    0    0 -0.11524841574E+02 -0.81012936016E+01 -0.20312883970E+02  0.24719752962E+02  0.00000000000E+00 0.  1.
</event>
<event>
 7    1  0.2974434E-011  0.5052885E+02  0.7816164E-02  0.1300439E+00
        -11   -1    0    0    0    0  0.00000000000E+00  0.00000000000E+00  0.45593999997E+02  0.45594000000E+02  0.51100000000E-03 0.  1.
         11   -1    0    0    0    0 -0.00000000000E+00 -0.00000000000E+00 -0.45593999997E+02  0.45594000000E+02  0.51100000000E-03 0. -1.
    9900012    2    1    2    0    0 -0.19654374149E+02 -0.75741430344E+01 -0.34777927320E+02  0.50528852265E+02  0.29999976945E+02 0.  0.
        -12    1    1    2    0    0  0.19654374149E+02  0.75741430344E+01  0.34777927320E+02  0.40659147735E+02  0.00000000000E+00 0.  1.
         11    1    3    3    0    0 -0.45524882235E+00 -0.34963781507E+01 -0.60056452152E+01  0.69641716215E+01  0.51100000000E-03 0. -1.
        -11    1    3    3    0    0 -0.70668277070E+00  0.29416929035E+01 -0.22661257834E+02  0.22862317568E+02  0.51100000000E-03 0.  1.
        -12    1    3    3    0    0 -0.18492442556E+02 -0.70194577873E+01 -0.61110242703E+01  0.20702363076E+02  0.00000000000E+00 0.  1.
</event>
<event>
 7    1  0.2974434E-011  0.5052887E+02  0.7816164E-02  0.1300439E+00
        -11   -1    0    0    0    0  0.00000000000E+00  0.00000000000E+00  0.45593999997E+02  0.45594000000E+02  0.51100000000E-03 0.  1.
         11   -1    0    0    0    0 -0.00000000000E+00 -0.00000000000E+00 -0.45593999997E+02  0.45594000000E+02  0.51100000000E-03 0. -1.
    9900012    2    1    2    0    0 -0.31496864247E+02 -0.25711456312E+02 -0.18342694621E+00  0.50528867095E+02  0.30000022023E+02 0.  0.
        -12    1    1    2    0    0  0.31496864247E+02  0.25711456312E+02  0.18342694621E+00  0.40659132905E+02  0.00000000000E+00 0.  1.
         11    1    3    3    0    0 -0.27682471277E+02 -0.26418698394E+02  0.36445432991E+01  0.38438906552E+02  0.51100000000E-03 0. -1.
        -11    1    3    3    0    0 -0.31331136189E+01 -0.11175518115E+01  0.33089820224E+01  0.46919809554E+01  0.51100000000E-03 0.  1.
        -12    1    3    3    0    0 -0.68127935204E+00  0.18247938936E+01 -0.71369522677E+01  0.73979795878E+01  0.00000000000E+00 0.  1.
</event>
<event>
 7    1  0.2974434E-011  0.5052886E+02  0.7816164E-02  0.1300439E+00
        -11   -1    0    0    0    0  0.00000000000E+00  0.00000000000E+00  0.45593999997E+02  0.45594000000E+02  0.51100000000E-03 0.  1.
         11   -1    0    0    0    0 -0.00000000000E+00 -0.00000000000E+00 -0.45593999997E+02  0.45594000000E+02  0.51100000000E-03 0. -1.
    9900012    2    1    2    0    0 -0.31529739771E+02 -0.28669943282E+01 -0.25511201446E+02  0.50528861473E+02  0.30000004933E+02 0.  0.
        -12    1    1    2    0    0  0.31529739771E+02  0.28669943282E+01  0.25511201446E+02  0.40659138527E+02  0.00000000000E+00 0.  1.
         11    1    3    3    0    0  0.29927762590E+01 -0.34367887865E+01 -0.34487222421E+01  0.57150601277E+01  0.51100000000E-03 0. -1.
        -11    1    3    3    0    0 -0.42460005270E+01 -0.66418711180E+01 -0.44220775189E+01  0.90386803388E+01  0.51100000000E-03 0.  1.
         12    1    3    3    0    0 -0.30276515503E+02  0.72116655762E+01 -0.17640401685E+02  0.35775121006E+02  0.00000000000E+00 0. -1.
</event>
<event>
 7    1  0.2974434E-011  0.5052886E+02  0.7816164E-02  0.1300439E+00
        -11   -1    0    0    0    0  0.00000000000E+00  0.00000000000E+00  0.45593999997E+02  0.45594000000E+02  0.51100000000E-03 0.  1.
         11   -1    0    0    0    0 -0.00000000000E+00 -0.00000000000E+00 -0.45593999997E+02  0.45594000000E+02  0.51100000000E-03 0. -1.
    9900012    2    1    2    0    0 -0.25422409754E+01  0.26378314133E+02 -0.30836460344E+02  0.50528859180E+02  0.29999997963E+02 0.  0.
        -12    1    1    2    0    0  0.25422409754E+01 -0.26378314133E+02  0.30836460344E+02  0.40659140820E+02  0.00000000000E+00 0.  1.
         11    1    3    3    0    0 -0.34465091486E+00  0.17437118763E+02 -0.29144114737E+02  0.33963970897E+02  0.51100000000E-03 0. -1.
        -11    1    3    3    0    0  0.12377648483E+01  0.39140978755E+01 -0.72431986229E+01  0.83256321412E+01  0.51100000000E-03 0.  1.
        -12    1    3    3    0    0 -0.34353549089E+01  0.50270974945E+01  0.55508530159E+01  0.82392561420E+01  0.00000000000E+00 0.  1.
</event>
<event>
 7    1  0.2974434E-011  0.5052886E+02  0.7816164E-02  0.1300439E+00
        -11   -1    0    0    0    0  0.00000000000E+00  0.00000000000E+00  0.45593999997E+02  0.45594000000E+02  0.51100000000E-03 0.  1.
         11   -1    0    0    0    0 -0.00000000000E+00 -0.00000000000E+00 -0.45593999997E+02  0.45594000000E+02  0.51100000000E-03 0. -1.
    9900012    2    1    2    0    0 -0.16283342993E+02  0.27518239973E+02 -0.25115038763E+02  0.50528856351E+02  0.29999989364E+02 0.  0.
        -12    1    1    2    0    0  0.16283342993E+02 -0.27518239973E+02  0.25115038763E+02  0.40659143649E+02  0.00000000000E+00 0.  1.
         11    1    3    3    0    0 -0.56165211800E+01  0.65084012343E+01 -0.34596984491E+01  0.92668284980E+01  0.51100000000E-03 0. -1.
        -11    1    3    3    0    0 -0.11014386996E+02  0.36061236145E+01  0.21336725082E+01  0.11784456163E+02  0.51100000000E-03 0.  1.
        -12    1    3    3    0    0  0.34756518354E+00  0.17403715124E+02 -0.23789012822E+02  0.29477571690E+02  0.00000000000E+00 0.  1.
</event>
<event>
 7    1  0.2974434E-011  0.5052887E+02  0.7816164E-02  0.1300439E+00
        -11   -1    0    0    0    0  0.00000000000E+00  0.00000000000E+00  0.45593999997E+02  0.45594000000E+02  0.51100000000E-03 0.  1.
         11   -1    0    0    0    0 -0.00000000000E+00 -0.00000000000E+00 -0.45593999997E+02  0.45594000000E+02  0.51100000000E-03 0. -1.
    9900012    2    1    2    0    0  0.39873175769E+02  0.62336731083E+00 -0.79313574238E+01  0.50528866176E+02  0.30000019230E+02 0.  0.
        -12    1    1    2    0    0 -0.39873175769E+02 -0.62336731083E+00  0.79313574238E+01  0.40659133824E+02  0.00000000000E+00 0.  1.
         11    1    3    3    0    0  0.33785200266E+02  0.32298458123E+01 -0.59225026765E+01  0.34452107326E+02  0.51100000000E-03 0. -1.
        -11    1    3    3    0    0  0.36996275109E+01  0.58085254979E+01 -0.24726076164E+01  0.73171033111E+01  0.51100000000E-03 0.  1.
        -12    1    3    3    0    0  0.23883479916E+01 -0.84150039994E+01  0.46375286912E+00  0.87596555391E+01  0.00000000000E+00 0.  1.
</event>
<event>
 7    1  0.2974434E-011  0.5052886E+02  0.7816164E-02  0.1300439E+00
        -11   -1    0    0    0    0  0.00000000000E+00  0.00000000000E+00  0.45593999997E+02  0.45594000000E+02  0.51100000000E-03 0.  1.
         11   -1    0    0    0    0 -0.00000000000E+00 -0.00000000000E+00 -0.45593999997E+02  0.45594000000E+02  0.51100000000E-03 0. -1.
    9900012    2    1    2    0    0  0.52108265597E+01 -0.40138737270E+02  0.38594120136E+01  0.50528855836E+02  0.29999987798E+02 0.  0.
        -12    1    1    2    0    0 -0.52108265597E+01  0.40138737270E+02 -0.38594120136E+01  0.40659144164E+02  0.00000000000E+00 0.  1.
         11    1    3    3    0    0  0.72097815450E+01 -0.73832955075E+01 -0.19270959040E+01  0.10497985586E+02  0.51100000000E-03 0. -1.
        -11    1    3    3    0    0 -0.70296990328E+01 -0.11469001520E+02 -0.65036795455E+01  0.14941636866E+02  0.51100000000E-03 0.  1.
         12    1    3    3    0    0  0.50307440476E+01 -0.21286440243E+02  0.12290187463E+02  0.25089233383E+02  0.00000000000E+00 0. -1.
</event>
<event>
 7    1  0.2974434E-011  0.5052886E+02  0.7816164E-02  0.1300439E+00
        -11   -1    0    0    0    0  0.00000000000E+00  0.00000000000E+00  0.45593999997E+02  0.45594000000E+02  0.51100000000E-03 0.  1.
         11   -1    0    0    0    0 -0.00000000000E+00 -0.00000000000E+00 -0.45593999997E+02  0.45594000000E+02  0.51100000000E-03 0. -1.
    9900012    2    1    2    0    0 -0.16759786326E+02 -0.10713709767E+02 -0.35461126262E+02  0.50528862153E+02  0.30000007001E+02 0.  0.
        -12    1    1    2    0    0  0.16759786326E+02  0.10713709767E+02  0.35461126262E+02  0.40659137847E+02  0.00000000000E+00 0.  1.
         11    1    3    3    0    0 -0.31003367756E+01  0.77766625730E+00 -0.24285909354E+01  0.40143376942E+01  0.51100000000E-03 0. -1.
        -11    1    3    3    0    0 -0.21031147477E+02 -0.13270813728E+02 -0.22501245058E+02  0.33536989886E+02  0.51100000000E-03 0.  1.
         12    1    3    3    0    0  0.73716979268E+01  0.17794377036E+01 -0.10531290268E+02  0.12977534573E+02  0.00000000000E+00 0. -1.
</event>
<event>
 7    1  0.2974434E-011  0.5052887E+02  0.7816164E-02  0.1300439E+00
        -11   -1    0    0    0    0  0.00000000000E+00  0.00000000000E+00  0.45593999997E+02  0.45594000000E+02  0.51100000000E-03 0. -1.
         11   -1    0    0    0    0 -0.00000000000E+00 -0.00000000000E+00 -0.45593999997E+02  0.45594000000E+02  0.51100000000E-03 0.  1.
    9900012    2    1    2    0    0 -0.29122256291E+02  0.14273400783E+02 -0.24522010209E+02  0.50528871061E+02  0.30000034078E+02 0.  0.
        -12    1    1    2    0    0  0.29122256291E+02 -0.14273400783E+02  0.24522010209E+02  0.40659128939E+02  0.00000000000E+00 0.  1.
         11    1    3    3    0    0  0.14205794252E+01  0.75387204643E+01 -0.94356341530E+01  0.12160655586E+02  0.51100000000E-03 0. -1.
        -11    1    3    3    0    0  0.11034987566E+01  0.34299252057E+00 -0.41078672816E+01  0.42673091333E+01  0.51100000000E-03 0.  1.
         12    1    3    3    0    0 -0.31646334473E+02  0.63916877981E+01 -0.10978508774E+02  0.34100906342E+02  0.00000000000E+00 0. -1.
</event>
<event>
 7    1  0.2974434E-011  0.5052885E+02  0.7816164E-02  0.1300439E+00
        -11   -1    0    0    0    0  0.00000000000E+00  0.00000000000E+00  0.45593999997E+02  0.45594000000E+02  0.51100000000E-03 0.  1.
         11   -1    0    0    0    0 -0.00000000000E+00 -0.00000000000E+00 -0.45593999997E+02  0.45594000000E+02  0.51100000000E-03 0. -1.
    9900012    2    1    2    0    0 -0.28646347417E+01  0.28183760221E+02 -0.29165669500E+02  0.50528846666E+02  0.29999959927E+02 0.  0.
        -12    1    1    2    0    0  0.28646347417E+01 -0.28183760221E+02  0.29165669500E+02  0.40659153334E+02  0.00000000000E+00 0.  1.
         11    1    3    3    0    0 -0.49255542480E+01  0.33200470054E+02 -0.26861204737E+02  0.42989029026E+02  0.51100000000E-03 0. -1.
        -11    1    3    3    0    0 -0.92965282170E+00  0.20319290148E+00  0.28049112088E+00  0.99207724201E+00  0.51100000000E-03 0.  1.
        -12    1    3    3    0    0  0.29905723280E+01 -0.52199027339E+01 -0.25849558841E+01  0.65477403983E+01  0.00000000000E+00 0.  1.
</event>
<event>
 7    1  0.2974434E-011  0.5052884E+02  0.7816164E-02  0.1300439E+00
        -11   -1    0    0    0    0  0.00000000000E+00  0.00000000000E+00  0.45593999997E+02  0.45594000000E+02  0.51100000000E-03 0. -1.
         11   -1    0    0    0    0 -0.00000000000E+00 -0.00000000000E+00 -0.45593999997E+02  0.45594000000E+02  0.51100000000E-03 0.  1.
    9900012    2    1    2    0    0  0.19568897435E+02 -0.13979738712E+02 -0.32784026199E+02  0.50528840944E+02  0.29999942534E+02 0.  0.
        -12    1    1    2    0    0 -0.19568897435E+02  0.13979738712E+02  0.32784026199E+02  0.40659159056E+02  0.00000000000E+00 0.  1.
         11    1    3    3    0    0  0.12441590958E+02 -0.81000936502E+00 -0.20326646671E+02  0.23845793463E+02  0.51100000000E-03 0. -1.
        -11    1    3    3    0    0 -0.48895489721E+01 -0.29163849328E+01 -0.87794485907E+01  0.10463828556E+02  0.51100000000E-03 0.  1.
        -12    1    3    3    0    0  0.12016855449E+02 -0.10253344414E+02 -0.36779309377E+01  0.16219218925E+02  0.00000000000E+00 0.  1.
</event>
<event>
 7    1  0.2974434E-011  0.5052885E+02  0.7816164E-02  0.1300439E+00
        -11   -1    0    0    0    0  0.00000000000E+00  0.00000000000E+00  0.45593999997E+02  0.45594000000E+02  0.51100000000E-03 0.  1.
         11   -1    0    0    0    0 -0.00000000000E+00 -0.00000000000E+00 -0.45593999997E+02  0.45594000000E+02  0.51100000000E-03 0. -1.
    9900012    2    1    2    0    0  0.40288579271E+02 -0.53832820159E+01  0.10087121418E+01  0.50528845494E+02  0.29999956363E+02 0.  0.
        -12    1    1    2    0    0 -0.40288579271E+02  0.53832820159E+01 -0.10087121418E+01  0.40659154506E+02  0.00000000000E+00 0.  1.
         11    1    3    3    0    0  0.21141633315E+02 -0.63328150635E+01  0.24816933353E+00  0.22071130332E+02  0.51100000000E-03 0.  1.
        -11    1    3    3    0    0  0.21672832256E+02 -0.46641966367E+01 -0.49768432796E+00  0.22174626901E+02  0.51100000000E-03 0. -1.
        -12    1    3    3    0    0 -0.25258862996E+01  0.56137296842E+01  0.12582271363E+01  0.62830882608E+01  0.00000000000E+00 0.  1.
</event>
<event>
 7    1  0.2974434E-011  0.5052887E+02  0.7816164E-02  0.1300439E+00
        -11   -1    0    0    0    0  0.00000000000E+00  0.00000000000E+00  0.45593999997E+02  0.45594000000E+02  0.51100000000E-03 0.  1.
         11   -1    0    0    0    0 -0.00000000000E+00 -0.00000000000E+00 -0.45593999997E+02  0.45594000000E+02  0.51100000000E-03 0. -1.
    9900012    2    1    2    0    0 -0.80531662624E+01  0.12780341514E+01 -0.39833130101E+02  0.50528866809E+02  0.30000021154E+02 0.  0.
        -12    1    1    2    0    0  0.80531662624E+01 -0.12780341514E+01  0.39833130101E+02  0.40659133191E+02  0.00000000000E+00 0.  1.
         11    1    3    3    0    0 -0.10130855125E+02 -0.73036882837E+01 -0.15534769334E+02  0.19932564979E+02  0.51100000000E-03 0. -1.
        -11    1    3    3    0    0 -0.45600068629E+01 -0.10040697049E+01 -0.13576509176E+01  0.48626160487E+01  0.51100000000E-03 0.  1.
         12    1    3    3    0    0  0.66376957258E+01  0.95857921400E+01 -0.22940709850E+02  0.25733685782E+02  0.00000000000E+00 0. -1.
</event>
<event>
 7    1  0.2974434E-011  0.5052886E+02  0.7816164E-02  0.1300439E+00
        -11   -1    0    0    0    0  0.00000000000E+00  0.00000000000E+00  0.45593999997E+02  0.45594000000E+02  0.51100000000E-03 0.  1.
         11   -1    0    0    0    0 -0.00000000000E+00 -0.00000000000E+00 -0.45593999997E+02  0.45594000000E+02  0.51100000000E-03 0. -1.
    9900012    2    1    2    0    0 -0.39086868464E+02 -0.72243679459E+01  0.85551740260E+01  0.50528858578E+02  0.29999996134E+02 0.  0.
        -12    1    1    2    0    0  0.39086868464E+02  0.72243679459E+01 -0.85551740260E+01  0.40659141422E+02  0.00000000000E+00 0.  1.
         11    1    3    3    0    0 -0.92491411623E+01 -0.27354096468E+01  0.50820690322E+01  0.10902133006E+02  0.51100000000E-03 0. -1.
        -11    1    3    3    0    0 -0.57981883325E+01 -0.81844937232E+01  0.10287782342E+02  0.14368138057E+02  0.51100000000E-03 0.  1.
         12    1    3    3    0    0 -0.24039538969E+02  0.36955354241E+01 -0.68146773478E+01  0.25258587515E+02  0.00000000000E+00 0. -1.
</event>
<event>
 7    1  0.2974434E-011  0.5052898E+02  0.7816164E-02  0.1300438E+00
        -11   -1    0    0    0    0  0.00000000000E+00  0.00000000000E+00  0.45593999997E+02  0.45594000000E+02  0.51100000000E-03 0.  1.
         11   -1    0    0    0    0 -0.00000000000E+00 -0.00000000000E+00 -0.45593999997E+02  0.45594000000E+02  0.51100000000E-03 0. -1.
    9900012    2    1    2    0    0 -0.33878954321E+02 -0.15478338383E+02 -0.16303182464E+02  0.50528975621E+02  0.30000351896E+02 0.  0.
        -12    1    1    2    0    0  0.33878954321E+02  0.15478338383E+02  0.16303182464E+02  0.40659024379E+02  0.00000000000E+00 0.  1.
         11    1    3    3    0    0 -0.30777816271E+02 -0.53107659748E+01 -0.16367110317E+02  0.35261317475E+02  0.51100000000E-03 0. -1.
        -11    1    3    3    0    0 -0.21235369224E+01  0.20820469566E+01 -0.14255799211E+00  0.29773564839E+01  0.51100000000E-03 0.  1.
        -12    1    3    3    0    0 -0.97760112708E+00 -0.12249619365E+02  0.20648584537E+00  0.12290301662E+02  0.00000000000E+00 0.  1.
</event>
<event>
 7    1  0.2974434E-011  0.5052886E+02  0.7816164E-02  0.1300439E+00
        -11   -1    0    0    0    0  0.00000000000E+00  0.00000000000E+00  0.45593999997E+02  0.45594000000E+02  0.51100000000E-03 0.  1.
         11   -1    0    0    0    0 -0.00000000000E+00 -0.00000000000E+00 -0.45593999997E+02  0.45594000000E+02  0.51100000000E-03 0. -1.
    9900012    2    1    2    0    0 -0.26327351683E+02  0.20205334821E+02 -0.23490012767E+02  0.50528859555E+02  0.29999999105E+02 0.  0.
        -12    1    1    2    0    0  0.26327351683E+02 -0.20205334821E+02  0.23490012767E+02  0.40659140445E+02  0.00000000000E+00 0.  1.
         11    1    3    3    0    0 -0.11710252057E+02  0.16715470608E+02 -0.55527462307E+01  0.21151121764E+02  0.51100000000E-03 0.  1.
        -11    1    3    3    0    0  0.15324572825E+01  0.28993031435E+01 -0.11540533329E+02  0.11997428633E+02  0.51100000000E-03 0. -1.
         12    1    3    3    0    0 -0.16149556908E+02  0.59056106958E+00 -0.63967332078E+01  0.17380309158E+02  0.00000000000E+00 0. -1.
</event>
<event>
 7    1  0.2974434E-011  0.5052886E+02  0.7816164E-02  0.1300439E+00
        -11   -1    0    0    0    0  0.00000000000E+00  0.00000000000E+00  0.45593999997E+02  0.45594000000E+02  0.51100000000E-03 0. -1.
         11   -1    0    0    0    0 -0.00000000000E+00 -0.00000000000E+00 -0.45593999997E+02  0.45594000000E+02  0.51100000000E-03 0.  1.
    9900012    2    1    2    0    0  0.35912014924E+02 -0.15533533157E+02  0.11054521931E+02  0.50528856829E+02  0.29999990819E+02 0.  0.
        -12    1    1    2    0    0 -0.35912014924E+02  0.15533533157E+02 -0.11054521931E+02  0.40659143171E+02  0.00000000000E+00 0.  1.
         11    1    3    3    0    0  0.17361613041E+02 -0.96627840592E+01  0.73154645293E+00  0.19882911347E+02  0.51100000000E-03 0. -1.
        -11    1    3    3    0    0  0.14990927015E+02 -0.71995257451E+01 -0.29060529778E+01  0.16882126877E+02  0.51100000000E-03 0.  1.
         12    1    3    3    0    0  0.35594748681E+01  0.13287766471E+01  0.13229028456E+02  0.13763818606E+02  0.00000000000E+00 0. -1.
</event>
<event>
 7    1  0.2974434E-011  0.5052886E+02  0.7816164E-02  0.1300439E+00
        -11   -1    0    0    0    0  0.00000000000E+00  0.00000000000E+00  0.45593999997E+02  0.45594000000E+02  0.51100000000E-03 0. -1.
         11   -1    0    0    0    0 -0.00000000000E+00 -0.00000000000E+00 -0.45593999997E+02  0.45594000000E+02  0.51100000000E-03 0.  1.
    9900012    2    1    2    0    0 -0.92293492326E+01  0.31810896850E+02  0.23580743453E+02  0.50528861944E+02  0.30000006363E+02 0.  0.
        -12    1    1    2    0    0  0.92293492326E+01 -0.31810896850E+02 -0.23580743453E+02  0.40659138056E+02  0.00000000000E+00 0.  1.
         11    1    3    3    0    0 -0.54774056282E-01  0.22275455553E+02  0.85286906242E+01  0.23852410451E+02  0.51100000000E-03 0. -1.
        -11    1    3    3    0    0  0.14406819913E+01  0.85354366170E+01  0.54593809641E+00  0.86733667920E+01  0.51100000000E-03 0.  1.
        -12    1    3    3    0    0 -0.10615257168E+02  0.10000046803E+01  0.14506114733E+02  0.18003084701E+02  0.00000000000E+00 0.  1.
</event>
<event>
 7    1  0.2974434E-011  0.5052886E+02  0.7816164E-02  0.1300439E+00
        -11   -1    0    0    0    0  0.00000000000E+00  0.00000000000E+00  0.45593999997E+02  0.45594000000E+02  0.51100000000E-03 0.  1.
         11   -1    0    0    0    0 -0.00000000000E+00 -0.00000000000E+00 -0.45593999997E+02  0.45594000000E+02  0.51100000000E-03 0. -1.
    9900012    2    1    2    0    0  0.57085627377E+01  0.37646642430E+02 -0.14258615024E+02  0.50528862316E+02  0.30000007497E+02 0.  0.
        -12    1    1    2    0    0 -0.57085627377E+01 -0.37646642430E+02  0.14258615024E+02  0.40659137684E+02  0.00000000000E+00 0.  1.
         11    1    3    3    0    0  0.35107777108E+01  0.65565844908E+01 -0.62159069994E+01  0.96928767869E+01  0.51100000000E-03 0. -1.
        -11    1    3    3    0    0  0.11473789099E+02  0.27673629080E+02 -0.77606334402E+01  0.30946809438E+02  0.51100000000E-03 0.  1.
        -12    1    3    3    0    0 -0.92760040721E+01  0.34164288591E+01 -0.28207458449E+00  0.98891760914E+01  0.00000000000E+00 0.  1.
</event>
<event>
 7    1  0.2974434E-011  0.5052886E+02  0.7816164E-02  0.1300439E+00
        -11   -1    0    0    0    0  0.00000000000E+00  0.00000000000E+00  0.45593999997E+02  0.45594000000E+02  0.51100000000E-03 0. -1.
         11   -1    0    0    0    0 -0.00000000000E+00 -0.00000000000E+00 -0.45593999997E+02  0.45594000000E+02  0.51100000000E-03 0.  1.
    9900012    2    1    2    0    0 -0.26902570936E+02  0.14669117706E+02  0.26725162461E+02  0.50528860243E+02  0.30000001195E+02 0.  0.
        -12    1    1    2    0    0  0.26902570936E+02 -0.14669117706E+02 -0.26725162461E+02  0.40659139757E+02  0.00000000000E+00 0.  1.
         11    1    3    3    0    0 -0.30979513674E+01  0.85052992054E+01  0.54823089050E+01  0.10582680589E+02  0.51100000000E-03 0.  1.
        -11    1    3    3    0    0 -0.12127361275E+02  0.10359744993E+02  0.72273548841E+00  0.15966200383E+02  0.51100000000E-03 0. -1.
         12    1    3    3    0    0 -0.11677258294E+02 -0.41959264929E+01  0.20520118067E+02  0.23979979272E+02  0.00000000000E+00 0. -1.
</event>
<event>
 7    1  0.2974434E-011  0.5052886E+02  0.7816164E-02  0.1300439E+00
        -11   -1    0    0    0    0  0.00000000000E+00  0.00000000000E+00  0.45593999997E+02  0.45594000000E+02  0.51100000000E-03 0. -1.
         11   -1    0    0    0    0 -0.00000000000E+00 -0.00000000000E+00 -0.45593999997E+02  0.45594000000E+02  0.51100000000E-03 0.  1.
    9900012    2    1    2    0    0  0.20758675068E+02  0.34889911754E+02  0.22219599525E+01  0.50528860329E+02  0.30000001455E+02 0.  0.
        -12    1    1    2    0    0 -0.20758675068E+02 -0.34889911754E+02 -0.22219599525E+01  0.40659139671E+02  0.00000000000E+00 0.  1.
         11    1    3    3    0    0 -0.11054401022E+01  0.84268553123E+01  0.98863906601E+01  0.13037431067E+02  0.51100000000E-03 0. -1.
        -11    1    3    3    0    0  0.72591283056E+00  0.32720288765E+01 -0.49731866313E+01  0.59971416472E+01  0.51100000000E-03 0.  1.
        -12    1    3    3    0    0  0.21138202340E+02  0.23191027565E+02 -0.26912440763E+01  0.31494287615E+02  0.00000000000E+00 0.  1.
</event>
<event>
 7    1  0.2974434E-011  0.5052886E+02  0.7816164E-02  0.1300439E+00
        -11   -1    0    0    0    0  0.00000000000E+00  0.00000000000E+00  0.45593999997E+02  0.45594000000E+02  0.51100000000E-03 0. -1.
         11   -1    0    0    0    0 -0.00000000000E+00 -0.00000000000E+00 -0.45593999997E+02  0.45594000000E+02  0.51100000000E-03 0.  1.
    9900012    2    1    2    0    0 -0.10014802001E+02  0.62946440725E+00  0.39401436596E+02  0.50528859694E+02  0.29999999526E+02 0.  0.
        -12    1    1    2    0    0  0.10014802001E+02 -0.62946440725E+00 -0.39401436596E+02  0.40659140306E+02  0.00000000000E+00 0.  1.
         11    1    3    3    0    0  0.84689243163E+01 -0.37945358856E+01  0.12343339705E+02  0.15442772322E+02  0.51100000000E-03 0. -1.
        -11    1    3    3    0    0  0.15072235305E+01 -0.44098774715E+00  0.33198505227E+01  0.36725468980E+01  0.51100000000E-03 0.  1.
         12    1    3    3    0    0 -0.19990949848E+02  0.48649880400E+01  0.23738246369E+02  0.31413540474E+02  0.00000000000E+00 0. -1.
</event>
<event>
 7    1  0.2974434E-011  0.5052886E+02  0.7816164E-02  0.1300439E+00
        -11   -1    0    0    0    0  0.00000000000E+00  0.00000000000E+00  0.45593999997E+02  0.45594000000E+02  0.51100000000E-03 0. -1.
         11   -1    0    0    0    0 -0.00000000000E+00 -0.00000000000E+00 -0.45593999997E+02  0.45594000000E+02  0.51100000000E-03 0.  1.
    9900012    2    1    2    0    0 -0.16296949180E+02 -0.37130338442E+02  0.29854417150E+01  0.50528862680E+02  0.30000008602E+02 0.  0.
        -12    1    1    2    0    0  0.16296949180E+02  0.37130338442E+02 -0.29854417150E+01  0.40659137320E+02  0.00000000000E+00 0.  1.
         11    1    3    3    0    0 -0.31615252379E+01 -0.52035522723E+01 -0.11132652442E+01  0.61896330946E+01  0.51100000000E-03 0. -1.
        -11    1    3    3    0    0 -0.12352657839E+02 -0.37123502539E+00  0.31790490806E+01  0.12760576964E+02  0.51100000000E-03 0.  1.
         12    1    3    3    0    0 -0.78276610324E+00 -0.31555551144E+02  0.91965787859E+00  0.31578652621E+02  0.00000000000E+00 0. -1.
</event>
<event>
 7    1  0.2974434E-011  0.5052886E+02  0.7816164E-02  0.1300439E+00
        -11   -1    0    0    0    0  0.00000000000E+00  0.00000000000E+00  0.45593999997E+02  0.45594000000E+02  0.51100000000E-03 0.  1.
         11   -1    0    0    0    0 -0.00000000000E+00 -0.00000000000E+00 -0.45593999997E+02  0.45594000000E+02  0.51100000000E-03 0. -1.
    9900012    2    1    2    0    0  0.12282681232E+02 -0.12703006634E+02 -0.36618779610E+02  0.50528860118E+02  0.30000000816E+02 0.  0.
        -12    1    1    2    0    0 -0.12282681232E+02  0.12703006634E+02  0.36618779610E+02  0.40659139882E+02  0.00000000000E+00 0.  1.
         11    1    3    3    0    0  0.15091400466E+02 -0.10343107607E+02 -0.26100682218E+02  0.31874376158E+02  0.51100000000E-03 0. -1.
        -11    1    3    3    0    0  0.23400590410E+01 -0.57576105729E+01  0.27697130107E+00  0.62211469351E+01  0.51100000000E-03 0.  1.
        -12    1    3    3    0    0 -0.51487782752E+01  0.33977115460E+01 -0.10795068694E+02  0.12433337025E+02  0.00000000000E+00 0.  1.
</event>
<event>
 7    1  0.2974434E-011  0.5052886E+02  0.7816164E-02  0.1300439E+00
        -11   -1    0    0    0    0  0.00000000000E+00  0.00000000000E+00  0.45593999997E+02  0.45594000000E+02  0.51100000000E-03 0. -1.
         11   -1    0    0    0    0 -0.00000000000E+00 -0.00000000000E+00 -0.45593999997E+02  0.45594000000E+02  0.51100000000E-03 0.  1.
    9900012    2    1    2    0    0 -0.22011382365E+02  0.29608084728E+02  0.17088768794E+02  0.50528860145E+02  0.30000000897E+02 0.  0.
        -12    1    1    2    0    0  0.22011382365E+02 -0.29608084728E+02 -0.17088768794E+02  0.40659139855E+02  0.00000000000E+00 0.  1.
         11    1    3    3    0    0 -0.96847364240E+01  0.20378776630E+02  0.10166124852E+02  0.24747499900E+02  0.51100000000E-03 0. -1.
        -11    1    3    3    0    0 -0.14723934356E+02  0.35496144264E+01  0.10706502046E+02  0.18547862190E+02  0.51100000000E-03 0.  1.
        -12    1    3    3    0    0  0.23972884155E+01  0.56796936719E+01 -0.37838581047E+01  0.72334980549E+01  0.00000000000E+00 0.  1.
</event>
<event>
 7    1  0.2974434E-011  0.5052886E+02  0.7816164E-02  0.1300439E+00
        -11   -1    0    0    0    0  0.00000000000E+00  0.00000000000E+00  0.45593999997E+02  0.45594000000E+02  0.51100000000E-03 0. -1.
         11   -1    0    0    0    0 -0.00000000000E+00 -0.00000000000E+00 -0.45593999997E+02  0.45594000000E+02  0.51100000000E-03 0.  1.
    9900012    2    1    2    0    0  0.18403864873E+02  0.18870754827E+01  0.36206387498E+02  0.50528858447E+02  0.29999995736E+02 0.  0.
        -12    1    1    2    0    0 -0.18403864873E+02 -0.18870754827E+01 -0.36206387498E+02  0.40659141553E+02  0.00000000000E+00 0.  1.
         11    1    3    3    0    0  0.71849590214E+01  0.22415873788E+01  0.17706174457E+02  0.19239463722E+02  0.51100000000E-03 0. -1.
        -11    1    3    3    0    0  0.26344197082E+00  0.89110946219E+01  0.13333282291E+02  0.16039121732E+02  0.51100000000E-03 0.  1.
         12    1    3    3    0    0  0.10955463881E+02 -0.92656065181E+01  0.51669307502E+01  0.15250272993E+02  0.00000000000E+00 0. -1.
</event>
<event>
 7    1  0.2974434E-011  0.5052886E+02  0.7816164E-02  0.1300439E+00
        -11   -1    0    0    0    0  0.00000000000E+00  0.00000000000E+00  0.45593999997E+02  0.45594000000E+02  0.51100000000E-03 0.  1.
         11   -1    0    0    0    0 -0.00000000000E+00 -0.00000000000E+00 -0.45593999997E+02  0.45594000000E+02  0.51100000000E-03 0. -1.
    9900012    2    1    2    0    0 -0.23651378772E+02  0.23199593017E+02 -0.23570250356E+02  0.50528861596E+02  0.30000005307E+02 0.  0.
        -12    1    1    2    0    0  0.23651378772E+02 -0.23199593017E+02  0.23570250356E+02  0.40659138404E+02  0.00000000000E+00 0.  1.
         11    1    3    3    0    0  0.31057860437E+01  0.15427941754E+02 -0.62015035708E+01  0.16915257624E+02  0.51100000000E-03 0. -1.
        -11    1    3    3    0    0 -0.12396829986E+01 -0.11967367792E+01 -0.85869253769E+00  0.19251872613E+01  0.51100000000E-03 0.  1.
         12    1    3    3    0    0 -0.25517481817E+02  0.89683880422E+01 -0.16510054247E+02  0.31688416710E+02  0.00000000000E+00 0. -1.
</event>
<event>
 7    1  0.2974434E-011  0.5052886E+02  0.7816164E-02  0.1300439E+00
        -11   -1    0    0    0    0  0.00000000000E+00  0.00000000000E+00  0.45593999997E+02  0.45594000000E+02  0.51100000000E-03 0.  1.
         11   -1    0    0    0    0 -0.00000000000E+00 -0.00000000000E+00 -0.45593999997E+02  0.45594000000E+02  0.51100000000E-03 0. -1.
    9900012    2    1    2    0    0  0.10452845268E+02  0.15299404030E+02 -0.36191597781E+02  0.50528862185E+02  0.30000007098E+02 0.  0.
        -12    1    1    2    0    0 -0.10452845268E+02 -0.15299404030E+02  0.36191597781E+02  0.40659137815E+02  0.00000000000E+00 0.  1.
         11    1    3    3    0    0  0.63965253048E+01  0.12007102908E+02 -0.48092478324E+01  0.14429654230E+02  0.51100000000E-03 0. -1.
        -11    1    3    3    0    0 -0.13230559440E+01 -0.32943717617E+01  0.35944711805E-01  0.35503034545E+01  0.51100000000E-03 0.  1.
         12    1    3    3    0    0  0.53793759076E+01  0.65866728841E+01 -0.31418294661E+02  0.32548904501E+02  0.00000000000E+00 0. -1.
</event>
<event>
 7    1  0.2974434E-011  0.5052887E+02  0.7816164E-02  0.1300439E+00
        -11   -1    0    0    0    0  0.00000000000E+00  0.00000000000E+00  0.45593999997E+02  0.45594000000E+02  0.51100000000E-03 0. -1.
         11   -1    0    0    0    0 -0.00000000000E+00 -0.00000000000E+00 -0.45593999997E+02  0.45594000000E+02  0.51100000000E-03 0.  1.
    9900012    2    1    2    0    0 -0.20153911109E+02 -0.51697198149E+01  0.34932204025E+02  0.50528868012E+02  0.30000024810E+02 0.  0.
        -12    1    1    2    0    0  0.20153911109E+02  0.51697198149E+01 -0.34932204025E+02  0.40659131988E+02  0.00000000000E+00 0.  1.
         11    1    3    3    0    0 -0.30696230425E+01  0.59293381453E+00 -0.11662276864E+01  0.33368013739E+01  0.51100000000E-03 0. -1.
        -11    1    3    3    0    0 -0.11010663141E+02  0.78443027062E+01  0.89197367243E+01  0.16196588877E+02  0.51100000000E-03 0.  1.
         12    1    3    3    0    0 -0.60736249250E+01 -0.13606956336E+02  0.27178694987E+02  0.30995477761E+02  0.00000000000E+00 0. -1.
</event>
<event>
 7    1  0.2974434E-011  0.5052886E+02  0.7816164E-02  0.1300439E+00
        -11   -1    0    0    0    0  0.00000000000E+00  0.00000000000E+00  0.45593999997E+02  0.45594000000E+02  0.51100000000E-03 0. -1.
         11   -1    0    0    0    0 -0.00000000000E+00 -0.00000000000E+00 -0.45593999997E+02  0.45594000000E+02  0.51100000000E-03 0.  1.
    9900012    2    1    2    0    0 -0.13818469039E+02 -0.17783894514E+02  0.33851863399E+02  0.50528860238E+02  0.30000001178E+02 0.  0.
        -12    1    1    2    0    0  0.13818469039E+02  0.17783894514E+02 -0.33851863399E+02  0.40659139762E+02  0.00000000000E+00 0.  1.
         11    1    3    3    0    0  0.54909919936E+01 -0.85532818484E+01  0.12626558478E+02  0.16209244360E+02  0.51100000000E-03 0. -1.
        -11    1    3    3    0    0 -0.26973536085E+00 -0.67481419928E+01  0.17627009141E+01  0.69797773814E+01  0.51100000000E-03 0.  1.
        -12    1    3    3    0    0 -0.19039725672E+02 -0.24824706723E+01  0.19462604007E+02  0.27339838496E+02  0.00000000000E+00 0.  1.
</event>
<event>
 7    1  0.2974434E-011  0.5052886E+02  0.7816164E-02  0.1300439E+00
        -11   -1    0    0    0    0  0.00000000000E+00  0.00000000000E+00  0.45593999997E+02  0.45594000000E+02  0.51100000000E-03 0.  1.
         11   -1    0    0    0    0 -0.00000000000E+00 -0.00000000000E+00 -0.45593999997E+02  0.45594000000E+02  0.51100000000E-03 0. -1.
    9900012    2    1    2    0    0  0.86880697276E+01  0.39676192020E+02  0.18663478721E+01  0.50528855602E+02  0.29999987087E+02 0.  0.
        -12    1    1    2    0    0 -0.86880697276E+01 -0.39676192020E+02 -0.18663478721E+01  0.40659144398E+02  0.00000000000E+00 0.  1.
         11    1    3    3    0    0  0.35740259422E+01  0.25055170931E+01 -0.57738035111E+01  0.72379613556E+01  0.51100000000E-03 0. -1.
        -11    1    3    3    0    0 -0.24580790127E+01  0.19494800839E+01 -0.43133273924E+01  0.53336121424E+01  0.51100000000E-03 0.  1.
        -12    1    3    3    0    0  0.75721227981E+01  0.35221194843E+02  0.11953478776E+02  0.37957282104E+02  0.00000000000E+00 0.  1.
</event>
<event>
 7    1  0.2974434E-011  0.5052887E+02  0.7816164E-02  0.1300439E+00
        -11   -1    0    0    0    0  0.00000000000E+00  0.00000000000E+00  0.45593999997E+02  0.45594000000E+02  0.51100000000E-03 0.  1.
         11   -1    0    0    0    0 -0.00000000000E+00 -0.00000000000E+00 -0.45593999997E+02  0.45594000000E+02  0.51100000000E-03 0. -1.
    9900012    2    1    2    0    0  0.27941450386E+01  0.15907237052E+02 -0.37313764407E+02  0.50528874931E+02  0.30000045842E+02 0.  0.
        -12    1    1    2    0    0 -0.27941450386E+01 -0.15907237052E+02  0.37313764407E+02  0.40659125069E+02  0.00000000000E+00 0.  1.
         11    1    3    3    0    0 -0.82173453995E+00  0.52717010521E+01 -0.24662570190E+01  0.58777975111E+01  0.51100000000E-03 0. -1.
        -11    1    3    3    0    0  0.28083172498E+01  0.17971954092E+02 -0.31863287593E+02  0.36689874300E+02  0.51100000000E-03 0.  1.
        -12    1    3    3    0    0  0.80756232874E+00 -0.73364180919E+01 -0.29842197945E+01  0.79612031199E+01  0.00000000000E+00 0.  1.
</event>
<event>
 7    1  0.2974434E-011  0.5052883E+02  0.7816164E-02  0.1300439E+00
        -11   -1    0    0    0    0  0.00000000000E+00  0.00000000000E+00  0.45593999997E+02  0.45594000000E+02  0.51100000000E-03 0.  1.
         11   -1    0    0    0    0 -0.00000000000E+00 -0.00000000000E+00 -0.45593999997E+02  0.45594000000E+02  0.51100000000E-03 0. -1.
    9900012    2    1    2    0    0  0.36180111495E+01 -0.11907846244E+02 -0.38707641337E+02  0.50528827545E+02  0.29999901806E+02 0.  0.
        -12    1    1    2    0    0 -0.36180111495E+01  0.11907846244E+02  0.38707641337E+02  0.40659172455E+02  0.00000000000E+00 0.  1.
         11    1    3    3    0    0 -0.16220109631E+01 -0.63277125285E+01 -0.68945950483E+01  0.94977000663E+01  0.51100000000E-03 0. -1.
        -11    1    3    3    0    0 -0.55060750702E+01 -0.14707042354E+01  0.14112236114E+01  0.58712337690E+01  0.51100000000E-03 0.  1.
         12    1    3    3    0    0  0.10746097183E+02 -0.41094294797E+01 -0.33224269900E+02  0.35159893710E+02  0.00000000000E+00 0. -1.
</event>
<event>
 7    1  0.2974434E-011  0.5052887E+02  0.7816164E-02  0.1300439E+00
        -11   -1    0    0    0    0  0.00000000000E+00  0.00000000000E+00  0.45593999997E+02  0.45594000000E+02  0.51100000000E-03 0. -1.
         11   -1    0    0    0    0 -0.00000000000E+00 -0.00000000000E+00 -0.45593999997E+02  0.45594000000E+02  0.51100000000E-03 0.  1.
    9900012    2    1    2    0    0  0.11481016300E+02 -0.13545380962E+02  0.36576961650E+02  0.50528865673E+02  0.30000017699E+02 0.  0.
        -12    1    1    2    0    0 -0.11481016300E+02  0.13545380962E+02 -0.36576961650E+02  0.40659134327E+02  0.00000000000E+00 0.  1.
         11    1    3    3    0    0  0.10346335173E+02 -0.83143417031E+01  0.17269929362E+02  0.21781308269E+02  0.51100000000E-03 0. -1.
        -11    1    3    3    0    0  0.10749453497E+02 -0.44750347282E+01  0.11021541656E+02  0.16032812200E+02  0.51100000000E-03 0.  1.
         12    1    3    3    0    0 -0.96147723700E+01 -0.75600453026E+00  0.82854906325E+01  0.12714745204E+02  0.00000000000E+00 0. -1.
</event>
<event>
 7    1  0.2974434E-011  0.5052888E+02  0.7816164E-02  0.1300439E+00
        -11   -1    0    0    0    0  0.00000000000E+00  0.00000000000E+00  0.45593999997E+02  0.45594000000E+02  0.51100000000E-03 0.  1.
         11   -1    0    0    0    0 -0.00000000000E+00 -0.00000000000E+00 -0.45593999997E+02  0.45594000000E+02  0.51100000000E-03 0. -1.
    9900012    2    1    2    0    0  0.36043666438E+01  0.11459840449E+02 -0.38843851580E+02  0.50528877929E+02  0.30000054952E+02 0.  0.
        -12    1    1    2    0    0 -0.36043666438E+01 -0.11459840449E+02  0.38843851580E+02  0.40659122071E+02  0.00000000000E+00 0.  1.
         11    1    3    3    0    0 -0.50617639607E+01 -0.50171765552E+01 -0.12995952926E+02  0.14821886105E+02  0.51100000000E-03 0. -1.
        -11    1    3    3    0    0  0.45307631925E+00 -0.22404065089E+01  0.52023793318E+00  0.23442156993E+01  0.51100000000E-03 0.  1.
         12    1    3    3    0    0  0.82130542852E+01  0.18717423513E+02 -0.26368136587E+02  0.33362776124E+02  0.00000000000E+00 0. -1.
</event>
<event>
 7    1  0.2974434E-011  0.5052886E+02  0.7816164E-02  0.1300439E+00
        -11   -1    0    0    0    0  0.00000000000E+00  0.00000000000E+00  0.45593999997E+02  0.45594000000E+02  0.51100000000E-03 0.  1.
         11   -1    0    0    0    0 -0.00000000000E+00 -0.00000000000E+00 -0.45593999997E+02  0.45594000000E+02  0.51100000000E-03 0. -1.
    9900012    2    1    2    0    0 -0.19818265060E+02 -0.30861417726E+01 -0.35367751624E+02  0.50528858888E+02  0.29999997075E+02 0.  0.
        -12    1    1    2    0    0  0.19818265060E+02  0.30861417726E+01  0.35367751624E+02  0.40659141112E+02  0.00000000000E+00 0.  1.
         11    1    3    3    0    0 -0.13362600309E+02 -0.11586630178E+02 -0.19579260205E+02  0.26384778119E+02  0.51100000000E-03 0. -1.
        -11    1    3    3    0    0  0.98155405601E+00  0.12981515902E+00 -0.12408198509E+02  0.12447637962E+02  0.51100000000E-03 0.  1.
        -12    1    3    3    0    0 -0.74372188064E+01  0.83706732468E+01 -0.33802929101E+01  0.11696442807E+02  0.00000000000E+00 0.  1.
</event>
<event>
 7    1  0.2974434E-011  0.5052887E+02  0.7816164E-02  0.1300439E+00
        -11   -1    0    0    0    0  0.00000000000E+00  0.00000000000E+00  0.45593999997E+02  0.45594000000E+02  0.51100000000E-03 0.  1.
         11   -1    0    0    0    0 -0.00000000000E+00 -0.00000000000E+00 -0.45593999997E+02  0.45594000000E+02  0.51100000000E-03 0. -1.
    9900012    2    1    2    0    0  0.12536269050E+02  0.28931811192E+02 -0.25670163635E+02  0.50528867673E+02  0.30000023779E+02 0.  0.
        -12    1    1    2    0    0 -0.12536269050E+02 -0.28931811192E+02  0.25670163635E+02  0.40659132327E+02  0.00000000000E+00 0.  1.
         11    1    3    3    0    0  0.42899686583E+01  0.10987472083E+02  0.70588693228E+00  0.11816372138E+02  0.51100000000E-03 0.  1.
        -11    1    3    3    0    0  0.14741798611E+02  0.13410510349E+02 -0.15446250551E+02  0.25214064933E+02  0.51100000000E-03 0. -1.
         12    1    3    3    0    0 -0.64954982191E+01  0.45338287597E+01 -0.10929800016E+02  0.13498430603E+02  0.00000000000E+00 0. -1.
</event>
<event>
 7    1  0.2974434E-011  0.5052886E+02  0.7816164E-02  0.1300439E+00
        -11   -1    0    0    0    0  0.00000000000E+00  0.00000000000E+00  0.45593999997E+02  0.45594000000E+02  0.51100000000E-03 0.  1.
         11   -1    0    0    0    0 -0.00000000000E+00 -0.00000000000E+00 -0.45593999997E+02  0.45594000000E+02  0.51100000000E-03 0. -1.
    9900012    2    1    2    0    0  0.34824588568E+02 -0.10310757228E+02  0.18278466547E+02  0.50528855606E+02  0.29999987100E+02 0.  0.
        -12    1    1    2    0    0 -0.34824588568E+02  0.10310757228E+02 -0.18278466547E+02  0.40659144394E+02  0.00000000000E+00 0.  1.
         11    1    3    3    0    0  0.13769537942E+02 -0.64284034978E+00  0.20604841974E+02  0.24790581516E+02  0.51100000000E-03 0. -1.
        -11    1    3    3    0    0 -0.12788498607E+01  0.42075549830E-01 -0.11831032383E+00  0.12849999658E+01  0.51100000000E-03 0.  1.
         12    1    3    3    0    0  0.22333900487E+02 -0.97099924278E+01 -0.22080651034E+01  0.24453274125E+02  0.00000000000E+00 0. -1.
</event>
<event>
 7    1  0.2974434E-011  0.5052887E+02  0.7816164E-02  0.1300439E+00
        -11   -1    0    0    0    0  0.00000000000E+00  0.00000000000E+00  0.45593999997E+02  0.45594000000E+02  0.51100000000E-03 0.  1.
         11   -1    0    0    0    0 -0.00000000000E+00 -0.00000000000E+00 -0.45593999997E+02  0.45594000000E+02  0.51100000000E-03 0. -1.
    9900012    2    1    2    0    0  0.24046331937E+02 -0.31904691590E+02 -0.75518076150E+01  0.50528865438E+02  0.30000016986E+02 0.  0.
        -12    1    1    2    0    0 -0.24046331937E+02  0.31904691590E+02  0.75518076150E+01  0.40659134562E+02  0.00000000000E+00 0.  1.
         11    1    3    3    0    0  0.59125727184E+01 -0.18447400156E+02 -0.15090892521E+01  0.19430451340E+02  0.51100000000E-03 0. -1.
        -11    1    3    3    0    0  0.11585277879E+02 -0.18585774353E+02 -0.62596283340E+01  0.22777897598E+02  0.51100000000E-03 0.  1.
        -12    1    3    3    0    0  0.65484813390E+01  0.51284829184E+01  0.21690997113E+00  0.83205165000E+01  0.00000000000E+00 0.  1.
</event>
<event>
 7    1  0.2974434E-011  0.5052888E+02  0.7816164E-02  0.1300439E+00
        -11   -1    0    0    0    0  0.00000000000E+00  0.00000000000E+00  0.45593999997E+02  0.45594000000E+02  0.51100000000E-03 0.  1.
         11   -1    0    0    0    0 -0.00000000000E+00 -0.00000000000E+00 -0.45593999997E+02  0.45594000000E+02  0.51100000000E-03 0. -1.
    9900012    2    1    2    0    0  0.32357214122E+02  0.22014004981E+02 -0.11025363012E+02  0.50528876170E+02  0.30000049606E+02 0.  0.
        -12    1    1    2    0    0 -0.32357214122E+02 -0.22014004981E+02  0.11025363012E+02  0.40659123830E+02  0.00000000000E+00 0.  1.
         11    1    3    3    0    0  0.84886986761E+01  0.53047665697E+01  0.42796930281E+01  0.10886428535E+02  0.51100000000E-03 0. -1.
        -11    1    3    3    0    0 -0.40578342213E+01  0.16018230414E+01 -0.40589621163E+01  0.59587775044E+01  0.51100000000E-03 0.  1.
         12    1    3    3    0    0  0.27926349668E+02  0.15107415370E+02 -0.11246093924E+02  0.33683670131E+02  0.00000000000E+00 0. -1.
</event>
<event>
 7    1  0.2974434E-011  0.5052886E+02  0.7816164E-02  0.1300439E+00
        -11   -1    0    0    0    0  0.00000000000E+00  0.00000000000E+00  0.45593999997E+02  0.45594000000E+02  0.51100000000E-03 0.  1.
         11   -1    0    0    0    0 -0.00000000000E+00 -0.00000000000E+00 -0.45593999997E+02  0.45594000000E+02  0.51100000000E-03 0. -1.
    9900012    2    1    2    0    0  0.87860391030E+01  0.20079594394E+02 -0.34245891855E+02  0.50528859538E+02  0.29999999053E+02 0.  0.
        -12    1    1    2    0    0 -0.87860391030E+01 -0.20079594394E+02  0.34245891855E+02  0.40659140462E+02  0.00000000000E+00 0.  1.
         11    1    3    3    0    0 -0.52538110668E+01  0.15829861524E+02 -0.16307336372E+02  0.23326299887E+02  0.51100000000E-03 0. -1.
        -11    1    3    3    0    0 -0.88988604229E+00  0.52338544269E+01 -0.31913860572E+01  0.61943582846E+01  0.51100000000E-03 0.  1.
         12    1    3    3    0    0  0.14929736212E+02 -0.98412155756E+00 -0.14747169426E+02  0.21008201367E+02  0.00000000000E+00 0. -1.
</event>
<event>
 7    1  0.2974434E-011  0.5052886E+02  0.7816164E-02  0.1300439E+00
        -11   -1    0    0    0    0  0.00000000000E+00  0.00000000000E+00  0.45593999997E+02  0.45594000000E+02  0.51100000000E-03 0.  1.
         11   -1    0    0    0    0 -0.00000000000E+00 -0.00000000000E+00 -0.45593999997E+02  0.45594000000E+02  0.51100000000E-03 0. -1.
    9900012    2    1    2    0    0  0.28163639099E+01 -0.39794780050E+02 -0.78491508538E+01  0.50528860880E+02  0.30000003130E+02 0.  0.
        -12    1    1    2    0    0 -0.28163639099E+01  0.39794780050E+02  0.78491508538E+01  0.40659139120E+02  0.00000000000E+00 0.  1.
         11    1    3    3    0    0  0.40396304993E+01 -0.33915229106E+02 -0.34471630544E+01  0.34328476710E+02  0.51100000000E-03 0. -1.
        -11    1    3    3    0    0  0.68513840354E+00 -0.67989367742E+01  0.37382339174E+01  0.77890531500E+01  0.51100000000E-03 0.  1.
        -12    1    3    3    0    0 -0.19084049929E+01  0.91938583015E+00 -0.81402217168E+01  0.84113310195E+01  0.00000000000E+00 0.  1.
</event>
<event>
 7    1  0.2974434E-011  0.5052884E+02  0.7816164E-02  0.1300439E+00
        -11   -1    0    0    0    0  0.00000000000E+00  0.00000000000E+00  0.45593999997E+02  0.45594000000E+02  0.51100000000E-03 0. -1.
         11   -1    0    0    0    0 -0.00000000000E+00 -0.00000000000E+00 -0.45593999997E+02  0.45594000000E+02  0.51100000000E-03 0.  1.
    9900012    2    1    2    0    0  0.38365485179E+02  0.96049226222E+01 -0.94340816320E+01  0.50528844969E+02  0.29999954769E+02 0.  0.
        -12    1    1    2    0    0 -0.38365485179E+02 -0.96049226222E+01  0.94340816320E+01  0.40659155031E+02  0.00000000000E+00 0.  1.
         11    1    3    3    0    0  0.31307691021E+02  0.38379125534E+01 -0.10545823834E+02  0.33258314606E+02  0.51100000000E-03 0. -1.
        -11    1    3    3    0    0  0.15942549878E+01 -0.44155068290E+01  0.29862188234E+01  0.55637984009E+01  0.51100000000E-03 0.  1.
        -12    1    3    3    0    0  0.54635391693E+01  0.10182516898E+02 -0.18744766214E+01  0.11706731962E+02  0.00000000000E+00 0.  1.
</event>
<event>
 7    1  0.2974434E-011  0.5052885E+02  0.7816164E-02  0.1300439E+00
        -11   -1    0    0    0    0  0.00000000000E+00  0.00000000000E+00  0.45593999997E+02  0.45594000000E+02  0.51100000000E-03 0. -1.
         11   -1    0    0    0    0 -0.00000000000E+00 -0.00000000000E+00 -0.45593999997E+02  0.45594000000E+02  0.51100000000E-03 0.  1.
    9900012    2    1    2    0    0 -0.15163045849E+02  0.14095297585E+02  0.34993873228E+02  0.50528849284E+02  0.29999967885E+02 0.  0.
        -12    1    1    2    0    0  0.15163045849E+02 -0.14095297585E+02 -0.34993873228E+02  0.40659150716E+02  0.00000000000E+00 0.  1.
         11    1    3    3    0    0 -0.76940111990E+01  0.80292961950E+01  0.16469805769E+02  0.19872642201E+02  0.51100000000E-03 0. -1.
        -11    1    3    3    0    0 -0.12949420334E+02  0.76023851037E+01  0.19773596980E+02  0.24828992811E+02  0.51100000000E-03 0.  1.
        -12    1    3    3    0    0  0.54803856831E+01 -0.15363837136E+01 -0.12495295211E+01  0.58272142722E+01  0.00000000000E+00 0.  1.
</event>
<event>
 7    1  0.2974434E-011  0.5052885E+02  0.7816164E-02  0.1300439E+00
        -11   -1    0    0    0    0  0.00000000000E+00  0.00000000000E+00  0.45593999997E+02  0.45594000000E+02  0.51100000000E-03 0. -1.
         11   -1    0    0    0    0 -0.00000000000E+00 -0.00000000000E+00 -0.45593999997E+02  0.45594000000E+02  0.51100000000E-03 0.  1.
    9900012    2    1    2    0    0  0.36531541343E+02 -0.17797582719E+02 -0.13633837476E+01  0.50528852459E+02  0.29999977535E+02 0.  0.
        -12    1    1    2    0    0 -0.36531541343E+02  0.17797582719E+02  0.13633837476E+01  0.40659147541E+02  0.00000000000E+00 0.  1.
         11    1    3    3    0    0  0.27549175627E+01 -0.23478969470E-01 -0.25964436401E+01  0.37857155039E+01  0.51100000000E-03 0. -1.
        -11    1    3    3    0    0  0.25903141158E+02 -0.22930198445E+02 -0.56905750566E+01  0.35059226565E+02  0.51100000000E-03 0.  1.
         12    1    3    3    0    0  0.78734826216E+01  0.51560946953E+01  0.69236349491E+01  0.11683910390E+02  0.00000000000E+00 0. -1.
</event>
<event>
 7    1  0.2974434E-011  0.5052885E+02  0.7816164E-02  0.1300439E+00
        -11   -1    0    0    0    0  0.00000000000E+00  0.00000000000E+00  0.45593999997E+02  0.45594000000E+02  0.51100000000E-03 0.  1.
         11   -1    0    0    0    0 -0.00000000000E+00 -0.00000000000E+00 -0.45593999997E+02  0.45594000000E+02  0.51100000000E-03 0. -1.
    9900012    2    1    2    0    0  0.15327510109E+02 -0.27398286185E+02 -0.25837326226E+02  0.50528854921E+02  0.29999985019E+02 0.  0.
        -12    1    1    2    0    0 -0.15327510109E+02  0.27398286185E+02  0.25837326226E+02  0.40659145079E+02  0.00000000000E+00 0.  1.
         11    1    3    3    0    0  0.10437766913E+02 -0.35731455860E+01 -0.33200330282E+01  0.11521153028E+02  0.51100000000E-03 0. -1.
        -11    1    3    3    0    0  0.71577555120E+01 -0.60469503698E+01 -0.18355107874E+02  0.20608470542E+02  0.51100000000E-03 0.  1.
         12    1    3    3    0    0 -0.22680123164E+01 -0.17778190229E+02 -0.41621853245E+01  0.18399231352E+02  0.00000000000E+00 0. -1.
</event>
<event>
 7    1  0.3151499E-011  0.5052885E+02  0.7816164E-02  0.1300439E+00
        -11   -1    0    0    0    0  0.00000000000E+00  0.00000000000E+00  0.45593999997E+02  0.45594000000E+02  0.51100000000E-03 0. -1.
         11   -1    0    0    0    0 -0.00000000000E+00 -0.00000000000E+00 -0.45593999997E+02  0.45594000000E+02  0.51100000000E-03 0.  1.
    9900012    2    1    2    0    0 -0.69576593003E+01 -0.76089593252E+00  0.40052192372E+02  0.50528854665E+02  0.29999984240E+02 0.  0.
        -12    1    1    2    0    0  0.69576593003E+01  0.76089593252E+00 -0.40052192372E+02  0.40659145335E+02  0.00000000000E+00 0.  1.
         11    1    3    3    0    0 -0.19632284265E+00  0.24520876529E+01  0.14876963765E+02  0.15078969714E+02  0.51100000000E-03 0. -1.
        -11    1    3    3    0    0  0.70672523566E+01 -0.53543402023E+01  0.17181020830E+02  0.19333972481E+02  0.51100000000E-03 0.  1.
        -12    1    3    3    0    0 -0.13828588814E+02  0.21413566169E+01  0.79942077769E+01  0.16115912470E+02  0.00000000000E+00 0.  1.
</event>
<event>
 7    1  0.2974434E-011  0.5052886E+02  0.7816164E-02  0.1300439E+00
        -11   -1    0    0    0    0  0.00000000000E+00  0.00000000000E+00  0.45593999997E+02  0.45594000000E+02  0.51100000000E-03 0.  1.
         11   -1    0    0    0    0 -0.00000000000E+00 -0.00000000000E+00 -0.45593999997E+02  0.45594000000E+02  0.51100000000E-03 0. -1.
    9900012    2    1    2    0    0 -0.29100131694E+02 -0.58356100312E+01 -0.27790178760E+02  0.50528855339E+02  0.29999986289E+02 0.  0.
        -12    1    1    2    0    0  0.29100131694E+02  0.58356100312E+01  0.27790178760E+02  0.40659144661E+02  0.00000000000E+00 0.  1.
         11    1    3    3    0    0 -0.13881230187E+01 -0.26474610935E+01 -0.56776513294E+01  0.64165146798E+01  0.51100000000E-03 0. -1.
        -11    1    3    3    0    0 -0.14445031770E+02 -0.14209942365E+02 -0.78463154909E+01  0.21728922474E+02  0.51100000000E-03 0.  1.
        -12    1    3    3    0    0 -0.13266976906E+02  0.11021793427E+02 -0.14266211939E+02  0.22383418185E+02  0.00000000000E+00 0.  1.
</event>
<event>
 7    1  0.2974434E-011  0.5052885E+02  0.7816164E-02  0.1300439E+00
        -11   -1    0    0    0    0  0.00000000000E+00  0.00000000000E+00  0.45593999997E+02  0.45594000000E+02  0.51100000000E-03 0.  1.
         11   -1    0    0    0    0 -0.00000000000E+00 -0.00000000000E+00 -0.45593999997E+02  0.45594000000E+02  0.51100000000E-03 0. -1.
    9900012    2    1    2    0    0  0.18134713079E+02  0.10071941358E+02 -0.34969335124E+02  0.50528853179E+02  0.29999979724E+02 0.  0.
        -12    1    1    2    0    0 -0.18134713079E+02 -0.10071941358E+02  0.34969335124E+02  0.40659146821E+02  0.00000000000E+00 0.  1.
         11    1    3    3    0    0 -0.11451791697E+01  0.58011323175E+01 -0.10493405174E+02  0.12044755037E+02  0.51100000000E-03 0. -1.
        -11    1    3    3    0    0  0.72940405765E+01  0.12873336397E+02 -0.14174986213E+02  0.20490389267E+02  0.51100000000E-03 0.  1.
         12    1    3    3    0    0  0.11985851672E+02 -0.86025273560E+01 -0.10300943737E+02  0.17993708875E+02  0.00000000000E+00 0. -1.
</event>
<event>
 7    1  0.2974434E-011  0.5052887E+02  0.7816164E-02  0.1300439E+00
        -11   -1    0    0    0    0  0.00000000000E+00  0.00000000000E+00  0.45593999997E+02  0.45594000000E+02  0.51100000000E-03 0.  1.
         11   -1    0    0    0    0 -0.00000000000E+00 -0.00000000000E+00 -0.45593999997E+02  0.45594000000E+02  0.51100000000E-03 0. -1.
    9900012    2    1    2    0    0 -0.29949066027E+02  0.22836871911E+02 -0.15319787523E+02  0.50528866164E+02  0.30000019191E+02 0.  0.
        -12    1    1    2    0    0  0.29949066027E+02 -0.22836871911E+02  0.15319787523E+02  0.40659133836E+02  0.00000000000E+00 0.  1.
         11    1    3    3    0    0 -0.26323465728E+02  0.11472188845E+02 -0.40654675503E+01  0.29001103281E+02  0.51100000000E-03 0. -1.
        -11    1    3    3    0    0 -0.61473788086E+01  0.66272890728E+01  0.22009833515E-01  0.90394530457E+01  0.51100000000E-03 0.  1.
        -12    1    3    3    0    0  0.25217785095E+01  0.47373939933E+01 -0.11276329806E+02  0.12488309837E+02  0.00000000000E+00 0.  1.
</event>
<event>
 7    1  0.2974434E-011  0.5052887E+02  0.7816164E-02  0.1300439E+00
        -11   -1    0    0    0    0  0.00000000000E+00  0.00000000000E+00  0.45593999997E+02  0.45594000000E+02  0.51100000000E-03 0.  1.
         11   -1    0    0    0    0 -0.00000000000E+00 -0.00000000000E+00 -0.45593999997E+02  0.45594000000E+02  0.51100000000E-03 0. -1.
    9900012    2    1    2    0    0 -0.33468726021E+02 -0.17761110340E+01 -0.23018566511E+02  0.50528873151E+02  0.30000040431E+02 0.  0.
        -12    1    1    2    0    0  0.33468726021E+02  0.17761110340E+01  0.23018566511E+02  0.40659126849E+02  0.00000000000E+00 0.  1.
         11    1    3    3    0    0 -0.93922681170E+00 -0.78042523830E+01 -0.13130322660E+01  0.79694765358E+01  0.51100000000E-03 0. -1.
        -11    1    3    3    0    0 -0.12831109636E+02  0.48120821378E+01 -0.67756245576E+00  0.13720517487E+02  0.51100000000E-03 0.  1.
         12    1    3    3    0    0 -0.19698389574E+02  0.12160592112E+01 -0.21027971789E+02  0.28838879128E+02  0.00000000000E+00 0. -1.
</event>
<event>
 7    1  0.2974434E-011  0.5052887E+02  0.7816164E-02  0.1300439E+00
        -11   -1    0    0    0    0  0.00000000000E+00  0.00000000000E+00  0.45593999997E+02  0.45594000000E+02  0.51100000000E-03 0.  1.
         11   -1    0    0    0    0 -0.00000000000E+00 -0.00000000000E+00 -0.45593999997E+02  0.45594000000E+02  0.51100000000E-03 0. -1.
    9900012    2    1    2    0    0 -0.65382787810E+01 -0.38855889596E+02 -0.10031734400E+02  0.50528868912E+02  0.30000027546E+02 0.  0.
        -12    1    1    2    0    0  0.65382787810E+01  0.38855889596E+02  0.10031734400E+02  0.40659131088E+02  0.00000000000E+00 0.  1.
         11    1    3    3    0    0  0.34467204264E+01 -0.22170441319E+01 -0.71563046942E+01  0.82466880333E+01  0.51100000000E-03 0. -1.
        -11    1    3    3    0    0 -0.14907184237E+01  0.15652267331E+01  0.18704978611E+01  0.28584853777E+01  0.51100000000E-03 0.  1.
         12    1    3    3    0    0 -0.84942807837E+01 -0.38204072198E+02 -0.47459275669E+01  0.39423695501E+02  0.00000000000E+00 0. -1.
</event>
<event>
 7    1  0.2974434E-011  0.5052886E+02  0.7816164E-02  0.1300439E+00
        -11   -1    0    0    0    0  0.00000000000E+00  0.00000000000E+00  0.45593999997E+02  0.45594000000E+02  0.51100000000E-03 0. -1.
         11   -1    0    0    0    0 -0.00000000000E+00 -0.00000000000E+00 -0.45593999997E+02  0.45594000000E+02  0.51100000000E-03 0.  1.
    9900012    2    1    2    0    0  0.17798622015E+02  0.30205882524E+02  0.20590768131E+02  0.50528855679E+02  0.29999987321E+02 0.  0.
        -12    1    1    2    0    0 -0.17798622015E+02 -0.30205882524E+02 -0.20590768131E+02  0.40659144321E+02  0.00000000000E+00 0.  1.
         11    1    3    3    0    0  0.37612646059E+01  0.49990402011E+01 -0.35807934419E+01  0.72083005141E+01  0.51100000000E-03 0. -1.
        -11    1    3    3    0    0  0.13893363941E+02  0.89941706106E+01  0.32744706425E+01  0.16871361083E+02  0.51100000000E-03 0.  1.
         12    1    3    3    0    0  0.14399346852E+00  0.16212671712E+02  0.20897090931E+02  0.26449194081E+02  0.00000000000E+00 0. -1.
</event>
<event>
 7    1  0.2974434E-011  0.5052886E+02  0.7816164E-02  0.1300439E+00
        -11   -1    0    0    0    0  0.00000000000E+00  0.00000000000E+00  0.45593999997E+02  0.45594000000E+02  0.51100000000E-03 0.  1.
         11   -1    0    0    0    0 -0.00000000000E+00 -0.00000000000E+00 -0.45593999997E+02  0.45594000000E+02  0.51100000000E-03 0. -1.
    9900012    2    1    2    0    0  0.19724255275E+02 -0.52126906171E+01 -0.35170259085E+02  0.50528861866E+02  0.30000006129E+02 0.  0.
        -12    1    1    2    0    0 -0.19724255275E+02  0.52126906171E+01  0.35170259085E+02  0.40659138134E+02  0.00000000000E+00 0.  1.
         11    1    3    3    0    0  0.23409997251E+01  0.30340385714E+01 -0.28835560780E+02  0.29089091349E+02  0.51100000000E-03 0. -1.
        -11    1    3    3    0    0  0.21737933245E+01 -0.28544793813E+01 -0.35814523374E+01  0.50695395315E+01  0.51100000000E-03 0.  1.
         12    1    3    3    0    0  0.15209462225E+02 -0.53922498073E+01 -0.27532459682E+01  0.16370230986E+02  0.00000000000E+00 0. -1.
</event>
<event>
 7    1  0.2974434E-011  0.5052886E+02  0.7816164E-02  0.1300439E+00
        -11   -1    0    0    0    0  0.00000000000E+00  0.00000000000E+00  0.45593999997E+02  0.45594000000E+02  0.51100000000E-03 0.  1.
         11   -1    0    0    0    0 -0.00000000000E+00 -0.00000000000E+00 -0.45593999997E+02  0.45594000000E+02  0.51100000000E-03 0. -1.
    9900012    2    1    2    0    0  0.26563473130E+02  0.28294507440E+02 -0.12123051188E+02  0.50528860485E+02  0.30000001931E+02 0.  0.
        -12    1    1    2    0    0 -0.26563473130E+02 -0.28294507440E+02  0.12123051188E+02  0.40659139515E+02  0.00000000000E+00 0.  1.
         11    1    3    3    0    0  0.73796696266E+01  0.15336656771E+02 -0.59033651431E+01  0.18014502074E+02  0.51100000000E-03 0. -1.
        -11    1    3    3    0    0 -0.62969459651E-01  0.12630543372E+02 -0.31959545109E+01  0.13028764965E+02  0.51100000000E-03 0.  1.
         12    1    3    3    0    0  0.19246772963E+02  0.32730729669E+00 -0.30237315339E+01  0.19485593446E+02  0.00000000000E+00 0. -1.
</event>
<event>
 7    1  0.2974434E-011  0.5052886E+02  0.7816164E-02  0.1300439E+00
        -11   -1    0    0    0    0  0.00000000000E+00  0.00000000000E+00  0.45593999997E+02  0.45594000000E+02  0.51100000000E-03 0. -1.
         11   -1    0    0    0    0 -0.00000000000E+00 -0.00000000000E+00 -0.45593999997E+02  0.45594000000E+02  0.51100000000E-03 0.  1.
    9900012    2    1    2    0    0  0.19334781533E+02 -0.35256626798E+02 -0.60251119558E+01  0.50528862230E+02  0.30000007234E+02 0.  0.
        -12    1    1    2    0    0 -0.19334781533E+02  0.35256626798E+02  0.60251119558E+01  0.40659137770E+02  0.00000000000E+00 0.  1.
         11    1    3    3    0    0  0.15754815658E+02 -0.24381226697E+02  0.38901232958E+00  0.29031186034E+02  0.51100000000E-03 0. -1.
        -11    1    3    3    0    0  0.10481251475E+02 -0.64828816734E+01 -0.34684654095E+01  0.12802915286E+02  0.51100000000E-03 0.  1.
         12    1    3    3    0    0 -0.69012855996E+01 -0.43925184277E+01 -0.29456588759E+01  0.86947609098E+01  0.00000000000E+00 0. -1.
</event>
<event>
 7    1  0.2974434E-011  0.5052884E+02  0.7816164E-02  0.1300439E+00
        -11   -1    0    0    0    0  0.00000000000E+00  0.00000000000E+00  0.45593999997E+02  0.45594000000E+02  0.51100000000E-03 0. -1.
         11   -1    0    0    0    0 -0.00000000000E+00 -0.00000000000E+00 -0.45593999997E+02  0.45594000000E+02  0.51100000000E-03 0.  1.
    9900012    2    1    2    0    0  0.94422011435E+01  0.21874229897E+02  0.32947386862E+02  0.50528838707E+02  0.29999935733E+02 0.  0.
        -12    1    1    2    0    0 -0.94422011435E+01 -0.21874229897E+02 -0.32947386862E+02  0.40659161293E+02  0.00000000000E+00 0.  1.
         11    1    3    3    0    0  0.57686314767E+01  0.78352160227E+01  0.55548492860E+01  0.11203752500E+02  0.51100000000E-03 0. -1.
        -11    1    3    3    0    0  0.39605718889E+00  0.14978155917E+02  0.37601116976E+01  0.15447991980E+02  0.51100000000E-03 0.  1.
        -12    1    3    3    0    0  0.32775124780E+01 -0.93914204202E+00  0.23632425878E+02  0.23877094227E+02  0.00000000000E+00 0.  1.
</event>
<event>
 7    1  0.2974434E-011  0.5052887E+02  0.7816164E-02  0.1300439E+00
        -11   -1    0    0    0    0  0.00000000000E+00  0.00000000000E+00  0.45593999997E+02  0.45594000000E+02  0.51100000000E-03 0.  1.
         11   -1    0    0    0    0 -0.00000000000E+00 -0.00000000000E+00 -0.45593999997E+02  0.45594000000E+02  0.51100000000E-03 0. -1.
    9900012    2    1    2    0    0 -0.39757384826E+01  0.38412699911E+02 -0.12720954588E+02  0.50528871916E+02  0.30000036675E+02 0.  0.
        -12    1    1    2    0    0  0.39757384826E+01 -0.38412699911E+02  0.12720954588E+02  0.40659128084E+02  0.00000000000E+00 0.  1.
         11    1    3    3    0    0  0.48142908144E+01  0.41212509294E+01 -0.37262392205E+01  0.73516640469E+01  0.51100000000E-03 0. -1.
        -11    1    3    3    0    0  0.35721422574E+01 -0.18454587206E+01 -0.12120537399E+01  0.41994038536E+01  0.51100000000E-03 0.  1.
         12    1    3    3    0    0 -0.12362171554E+02  0.36136907702E+02 -0.77826616273E+01  0.38977804015E+02  0.00000000000E+00 0. -1.
</event>
<event>
 7    1  0.2974434E-011  0.5052886E+02  0.7816164E-02  0.1300439E+00
        -11   -1    0    0    0    0  0.00000000000E+00  0.00000000000E+00  0.45593999997E+02  0.45594000000E+02  0.51100000000E-03 0.  1.
         11   -1    0    0    0    0 -0.00000000000E+00 -0.00000000000E+00 -0.45593999997E+02  0.45594000000E+02  0.51100000000E-03 0. -1.
    9900012    2    1    2    0    0 -0.31761151047E+02  0.19405504229E+02 -0.16365258863E+02  0.50528855791E+02  0.29999987661E+02 0.  0.
        -12    1    1    2    0    0  0.31761151047E+02 -0.19405504229E+02  0.16365258863E+02  0.40659144209E+02  0.00000000000E+00 0.  1.
         11    1    3    3    0    0 -0.64244545417E+01  0.13881379289E+02 -0.92948753895E+01  0.17898631677E+02  0.51100000000E-03 0. -1.
        -11    1    3    3    0    0 -0.38782795779E+01  0.80002081730E+01  0.21450298094E+01  0.91457933740E+01  0.51100000000E-03 0.  1.
        -12    1    3    3    0    0 -0.21458416927E+02 -0.24760832331E+01 -0.92154132829E+01  0.23484430740E+02  0.00000000000E+00 0.  1.
</event>
<event>
 7    1  0.2974434E-011  0.5052886E+02  0.7816164E-02  0.1300439E+00
        -11   -1    0    0    0    0  0.00000000000E+00  0.00000000000E+00  0.45593999997E+02  0.45594000000E+02  0.51100000000E-03 0. -1.
         11   -1    0    0    0    0 -0.00000000000E+00 -0.00000000000E+00 -0.45593999997E+02  0.45594000000E+02  0.51100000000E-03 0.  1.
    9900012    2    1    2    0    0  0.35044933457E+02 -0.12708277876E+02  0.16233237448E+02  0.50528859753E+02  0.29999999704E+02 0.  0.
        -12    1    1    2    0    0 -0.35044933457E+02  0.12708277876E+02 -0.16233237448E+02  0.40659140247E+02  0.00000000000E+00 0.  1.
         11    1    3    3    0    0  0.17234219980E+02 -0.92660694661E+01  0.19037453264E+02  0.27300238254E+02  0.51100000000E-03 0. -1.
        -11    1    3    3    0    0  0.76364008697E+01 -0.58153721108E+01  0.43787077177E+01  0.10550177845E+02  0.51100000000E-03 0.  1.
        -12    1    3    3    0    0  0.10174312608E+02  0.23731637010E+01 -0.71829235337E+01  0.12678443654E+02  0.00000000000E+00 0.  1.
</event>
<event>
 7    1  0.2974434E-011  0.5052879E+02  0.7816164E-02  0.1300439E+00
        -11   -1    0    0    0    0  0.00000000000E+00  0.00000000000E+00  0.45593999997E+02  0.45594000000E+02  0.51100000000E-03 0.  1.
         11   -1    0    0    0    0 -0.00000000000E+00 -0.00000000000E+00 -0.45593999997E+02  0.45594000000E+02  0.51100000000E-03 0. -1.
    9900012    2    1    2    0    0  0.26265085411E+01  0.24367114329E+02 -0.32442507004E+02  0.50528793557E+02  0.29999798496E+02 0.  0.
        -12    1    1    2    0    0 -0.26265085411E+01 -0.24367114329E+02  0.32442507004E+02  0.40659206443E+02  0.00000000000E+00 0.  1.
         11    1    3    3    0    0  0.66797958244E+01  0.25810794498E+01  0.14715211065E+01  0.73107467478E+01  0.51100000000E-03 0. -1.
        -11    1    3    3    0    0 -0.60650898128E+01  0.66662689082E+01 -0.44752776657E+01  0.10062433406E+02  0.51100000000E-03 0.  1.
         12    1    3    3    0    0  0.20118025295E+01  0.15119765971E+02 -0.29438750445E+02  0.33155613404E+02  0.00000000000E+00 0. -1.
</event>
<event>
 7    1  0.2974434E-011  0.5052886E+02  0.7816164E-02  0.1300439E+00
        -11   -1    0    0    0    0  0.00000000000E+00  0.00000000000E+00  0.45593999997E+02  0.45594000000E+02  0.51100000000E-03 0.  1.
         11   -1    0    0    0    0 -0.00000000000E+00 -0.00000000000E+00 -0.45593999997E+02  0.45594000000E+02  0.51100000000E-03 0. -1.
    9900012    2    1    2    0    0 -0.85481335006E+00  0.76381989968E+01 -0.39926093948E+02  0.50528858743E+02  0.29999996637E+02 0.  0.
        -12    1    1    2    0    0  0.85481335006E+00 -0.76381989968E+01  0.39926093948E+02  0.40659141257E+02  0.00000000000E+00 0.  1.
         11    1    3    3    0    0  0.86296955124E+01  0.60564039519E+01 -0.24560975580E+02  0.26728134899E+02  0.51100000000E-03 0. -1.
        -11    1    3    3    0    0 -0.14872302330E+01  0.72506283093E+01 -0.29155991335E+01  0.79551356503E+01  0.51100000000E-03 0.  1.
         12    1    3    3    0    0 -0.79972786295E+01 -0.56688332645E+01 -0.12449519235E+02  0.15845588195E+02  0.00000000000E+00 0. -1.
</event>
<event>
 7    1  0.3608440E-011  0.5052886E+02  0.7816164E-02  0.1300439E+00
        -11   -1    0    0    0    0  0.00000000000E+00  0.00000000000E+00  0.45593999997E+02  0.45594000000E+02  0.51100000000E-03 0.  1.
         11   -1    0    0    0    0 -0.00000000000E+00 -0.00000000000E+00 -0.45593999997E+02  0.45594000000E+02  0.51100000000E-03 0. -1.
    9900012    2    1    2    0    0 -0.36537953243E+02 -0.73403349838E+01 -0.16256174746E+02  0.50528858811E+02  0.29999996843E+02 0.  0.
        -12    1    1    2    0    0  0.36537953243E+02  0.73403349838E+01  0.16256174746E+02  0.40659141189E+02  0.00000000000E+00 0.  1.
         11    1    3    3    0    0 -0.12035660152E+02 -0.29166331305E+01 -0.17365390770E+02  0.21328869191E+02  0.51100000000E-03 0. -1.
        -11    1    3    3    0    0 -0.11293903033E+02  0.24470151636E+01 -0.56332777279E+01  0.12855891534E+02  0.51100000000E-03 0.  1.
        -12    1    3    3    0    0 -0.13208390058E+02 -0.68707170169E+01  0.67424937521E+01  0.16344098086E+02  0.00000000000E+00 0.  1.
</event>
<event>
 7    1  0.2974434E-011  0.5052884E+02  0.7816164E-02  0.1300439E+00
        -11   -1    0    0    0    0  0.00000000000E+00  0.00000000000E+00  0.45593999997E+02  0.45594000000E+02  0.51100000000E-03 0.  1.
         11   -1    0    0    0    0 -0.00000000000E+00 -0.00000000000E+00 -0.45593999997E+02  0.45594000000E+02  0.51100000000E-03 0. -1.
    9900012    2    1    2    0    0  0.23557094347E+02  0.54807546153E+01 -0.32683208797E+02  0.50528837411E+02  0.29999931793E+02 0.  0.
        -12    1    1    2    0    0 -0.23557094347E+02 -0.54807546153E+01  0.32683208797E+02  0.40659162589E+02  0.00000000000E+00 0.  1.
         11    1    3    3    0    0  0.38222040039E+00  0.19113617963E+01 -0.11981202630E+02  0.12138723700E+02  0.51100000000E-03 0. -1.
        -11    1    3    3    0    0 -0.44033943327E+01  0.14684664697E+01 -0.24080908355E+01  0.52292616261E+01  0.51100000000E-03 0.  1.
         12    1    3    3    0    0  0.27578268279E+02  0.21009263493E+01 -0.18293915331E+02  0.33160852084E+02  0.00000000000E+00 0. -1.
</event>
<event>
 7    1  0.2974434E-011  0.5052886E+02  0.7816164E-02  0.1300439E+00
        -11   -1    0    0    0    0  0.00000000000E+00  0.00000000000E+00  0.45593999997E+02  0.45594000000E+02  0.51100000000E-03 0. -1.
         11   -1    0    0    0    0 -0.00000000000E+00 -0.00000000000E+00 -0.45593999997E+02  0.45594000000E+02  0.51100000000E-03 0.  1.
    9900012    2    1    2    0    0  0.14447694926E+02  0.37875027406E+02  0.31483711133E+01  0.50528857973E+02  0.29999994296E+02 0.  0.
        -12    1    1    2    0    0 -0.14447694926E+02 -0.37875027406E+02 -0.31483711133E+01  0.40659142027E+02  0.00000000000E+00 0.  1.
         11    1    3    3    0    0 -0.15873801524E+01  0.14179730255E+01 -0.48975853081E+00  0.21840986537E+01  0.51100000000E-03 0. -1.
        -11    1    3    3    0    0  0.38461122304E+01  0.63873631316E+01 -0.10560940777E+02  0.12927662489E+02  0.51100000000E-03 0.  1.
         12    1    3    3    0    0  0.12188962848E+02  0.30069691249E+02  0.14199070421E+02  0.35417096831E+02  0.00000000000E+00 0. -1.
</event>
<event>
 7    1  0.2974434E-011  0.5052887E+02  0.7816164E-02  0.1300439E+00
        -11   -1    0    0    0    0  0.00000000000E+00  0.00000000000E+00  0.45593999997E+02  0.45594000000E+02  0.51100000000E-03 0.  1.
         11   -1    0    0    0    0 -0.00000000000E+00 -0.00000000000E+00 -0.45593999997E+02  0.45594000000E+02  0.51100000000E-03 0. -1.
    9900012    2    1    2    0    0 -0.13363414956E+02 -0.27294684964E+01 -0.38303187477E+02  0.50528867835E+02  0.30000024271E+02 0.  0.
        -12    1    1    2    0    0  0.13363414956E+02  0.27294684964E+01  0.38303187477E+02  0.40659132165E+02  0.00000000000E+00 0.  1.
         11    1    3    3    0    0 -0.12408681876E+02 -0.14611679215E+01 -0.13776761556E+02  0.18598643951E+02  0.51100000000E-03 0. -1.
        -11    1    3    3    0    0 -0.92482258137E+01  0.38338617714E+01 -0.82915299633E+01  0.12999140209E+02  0.51100000000E-03 0.  1.
         12    1    3    3    0    0  0.82934927339E+01 -0.51021623464E+01 -0.16234895958E+02  0.18931083675E+02  0.00000000000E+00 0. -1.
</event>
<event>
 7    1  0.2974434E-011  0.5052888E+02  0.7816164E-02  0.1300439E+00
        -11   -1    0    0    0    0  0.00000000000E+00  0.00000000000E+00  0.45593999997E+02  0.45594000000E+02  0.51100000000E-03 0.  1.
         11   -1    0    0    0    0 -0.00000000000E+00 -0.00000000000E+00 -0.45593999997E+02  0.45594000000E+02  0.51100000000E-03 0. -1.
    9900012    2    1    2    0    0 -0.35588299196E+02 -0.18905046127E+02 -0.54070423939E+01  0.50528881513E+02  0.30000065847E+02 0.  0.
        -12    1    1    2    0    0  0.35588299196E+02  0.18905046127E+02  0.54070423939E+01  0.40659118487E+02  0.00000000000E+00 0.  1.
         11    1    3    3    0    0 -0.22204698042E+02  0.11810893252E+01 -0.35655386279E+01  0.22520138834E+02  0.51100000000E-03 0. -1.
        -11    1    3    3    0    0 -0.19287487107E+01  0.72763784114E+00  0.31190553666E+01  0.37387210457E+01  0.51100000000E-03 0.  1.
        -12    1    3    3    0    0 -0.11454852443E+02 -0.20813773293E+02 -0.49605591327E+01  0.24270021633E+02  0.00000000000E+00 0.  1.
</event>
<event>
 7    1  0.2974434E-011  0.5052886E+02  0.7816164E-02  0.1300439E+00
        -11   -1    0    0    0    0  0.00000000000E+00  0.00000000000E+00  0.45593999997E+02  0.45594000000E+02  0.51100000000E-03 0.  1.
         11   -1    0    0    0    0 -0.00000000000E+00 -0.00000000000E+00 -0.45593999997E+02  0.45594000000E+02  0.51100000000E-03 0. -1.
    9900012    2    1    2    0    0 -0.33721975023E+02  0.21379056748E+02 -0.76765847636E+01  0.50528860553E+02  0.30000002138E+02 0.  0.
        -12    1    1    2    0    0  0.33721975023E+02 -0.21379056748E+02  0.76765847636E+01  0.40659139447E+02  0.00000000000E+00 0.  1.
         11    1    3    3    0    0 -0.11637676185E+02  0.50668389210E+01 -0.74885540955E+01  0.14737259119E+02  0.51100000000E-03 0. -1.
        -11    1    3    3    0    0 -0.89289888220E+01 -0.32394407036E+01 -0.63602662045E+01  0.11431264318E+02  0.51100000000E-03 0.  1.
        -12    1    3    3    0    0 -0.13155310016E+02  0.19551658530E+02  0.61722355364E+01  0.24360337116E+02  0.00000000000E+00 0.  1.
</event>
<event>
 7    1  0.2974434E-011  0.5052886E+02  0.7816164E-02  0.1300439E+00
        -11   -1    0    0    0    0  0.00000000000E+00  0.00000000000E+00  0.45593999997E+02  0.45594000000E+02  0.51100000000E-03 0.  1.
         11   -1    0    0    0    0 -0.00000000000E+00 -0.00000000000E+00 -0.45593999997E+02  0.45594000000E+02  0.51100000000E-03 0. -1.
    9900012    2    1    2    0    0 -0.14267697374E+02  0.36293781676E+02 -0.11504763831E+02  0.50528863665E+02  0.30000011595E+02 0.  0.
        -12    1    1    2    0    0  0.14267697374E+02 -0.36293781676E+02  0.11504763831E+02  0.40659136335E+02  0.00000000000E+00 0.  1.
         11    1    3    3    0    0 -0.19052488476E+02  0.21125640031E+02 -0.99322863758E+01  0.30132047670E+02  0.51100000000E-03 0.  1.
        -11    1    3    3    0    0 -0.38210365395E+01  0.88553508373E+01 -0.31084364502E+00  0.96495690433E+01  0.51100000000E-03 0. -1.
         12    1    3    3    0    0  0.86058276413E+01  0.63127908078E+01 -0.12616338099E+01  0.10747246952E+02  0.00000000000E+00 0. -1.
</event>
<event>
 7    1  0.2974434E-011  0.5052886E+02  0.7816164E-02  0.1300439E+00
        -11   -1    0    0    0    0  0.00000000000E+00  0.00000000000E+00  0.45593999997E+02  0.45594000000E+02  0.51100000000E-03 0. -1.
         11   -1    0    0    0    0 -0.00000000000E+00 -0.00000000000E+00 -0.45593999997E+02  0.45594000000E+02  0.51100000000E-03 0.  1.
    9900012    2    1    2    0    0  0.16419556542E+02  0.28977221071E+01  0.37083242663E+02  0.50528861828E+02  0.30000006013E+02 0.  0.
        -12    1    1    2    0    0 -0.16419556542E+02 -0.28977221071E+01 -0.37083242663E+02  0.40659138172E+02  0.00000000000E+00 0.  1.
         11    1    3    3    0    0  0.36076072882E+01 -0.11068380087E+01  0.99978302423E+01  0.10686277675E+02  0.51100000000E-03 0. -1.
        -11    1    3    3    0    0  0.13897553301E+01 -0.10593122918E+02  0.10047797223E+02  0.14666420911E+02  0.51100000000E-03 0.  1.
        -12    1    3    3    0    0  0.11422193924E+02  0.14597683034E+02  0.17037615198E+02  0.25176163243E+02  0.00000000000E+00 0.  1.
</event>
<event>
 7    1  0.2974434E-011  0.5052886E+02  0.7816164E-02  0.1300439E+00
        -11   -1    0    0    0    0  0.00000000000E+00  0.00000000000E+00  0.45593999997E+02  0.45594000000E+02  0.51100000000E-03 0.  1.
         11   -1    0    0    0    0 -0.00000000000E+00 -0.00000000000E+00 -0.45593999997E+02  0.45594000000E+02  0.51100000000E-03 0. -1.
    9900012    2    1    2    0    0 -0.14103761104E+02  0.17248424802E+02 -0.34010900267E+02  0.50528861145E+02  0.30000003938E+02 0.  0.
        -12    1    1    2    0    0  0.14103761104E+02 -0.17248424802E+02  0.34010900267E+02  0.40659138855E+02  0.00000000000E+00 0.  1.
         11    1    3    3    0    0 -0.16738087959E+02  0.42595448614E+00 -0.15572880091E+02  0.22866123859E+02  0.51100000000E-03 0. -1.
        -11    1    3    3    0    0 -0.15022834570E+01 -0.13038949974E+01 -0.12979744638E+01  0.23752338241E+01  0.51100000000E-03 0.  1.
        -12    1    3    3    0    0  0.41366103123E+01  0.18126365313E+02 -0.17140045712E+02  0.25287503462E+02  0.00000000000E+00 0.  1.
</event>
<event>
 7    1  0.2974434E-011  0.5052886E+02  0.7816164E-02  0.1300439E+00
        -11   -1    0    0    0    0  0.00000000000E+00  0.00000000000E+00  0.45593999997E+02  0.45594000000E+02  0.51100000000E-03 0.  1.
         11   -1    0    0    0    0 -0.00000000000E+00 -0.00000000000E+00 -0.45593999997E+02  0.45594000000E+02  0.51100000000E-03 0. -1.
    9900012    2    1    2    0    0  0.33802688952E+02  0.20054790169E+02 -0.10409086093E+02  0.50528862499E+02  0.30000008051E+02 0.  0.
        -12    1    1    2    0    0 -0.33802688952E+02 -0.20054790169E+02  0.10409086093E+02  0.40659137501E+02  0.00000000000E+00 0.  1.
         11    1    3    3    0    0  0.21505295135E+02  0.35096612760E+01 -0.16969840041E+02  0.27618307559E+02  0.51100000000E-03 0. -1.
        -11    1    3    3    0    0  0.52055958269E+01  0.42856781631E+01 -0.10630638733E+01  0.68260801556E+01  0.51100000000E-03 0.  1.
        -12    1    3    3    0    0  0.70917979895E+01  0.12259450730E+02  0.76238178215E+01  0.16084474784E+02  0.00000000000E+00 0.  1.
</event>
<event>
 7    1  0.2974434E-011  0.5052879E+02  0.7816164E-02  0.1300439E+00
        -11   -1    0    0    0    0  0.00000000000E+00  0.00000000000E+00  0.45593999997E+02  0.45594000000E+02  0.51100000000E-03 0.  1.
         11   -1    0    0    0    0 -0.00000000000E+00 -0.00000000000E+00 -0.45593999997E+02  0.45594000000E+02  0.51100000000E-03 0. -1.
    9900012    2    1    2    0    0 -0.26286964074E+02  0.63849042681E+01 -0.30354562788E+02  0.50528794833E+02  0.29999802374E+02 0.  0.
        -12    1    1    2    0    0  0.26286964074E+02 -0.63849042681E+01  0.30354562788E+02  0.40659205167E+02  0.00000000000E+00 0.  1.
         11    1    3    3    0    0 -0.11373350893E+02 -0.42892123711E+01 -0.70158008342E+01  0.14034668322E+02  0.51100000000E-03 0. -1.
        -11    1    3    3    0    0 -0.15472987682E+02  0.11460156653E+01 -0.58713241997E+01  0.16589127398E+02  0.51100000000E-03 0.  1.
         12    1    3    3    0    0  0.55937450070E+00  0.95281009739E+01 -0.17467437754E+02  0.19904999113E+02  0.00000000000E+00 0. -1.
</event>
<event>
 7    1  0.2974434E-011  0.5052885E+02  0.7816164E-02  0.1300439E+00
        -11   -1    0    0    0    0  0.00000000000E+00  0.00000000000E+00  0.45593999997E+02  0.45594000000E+02  0.51100000000E-03 0. -1.
         11   -1    0    0    0    0 -0.00000000000E+00 -0.00000000000E+00 -0.45593999997E+02  0.45594000000E+02  0.51100000000E-03 0.  1.
    9900012    2    1    2    0    0  0.26133697327E+02  0.31141353469E+02  0.64237909116E+00  0.50528847491E+02  0.29999962433E+02 0.  0.
        -12    1    1    2    0    0 -0.26133697327E+02 -0.31141353469E+02 -0.64237909116E+00  0.40659152509E+02  0.00000000000E+00 0.  1.
         11    1    3    3    0    0  0.99476797148E+01  0.23907411224E+02  0.18688130874E+01  0.25961762378E+02  0.51100000000E-03 0. -1.
        -11    1    3    3    0    0 -0.22860575801E+00  0.30731722655E-01  0.54378848330E+01  0.54427747289E+01  0.51100000000E-03 0.  1.
        -12    1    3    3    0    0  0.16414623370E+02  0.72032105222E+01 -0.66643188293E+01  0.19124310384E+02  0.00000000000E+00 0.  1.
</event>
<event>
 7    1  0.2974434E-011  0.5052886E+02  0.7816164E-02  0.1300439E+00
        -11   -1    0    0    0    0  0.00000000000E+00  0.00000000000E+00  0.45593999997E+02  0.45594000000E+02  0.51100000000E-03 0. -1.
         11   -1    0    0    0    0 -0.00000000000E+00 -0.00000000000E+00 -0.45593999997E+02  0.45594000000E+02  0.51100000000E-03 0.  1.
    9900012    2    1    2    0    0 -0.24186699622E+02 -0.23384611064E+02  0.22832634616E+02  0.50528859863E+02  0.30000000039E+02 0.  0.
        -12    1    1    2    0    0  0.24186699622E+02  0.23384611064E+02 -0.22832634616E+02  0.40659140137E+02  0.00000000000E+00 0.  1.
         11    1    3    3    0    0 -0.29026653507E+01 -0.38312780926E+01  0.86170229547E+01  0.98669773905E+01  0.51100000000E-03 0. -1.
        -11    1    3    3    0    0  0.25807770262E+01 -0.13217589304E+01 -0.44431516780E+01  0.53055681905E+01  0.51100000000E-03 0.  1.
         12    1    3    3    0    0 -0.23864811297E+02 -0.18231574041E+02  0.18658763339E+02  0.35356314282E+02  0.00000000000E+00 0. -1.
</event>
<event>
 7    1  0.2974434E-011  0.5052886E+02  0.7816164E-02  0.1300439E+00
        -11   -1    0    0    0    0  0.00000000000E+00  0.00000000000E+00  0.45593999997E+02  0.45594000000E+02  0.51100000000E-03 0.  1.
         11   -1    0    0    0    0 -0.00000000000E+00 -0.00000000000E+00 -0.45593999997E+02  0.45594000000E+02  0.51100000000E-03 0. -1.
    9900012    2    1    2    0    0  0.39634716006E+02 -0.42854682158E+01  0.79931035125E+01  0.50528860137E+02  0.30000000871E+02 0.  0.
        -12    1    1    2    0    0 -0.39634716006E+02  0.42854682158E+01 -0.79931035125E+01  0.40659139863E+02  0.00000000000E+00 0.  1.
         11    1    3    3    0    0  0.98321027417E+01  0.17179912412E+00  0.13595311987E+02  0.16778923313E+02  0.51100000000E-03 0. -1.
        -11    1    3    3    0    0  0.72385316344E+00  0.27938741776E+01 -0.21158621567E+01  0.35786267268E+01  0.51100000000E-03 0.  1.
        -12    1    3    3    0    0  0.29078760100E+02 -0.72511415174E+01 -0.34863463182E+01  0.30171310096E+02  0.00000000000E+00 0.  1.
</event>
<event>
 7    1  0.2974434E-011  0.5052885E+02  0.7816164E-02  0.1300439E+00
        -11   -1    0    0    0    0  0.00000000000E+00  0.00000000000E+00  0.45593999997E+02  0.45594000000E+02  0.51100000000E-03 0. -1.
         11   -1    0    0    0    0 -0.00000000000E+00 -0.00000000000E+00 -0.45593999997E+02  0.45594000000E+02  0.51100000000E-03 0.  1.
    9900012    2    1    2    0    0 -0.46287740143E+01  0.26318513863E+02  0.30644364269E+02  0.50528846267E+02  0.29999958714E+02 0.  0.
        -12    1    1    2    0    0  0.46287740143E+01 -0.26318513863E+02 -0.30644364269E+02  0.40659153733E+02  0.00000000000E+00 0.  1.
         11    1    3    3    0    0 -0.82825884850E+00  0.10689441218E+02 -0.37362408077E+01  0.11353839082E+02  0.51100000000E-03 0.  1.
        -11    1    3    3    0    0  0.32511168317E+01  0.62360331279E+01  0.13079324810E+02  0.14850138301E+02  0.51100000000E-03 0. -1.
        -12    1    3    3    0    0 -0.70516319975E+01  0.93930395170E+01  0.21301280267E+02  0.24324868884E+02  0.00000000000E+00 0.  1.
</event>
<event>
 7    1  0.2974434E-011  0.5052886E+02  0.7816164E-02  0.1300439E+00
        -11   -1    0    0    0    0  0.00000000000E+00  0.00000000000E+00  0.45593999997E+02  0.45594000000E+02  0.51100000000E-03 0.  1.
         11   -1    0    0    0    0 -0.00000000000E+00 -0.00000000000E+00 -0.45593999997E+02  0.45594000000E+02  0.51100000000E-03 0. -1.
    9900012    2    1    2    0    0 -0.40086805607E+02  0.67937144903E+01  0.24254398057E+00  0.50528863659E+02  0.30000011579E+02 0.  0.
        -12    1    1    2    0    0  0.40086805607E+02 -0.67937144903E+01 -0.24254398057E+00  0.40659136341E+02  0.00000000000E+00 0.  1.
         11    1    3    3    0    0 -0.33517693277E+01  0.80211701439E+01 -0.56065965737E+01  0.10344440705E+02  0.51100000000E-03 0. -1.
        -11    1    3    3    0    0 -0.70252304443E+01  0.35095891988E+01 -0.36159076325E+01  0.86455692356E+01  0.51100000000E-03 0.  1.
        -12    1    3    3    0    0 -0.29709805835E+02 -0.47370448524E+01  0.94650481867E+01  0.31538853719E+02  0.00000000000E+00 0.  1.
</event>
<event>
 7    1  0.2974434E-011  0.5052886E+02  0.7816164E-02  0.1300439E+00
        -11   -1    0    0    0    0  0.00000000000E+00  0.00000000000E+00  0.45593999997E+02  0.45594000000E+02  0.51100000000E-03 0.  1.
         11   -1    0    0    0    0 -0.00000000000E+00 -0.00000000000E+00 -0.45593999997E+02  0.45594000000E+02  0.51100000000E-03 0. -1.
    9900012    2    1    2    0    0 -0.40177115066E+01 -0.39307964057E+02 -0.95868406048E+01  0.50528861337E+02  0.30000004520E+02 0.  0.
        -12    1    1    2    0    0  0.40177115066E+01  0.39307964057E+02  0.95868406048E+01  0.40659138663E+02  0.00000000000E+00 0.  1.
         11    1    3    3    0    0  0.90016856943E+01 -0.16269636780E+02 -0.82595372223E+01  0.20345795185E+02  0.51100000000E-03 0. -1.
        -11    1    3    3    0    0 -0.28875328085E+01 -0.17675557419E+02  0.25305100880E+01  0.18087748819E+02  0.51100000000E-03 0.  1.
        -12    1    3    3    0    0 -0.10131864392E+02 -0.53627698577E+01 -0.38578134704E+01  0.12095317333E+02  0.00000000000E+00 0.  1.
</event>
<event>
 7    1  0.2974434E-011  0.5052887E+02  0.7816164E-02  0.1300439E+00
        -11   -1    0    0    0    0  0.00000000000E+00  0.00000000000E+00  0.45593999997E+02  0.45594000000E+02  0.51100000000E-03 0.  1.
         11   -1    0    0    0    0 -0.00000000000E+00 -0.00000000000E+00 -0.45593999997E+02  0.45594000000E+02  0.51100000000E-03 0. -1.
    9900012    2    1    2    0    0 -0.33971904806E+02 -0.19474215212E+02  0.10946675302E+02  0.50528867269E+02  0.30000022551E+02 0.  0.
        -12    1    1    2    0    0  0.33971904806E+02  0.19474215212E+02 -0.10946675302E+02  0.40659132731E+02  0.00000000000E+00 0.  1.
         11    1    3    3    0    0 -0.88102168114E+01 -0.11164158067E+02 -0.98021354752E+00  0.14255495939E+02  0.51100000000E-03 0. -1.
        -11    1    3    3    0    0 -0.11167192553E+02 -0.39903454170E+01 -0.58641010170E+01  0.13229388764E+02  0.51100000000E-03 0.  1.
        -12    1    3    3    0    0 -0.13994495442E+02 -0.43197117276E+01  0.17790989866E+02  0.23043982566E+02  0.00000000000E+00 0.  1.
</event>
<event>
 7    1  0.2974434E-011  0.5052886E+02  0.7816164E-02  0.1300439E+00
        -11   -1    0    0    0    0  0.00000000000E+00  0.00000000000E+00  0.45593999997E+02  0.45594000000E+02  0.51100000000E-03 0.  1.
         11   -1    0    0    0    0 -0.00000000000E+00 -0.00000000000E+00 -0.45593999997E+02  0.45594000000E+02  0.51100000000E-03 0. -1.
    9900012    2    1    2    0    0 -0.22017163107E+02 -0.14187770539E+02 -0.31098508107E+02  0.50528861905E+02  0.30000006245E+02 0.  0.
        -12    1    1    2    0    0  0.22017163107E+02  0.14187770539E+02  0.31098508107E+02  0.40659138095E+02  0.00000000000E+00 0.  1.
         11    1    3    3    0    0 -0.46992324811E+01 -0.12586149707E+01 -0.89185437579E+01  0.10159100382E+02  0.51100000000E-03 0. -1.
        -11    1    3    3    0    0 -0.21926862932E+02 -0.35870618131E+01 -0.19623562578E+02  0.29643524403E+02  0.51100000000E-03 0.  1.
        -12    1    3    3    0    0  0.46089323056E+01 -0.93420937556E+01 -0.25564017709E+01  0.10726237120E+02  0.00000000000E+00 0.  1.
</event>
<event>
 7    1  0.2974434E-011  0.5052886E+02  0.7816164E-02  0.1300439E+00
        -11   -1    0    0    0    0  0.00000000000E+00  0.00000000000E+00  0.45593999997E+02  0.45594000000E+02  0.51100000000E-03 0.  1.
         11   -1    0    0    0    0 -0.00000000000E+00 -0.00000000000E+00 -0.45593999997E+02  0.45594000000E+02  0.51100000000E-03 0. -1.
    9900012    2    1    2    0    0 -0.73900085798E+01 -0.31264274900E+02 -0.24921852139E+02  0.50528858029E+02  0.29999994464E+02 0.  0.
        -12    1    1    2    0    0  0.73900085798E+01  0.31264274900E+02  0.24921852139E+02  0.40659141971E+02  0.00000000000E+00 0.  1.
         11    1    3    3    0    0 -0.27931393732E+01 -0.81374507661E+01 -0.11236765524E+02  0.14152195315E+02  0.51100000000E-03 0. -1.
        -11    1    3    3    0    0  0.35313779386E+00 -0.23438693696E+02 -0.18194103469E+02  0.29673598868E+02  0.51100000000E-03 0.  1.
        -12    1    3    3    0    0 -0.49500070004E+01  0.31186956250E+00  0.45090168540E+01  0.67030638455E+01  0.00000000000E+00 0.  1.
</event>
<event>
 7    1  0.2974434E-011  0.5052886E+02  0.7816164E-02  0.1300439E+00
        -11   -1    0    0    0    0  0.00000000000E+00  0.00000000000E+00  0.45593999997E+02  0.45594000000E+02  0.51100000000E-03 0. -1.
         11   -1    0    0    0    0 -0.00000000000E+00 -0.00000000000E+00 -0.45593999997E+02  0.45594000000E+02  0.51100000000E-03 0.  1.
    9900012    2    1    2    0    0 -0.19162713209E+02  0.30721430753E+02  0.18497281892E+02  0.50528864219E+02  0.30000013280E+02 0.  0.
        -12    1    1    2    0    0  0.19162713209E+02 -0.30721430753E+02 -0.18497281892E+02  0.40659135781E+02  0.00000000000E+00 0.  1.
         11    1    3    3    0    0 -0.12540094635E+02  0.32579672909E+02  0.10609015550E+02  0.36486165481E+02  0.51100000000E-03 0. -1.
        -11    1    3    3    0    0 -0.51772080348E+00  0.88773994441E+00  0.72453327493E+01  0.73178524137E+01  0.51100000000E-03 0.  1.
        -12    1    3    3    0    0 -0.61048977704E+01 -0.27459820999E+01  0.64293359326E+00  0.67248463243E+01  0.00000000000E+00 0.  1.
</event>
<event>
 7    1  0.2974434E-011  0.5052887E+02  0.7816164E-02  0.1300439E+00
        -11   -1    0    0    0    0  0.00000000000E+00  0.00000000000E+00  0.45593999997E+02  0.45594000000E+02  0.51100000000E-03 0.  1.
         11   -1    0    0    0    0 -0.00000000000E+00 -0.00000000000E+00 -0.45593999997E+02  0.45594000000E+02  0.51100000000E-03 0. -1.
    9900012    2    1    2    0    0  0.16216445857E+02  0.37227376250E+02  0.20771067982E+01  0.50528867799E+02  0.30000024162E+02 0.  0.
        -12    1    1    2    0    0 -0.16216445857E+02 -0.37227376250E+02 -0.20771067982E+01  0.40659132201E+02  0.00000000000E+00 0.  1.
         11    1    3    3    0    0  0.48285423088E+01  0.21967112346E+01 -0.67224320152E+01  0.85633786285E+01  0.51100000000E-03 0. -1.
        -11    1    3    3    0    0  0.47351979231E+01  0.11223414363E+02 -0.55466475346E+01  0.13384783467E+02  0.51100000000E-03 0.  1.
        -12    1    3    3    0    0  0.66527056254E+01  0.23807250653E+02  0.14346186348E+02  0.28580705704E+02  0.00000000000E+00 0.  1.
</event>
<event>
 7    1  0.2974434E-011  0.5052887E+02  0.7816164E-02  0.1300439E+00
        -11   -1    0    0    0    0  0.00000000000E+00  0.00000000000E+00  0.45593999997E+02  0.45594000000E+02  0.51100000000E-03 0.  1.
         11   -1    0    0    0    0 -0.00000000000E+00 -0.00000000000E+00 -0.45593999997E+02  0.45594000000E+02  0.51100000000E-03 0. -1.
    9900012    2    1    2    0    0  0.33775802302E+01  0.38540527180E+02 -0.12505369090E+02  0.50528873846E+02  0.30000042543E+02 0.  0.
        -12    1    1    2    0    0 -0.33775802302E+01 -0.38540527180E+02  0.12505369090E+02  0.40659126154E+02  0.00000000000E+00 0.  1.
         11    1    3    3    0    0 -0.67199840694E+01  0.19777965470E+02 -0.79200853733E+01  0.22339513348E+02  0.51100000000E-03 0. -1.
        -11    1    3    3    0    0  0.10413922422E+02  0.13110716006E+02  0.46323094644E+01  0.17372361544E+02  0.51100000000E-03 0.  1.
         12    1    3    3    0    0 -0.31635812222E+00  0.56518457041E+01 -0.92175931811E+01  0.10816998954E+02  0.00000000000E+00 0. -1.
</event>
<event>
 7    1  0.2974434E-011  0.5052887E+02  0.7816164E-02  0.1300439E+00
        -11   -1    0    0    0    0  0.00000000000E+00  0.00000000000E+00  0.45593999997E+02  0.45594000000E+02  0.51100000000E-03 0.  1.
         11   -1    0    0    0    0 -0.00000000000E+00 -0.00000000000E+00 -0.45593999997E+02  0.45594000000E+02  0.51100000000E-03 0. -1.
    9900012    2    1    2    0    0 -0.74916188603E+01 -0.28967195792E+02 -0.27530754647E+02  0.50528865275E+02  0.30000016490E+02 0.  0.
        -12    1    1    2    0    0  0.74916188603E+01  0.28967195792E+02  0.27530754647E+02  0.40659134725E+02  0.00000000000E+00 0.  1.
         11    1    3    3    0    0  0.13470201374E+01 -0.83493513875E-01  0.37346143651E+01  0.39709922103E+01  0.51100000000E-03 0. -1.
        -11    1    3    3    0    0  0.18044836257E+01  0.51882329399E+00  0.54188308816E+00  0.19542201279E+01  0.51100000000E-03 0.  1.
         12    1    3    3    0    0 -0.10643122623E+02 -0.29402525572E+02 -0.31807252100E+02  0.44603652937E+02  0.00000000000E+00 0. -1.
</event>
<event>
 7    1  0.2974434E-011  0.5052886E+02  0.7816164E-02  0.1300439E+00
        -11   -1    0    0    0    0  0.00000000000E+00  0.00000000000E+00  0.45593999997E+02  0.45594000000E+02  0.51100000000E-03 0. -1.
         11   -1    0    0    0    0 -0.00000000000E+00 -0.00000000000E+00 -0.45593999997E+02  0.45594000000E+02  0.51100000000E-03 0.  1.
    9900012    2    1    2    0    0 -0.19811835476E+02  0.14722916648E+02  0.32309328088E+02  0.50528858580E+02  0.29999996139E+02 0.  0.
        -12    1    1    2    0    0  0.19811835476E+02 -0.14722916648E+02 -0.32309328088E+02  0.40659141420E+02  0.00000000000E+00 0.  1.
         11    1    3    3    0    0 -0.90205455247E+01  0.70208410528E+01  0.57415613993E+01  0.12791715218E+02  0.51100000000E-03 0. -1.
        -11    1    3    3    0    0 -0.47996111343E+01  0.13813589199E+02  0.25106089805E+02  0.29054556599E+02  0.51100000000E-03 0.  1.
        -12    1    3    3    0    0 -0.59916788175E+01 -0.61115136042E+01  0.14616768834E+01  0.86825867630E+01  0.00000000000E+00 0.  1.
</event>
<event>
 7    1  0.2974434E-011  0.5052886E+02  0.7816164E-02  0.1300439E+00
        -11   -1    0    0    0    0  0.00000000000E+00  0.00000000000E+00  0.45593999997E+02  0.45594000000E+02  0.51100000000E-03 0.  1.
         11   -1    0    0    0    0 -0.00000000000E+00 -0.00000000000E+00 -0.45593999997E+02  0.45594000000E+02  0.51100000000E-03 0. -1.
    9900012    2    1    2    0    0  0.33708261723E+02 -0.69872021450E+01 -0.21635561708E+02  0.50528862864E+02  0.30000009163E+02 0.  0.
        -12    1    1    2    0    0 -0.33708261723E+02  0.69872021450E+01  0.21635561708E+02  0.40659137136E+02  0.00000000000E+00 0.  1.
         11    1    3    3    0    0  0.31244031856E+02 -0.68736570036E+00 -0.22143906596E+02  0.38301626568E+02  0.51100000000E-03 0. -1.
        -11    1    3    3    0    0  0.21820283238E+01 -0.19190538985E+01 -0.46316651209E+01  0.54677543402E+01  0.51100000000E-03 0.  1.
        -12    1    3    3    0    0  0.28220154309E+00 -0.43807825461E+01  0.51400100082E+01  0.67594819558E+01  0.00000000000E+00 0.  1.
</event>
<event>
 7    1  0.2974434E-011  0.5052884E+02  0.7816164E-02  0.1300439E+00
        -11   -1    0    0    0    0  0.00000000000E+00  0.00000000000E+00  0.45593999997E+02  0.45594000000E+02  0.51100000000E-03 0.  1.
         11   -1    0    0    0    0 -0.00000000000E+00 -0.00000000000E+00 -0.45593999997E+02  0.45594000000E+02  0.51100000000E-03 0. -1.
    9900012    2    1    2    0    0  0.17522757190E+02 -0.11612580232E+02 -0.34803274892E+02  0.50528843806E+02  0.29999951232E+02 0.  0.
        -12    1    1    2    0    0 -0.17522757190E+02  0.11612580232E+02  0.34803274892E+02  0.40659156194E+02  0.00000000000E+00 0.  1.
         11    1    3    3    0    0  0.35986557592E+01 -0.53758795935E+00 -0.12829157415E+02  0.13335164203E+02  0.51100000000E-03 0. -1.
        -11    1    3    3    0    0  0.14160931718E+02  0.24039540443E+01 -0.18217776817E+02  0.23199102883E+02  0.51100000000E-03 0.  1.
        -12    1    3    3    0    0 -0.23683028727E+00 -0.13478946317E+02 -0.37563406606E+01  0.13994576720E+02  0.00000000000E+00 0.  1.
</event>
<event>
 7    1  0.2974434E-011  0.5052887E+02  0.7816164E-02  0.1300439E+00
        -11   -1    0    0    0    0  0.00000000000E+00  0.00000000000E+00  0.45593999997E+02  0.45594000000E+02  0.51100000000E-03 0.  1.
         11   -1    0    0    0    0 -0.00000000000E+00 -0.00000000000E+00 -0.45593999997E+02  0.45594000000E+02  0.51100000000E-03 0. -1.
    9900012    2    1    2    0    0 -0.29232971865E+02 -0.17488908853E+01 -0.28205314627E+02  0.50528867734E+02  0.30000023964E+02 0.  0.
        -12    1    1    2    0    0  0.29232971865E+02  0.17488908853E+01  0.28205314627E+02  0.40659132266E+02  0.00000000000E+00 0.  1.
         11    1    3    3    0    0 -0.67282732003E+01 -0.65256905607E+01 -0.17471216208E+02  0.19826691443E+02  0.51100000000E-03 0. -1.
        -11    1    3    3    0    0  0.50155748063E+00 -0.28420818402E+01  0.18166050950E+01  0.34101383293E+01  0.51100000000E-03 0.  1.
         12    1    3    3    0    0 -0.23006256145E+02  0.76188815155E+01 -0.12550703515E+02  0.27292037961E+02  0.00000000000E+00 0. -1.
</event>
<event>
 7    1  0.2974434E-011  0.5052886E+02  0.7816164E-02  0.1300439E+00
        -11   -1    0    0    0    0  0.00000000000E+00  0.00000000000E+00  0.45593999997E+02  0.45594000000E+02  0.51100000000E-03 0.  1.
         11   -1    0    0    0    0 -0.00000000000E+00 -0.00000000000E+00 -0.45593999997E+02  0.45594000000E+02  0.51100000000E-03 0. -1.
    9900012    2    1    2    0    0  0.39336768273E+02 -0.53372937861E+01 -0.87919188406E+01  0.50528857363E+02  0.29999992440E+02 0.  0.
        -12    1    1    2    0    0 -0.39336768273E+02  0.53372937861E+01  0.87919188406E+01  0.40659142637E+02  0.00000000000E+00 0.  1.
         11    1    3    3    0    0  0.33107407318E+02 -0.79807591987E+01  0.59852554735E+00  0.34060991909E+02  0.51100000000E-03 0.  1.
        -11    1    3    3    0    0  0.94285132965E+01  0.37070953434E+01 -0.65976366481E+01  0.12090005313E+02  0.51100000000E-03 0. -1.
        -12    1    3    3    0    0 -0.31991523424E+01 -0.10636299308E+01 -0.27928077399E+01  0.43778601407E+01  0.00000000000E+00 0.  1.
</event>
<event>
 7    1  0.2974434E-011  0.5052884E+02  0.7816164E-02  0.1300439E+00
        -11   -1    0    0    0    0  0.00000000000E+00  0.00000000000E+00  0.45593999997E+02  0.45594000000E+02  0.51100000000E-03 0.  1.
         11   -1    0    0    0    0 -0.00000000000E+00 -0.00000000000E+00 -0.45593999997E+02  0.45594000000E+02  0.51100000000E-03 0. -1.
    9900012    2    1    2    0    0  0.27615273909E+02  0.10552712245E+02 -0.27914235957E+02  0.50528835500E+02  0.29999925984E+02 0.  0.
        -12    1    1    2    0    0 -0.27615273909E+02 -0.10552712245E+02  0.27914235957E+02  0.40659164500E+02  0.00000000000E+00 0.  1.
         11    1    3    3    0    0  0.23603639023E+02  0.36156102196E+01 -0.14259713555E+02  0.27812656171E+02  0.51100000000E-03 0.  1.
        -11    1    3    3    0    0  0.92940936514E+01  0.11549774310E+01 -0.10999512815E+02  0.14446571638E+02  0.51100000000E-03 0. -1.
        -12    1    3    3    0    0 -0.52824587656E+01  0.57821245946E+01 -0.26550095880E+01  0.82696076902E+01  0.00000000000E+00 0.  1.
</event>
<event>
 7    1  0.2974434E-011  0.5052886E+02  0.7816164E-02  0.1300439E+00
        -11   -1    0    0    0    0  0.00000000000E+00  0.00000000000E+00  0.45593999997E+02  0.45594000000E+02  0.51100000000E-03 0.  1.
         11   -1    0    0    0    0 -0.00000000000E+00 -0.00000000000E+00 -0.45593999997E+02  0.45594000000E+02  0.51100000000E-03 0. -1.
    9900012    2    1    2    0    0  0.14208235181E+01  0.24516055519E+02 -0.32405405689E+02  0.50528855450E+02  0.29999986627E+02 0.  0.
        -12    1    1    2    0    0 -0.14208235181E+01 -0.24516055519E+02  0.32405405689E+02  0.40659144550E+02  0.00000000000E+00 0.  1.
         11    1    3    3    0    0 -0.54205778940E+01  0.14470899711E+02 -0.17284752830E+02  0.23185173793E+02  0.51100000000E-03 0. -1.
        -11    1    3    3    0    0 -0.58820816857E+00  0.13013558243E+02 -0.39674113803E+01  0.13617600388E+02  0.51100000000E-03 0.  1.
        -12    1    3    3    0    0  0.74296095807E+01 -0.29684024358E+01 -0.11153241478E+02  0.13726081269E+02  0.00000000000E+00 0.  1.
</event>
<event>
 7    1  0.2974434E-011  0.5052886E+02  0.7816164E-02  0.1300439E+00
        -11   -1    0    0    0    0  0.00000000000E+00  0.00000000000E+00  0.45593999997E+02  0.45594000000E+02  0.51100000000E-03 0.  1.
         11   -1    0    0    0    0 -0.00000000000E+00 -0.00000000000E+00 -0.45593999997E+02  0.45594000000E+02  0.51100000000E-03 0. -1.
    9900012    2    1    2    0    0  0.22622582459E+02 -0.27763892564E+02 -0.19249684954E+02  0.50528864025E+02  0.30000012690E+02 0.  0.
        -12    1    1    2    0    0 -0.22622582459E+02  0.27763892564E+02  0.19249684954E+02  0.40659135975E+02  0.00000000000E+00 0.  1.
         11    1    3    3    0    0  0.22329357803E+02 -0.13670844369E+02 -0.11248889193E+02  0.28496135071E+02  0.51100000000E-03 0. -1.
        -11    1    3    3    0    0  0.44126022113E+01 -0.13437475502E+02 -0.13841235687E+01  0.14211002936E+02  0.51100000000E-03 0.  1.
        -12    1    3    3    0    0 -0.41193775546E+01 -0.65557269288E+00 -0.66166721922E+01  0.78217260174E+01  0.00000000000E+00 0.  1.
</event>
<event>
 7    1  0.2974434E-011  0.5052886E+02  0.7816164E-02  0.1300439E+00
        -11   -1    0    0    0    0  0.00000000000E+00  0.00000000000E+00  0.45593999997E+02  0.45594000000E+02  0.51100000000E-03 0.  1.
         11   -1    0    0    0    0 -0.00000000000E+00 -0.00000000000E+00 -0.45593999997E+02  0.45594000000E+02  0.51100000000E-03 0. -1.
    9900012    2    1    2    0    0 -0.36483103211E+02  0.12459405916E+02  0.12919436635E+02  0.50528862544E+02  0.30000008189E+02 0.  0.
        -12    1    1    2    0    0  0.36483103211E+02 -0.12459405916E+02 -0.12919436635E+02  0.40659137456E+02  0.00000000000E+00 0.  1.
         11    1    3    3    0    0 -0.20617821200E+02  0.39123537333E+01 -0.14606010716E+01  0.21036502051E+02  0.51100000000E-03 0. -1.
        -11    1    3    3    0    0 -0.45970820863E+01  0.19231895286E+01 -0.43755112096E+01  0.66315096530E+01  0.51100000000E-03 0.  1.
        -12    1    3    3    0    0 -0.11268199924E+02  0.66238626542E+01  0.18755548916E+02  0.22860850840E+02  0.00000000000E+00 0.  1.
</event>
<event>
 7    1  0.2974434E-011  0.5052886E+02  0.7816164E-02  0.1300439E+00
        -11   -1    0    0    0    0  0.00000000000E+00  0.00000000000E+00  0.45593999997E+02  0.45594000000E+02  0.51100000000E-03 0.  1.
         11   -1    0    0    0    0 -0.00000000000E+00 -0.00000000000E+00 -0.45593999997E+02  0.45594000000E+02  0.51100000000E-03 0. -1.
    9900012    2    1    2    0    0  0.19246900892E+02  0.27350769425E+02 -0.23122672769E+02  0.50528858616E+02  0.29999996250E+02 0.  0.
        -12    1    1    2    0    0 -0.19246900892E+02 -0.27350769425E+02  0.23122672769E+02  0.40659141384E+02  0.00000000000E+00 0.  1.
         11    1    3    3    0    0  0.13379395427E+02  0.13922882443E+02 -0.18157833339E+02  0.26505882165E+02  0.51100000000E-03 0. -1.
        -11    1    3    3    0    0  0.12504253931E+02  0.78477668906E+01 -0.40219742803E+01  0.15300983266E+02  0.51100000000E-03 0.  1.
        -12    1    3    3    0    0 -0.66367484658E+01  0.55801200910E+01 -0.94286514983E+00  0.87219931851E+01  0.00000000000E+00 0.  1.
</event>
<event>
 7    1  0.2974434E-011  0.5052885E+02  0.7816164E-02  0.1300439E+00
        -11   -1    0    0    0    0  0.00000000000E+00  0.00000000000E+00  0.45593999997E+02  0.45594000000E+02  0.51100000000E-03 0.  1.
         11   -1    0    0    0    0 -0.00000000000E+00 -0.00000000000E+00 -0.45593999997E+02  0.45594000000E+02  0.51100000000E-03 0. -1.
    9900012    2    1    2    0    0 -0.28061507481E+02  0.21538836939E+02 -0.20044865664E+02  0.50528851728E+02  0.29999975311E+02 0.  0.
        -12    1    1    2    0    0  0.28061507481E+02 -0.21538836939E+02  0.20044865664E+02  0.40659148272E+02  0.00000000000E+00 0.  1.
         11    1    3    3    0    0 -0.20568847106E+02  0.17956943922E+02 -0.15163615135E+02  0.31232427547E+02  0.51100000000E-03 0. -1.
        -11    1    3    3    0    0 -0.14716818529E+01  0.60821187654E+01 -0.94510145253E+01  0.11334888265E+02  0.51100000000E-03 0.  1.
        -12    1    3    3    0    0 -0.60209785222E+01 -0.25002257485E+01  0.45697639962E+01  0.79615359159E+01  0.00000000000E+00 0.  1.
</event>
<event>
 7    1  0.2974434E-011  0.5052887E+02  0.7816164E-02  0.1300439E+00
        -11   -1    0    0    0    0  0.00000000000E+00  0.00000000000E+00  0.45593999997E+02  0.45594000000E+02  0.51100000000E-03 0. -1.
         11   -1    0    0    0    0 -0.00000000000E+00 -0.00000000000E+00 -0.45593999997E+02  0.45594000000E+02  0.51100000000E-03 0.  1.
    9900012    2    1    2    0    0 -0.35994637517E+02  0.83952647347E+01  0.16943164600E+02  0.50528865398E+02  0.30000016863E+02 0.  0.
        -12    1    1    2    0    0  0.35994637517E+02 -0.83952647347E+01 -0.16943164600E+02  0.40659134602E+02  0.00000000000E+00 0.  1.
         11    1    3    3    0    0 -0.18554196352E+02  0.21386376614E+01  0.66609599862E+01  0.19829280408E+02  0.51100000000E-03 0. -1.
        -11    1    3    3    0    0 -0.17852032232E+02  0.76323254792E+01 -0.88995667909E+00  0.19435520836E+02  0.51100000000E-03 0.  1.
        -12    1    3    3    0    0  0.41159106629E+00 -0.13756984059E+01  0.11172161293E+02  0.11264064154E+02  0.00000000000E+00 0.  1.
</event>
<event>
 7    1  0.2974434E-011  0.5052890E+02  0.7816164E-02  0.1300439E+00
        -11   -1    0    0    0    0  0.00000000000E+00  0.00000000000E+00  0.45593999997E+02  0.45594000000E+02  0.51100000000E-03 0.  1.
         11   -1    0    0    0    0 -0.00000000000E+00 -0.00000000000E+00 -0.45593999997E+02  0.45594000000E+02  0.51100000000E-03 0. -1.
    9900012    2    1    2    0    0  0.42978170466E+00  0.37910821763E+02 -0.14688339695E+02  0.50528899641E+02  0.30000120947E+02 0.  0.
        -12    1    1    2    0    0 -0.42978170466E+00 -0.37910821763E+02  0.14688339695E+02  0.40659100359E+02  0.00000000000E+00 0.  1.
         11    1    3    3    0    0 -0.26129260940E+01  0.25895204897E+02 -0.77948623031E+01  0.27168895782E+02  0.51100000000E-03 0. -1.
        -11    1    3    3    0    0 -0.37220586674E+01  0.13692150759E+02 -0.80221165172E+01  0.16299787324E+02  0.51100000000E-03 0.  1.
        -12    1    3    3    0    0  0.67647664660E+01 -0.16765338936E+01  0.11286391252E+01  0.70602165343E+01  0.00000000000E+00 0.  1.
</event>
<event>
 7    1  0.2974434E-011  0.5052885E+02  0.7816164E-02  0.1300439E+00
        -11   -1    0    0    0    0  0.00000000000E+00  0.00000000000E+00  0.45593999997E+02  0.45594000000E+02  0.51100000000E-03 0. -1.
         11   -1    0    0    0    0 -0.00000000000E+00 -0.00000000000E+00 -0.45593999997E+02  0.45594000000E+02  0.51100000000E-03 0.  1.
    9900012    2    1    2    0    0 -0.85274648172E+01 -0.37849229924E+02  0.12160769507E+02  0.50528853710E+02  0.29999981337E+02 0.  0.
        -12    1    1    2    0    0  0.85274648172E+01  0.37849229924E+02 -0.12160769507E+02  0.40659146290E+02  0.00000000000E+00 0.  1.
         11    1    3    3    0    0  0.15559480103E+00 -0.82118363041E+00 -0.10401625713E+01  0.13343503036E+01  0.51100000000E-03 0.  1.
        -11    1    3    3    0    0 -0.17960262942E+02 -0.15168932514E+02  0.84230570797E+01  0.24972293635E+02  0.51100000000E-03 0. -1.
         12    1    3    3    0    0  0.92772033237E+01 -0.21859113779E+02  0.47778749990E+01  0.24222209772E+02  0.00000000000E+00 0. -1.
</event>
<event>
 7    1  0.2974434E-011  0.5052886E+02  0.7816164E-02  0.1300439E+00
        -11   -1    0    0    0    0  0.00000000000E+00  0.00000000000E+00  0.45593999997E+02  0.45594000000E+02  0.51100000000E-03 0.  1.
         11   -1    0    0    0    0 -0.00000000000E+00 -0.00000000000E+00 -0.45593999997E+02  0.45594000000E+02  0.51100000000E-03 0. -1.
    9900012    2    1    2    0    0 -0.39823028584E+02  0.81798437348E+01  0.61814486167E+00  0.50528861394E+02  0.30000004694E+02 0.  0.
        -12    1    1    2    0    0  0.39823028584E+02 -0.81798437348E+01 -0.61814486167E+00  0.40659138606E+02  0.00000000000E+00 0.  1.
         11    1    3    3    0    0 -0.19396782426E+02  0.84872459668E+01 -0.67368558276E+01  0.22218319903E+02  0.51100000000E-03 0. -1.
        -11    1    3    3    0    0 -0.92090226149E+01  0.81403565155E+01 -0.34415412916E+00  0.12295932012E+02  0.51100000000E-03 0.  1.
        -12    1    3    3    0    0 -0.11217223542E+02 -0.84477587474E+01  0.76991548185E+01  0.16014609479E+02  0.00000000000E+00 0.  1.
</event>
<event>
 7    1  0.2974434E-011  0.5052887E+02  0.7816164E-02  0.1300439E+00
        -11   -1    0    0    0    0  0.00000000000E+00  0.00000000000E+00  0.45593999997E+02  0.45594000000E+02  0.51100000000E-03 0.  1.
         11   -1    0    0    0    0 -0.00000000000E+00 -0.00000000000E+00 -0.45593999997E+02  0.45594000000E+02  0.51100000000E-03 0. -1.
    9900012    2    1    2    0    0 -0.36314691780E+02  0.82995806366E+01 -0.16294936219E+02  0.50528870346E+02  0.30000031903E+02 0.  0.
        -12    1    1    2    0    0  0.36314691780E+02 -0.82995806366E+01  0.16294936219E+02  0.40659129654E+02  0.00000000000E+00 0.  1.
         11    1    3    3    0    0 -0.91424536032E+01  0.70080181054E+01 -0.31233140259E+01  0.11935320122E+02  0.51100000000E-03 0. -1.
        -11    1    3    3    0    0 -0.48205432715E+00  0.57541508660E+01  0.35547602971E+01  0.67807779490E+01  0.51100000000E-03 0.  1.
        -12    1    3    3    0    0 -0.26690183850E+02 -0.44625883348E+01 -0.16726382490E+02  0.31812772275E+02  0.00000000000E+00 0.  1.
</event>
<event>
 7    1  0.2974434E-011  0.5052886E+02  0.7816164E-02  0.1300439E+00
        -11   -1    0    0    0    0  0.00000000000E+00  0.00000000000E+00  0.45593999997E+02  0.45594000000E+02  0.51100000000E-03 0. -1.
         11   -1    0    0    0    0 -0.00000000000E+00 -0.00000000000E+00 -0.45593999997E+02  0.45594000000E+02  0.51100000000E-03 0.  1.
    9900012    2    1    2    0    0  0.22733817562E+02 -0.24883308272E+02  0.22741153959E+02  0.50528861115E+02  0.30000003846E+02 0.  0.
        -12    1    1    2    0    0 -0.22733817562E+02  0.24883308272E+02 -0.22741153959E+02  0.40659138885E+02  0.00000000000E+00 0.  1.
         11    1    3    3    0    0  0.25195247122E+01 -0.15067079783E+02  0.16402649816E+02  0.22414544814E+02  0.51100000000E-03 0.  1.
        -11    1    3    3    0    0  0.17847245864E+02 -0.49559369353E+01  0.10500333375E+02  0.21291841092E+02  0.51100000000E-03 0. -1.
        -12    1    3    3    0    0  0.23670469855E+01 -0.48602915537E+01 -0.41618292327E+01  0.68224752092E+01  0.00000000000E+00 0.  1.
</event>
<event>
 7    1  0.2974434E-011  0.5052886E+02  0.7816164E-02  0.1300439E+00
        -11   -1    0    0    0    0  0.00000000000E+00  0.00000000000E+00  0.45593999997E+02  0.45594000000E+02  0.51100000000E-03 0.  1.
         11   -1    0    0    0    0 -0.00000000000E+00 -0.00000000000E+00 -0.45593999997E+02  0.45594000000E+02  0.51100000000E-03 0. -1.
    9900012    2    1    2    0    0  0.32506850911E+01  0.12056874038E+02 -0.38694063445E+02  0.50528859441E+02  0.29999998757E+02 0.  0.
        -12    1    1    2    0    0 -0.32506850911E+01 -0.12056874038E+02  0.38694063445E+02  0.40659140559E+02  0.00000000000E+00 0.  1.
         11    1    3    3    0    0  0.90069783110E+01  0.61261710202E+01 -0.10490960923E+02  0.15123355812E+02  0.51100000000E-03 0. -1.
        -11    1    3    3    0    0  0.47130838950E+01  0.85213329418E+01 -0.84191681729E+01  0.12872787883E+02  0.51100000000E-03 0.  1.
         12    1    3    3    0    0 -0.10469377115E+02 -0.25906299242E+01 -0.19783934348E+02  0.22532715746E+02  0.00000000000E+00 0. -1.
</event>
<event>
 7    1  0.2974434E-011  0.5052885E+02  0.7816164E-02  0.1300439E+00
        -11   -1    0    0    0    0  0.00000000000E+00  0.00000000000E+00  0.45593999997E+02  0.45594000000E+02  0.51100000000E-03 0.  1.
         11   -1    0    0    0    0 -0.00000000000E+00 -0.00000000000E+00 -0.45593999997E+02  0.45594000000E+02  0.51100000000E-03 0. -1.
    9900012    2    1    2    0    0 -0.25404448122E+02  0.27843757186E+02 -0.15248135710E+02  0.50528850461E+02  0.29999971461E+02 0.  0.
        -12    1    1    2    0    0  0.25404448122E+02 -0.27843757186E+02  0.15248135710E+02  0.40659149539E+02  0.00000000000E+00 0.  1.
         11    1    3    3    0    0 -0.92883140103E+01  0.12165677067E+02 -0.85590209215E+01  0.17536627813E+02  0.51100000000E-03 0. -1.
        -11    1    3    3    0    0 -0.11489516116E+01  0.16453491064E+02 -0.71992325687E+01  0.17996288724E+02  0.51100000000E-03 0.  1.
        -12    1    3    3    0    0 -0.14967182500E+02 -0.77541094406E+00  0.51011778028E+00  0.14995933924E+02  0.00000000000E+00 0.  1.
</event>
<event>
 7    1  0.2974434E-011  0.5052886E+02  0.7816164E-02  0.1300439E+00
        -11   -1    0    0    0    0  0.00000000000E+00  0.00000000000E+00  0.45593999997E+02  0.45594000000E+02  0.51100000000E-03 0.  1.
         11   -1    0    0    0    0 -0.00000000000E+00 -0.00000000000E+00 -0.45593999997E+02  0.45594000000E+02  0.51100000000E-03 0. -1.
    9900012    2    1    2    0    0  0.26895532349E+02  0.29446228699E+02 -0.79193174114E+01  0.50528860398E+02  0.30000001666E+02 0.  0.
        -12    1    1    2    0    0 -0.26895532349E+02 -0.29446228699E+02  0.79193174114E+01  0.40659139602E+02  0.00000000000E+00 0.  1.
         11    1    3    3    0    0  0.19138396331E+02  0.19002276431E+02  0.31008946426E+01  0.27147380565E+02  0.51100000000E-03 0. -1.
        -11    1    3    3    0    0  0.98302954216E+01  0.12652082640E+02 -0.12192469782E+02  0.20133708622E+02  0.51100000000E-03 0.  1.
        -12    1    3    3    0    0 -0.20731594034E+01 -0.22081303731E+01  0.11722577285E+01  0.32477712109E+01  0.00000000000E+00 0.  1.
</event>
<event>
 7    1  0.2974434E-011  0.5052892E+02  0.7816164E-02  0.1300439E+00
        -11   -1    0    0    0    0  0.00000000000E+00  0.00000000000E+00  0.45593999997E+02  0.45594000000E+02  0.51100000000E-03 0.  1.
         11   -1    0    0    0    0 -0.00000000000E+00 -0.00000000000E+00 -0.45593999997E+02  0.45594000000E+02  0.51100000000E-03 0. -1.
    9900012    2    1    2    0    0  0.20836046297E+02 -0.11327622079E+02 -0.33025822044E+02  0.50528920215E+02  0.30000183485E+02 0.  0.
        -12    1    1    2    0    0 -0.20836046297E+02  0.11327622079E+02  0.33025822044E+02  0.40659079785E+02  0.00000000000E+00 0.  1.
         11    1    3    3    0    0  0.49027061695E+01 -0.50178831952E+01  0.28486209561E+01  0.75716788863E+01  0.51100000000E-03 0. -1.
        -11    1    3    3    0    0  0.12806894740E+01  0.25109340422E+01  0.40593735481E+00  0.28477606448E+01  0.51100000000E-03 0.  1.
         12    1    3    3    0    0  0.14652650654E+02 -0.88206729258E+01 -0.36280380355E+02  0.40109480684E+02  0.00000000000E+00 0. -1.
</event>
<event>
 7    1  0.2974434E-011  0.5052886E+02  0.7816164E-02  0.1300439E+00
        -11   -1    0    0    0    0  0.00000000000E+00  0.00000000000E+00  0.45593999997E+02  0.45594000000E+02  0.51100000000E-03 0.  1.
         11   -1    0    0    0    0 -0.00000000000E+00 -0.00000000000E+00 -0.45593999997E+02  0.45594000000E+02  0.51100000000E-03 0. -1.
    9900012    2    1    2    0    0 -0.47685358208E+01  0.24928334309E+02 -0.31764839773E+02  0.50528857964E+02  0.29999994269E+02 0.  0.
        -12    1    1    2    0    0  0.47685358208E+01 -0.24928334309E+02  0.31764839773E+02  0.40659142036E+02  0.00000000000E+00 0.  1.
         11    1    3    3    0    0  0.50044792260E+01  0.65307351751E+01 -0.73800393229E+01  0.11052614845E+02  0.51100000000E-03 0. -1.
        -11    1    3    3    0    0  0.23722717484E+01  0.18196680983E+02 -0.18199798320E+02  0.25845299983E+02  0.51100000000E-03 0.  1.
        -12    1    3    3    0    0 -0.12145286795E+02  0.20091815073E+00 -0.61850021297E+01  0.13630943136E+02  0.00000000000E+00 0.  1.
</event>
<event>
 7    1  0.2974434E-011  0.5052886E+02  0.7816164E-02  0.1300439E+00
        -11   -1    0    0    0    0  0.00000000000E+00  0.00000000000E+00  0.45593999997E+02  0.45594000000E+02  0.51100000000E-03 0.  1.
         11   -1    0    0    0    0 -0.00000000000E+00 -0.00000000000E+00 -0.45593999997E+02  0.45594000000E+02  0.51100000000E-03 0. -1.
    9900012    2    1    2    0    0  0.20160238502E+02 -0.19331979582E+02 -0.29546656509E+02  0.50528861275E+02  0.30000004331E+02 0.  0.
        -12    1    1    2    0    0 -0.20160238502E+02  0.19331979582E+02  0.29546656509E+02  0.40659138725E+02  0.00000000000E+00 0.  1.
         11    1    3    3    0    0  0.10713409620E+02 -0.16353783287E+02 -0.13613364735E+02  0.23823246486E+02  0.51100000000E-03 0. -1.
        -11    1    3    3    0    0 -0.22385537207E+01 -0.37675298907E+01 -0.14206390395E+02  0.14866974560E+02  0.51100000000E-03 0.  1.
        -12    1    3    3    0    0  0.11685382603E+02  0.78933359567E+00 -0.17269013788E+01  0.11838640229E+02  0.00000000000E+00 0.  1.
</event>
<event>
 7    1  0.2974434E-011  0.5052886E+02  0.7816164E-02  0.1300439E+00
        -11   -1    0    0    0    0  0.00000000000E+00  0.00000000000E+00  0.45593999997E+02  0.45594000000E+02  0.51100000000E-03 0. -1.
         11   -1    0    0    0    0 -0.00000000000E+00 -0.00000000000E+00 -0.45593999997E+02  0.45594000000E+02  0.51100000000E-03 0.  1.
    9900012    2    1    2    0    0  0.38698365096E+02 -0.11894774775E+02 -0.37571626831E+01  0.50528863272E+02  0.30000010401E+02 0.  0.
        -12    1    1    2    0    0 -0.38698365096E+02  0.11894774775E+02  0.37571626831E+01  0.40659136728E+02  0.00000000000E+00 0.  1.
         11    1    3    3    0    0  0.20657341806E+02 -0.16140873200E+02 -0.57727721608E+01  0.26843592472E+02  0.51100000000E-03 0. -1.
        -11    1    3    3    0    0 -0.23254851789E+01  0.48922221119E+00 -0.13042247323E+01  0.27107604288E+01  0.51100000000E-03 0.  1.
        -12    1    3    3    0    0  0.20366508469E+02  0.37568762135E+01  0.33198342100E+01  0.20974510371E+02  0.00000000000E+00 0.  1.
</event>
<event>
 7    1  0.2974434E-011  0.5052887E+02  0.7816164E-02  0.1300439E+00
        -11   -1    0    0    0    0  0.00000000000E+00  0.00000000000E+00  0.45593999997E+02  0.45594000000E+02  0.51100000000E-03 0.  1.
         11   -1    0    0    0    0 -0.00000000000E+00 -0.00000000000E+00 -0.45593999997E+02  0.45594000000E+02  0.51100000000E-03 0. -1.
    9900012    2    1    2    0    0 -0.36906592628E+02 -0.41212607059E+01 -0.16555478668E+02  0.50528865194E+02  0.30000016245E+02 0.  0.
        -12    1    1    2    0    0  0.36906592628E+02  0.41212607059E+01  0.16555478668E+02  0.40659134806E+02  0.00000000000E+00 0.  1.
         11    1    3    3    0    0 -0.31432125550E+02 -0.62335579025E+01 -0.91391984967E+01  0.33322075418E+02  0.51100000000E-03 0. -1.
        -11    1    3    3    0    0 -0.10206612173E+02  0.30748258874E+01 -0.56529629580E+01  0.12065880687E+02  0.51100000000E-03 0.  1.
        -12    1    3    3    0    0  0.47321450946E+01 -0.96252869083E+00 -0.17633172128E+01  0.51409090898E+01  0.00000000000E+00 0.  1.
</event>
<event>
 7    1  0.2974434E-011  0.5052886E+02  0.7816164E-02  0.1300439E+00
        -11   -1    0    0    0    0  0.00000000000E+00  0.00000000000E+00  0.45593999997E+02  0.45594000000E+02  0.51100000000E-03 0. -1.
         11   -1    0    0    0    0 -0.00000000000E+00 -0.00000000000E+00 -0.45593999997E+02  0.45594000000E+02  0.51100000000E-03 0.  1.
    9900012    2    1    2    0    0  0.31326853458E+02 -0.26742914940E+01  0.25780658684E+02  0.50528856566E+02  0.29999990018E+02 0.  0.
        -12    1    1    2    0    0 -0.31326853458E+02  0.26742914940E+01 -0.25780658684E+02  0.40659143434E+02  0.00000000000E+00 0.  1.
         11    1    3    3    0    0 -0.40893620449E+01 -0.34513618359E+00 -0.21263559782E+00  0.41094056843E+01  0.51100000000E-03 0. -1.
        -11    1    3    3    0    0  0.51958184598E+01 -0.52627307517E+01  0.18377727227E+01  0.76203853756E+01  0.51100000000E-03 0.  1.
         12    1    3    3    0    0  0.30220397044E+02  0.29335754413E+01  0.24155521559E+02  0.38799065506E+02  0.00000000000E+00 0. -1.
</event>
<event>
 7    1  0.2974434E-011  0.5052886E+02  0.7816164E-02  0.1300439E+00
        -11   -1    0    0    0    0  0.00000000000E+00  0.00000000000E+00  0.45593999997E+02  0.45594000000E+02  0.51100000000E-03 0. -1.
         11   -1    0    0    0    0 -0.00000000000E+00 -0.00000000000E+00 -0.45593999997E+02  0.45594000000E+02  0.51100000000E-03 0.  1.
    9900012    2    1    2    0    0  0.23927962107E+02  0.20233656131E+02  0.25907864918E+02  0.50528859876E+02  0.30000000079E+02 0.  0.
        -12    1    1    2    0    0 -0.23927962107E+02 -0.20233656131E+02 -0.25907864918E+02  0.40659140124E+02  0.00000000000E+00 0.  1.
         11    1    3    3    0    0  0.88223602240E+01  0.98207559456E+01  0.42637626996E+01  0.13873029946E+02  0.51100000000E-03 0. -1.
        -11    1    3    3    0    0  0.11029049200E+02  0.14914290729E+02  0.54086456727E+01  0.19321734976E+02  0.51100000000E-03 0.  1.
         12    1    3    3    0    0  0.40765526833E+01 -0.45013905441E+01  0.16235456546E+02  0.17334094954E+02  0.00000000000E+00 0. -1.
</event>
<event>
 7    1  0.2974434E-011  0.5052886E+02  0.7816164E-02  0.1300439E+00
        -11   -1    0    0    0    0  0.00000000000E+00  0.00000000000E+00  0.45593999997E+02  0.45594000000E+02  0.51100000000E-03 0.  1.
         11   -1    0    0    0    0 -0.00000000000E+00 -0.00000000000E+00 -0.45593999997E+02  0.45594000000E+02  0.51100000000E-03 0. -1.
    9900012    2    1    2    0    0 -0.32269424899E+02  0.18563310630E+02 -0.16347897866E+02  0.50528855278E+02  0.29999986104E+02 0.  0.
        -12    1    1    2    0    0  0.32269424899E+02 -0.18563310630E+02  0.16347897866E+02  0.40659144722E+02  0.00000000000E+00 0.  1.
         11    1    3    3    0    0 -0.12808929565E+02 -0.29504228339E+01  0.53563120995E+00  0.13155248859E+02  0.51100000000E-03 0. -1.
        -11    1    3    3    0    0  0.12712663134E+01  0.71182067530E+01 -0.75751636653E+01  0.10472253350E+02  0.51100000000E-03 0.  1.
         12    1    3    3    0    0 -0.20731761648E+02  0.14395526711E+02 -0.93083654105E+01  0.26901353069E+02  0.00000000000E+00 0. -1.
</event>
<event>
 7    1  0.2974434E-011  0.5052886E+02  0.7816164E-02  0.1300439E+00
        -11   -1    0    0    0    0  0.00000000000E+00  0.00000000000E+00  0.45593999997E+02  0.45594000000E+02  0.51100000000E-03 0. -1.
         11   -1    0    0    0    0 -0.00000000000E+00 -0.00000000000E+00 -0.45593999997E+02  0.45594000000E+02  0.51100000000E-03 0.  1.
    9900012    2    1    2    0    0  0.10388078622E+02 -0.31176791311E+02 -0.23942867174E+02  0.50528863482E+02  0.30000011039E+02 0.  0.
        -12    1    1    2    0    0 -0.10388078622E+02  0.31176791311E+02  0.23942867174E+02  0.40659136518E+02  0.00000000000E+00 0.  1.
         11    1    3    3    0    0  0.31957735027E+01 -0.14336502143E+02 -0.22986068126E+02  0.27278335545E+02  0.51100000000E-03 0.  1.
        -11    1    3    3    0    0  0.58981654688E+01 -0.21459045579E+01 -0.49213780161E+01  0.79757898736E+01  0.51100000000E-03 0. -1.
         12    1    3    3    0    0  0.12941396508E+01 -0.14694384610E+02  0.39645789677E+01  0.15274738063E+02  0.00000000000E+00 0. -1.
</event>
<event>
 7    1  0.2974434E-011  0.5052886E+02  0.7816164E-02  0.1300439E+00
        -11   -1    0    0    0    0  0.00000000000E+00  0.00000000000E+00  0.45593999997E+02  0.45594000000E+02  0.51100000000E-03 0. -1.
         11   -1    0    0    0    0 -0.00000000000E+00 -0.00000000000E+00 -0.45593999997E+02  0.45594000000E+02  0.51100000000E-03 0.  1.
    9900012    2    1    2    0    0  0.30688230211E+02 -0.96085853115E+01 -0.24881180672E+02  0.50528861583E+02  0.30000005268E+02 0.  0.
        -12    1    1    2    0    0 -0.30688230211E+02  0.96085853115E+01  0.24881180672E+02  0.40659138417E+02  0.00000000000E+00 0.  1.
         11    1    3    3    0    0  0.55110062345E+01 -0.35095583827E+00  0.89707442662E+00  0.55945600814E+01  0.51100000000E-03 0. -1.
        -11    1    3    3    0    0  0.11379298052E+02 -0.45175424789E+01  0.30562999581E+01  0.12618937511E+02  0.51100000000E-03 0.  1.
        -12    1    3    3    0    0  0.13797925925E+02 -0.47400869943E+01 -0.28834555056E+02  0.32315363991E+02  0.00000000000E+00 0.  1.
</event>
<event>
 7    1  0.2974434E-011  0.5052887E+02  0.7816164E-02  0.1300439E+00
        -11   -1    0    0    0    0  0.00000000000E+00  0.00000000000E+00  0.45593999997E+02  0.45594000000E+02  0.51100000000E-03 0.  1.
         11   -1    0    0    0    0 -0.00000000000E+00 -0.00000000000E+00 -0.45593999997E+02  0.45594000000E+02  0.51100000000E-03 0. -1.
    9900012    2    1    2    0    0  0.13409013385E+02  0.19986105556E+02 -0.32770705334E+02  0.50528865930E+02  0.30000018480E+02 0.  0.
        -12    1    1    2    0    0 -0.13409013385E+02 -0.19986105556E+02  0.32770705334E+02  0.40659134070E+02  0.00000000000E+00 0.  1.
         11    1    3    3    0    0  0.10661350940E+02  0.39535370296E+01 -0.10365699358E+02  0.15386441511E+02  0.51100000000E-03 0. -1.
        -11    1    3    3    0    0  0.71827332213E+01 -0.27656038580E+01 -0.74891237784E+01  0.10739050072E+02  0.51100000000E-03 0.  1.
        -12    1    3    3    0    0 -0.44350707764E+01  0.18798172384E+02 -0.14915882197E+02  0.24403374347E+02  0.00000000000E+00 0.  1.
</event>
<event>
 7    1  0.2974434E-011  0.5052886E+02  0.7816164E-02  0.1300439E+00
        -11   -1    0    0    0    0  0.00000000000E+00  0.00000000000E+00  0.45593999997E+02  0.45594000000E+02  0.51100000000E-03 0.  1.
         11   -1    0    0    0    0 -0.00000000000E+00 -0.00000000000E+00 -0.45593999997E+02  0.45594000000E+02  0.51100000000E-03 0. -1.
    9900012    2    1    2    0    0 -0.29096622970E+02  0.22115183023E+02 -0.17817716334E+02  0.50528858300E+02  0.29999995289E+02 0.  0.
        -12    1    1    2    0    0  0.29096622970E+02 -0.22115183023E+02  0.17817716334E+02  0.40659141700E+02  0.00000000000E+00 0.  1.
         11    1    3    3    0    0 -0.44721045146E+01 -0.25744514333E+01 -0.14412491176E+01  0.53576784386E+01  0.51100000000E-03 0.  1.
        -11    1    3    3    0    0 -0.28573685048E+01  0.30684261801E+01  0.59130955836E+01  0.72487580755E+01  0.51100000000E-03 0. -1.
         12    1    3    3    0    0 -0.21767149950E+02  0.21621208276E+02 -0.22289562800E+02  0.37922421786E+02  0.00000000000E+00 0. -1.
</event>
<event>
 7    1  0.2974434E-011  0.5052886E+02  0.7816164E-02  0.1300439E+00
        -11   -1    0    0    0    0  0.00000000000E+00  0.00000000000E+00  0.45593999997E+02  0.45594000000E+02  0.51100000000E-03 0. -1.
         11   -1    0    0    0    0 -0.00000000000E+00 -0.00000000000E+00 -0.45593999997E+02  0.45594000000E+02  0.51100000000E-03 0.  1.
    9900012    2    1    2    0    0 -0.96296236291E+01  0.33465149004E+02  0.20988564796E+02  0.50528859561E+02  0.29999999121E+02 0.  0.
        -12    1    1    2    0    0  0.96296236291E+01 -0.33465149004E+02 -0.20988564796E+02  0.40659140439E+02  0.00000000000E+00 0.  1.
         11    1    3    3    0    0 -0.61087687433E+01  0.18467900149E+02  0.13316399503E+02  0.23573436056E+02  0.51100000000E-03 0. -1.
        -11    1    3    3    0    0 -0.29972099234E+01  0.20284977633E+02  0.56424671087E+01  0.21267369848E+02  0.51100000000E-03 0.  1.
         12    1    3    3    0    0 -0.52364496247E+00 -0.52877287791E+01  0.20296981837E+01  0.56880536570E+01  0.00000000000E+00 0. -1.
</event>
<event>
 7    1  0.2974434E-011  0.5052886E+02  0.7816164E-02  0.1300439E+00
        -11   -1    0    0    0    0  0.00000000000E+00  0.00000000000E+00  0.45593999997E+02  0.45594000000E+02  0.51100000000E-03 0.  1.
         11   -1    0    0    0    0 -0.00000000000E+00 -0.00000000000E+00 -0.45593999997E+02  0.45594000000E+02  0.51100000000E-03 0. -1.
    9900012    2    1    2    0    0  0.23498654016E+02 -0.25140670934E+01 -0.33085625665E+02  0.50528857122E+02  0.29999991709E+02 0.  0.
        -12    1    1    2    0    0 -0.23498654016E+02  0.25140670934E+01  0.33085625665E+02  0.40659142878E+02  0.00000000000E+00 0.  1.
         11    1    3    3    0    0 -0.10752571964E+01 -0.13720702528E+01 -0.58310984819E+00  0.18381436759E+01  0.51100000000E-03 0. -1.
        -11    1    3    3    0    0  0.84101104093E+00  0.49635453210E+01 -0.21045171863E+02  0.21638931137E+02  0.51100000000E-03 0.  1.
        -12    1    3    3    0    0  0.23732900172E+02 -0.61055421616E+01 -0.11457343953E+02  0.27051782309E+02  0.00000000000E+00 0.  1.
</event>
<event>
 7    1  0.2974434E-011  0.5052885E+02  0.7816164E-02  0.1300439E+00
        -11   -1    0    0    0    0  0.00000000000E+00  0.00000000000E+00  0.45593999997E+02  0.45594000000E+02  0.51100000000E-03 0.  1.
         11   -1    0    0    0    0 -0.00000000000E+00 -0.00000000000E+00 -0.45593999997E+02  0.45594000000E+02  0.51100000000E-03 0. -1.
    9900012    2    1    2    0    0  0.16315742851E+02  0.20978485928E+02 -0.30771183531E+02  0.50528854995E+02  0.29999985243E+02 0.  0.
        -12    1    1    2    0    0 -0.16315742851E+02 -0.20978485928E+02  0.30771183531E+02  0.40659145005E+02  0.00000000000E+00 0.  1.
         11    1    3    3    0    0  0.56929094102E+01  0.82911793010E+01 -0.14929818469E+02  0.18001454150E+02  0.51100000000E-03 0. -1.
        -11    1    3    3    0    0  0.15562435634E+02  0.10885842342E+02 -0.18605924422E+02  0.26587053056E+02  0.51100000000E-03 0.  1.
        -12    1    3    3    0    0 -0.49396021935E+01  0.18014642851E+01  0.27645593591E+01  0.59403477887E+01  0.00000000000E+00 0.  1.
</event>
<event>
 7    1  0.2974434E-011  0.5052883E+02  0.7816164E-02  0.1300439E+00
        -11   -1    0    0    0    0  0.00000000000E+00  0.00000000000E+00  0.45593999997E+02  0.45594000000E+02  0.51100000000E-03 0.  1.
         11   -1    0    0    0    0 -0.00000000000E+00 -0.00000000000E+00 -0.45593999997E+02  0.45594000000E+02  0.51100000000E-03 0. -1.
    9900012    2    1    2    0    0  0.24879827854E+02  0.24670187276E+02 -0.20628718140E+02  0.50528831460E+02  0.29999913707E+02 0.  0.
        -12    1    1    2    0    0 -0.24879827854E+02 -0.24670187276E+02  0.20628718140E+02  0.40659168540E+02  0.00000000000E+00 0.  1.
         11    1    3    3    0    0  0.24347978173E+02  0.11591908380E+02 -0.14014840648E+02  0.30390987803E+02  0.51100000000E-03 0. -1.
        -11    1    3    3    0    0  0.60957321161E+01  0.37503805560E+01  0.46705763456E+00  0.71722693370E+01  0.51100000000E-03 0.  1.
        -12    1    3    3    0    0 -0.55638824355E+01  0.93278983399E+01 -0.70809351267E+01  0.12965574321E+02  0.00000000000E+00 0.  1.
</event>
<event>
 7    1  0.2974434E-011  0.5052885E+02  0.7816164E-02  0.1300439E+00
        -11   -1    0    0    0    0  0.00000000000E+00  0.00000000000E+00  0.45593999997E+02  0.45594000000E+02  0.51100000000E-03 0.  1.
         11   -1    0    0    0    0 -0.00000000000E+00 -0.00000000000E+00 -0.45593999997E+02  0.45594000000E+02  0.51100000000E-03 0. -1.
    9900012    2    1    2    0    0  0.32727351323E+01 -0.36250320535E+02 -0.18120982891E+02  0.50528849061E+02  0.29999967207E+02 0.  0.
        -12    1    1    2    0    0 -0.32727351323E+01  0.36250320535E+02  0.18120982891E+02  0.40659150939E+02  0.00000000000E+00 0.  1.
         11    1    3    3    0    0 -0.77685217413E+01 -0.10912810200E+02 -0.92047786408E+01  0.16253224499E+02  0.51100000000E-03 0. -1.
        -11    1    3    3    0    0 -0.37152096002E+01 -0.16847731840E+01  0.17334088106E+01  0.44323751444E+01  0.51100000000E-03 0.  1.
        -12    1    3    3    0    0  0.14756466474E+02 -0.23652737150E+02 -0.10649613061E+02  0.29843249418E+02  0.00000000000E+00 0.  1.
</event>
<event>
 7    1  0.2974434E-011  0.5052888E+02  0.7816164E-02  0.1300439E+00
        -11   -1    0    0    0    0  0.00000000000E+00  0.00000000000E+00  0.45593999997E+02  0.45594000000E+02  0.51100000000E-03 0.  1.
         11   -1    0    0    0    0 -0.00000000000E+00 -0.00000000000E+00 -0.45593999997E+02  0.45594000000E+02  0.51100000000E-03 0. -1.
    9900012    2    1    2    0    0  0.96631719587E+01 -0.27206739823E+01 -0.39400319625E+02  0.50528878689E+02  0.30000057263E+02 0.  0.
        -12    1    1    2    0    0 -0.96631719587E+01  0.27206739823E+01  0.39400319625E+02  0.40659121311E+02  0.00000000000E+00 0.  1.
         11    1    3    3    0    0  0.24414691846E+01  0.10350562581E+02 -0.18312629109E+02  0.21176574385E+02  0.51100000000E-03 0. -1.
        -11    1    3    3    0    0 -0.73514594304E-01 -0.25791650248E+01  0.17949656379E+01  0.31431510500E+01  0.51100000000E-03 0.  1.
        -12    1    3    3    0    0  0.72952173685E+01 -0.10492071539E+02 -0.22882656154E+02  0.26209153254E+02  0.00000000000E+00 0.  1.
</event>
<event>
 7    1  0.2974434E-011  0.5052887E+02  0.7816164E-02  0.1300439E+00
        -11   -1    0    0    0    0  0.00000000000E+00  0.00000000000E+00  0.45593999997E+02  0.45594000000E+02  0.51100000000E-03 0.  1.
         11   -1    0    0    0    0 -0.00000000000E+00 -0.00000000000E+00 -0.45593999997E+02  0.45594000000E+02  0.51100000000E-03 0. -1.
    9900012    2    1    2    0    0 -0.37416494822E+02  0.15761687326E+02 -0.21772256586E+01  0.50528865925E+02  0.30000018467E+02 0.  0.
        -12    1    1    2    0    0  0.37416494822E+02 -0.15761687326E+02  0.21772256586E+01  0.40659134075E+02  0.00000000000E+00 0.  1.
         11    1    3    3    0    0 -0.20667524604E+02  0.14253432084E+02  0.99061509535E+01  0.26989604043E+02  0.51100000000E-03 0.  1.
        -11    1    3    3    0    0 -0.12578702350E+02 -0.30683511000E+01 -0.44068778644E+01  0.13676955219E+02  0.51100000000E-03 0. -1.
        -12    1    3    3    0    0 -0.41702678681E+01  0.45766063415E+01 -0.76764987477E+01  0.98623066633E+01  0.00000000000E+00 0.  1.
</event>
<event>
 7    1  0.2974434E-011  0.5052900E+02  0.7816164E-02  0.1300438E+00
        -11   -1    0    0    0    0  0.00000000000E+00  0.00000000000E+00  0.45593999997E+02  0.45594000000E+02  0.51100000000E-03 0.  1.
         11   -1    0    0    0    0 -0.00000000000E+00 -0.00000000000E+00 -0.45593999997E+02  0.45594000000E+02  0.51100000000E-03 0. -1.
    9900012    2    1    2    0    0  0.12168091830E+02 -0.34491512586E+02 -0.17760280724E+02  0.50528997668E+02  0.30000418908E+02 0.  0.
        -12    1    1    2    0    0 -0.12168091830E+02  0.34491512586E+02  0.17760280724E+02  0.40659002332E+02  0.00000000000E+00 0.  1.
         11    1    3    3    0    0  0.26546195919E+01 -0.49528670414E+00  0.18284324273E+01  0.32612082882E+01  0.51100000000E-03 0. -1.
        -11    1    3    3    0    0 -0.33260755766E-01 -0.19950841465E+02  0.17137026323E+01  0.20024334156E+02  0.51100000000E-03 0.  1.
         12    1    3    3    0    0  0.95467329938E+01 -0.14045384418E+02 -0.21302415783E+02  0.27243455223E+02  0.00000000000E+00 0. -1.
</event>
<event>
 7    1  0.2974434E-011  0.5052887E+02  0.7816164E-02  0.1300439E+00
        -11   -1    0    0    0    0  0.00000000000E+00  0.00000000000E+00  0.45593999997E+02  0.45594000000E+02  0.51100000000E-03 0. -1.
         11   -1    0    0    0    0 -0.00000000000E+00 -0.00000000000E+00 -0.45593999997E+02  0.45594000000E+02  0.51100000000E-03 0.  1.
    9900012    2    1    2    0    0  0.16894179339E+02  0.21096603468E+02  0.30375728928E+02  0.50528869644E+02  0.30000029770E+02 0.  0.
        -12    1    1    2    0    0 -0.16894179339E+02 -0.21096603468E+02 -0.30375728928E+02  0.40659130356E+02  0.00000000000E+00 0.  1.
         11    1    3    3    0    0  0.14576126793E+01  0.33707276899E+00  0.61737658656E+01  0.63524513378E+01  0.51100000000E-03 0. -1.
        -11    1    3    3    0    0  0.32254317477E+01  0.21624984678E+02  0.67948365102E+01  0.22895702124E+02  0.51100000000E-03 0.  1.
         12    1    3    3    0    0  0.12211134912E+02 -0.86545397928E+00  0.17407126552E+02  0.21280716182E+02  0.00000000000E+00 0. -1.
</event>
<event>
 7    1  0.2974434E-011  0.5052885E+02  0.7816164E-02  0.1300439E+00
        -11   -1    0    0    0    0  0.00000000000E+00  0.00000000000E+00  0.45593999997E+02  0.45594000000E+02  0.51100000000E-03 0.  1.
         11   -1    0    0    0    0 -0.00000000000E+00 -0.00000000000E+00 -0.45593999997E+02  0.45594000000E+02  0.51100000000E-03 0. -1.
    9900012    2    1    2    0    0 -0.16478103503E+02 -0.32639140247E+02 -0.17785523778E+02  0.50528853093E+02  0.29999979461E+02 0.  0.
        -12    1    1    2    0    0  0.16478103503E+02  0.32639140247E+02  0.17785523778E+02  0.40659146907E+02  0.00000000000E+00 0.  1.
         11    1    3    3    0    0  0.12114062864E+01  0.24942934307E+01 -0.64758677626E+01  0.70445630417E+01  0.51100000000E-03 0. -1.
        -11    1    3    3    0    0 -0.18719612113E+01 -0.33068953823E+01 -0.66236291929E+01  0.76362464465E+01  0.51100000000E-03 0.  1.
        -12    1    3    3    0    0 -0.15817548578E+02 -0.31826538296E+02 -0.46860268229E+01  0.35848043605E+02  0.00000000000E+00 0.  1.
</event>
<event>
 7    1  0.2974434E-011  0.5052885E+02  0.7816164E-02  0.1300439E+00
        -11   -1    0    0    0    0  0.00000000000E+00  0.00000000000E+00  0.45593999997E+02  0.45594000000E+02  0.51100000000E-03 0.  1.
         11   -1    0    0    0    0 -0.00000000000E+00 -0.00000000000E+00 -0.45593999997E+02  0.45594000000E+02  0.51100000000E-03 0. -1.
    9900012    2    1    2    0    0 -0.33904541358E+01 -0.40509888321E+02 -0.78746868453E+00  0.50528851731E+02  0.29999975321E+02 0.  0.
        -12    1    1    2    0    0  0.33904541358E+01  0.40509888321E+02  0.78746868453E+00  0.40659148269E+02  0.00000000000E+00 0.  1.
         11    1    3    3    0    0 -0.90956027563E+01 -0.34140694219E+02 -0.99056054873E+01  0.36693841603E+02  0.51100000000E-03 0. -1.
        -11    1    3    3    0    0 -0.10390263328E+01 -0.19171178737E+01  0.10665800197E+01  0.24274492501E+01  0.51100000000E-03 0.  1.
         12    1    3    3    0    0  0.67441749533E+01 -0.44520762280E+01  0.80515567830E+01  0.11407560877E+02  0.00000000000E+00 0. -1.
</event>
<event>
 7    1  0.2974434E-011  0.5052886E+02  0.7816164E-02  0.1300439E+00
        -11   -1    0    0    0    0  0.00000000000E+00  0.00000000000E+00  0.45593999997E+02  0.45594000000E+02  0.51100000000E-03 0. -1.
         11   -1    0    0    0    0 -0.00000000000E+00 -0.00000000000E+00 -0.45593999997E+02  0.45594000000E+02  0.51100000000E-03 0.  1.
    9900012    2    1    2    0    0  0.29632902074E+02  0.23735106930E+02 -0.14549960540E+02  0.50528861569E+02  0.30000005224E+02 0.  0.
        -12    1    1    2    0    0 -0.29632902074E+02 -0.23735106930E+02  0.14549960540E+02  0.40659138431E+02  0.00000000000E+00 0.  1.
         11    1    3    3    0    0  0.79611632061E+01  0.88399686776E+00 -0.11611910168E+01  0.80938207847E+01  0.51100000000E-03 0. -1.
        -11    1    3    3    0    0  0.99945755926E+01  0.71286307585E+01  0.70263765486E+01  0.14144924370E+02  0.51100000000E-03 0.  1.
        -12    1    3    3    0    0  0.11677163275E+02  0.15722479304E+02 -0.20415146071E+02  0.28290116414E+02  0.00000000000E+00 0.  1.
</event>
<event>
 7    1  0.2974434E-011  0.5052887E+02  0.7816164E-02  0.1300439E+00
        -11   -1    0    0    0    0  0.00000000000E+00  0.00000000000E+00  0.45593999997E+02  0.45594000000E+02  0.51100000000E-03 0.  1.
         11   -1    0    0    0    0 -0.00000000000E+00 -0.00000000000E+00 -0.45593999997E+02  0.45594000000E+02  0.51100000000E-03 0. -1.
    9900012    2    1    2    0    0 -0.14128205947E+02  0.96373978866E+01 -0.36887390192E+02  0.50528865768E+02  0.30000017988E+02 0.  0.
        -12    1    1    2    0    0  0.14128205947E+02 -0.96373978866E+01  0.36887390192E+02  0.40659134232E+02  0.00000000000E+00 0.  1.
         11    1    3    3    0    0 -0.29620628466E+01  0.51739065790E+01 -0.47476938717E+01  0.76212678051E+01  0.51100000000E-03 0. -1.
        -11    1    3    3    0    0 -0.83128882639E+01  0.71140246139E+01 -0.41968124310E+00  0.10949410491E+02  0.51100000000E-03 0.  1.
         12    1    3    3    0    0 -0.28532548363E+01 -0.26505333064E+01 -0.31720015077E+02  0.31958187472E+02  0.00000000000E+00 0. -1.
</event>
<event>
 7    1  0.2974434E-011  0.5052886E+02  0.7816164E-02  0.1300439E+00
        -11   -1    0    0    0    0  0.00000000000E+00  0.00000000000E+00  0.45593999997E+02  0.45594000000E+02  0.51100000000E-03 0.  1.
         11   -1    0    0    0    0 -0.00000000000E+00 -0.00000000000E+00 -0.45593999997E+02  0.45594000000E+02  0.51100000000E-03 0. -1.
    9900012    2    1    2    0    0 -0.18722922304E+02 -0.12013315386E+02 -0.34033778651E+02  0.50528860124E+02  0.30000000834E+02 0.  0.
        -12    1    1    2    0    0  0.18722922304E+02  0.12013315386E+02  0.34033778651E+02  0.40659139876E+02  0.00000000000E+00 0.  1.
         11    1    3    3    0    0 -0.99396123259E+01 -0.68771339815E+01 -0.92049440101E+01  0.15192822630E+02  0.51100000000E-03 0. -1.
        -11    1    3    3    0    0 -0.68016936644E+01  0.80378810758E+01 -0.55519476458E+01  0.11903557948E+02  0.51100000000E-03 0.  1.
         12    1    3    3    0    0 -0.19816163132E+01 -0.13174062480E+02 -0.19276886995E+02  0.23432479546E+02  0.00000000000E+00 0. -1.
</event>
<event>
 7    1  0.2974434E-011  0.5052887E+02  0.7816164E-02  0.1300439E+00
        -11   -1    0    0    0    0  0.00000000000E+00  0.00000000000E+00  0.45593999997E+02  0.45594000000E+02  0.51100000000E-03 0.  1.
         11   -1    0    0    0    0 -0.00000000000E+00 -0.00000000000E+00 -0.45593999997E+02  0.45594000000E+02  0.51100000000E-03 0. -1.
    9900012    2    1    2    0    0  0.10746596763E+02 -0.13141074880E+01 -0.39191177468E+02  0.50528872958E+02  0.30000039844E+02 0.  0.
        -12    1    1    2    0    0 -0.10746596763E+02  0.13141074880E+01  0.39191177468E+02  0.40659127042E+02  0.00000000000E+00 0.  1.
         11    1    3    3    0    0 -0.42572196211E+01  0.24716738167E+00 -0.17826967177E+00  0.42681132780E+01  0.51100000000E-03 0. -1.
        -11    1    3    3    0    0  0.11081233076E+01  0.21773639212E+01  0.17678621015E+01  0.30156570728E+01  0.51100000000E-03 0.  1.
         12    1    3    3    0    0  0.13895693076E+02 -0.37386387908E+01 -0.40780769898E+02  0.43245102607E+02  0.00000000000E+00 0. -1.
</event>
<event>
 7    1  0.2974434E-011  0.5052886E+02  0.7816164E-02  0.1300439E+00
        -11   -1    0    0    0    0  0.00000000000E+00  0.00000000000E+00  0.45593999997E+02  0.45594000000E+02  0.51100000000E-03 0. -1.
         11   -1    0    0    0    0 -0.00000000000E+00 -0.00000000000E+00 -0.45593999997E+02  0.45594000000E+02  0.51100000000E-03 0.  1.
    9900012    2    1    2    0    0  0.32821513304E+02 -0.18830901305E+02  0.14876517611E+02  0.50528863810E+02  0.30000012036E+02 0.  0.
        -12    1    1    2    0    0 -0.32821513304E+02  0.18830901305E+02 -0.14876517611E+02  0.40659136190E+02  0.00000000000E+00 0.  1.
         11    1    3    3    0    0  0.46268478059E+01  0.26734741623E+01  0.30720324532E+01  0.61638111887E+01  0.51100000000E-03 0. -1.
        -11    1    3    3    0    0 -0.15507340554E+01  0.23168273666E+01 -0.24168777565E+01  0.36896833887E+01  0.51100000000E-03 0.  1.
        -12    1    3    3    0    0  0.29745399553E+02 -0.23821202834E+02  0.14221362914E+02  0.40675369232E+02  0.00000000000E+00 0.  1.
</event>
<event>
 7    1  0.2974434E-011  0.5052886E+02  0.7816164E-02  0.1300439E+00
        -11   -1    0    0    0    0  0.00000000000E+00  0.00000000000E+00  0.45593999997E+02  0.45594000000E+02  0.51100000000E-03 0. -1.
         11   -1    0    0    0    0 -0.00000000000E+00 -0.00000000000E+00 -0.45593999997E+02  0.45594000000E+02  0.51100000000E-03 0.  1.
    9900012    2    1    2    0    0  0.33509415179E+02  0.18901981943E+02  0.13152927249E+02  0.50528864222E+02  0.30000013289E+02 0.  0.
        -12    1    1    2    0    0 -0.33509415179E+02 -0.18901981943E+02 -0.13152927249E+02  0.40659135778E+02  0.00000000000E+00 0.  1.
         11    1    3    3    0    0  0.80668771865E+01 -0.54258026926E+01  0.25952336323E+01  0.10062260197E+02  0.51100000000E-03 0. -1.
        -11    1    3    3    0    0  0.86754678215E+01  0.54492774468E+01 -0.43661730268E+01  0.11136509048E+02  0.51100000000E-03 0.  1.
         12    1    3    3    0    0  0.16767070171E+02  0.18878507189E+02  0.14923866643E+02  0.29330094977E+02  0.00000000000E+00 0. -1.
</event>
<event>
 7    1  0.2974434E-011  0.5052886E+02  0.7816164E-02  0.1300439E+00
        -11   -1    0    0    0    0  0.00000000000E+00  0.00000000000E+00  0.45593999997E+02  0.45594000000E+02  0.51100000000E-03 0. -1.
         11   -1    0    0    0    0 -0.00000000000E+00 -0.00000000000E+00 -0.45593999997E+02  0.45594000000E+02  0.51100000000E-03 0.  1.
    9900012    2    1    2    0    0  0.13061462762E+02 -0.22415603574E+02  0.31306617247E+02  0.50528863554E+02  0.30000011258E+02 0.  0.
        -12    1    1    2    0    0 -0.13061462762E+02  0.22415603574E+02 -0.31306617247E+02  0.40659136446E+02  0.00000000000E+00 0.  1.
         11    1    3    3    0    0  0.41525223228E+01 -0.17931504814E+02  0.18413885483E+02  0.26035619550E+02  0.51100000000E-03 0. -1.
        -11    1    3    3    0    0  0.11181573980E+02 -0.37537572643E+01  0.42864439756E+00  0.11802627951E+02  0.51100000000E-03 0.  1.
         12    1    3    3    0    0 -0.22726335400E+01 -0.73034149567E+00  0.12464087367E+02  0.12690616053E+02  0.00000000000E+00 0. -1.
</event>
<event>
 7    1  0.2974434E-011  0.5052885E+02  0.7816164E-02  0.1300439E+00
        -11   -1    0    0    0    0  0.00000000000E+00  0.00000000000E+00  0.45593999997E+02  0.45594000000E+02  0.51100000000E-03 0.  1.
         11   -1    0    0    0    0 -0.00000000000E+00 -0.00000000000E+00 -0.45593999997E+02  0.45594000000E+02  0.51100000000E-03 0. -1.
    9900012    2    1    2    0    0 -0.81978570499E+01  0.15674422176E+02 -0.36609751885E+02  0.50528852151E+02  0.29999976597E+02 0.  0.
        -12    1    1    2    0    0  0.81978570499E+01 -0.15674422176E+02  0.36609751885E+02  0.40659147849E+02  0.00000000000E+00 0.  1.
         11    1    3    3    0    0 -0.15959323108E+02  0.10603619649E+02 -0.11151352652E+02  0.22169560437E+02  0.51100000000E-03 0. -1.
        -11    1    3    3    0    0  0.11234094577E+01  0.34002523214E+01 -0.24113352973E+01  0.43172100755E+01  0.51100000000E-03 0.  1.
         12    1    3    3    0    0  0.66380566009E+01  0.16705502058E+01 -0.23047063936E+02  0.24042081638E+02  0.00000000000E+00 0. -1.
</event>
<event>
 7    1  0.2974434E-011  0.5052882E+02  0.7816164E-02  0.1300439E+00
        -11   -1    0    0    0    0  0.00000000000E+00  0.00000000000E+00  0.45593999997E+02  0.45594000000E+02  0.51100000000E-03 0.  1.
         11   -1    0    0    0    0 -0.00000000000E+00 -0.00000000000E+00 -0.45593999997E+02  0.45594000000E+02  0.51100000000E-03 0. -1.
    9900012    2    1    2    0    0 -0.37381878515E+02 -0.31538099915E+01 -0.15678560647E+02  0.50528823634E+02  0.29999889918E+02 0.  0.
        -12    1    1    2    0    0  0.37381878515E+02  0.31538099915E+01  0.15678560647E+02  0.40659176366E+02  0.00000000000E+00 0.  1.
         11    1    3    3    0    0 -0.18863583219E+02  0.54959213916E+01 -0.86227816071E+01  0.21456753871E+02  0.51100000000E-03 0. -1.
        -11    1    3    3    0    0 -0.77149569981E+01  0.59068351417E+01 -0.46953491603E+01  0.10791550717E+02  0.51100000000E-03 0.  1.
        -12    1    3    3    0    0 -0.10803338299E+02 -0.14556566525E+02 -0.23604298790E+01  0.18280519046E+02  0.00000000000E+00 0.  1.
</event>
<event>
 7    1  0.2974434E-011  0.5052886E+02  0.7816164E-02  0.1300439E+00
        -11   -1    0    0    0    0  0.00000000000E+00  0.00000000000E+00  0.45593999997E+02  0.45594000000E+02  0.51100000000E-03 0. -1.
         11   -1    0    0    0    0 -0.00000000000E+00 -0.00000000000E+00 -0.45593999997E+02  0.45594000000E+02  0.51100000000E-03 0.  1.
    9900012    2    1    2    0    0 -0.35591743036E+02  0.47040049380E+01  0.19085751514E+02  0.50528859015E+02  0.29999997460E+02 0.  0.
        -12    1    1    2    0    0  0.35591743036E+02 -0.47040049380E+01 -0.19085751514E+02  0.40659140985E+02  0.00000000000E+00 0.  1.
         11    1    3    3    0    0 -0.67282505556E+01  0.78440178281E+01  0.31849738923E+01  0.10813973839E+02  0.51100000000E-03 0. -1.
        -11    1    3    3    0    0 -0.28619249894E+02  0.42476301728E+01  0.11666624497E+02  0.31196377258E+02  0.51100000000E-03 0.  1.
        -12    1    3    3    0    0 -0.24424258634E+00 -0.73876430628E+01  0.42341531248E+01  0.85185079180E+01  0.00000000000E+00 0.  1.
</event>
<event>
 7    1  0.2974434E-011  0.5052885E+02  0.7816164E-02  0.1300439E+00
        -11   -1    0    0    0    0  0.00000000000E+00  0.00000000000E+00  0.45593999997E+02  0.45594000000E+02  0.51100000000E-03 0. -1.
         11   -1    0    0    0    0 -0.00000000000E+00 -0.00000000000E+00 -0.45593999997E+02  0.45594000000E+02  0.51100000000E-03 0.  1.
    9900012    2    1    2    0    0 -0.24807139600E+02  0.29488772513E+02  0.12968596566E+02  0.50528851259E+02  0.29999973887E+02 0.  0.
        -12    1    1    2    0    0  0.24807139600E+02 -0.29488772513E+02 -0.12968596566E+02  0.40659148741E+02  0.00000000000E+00 0.  1.
         11    1    3    3    0    0 -0.11559899093E+02  0.14432924797E+02  0.16658713478E+02  0.24888819182E+02  0.51100000000E-03 0. -1.
        -11    1    3    3    0    0 -0.80232565693E+01  0.67509353700E+01  0.58060778423E+01  0.11985754650E+02  0.51100000000E-03 0.  1.
        -12    1    3    3    0    0 -0.52239839368E+01  0.83049123458E+01 -0.94961947550E+01  0.13654277428E+02  0.00000000000E+00 0.  1.
</event>
<event>
 7    1  0.2974434E-011  0.5052885E+02  0.7816164E-02  0.1300439E+00
        -11   -1    0    0    0    0  0.00000000000E+00  0.00000000000E+00  0.45593999997E+02  0.45594000000E+02  0.51100000000E-03 0.  1.
         11   -1    0    0    0    0 -0.00000000000E+00 -0.00000000000E+00 -0.45593999997E+02  0.45594000000E+02  0.51100000000E-03 0. -1.
    9900012    2    1    2    0    0 -0.28953669831E+00  0.38612073850E+02 -0.12735396702E+02  0.50528850874E+02  0.29999972718E+02 0.  0.
        -12    1    1    2    0    0  0.28953669831E+00 -0.38612073850E+02  0.12735396702E+02  0.40659149126E+02  0.00000000000E+00 0.  1.
         11    1    3    3    0    0  0.11665818180E+01  0.26875143659E+02 -0.18539575808E+02  0.32670324933E+02  0.51100000000E-03 0. -1.
        -11    1    3    3    0    0  0.29645704029E+00 -0.28117218883E+00 -0.28921743810E+01  0.29208932688E+01  0.51100000000E-03 0.  1.
         12    1    3    3    0    0 -0.17525755566E+01  0.12018102380E+02  0.86963534871E+01  0.14937632673E+02  0.00000000000E+00 0. -1.
</event>
<event>
 7    1  0.2974434E-011  0.5052882E+02  0.7816164E-02  0.1300439E+00
        -11   -1    0    0    0    0  0.00000000000E+00  0.00000000000E+00  0.45593999997E+02  0.45594000000E+02  0.51100000000E-03 0. -1.
         11   -1    0    0    0    0 -0.00000000000E+00 -0.00000000000E+00 -0.45593999997E+02  0.45594000000E+02  0.51100000000E-03 0.  1.
    9900012    2    1    2    0    0 -0.10053240513E+02  0.94604767817E+01  0.38243961371E+02  0.50528820876E+02  0.29999881534E+02 0.  0.
        -12    1    1    2    0    0  0.10053240513E+02 -0.94604767817E+01 -0.38243961371E+02  0.40659179124E+02  0.00000000000E+00 0.  1.
         11    1    3    3    0    0 -0.67208094656E+01 -0.13268204755E+01  0.64006246593E+01  0.93753788584E+01  0.51100000000E-03 0. -1.
        -11    1    3    3    0    0 -0.10708470832E+02  0.10112688675E+01  0.54516216026E+01  0.12058780645E+02  0.51100000000E-03 0.  1.
         12    1    3    3    0    0  0.73760397851E+01  0.97760283897E+01  0.26391715109E+02  0.29094661372E+02  0.00000000000E+00 0. -1.
</event>
<event>
 7    1  0.2974434E-011  0.5052887E+02  0.7816164E-02  0.1300439E+00
        -11   -1    0    0    0    0  0.00000000000E+00  0.00000000000E+00  0.45593999997E+02  0.45594000000E+02  0.51100000000E-03 0.  1.
         11   -1    0    0    0    0 -0.00000000000E+00 -0.00000000000E+00 -0.45593999997E+02  0.45594000000E+02  0.51100000000E-03 0. -1.
    9900012    2    1    2    0    0 -0.15840109564E+01 -0.44949696592E+01 -0.40378839910E+02  0.50528873652E+02  0.30000041952E+02 0.  0.
        -12    1    1    2    0    0  0.15840109564E+01  0.44949696592E+01  0.40378839910E+02  0.40659126348E+02  0.00000000000E+00 0.  1.
         11    1    3    3    0    0  0.22094076804E+00 -0.79172126884E+01 -0.17205503895E+02  0.18940972417E+02  0.51100000000E-03 0. -1.
        -11    1    3    3    0    0  0.68474141257E+01  0.55154344516E+01 -0.20479700890E+02  0.22287333762E+02  0.51100000000E-03 0.  1.
        -12    1    3    3    0    0 -0.86523658502E+01 -0.20931914225E+01 -0.26936351249E+01  0.93005674731E+01  0.00000000000E+00 0.  1.
</event>
<event>
 7    1  0.2974434E-011  0.5052887E+02  0.7816164E-02  0.1300439E+00
        -11   -1    0    0    0    0  0.00000000000E+00  0.00000000000E+00  0.45593999997E+02  0.45594000000E+02  0.51100000000E-03 0.  1.
         11   -1    0    0    0    0 -0.00000000000E+00 -0.00000000000E+00 -0.45593999997E+02  0.45594000000E+02  0.51100000000E-03 0. -1.
    9900012    2    1    2    0    0 -0.31942813923E+02 -0.22322933036E+02 -0.11597781191E+02  0.50528865365E+02  0.30000016765E+02 0.  0.
        -12    1    1    2    0    0  0.31942813923E+02  0.22322933036E+02  0.11597781191E+02  0.40659134635E+02  0.00000000000E+00 0.  1.
         11    1    3    3    0    0 -0.18005011369E+02 -0.11139013395E+02 -0.78156538561E+01  0.22568617576E+02  0.51100000000E-03 0. -1.
        -11    1    3    3    0    0  0.18099190114E+01 -0.11249844308E+02 -0.43640797076E+01  0.12201639059E+02  0.51100000000E-03 0.  1.
         12    1    3    3    0    0 -0.15747721565E+02  0.65924666622E-01  0.58195237219E+00  0.15758608730E+02  0.00000000000E+00 0. -1.
</event>
<event>
 7    1  0.2974434E-011  0.5052886E+02  0.7816164E-02  0.1300439E+00
        -11   -1    0    0    0    0  0.00000000000E+00  0.00000000000E+00  0.45593999997E+02  0.45594000000E+02  0.51100000000E-03 0.  1.
         11   -1    0    0    0    0 -0.00000000000E+00 -0.00000000000E+00 -0.45593999997E+02  0.45594000000E+02  0.51100000000E-03 0. -1.
    9900012    2    1    2    0    0  0.10109459355E+02  0.38686651222E+02  0.73693635580E+01  0.50528859940E+02  0.30000000272E+02 0.  0.
        -12    1    1    2    0    0 -0.10109459355E+02 -0.38686651222E+02 -0.73693635580E+01  0.40659140060E+02  0.00000000000E+00 0.  1.
         11    1    3    3    0    0  0.12216731606E+02  0.11084824731E+02  0.18699835002E+01  0.16601768249E+02  0.51100000000E-03 0. -1.
        -11    1    3    3    0    0 -0.33753266787E+01 -0.15617155397E+01  0.27126321094E+01  0.46032769672E+01  0.51100000000E-03 0.  1.
         12    1    3    3    0    0  0.12680544278E+01  0.29163542030E+02  0.27867479483E+01  0.29323814723E+02  0.00000000000E+00 0. -1.
</event>
<event>
 7    1  0.2974434E-011  0.5052886E+02  0.7816164E-02  0.1300439E+00
        -11   -1    0    0    0    0  0.00000000000E+00  0.00000000000E+00  0.45593999997E+02  0.45594000000E+02  0.51100000000E-03 0. -1.
         11   -1    0    0    0    0 -0.00000000000E+00 -0.00000000000E+00 -0.45593999997E+02  0.45594000000E+02  0.51100000000E-03 0.  1.
    9900012    2    1    2    0    0  0.33560808562E+02  0.12910543762E+01 -0.22916607774E+02  0.50528860749E+02  0.30000002733E+02 0.  0.
        -12    1    1    2    0    0 -0.33560808562E+02 -0.12910543762E+01  0.22916607774E+02  0.40659139251E+02  0.00000000000E+00 0.  1.
         11    1    3    3    0    0  0.68685541305E+01 -0.55201750269E+01  0.14521001213E+00  0.88130842717E+01  0.51100000000E-03 0. -1.
        -11    1    3    3    0    0  0.13856809732E+02  0.10890085490E+02 -0.35034025679E+01  0.17968833233E+02  0.51100000000E-03 0.  1.
        -12    1    3    3    0    0  0.12835444700E+02 -0.40788560869E+01 -0.19558415218E+02  0.23746943244E+02  0.00000000000E+00 0.  1.
</event>
<event>
 7    1  0.2974434E-011  0.5052886E+02  0.7816164E-02  0.1300439E+00
        -11   -1    0    0    0    0  0.00000000000E+00  0.00000000000E+00  0.45593999997E+02  0.45594000000E+02  0.51100000000E-03 0.  1.
         11   -1    0    0    0    0 -0.00000000000E+00 -0.00000000000E+00 -0.45593999997E+02  0.45594000000E+02  0.51100000000E-03 0. -1.
    9900012    2    1    2    0    0  0.37911063321E+02 -0.11923974388E+02 -0.85869675995E+01  0.50528857118E+02  0.29999991696E+02 0.  0.
        -12    1    1    2    0    0 -0.37911063321E+02  0.11923974388E+02  0.85869675995E+01  0.40659142882E+02  0.00000000000E+00 0.  1.
         11    1    3    3    0    0  0.18818354144E+02 -0.91544670092E+01 -0.58075386396E+01  0.21717785896E+02  0.51100000000E-03 0. -1.
        -11    1    3    3    0    0  0.13163410792E+02 -0.54374264284E+01 -0.11238213066E+02  0.18142172500E+02  0.51100000000E-03 0.  1.
         12    1    3    3    0    0  0.59292983846E+01  0.26679190499E+01  0.84587841059E+01  0.10668898722E+02  0.00000000000E+00 0. -1.
</event>
<event>
 7    1  0.2974434E-011  0.5052886E+02  0.7816164E-02  0.1300439E+00
        -11   -1    0    0    0    0  0.00000000000E+00  0.00000000000E+00  0.45593999997E+02  0.45594000000E+02  0.51100000000E-03 0.  1.
         11   -1    0    0    0    0 -0.00000000000E+00 -0.00000000000E+00 -0.45593999997E+02  0.45594000000E+02  0.51100000000E-03 0. -1.
    9900012    2    1    2    0    0 -0.24777253676E+02  0.22962360795E+02 -0.22627049927E+02  0.50528859559E+02  0.29999999115E+02 0.  0.
        -12    1    1    2    0    0  0.24777253676E+02 -0.22962360795E+02  0.22627049927E+02  0.40659140441E+02  0.00000000000E+00 0.  1.
         11    1    3    3    0    0 -0.65085986362E-01  0.98022024611E+01 -0.13997278500E+02  0.17088335640E+02  0.51100000000E-03 0.  1.
        -11    1    3    3    0    0 -0.15212829993E+01  0.19369506017E+01 -0.72307290603E+01  0.76386859211E+01  0.51100000000E-03 0. -1.
        -12    1    3    3    0    0 -0.23190884690E+02  0.11223207732E+02 -0.13990423669E+01  0.25801837998E+02  0.00000000000E+00 0.  1.
</event>
<event>
 7    1  0.2974434E-011  0.5052886E+02  0.7816164E-02  0.1300439E+00
        -11   -1    0    0    0    0  0.00000000000E+00  0.00000000000E+00  0.45593999997E+02  0.45594000000E+02  0.51100000000E-03 0.  1.
         11   -1    0    0    0    0 -0.00000000000E+00 -0.00000000000E+00 -0.45593999997E+02  0.45594000000E+02  0.51100000000E-03 0. -1.
    9900012    2    1    2    0    0 -0.96343641621E+01 -0.24892074580E+02 -0.30671314397E+02  0.50528857405E+02  0.29999992569E+02 0.  0.
        -12    1    1    2    0    0  0.96343641621E+01  0.24892074580E+02  0.30671314397E+02  0.40659142595E+02  0.00000000000E+00 0.  1.
         11    1    3    3    0    0 -0.12373977202E+02 -0.15035460110E+02 -0.21815911574E+02  0.29242338665E+02  0.51100000000E-03 0. -1.
        -11    1    3    3    0    0 -0.42936912536E+01  0.13739626667E+00 -0.79447910680E+01  0.90318529489E+01  0.51100000000E-03 0.  1.
        -12    1    3    3    0    0  0.70333042932E+01 -0.99940107375E+01 -0.91061175410E+00  0.12254665792E+02  0.00000000000E+00 0.  1.
</event>
<event>
 7    1  0.2974434E-011  0.5052885E+02  0.7816164E-02  0.1300439E+00
        -11   -1    0    0    0    0  0.00000000000E+00  0.00000000000E+00  0.45593999997E+02  0.45594000000E+02  0.51100000000E-03 0. -1.
         11   -1    0    0    0    0 -0.00000000000E+00 -0.00000000000E+00 -0.45593999997E+02  0.45594000000E+02  0.51100000000E-03 0.  1.
    9900012    2    1    2    0    0  0.32422019157E+02 -0.22721736527E+02 -0.92575211113E+01  0.50528851778E+02  0.29999975463E+02 0.  0.
        -12    1    1    2    0    0 -0.32422019157E+02  0.22721736527E+02  0.92575211113E+01  0.40659148222E+02  0.00000000000E+00 0.  1.
         11    1    3    3    0    0 -0.34491806658E+01 -0.35854139772E+01 -0.57233276958E+01  0.75834372700E+01  0.51100000000E-03 0.  1.
        -11    1    3    3    0    0  0.10196587219E+02 -0.57549342017E+01 -0.72255113031E+01  0.13758549067E+02  0.51100000000E-03 0. -1.
        -12    1    3    3    0    0  0.25674612604E+02 -0.13381388348E+02  0.36913178876E+01  0.29186865440E+02  0.00000000000E+00 0.  1.
</event>
<event>
 7    1  0.2974434E-011  0.5052896E+02  0.7816164E-02  0.1300438E+00
        -11   -1    0    0    0    0  0.00000000000E+00  0.00000000000E+00  0.45593999997E+02  0.45594000000E+02  0.51100000000E-03 0.  1.
         11   -1    0    0    0    0 -0.00000000000E+00 -0.00000000000E+00 -0.45593999997E+02  0.45594000000E+02  0.51100000000E-03 0. -1.
    9900012    2    1    2    0    0  0.14368569090E+02 -0.30029831925E+02 -0.23343320754E+02  0.50528964019E+02  0.30000316629E+02 0.  0.
        -12    1    1    2    0    0 -0.14368569090E+02  0.30029831925E+02  0.23343320754E+02  0.40659035981E+02  0.00000000000E+00 0.  1.
         11    1    3    3    0    0  0.41188335463E+01 -0.84243391511E+00 -0.11329403907E+02  0.12084282264E+02  0.51100000000E-03 0.  1.
        -11    1    3    3    0    0 -0.21352010596E+01 -0.22193118178E+02 -0.74044993139E+01  0.23492981684E+02  0.51100000000E-03 0. -1.
         12    1    3    3    0    0  0.12384936603E+02 -0.69942798310E+01 -0.46094175335E+01  0.14951700071E+02  0.00000000000E+00 0. -1.
</event>
<event>
 7    1  0.2974434E-011  0.5052886E+02  0.7816164E-02  0.1300439E+00
        -11   -1    0    0    0    0  0.00000000000E+00  0.00000000000E+00  0.45593999997E+02  0.45594000000E+02  0.51100000000E-03 0.  1.
         11   -1    0    0    0    0 -0.00000000000E+00 -0.00000000000E+00 -0.45593999997E+02  0.45594000000E+02  0.51100000000E-03 0. -1.
    9900012    2    1    2    0    0  0.78416982330E+01 -0.23193764179E+02 -0.32461094350E+02  0.50528861121E+02  0.30000003864E+02 0.  0.
        -12    1    1    2    0    0 -0.78416982330E+01  0.23193764179E+02  0.32461094350E+02  0.40659138879E+02  0.00000000000E+00 0.  1.
         11    1    3    3    0    0  0.17754880701E+02 -0.13437081524E+02 -0.15865635027E+02  0.27340616739E+02  0.51100000000E-03 0. -1.
        -11    1    3    3    0    0  0.14967877135E+00 -0.51062571465E+01 -0.53725608912E+01  0.74135468280E+01  0.51100000000E-03 0.  1.
         12    1    3    3    0    0 -0.10062861239E+02 -0.46504255091E+01 -0.11222898432E+02  0.15774697555E+02  0.00000000000E+00 0. -1.
</event>
<event>
 7    1  0.2974434E-011  0.5052887E+02  0.7816164E-02  0.1300439E+00
        -11   -1    0    0    0    0  0.00000000000E+00  0.00000000000E+00  0.45593999997E+02  0.45594000000E+02  0.51100000000E-03 0. -1.
         11   -1    0    0    0    0 -0.00000000000E+00 -0.00000000000E+00 -0.45593999997E+02  0.45594000000E+02  0.51100000000E-03 0.  1.
    9900012    2    1    2    0    0  0.32744361585E+02  0.22212964296E+02 -0.93571342370E+01  0.50528868682E+02  0.30000026845E+02 0.  0.
        -12    1    1    2    0    0 -0.32744361585E+02 -0.22212964296E+02  0.93571342370E+01  0.40659131318E+02  0.00000000000E+00 0.  1.
         11    1    3    3    0    0  0.79852428170E+01  0.73565512069E+01 -0.36294003433E+01  0.11447947223E+02  0.51100000000E-03 0. -1.
        -11    1    3    3    0    0  0.29249607513E+02  0.10260821055E+02 -0.84113153758E+00  0.31008571249E+02  0.51100000000E-03 0.  1.
        -12    1    3    3    0    0 -0.44904887455E+01  0.45955920342E+01 -0.48866023561E+01  0.80723502095E+01  0.00000000000E+00 0.  1.
</event>
<event>
 7    1  0.2974434E-011  0.5052890E+02  0.7816164E-02  0.1300439E+00
        -11   -1    0    0    0    0  0.00000000000E+00  0.00000000000E+00  0.45593999997E+02  0.45594000000E+02  0.51100000000E-03 0. -1.
         11   -1    0    0    0    0 -0.00000000000E+00 -0.00000000000E+00 -0.45593999997E+02  0.45594000000E+02  0.51100000000E-03 0.  1.
    9900012    2    1    2    0    0 -0.33344287311E+02  0.23255289894E+02  0.71586745430E+00  0.50528899290E+02  0.30000119882E+02 0.  0.
        -12    1    1    2    0    0  0.33344287311E+02 -0.23255289894E+02 -0.71586745430E+00  0.40659100710E+02  0.00000000000E+00 0.  1.
         11    1    3    3    0    0 -0.27389116074E+02  0.26615079170E+02 -0.57970908951E+00  0.38195054410E+02  0.51100000000E-03 0. -1.
        -11    1    3    3    0    0  0.24172451194E+00  0.21294235071E+01 -0.24434804261E+01  0.32501495452E+01  0.51100000000E-03 0.  1.
        -12    1    3    3    0    0 -0.61968957492E+01 -0.54892127833E+01  0.37390569699E+01  0.90836953345E+01  0.00000000000E+00 0.  1.
</event>
<event>
 7    1  0.2974434E-011  0.5052886E+02  0.7816164E-02  0.1300439E+00
        -11   -1    0    0    0    0  0.00000000000E+00  0.00000000000E+00  0.45593999997E+02  0.45594000000E+02  0.51100000000E-03 0.  1.
         11   -1    0    0    0    0 -0.00000000000E+00 -0.00000000000E+00 -0.45593999997E+02  0.45594000000E+02  0.51100000000E-03 0. -1.
    9900012    2    1    2    0    0  0.27370653936E+02 -0.11301465718E+02 -0.27861984324E+02  0.50528855952E+02  0.29999988151E+02 0.  0.
        -12    1    1    2    0    0 -0.27370653936E+02  0.11301465718E+02  0.27861984324E+02  0.40659144048E+02  0.00000000000E+00 0.  1.
         11    1    3    3    0    0  0.17745477946E+02 -0.36754720498E+01 -0.39484575306E+01  0.18547274718E+02  0.51100000000E-03 0. -1.
        -11    1    3    3    0    0  0.10073622444E+02 -0.82559262869E+01 -0.65099329336E+01  0.14560817802E+02  0.51100000000E-03 0.  1.
         12    1    3    3    0    0 -0.44844645390E+00  0.62993261834E+00 -0.17403593860E+02  0.17420763432E+02  0.00000000000E+00 0. -1.
</event>
<event>
 7    1  0.2974434E-011  0.5052886E+02  0.7816164E-02  0.1300439E+00
        -11   -1    0    0    0    0  0.00000000000E+00  0.00000000000E+00  0.45593999997E+02  0.45594000000E+02  0.51100000000E-03 0. -1.
         11   -1    0    0    0    0 -0.00000000000E+00 -0.00000000000E+00 -0.45593999997E+02  0.45594000000E+02  0.51100000000E-03 0.  1.
    9900012    2    1    2    0    0 -0.31568771642E+02  0.22950823637E+02  0.11394643614E+02  0.50528861400E+02  0.30000004712E+02 0.  0.
        -12    1    1    2    0    0  0.31568771642E+02 -0.22950823637E+02 -0.11394643614E+02  0.40659138600E+02  0.00000000000E+00 0.  1.
         11    1    3    3    0    0 -0.17017297712E+01 -0.10757865482E+01  0.37872814971E+00  0.20485693017E+01  0.51100000000E-03 0. -1.
        -11    1    3    3    0    0 -0.11027807470E+02 -0.96588784600E+00 -0.62740858604E+01  0.12724371519E+02  0.51100000000E-03 0.  1.
         12    1    3    3    0    0 -0.18839234401E+02  0.24992498031E+02  0.17290001324E+02  0.35755920579E+02  0.00000000000E+00 0. -1.
</event>
<event>
 7    1  0.2974434E-011  0.5052886E+02  0.7816164E-02  0.1300439E+00
        -11   -1    0    0    0    0  0.00000000000E+00  0.00000000000E+00  0.45593999997E+02  0.45594000000E+02  0.51100000000E-03 0.  1.
         11   -1    0    0    0    0 -0.00000000000E+00 -0.00000000000E+00 -0.45593999997E+02  0.45594000000E+02  0.51100000000E-03 0. -1.
    9900012    2    1    2    0    0 -0.95841184527E+01  0.17954352535E+02 -0.35198748127E+02  0.50528856241E+02  0.29999989031E+02 0.  0.
        -12    1    1    2    0    0  0.95841184527E+01 -0.17954352535E+02  0.35198748127E+02  0.40659143759E+02  0.00000000000E+00 0.  1.
         11    1    3    3    0    0 -0.11649675798E+02  0.59213151710E+01 -0.23264975875E+02  0.26684003116E+02  0.51100000000E-03 0. -1.
        -11    1    3    3    0    0 -0.54798236430E+01  0.73564052953E+01 -0.11826572420E+02  0.14967063222E+02  0.51100000000E-03 0.  1.
         12    1    3    3    0    0  0.75453809887E+01  0.46766320685E+01 -0.10719983271E+00  0.88777899037E+01  0.00000000000E+00 0. -1.
</event>
<event>
 7    1  0.2974434E-011  0.5052886E+02  0.7816164E-02  0.1300439E+00
        -11   -1    0    0    0    0  0.00000000000E+00  0.00000000000E+00  0.45593999997E+02  0.45594000000E+02  0.51100000000E-03 0.  1.
         11   -1    0    0    0    0 -0.00000000000E+00 -0.00000000000E+00 -0.45593999997E+02  0.45594000000E+02  0.51100000000E-03 0. -1.
    9900012    2    1    2    0    0 -0.31457904503E+02 -0.24271657568E+02 -0.86285992932E+01  0.50528857823E+02  0.29999993840E+02 0.  0.
        -12    1    1    2    0    0  0.31457904503E+02  0.24271657568E+02  0.86285992932E+01  0.40659142177E+02  0.00000000000E+00 0.  1.
         11    1    3    3    0    0 -0.57487513377E+01  0.44622929401E+01  0.34580883744E+00  0.72855874327E+01  0.51100000000E-03 0. -1.
        -11    1    3    3    0    0 -0.55691934370E+01  0.28516118155E-01  0.27679921023E+01  0.62192048726E+01  0.51100000000E-03 0.  1.
        -12    1    3    3    0    0 -0.20139959728E+02 -0.28762466626E+02 -0.11742400233E+02  0.37024065518E+02  0.00000000000E+00 0.  1.
</event>
<event>
 7    1  0.2974434E-011  0.5052888E+02  0.7816164E-02  0.1300439E+00
        -11   -1    0    0    0    0  0.00000000000E+00  0.00000000000E+00  0.45593999997E+02  0.45594000000E+02  0.51100000000E-03 0.  1.
         11   -1    0    0    0    0 -0.00000000000E+00 -0.00000000000E+00 -0.45593999997E+02  0.45594000000E+02  0.51100000000E-03 0. -1.
    9900012    2    1    2    0    0  0.16065716831E+02 -0.14277245181E+00 -0.37350184573E+02  0.50528881356E+02  0.30000065369E+02 0.  0.
        -12    1    1    2    0    0 -0.16065716831E+02  0.14277245181E+00  0.37350184573E+02  0.40659118644E+02  0.00000000000E+00 0.  1.
         11    1    3    3    0    0  0.60131029315E+01  0.99797077642E+01 -0.14921939675E+02  0.18931884688E+02  0.51100000000E-03 0. -1.
        -11    1    3    3    0    0  0.28042572826E+01  0.48171397405E+01 -0.68174318324E+01  0.88060247125E+01  0.51100000000E-03 0.  1.
        -12    1    3    3    0    0  0.72483566173E+01 -0.14939619957E+02 -0.15610813066E+02  0.22790971955E+02  0.00000000000E+00 0.  1.
</event>
<event>
 7    1  0.2974434E-011  0.5052886E+02  0.7816164E-02  0.1300439E+00
        -11   -1    0    0    0    0  0.00000000000E+00  0.00000000000E+00  0.45593999997E+02  0.45594000000E+02  0.51100000000E-03 0. -1.
         11   -1    0    0    0    0 -0.00000000000E+00 -0.00000000000E+00 -0.45593999997E+02  0.45594000000E+02  0.51100000000E-03 0.  1.
    9900012    2    1    2    0    0  0.21744008274E+02  0.31753367369E+02 -0.13118218382E+02  0.50528857257E+02  0.29999992118E+02 0.  0.
        -12    1    1    2    0    0 -0.21744008274E+02 -0.31753367369E+02  0.13118218382E+02  0.40659142743E+02  0.00000000000E+00 0.  1.
         11    1    3    3    0    0  0.20720637594E+02  0.99642892858E+01 -0.49144428352E+01  0.23511351129E+02  0.51100000000E-03 0. -1.
        -11    1    3    3    0    0  0.68745509811E+01  0.70691808956E+01 -0.38919325843E+01  0.10600939073E+02  0.51100000000E-03 0.  1.
        -12    1    3    3    0    0 -0.58511803010E+01  0.14719897188E+02 -0.43118429620E+01  0.16416567055E+02  0.00000000000E+00 0.  1.
</event>
<event>
 7    1  0.2974434E-011  0.5052887E+02  0.7816164E-02  0.1300439E+00
        -11   -1    0    0    0    0  0.00000000000E+00  0.00000000000E+00  0.45593999997E+02  0.45594000000E+02  0.51100000000E-03 0. -1.
         11   -1    0    0    0    0 -0.00000000000E+00 -0.00000000000E+00 -0.45593999997E+02  0.45594000000E+02  0.51100000000E-03 0.  1.
    9900012    2    1    2    0    0  0.25479635277E+02  0.31506284033E+02 -0.33626619371E+01  0.50528865199E+02  0.30000016260E+02 0.  0.
        -12    1    1    2    0    0 -0.25479635277E+02 -0.31506284033E+02  0.33626619371E+01  0.40659134801E+02  0.00000000000E+00 0.  1.
         11    1    3    3    0    0  0.36257705551E+01  0.61924027791E+00 -0.64799017942E+00  0.37349112671E+01  0.51100000000E-03 0. -1.
        -11    1    3    3    0    0  0.20508139878E+02  0.35992569455E+02 -0.21003306847E+01  0.41478431100E+02  0.51100000000E-03 0.  1.
        -12    1    3    3    0    0  0.13457248442E+01 -0.51055257000E+01 -0.61434107299E+00  0.53155228326E+01  0.00000000000E+00 0.  1.
</event>
<event>
 7    1  0.2974434E-011  0.5052887E+02  0.7816164E-02  0.1300439E+00
        -11   -1    0    0    0    0  0.00000000000E+00  0.00000000000E+00  0.45593999997E+02  0.45594000000E+02  0.51100000000E-03 0.  1.
         11   -1    0    0    0    0 -0.00000000000E+00 -0.00000000000E+00 -0.45593999997E+02  0.45594000000E+02  0.51100000000E-03 0. -1.
    9900012    2    1    2    0    0  0.26209697374E+02  0.21361589048E+02 -0.22580953310E+02  0.50528866026E+02  0.30000018773E+02 0.  0.
        -12    1    1    2    0    0 -0.26209697374E+02 -0.21361589048E+02  0.22580953310E+02  0.40659133974E+02  0.00000000000E+00 0.  1.
         11    1    3    3    0    0  0.19824463612E+02  0.58298384383E+01 -0.13605991621E+02  0.24741046501E+02  0.51100000000E-03 0. -1.
        -11    1    3    3    0    0  0.52985289328E+01  0.88345958892E+00  0.35878295688E+01  0.64596773118E+01  0.51100000000E-03 0.  1.
         12    1    3    3    0    0  0.10867048297E+01  0.14648291021E+02 -0.12562791258E+02  0.19328142213E+02  0.00000000000E+00 0. -1.
</event>
<event>
 7    1  0.2974434E-011  0.5052886E+02  0.7816164E-02  0.1300439E+00
        -11   -1    0    0    0    0  0.00000000000E+00  0.00000000000E+00  0.45593999997E+02  0.45594000000E+02  0.51100000000E-03 0.  1.
         11   -1    0    0    0    0 -0.00000000000E+00 -0.00000000000E+00 -0.45593999997E+02  0.45594000000E+02  0.51100000000E-03 0. -1.
    9900012    2    1    2    0    0  0.25850628102E+02  0.82654149994E+01 -0.30275293670E+02  0.50528862464E+02  0.30000007946E+02 0.  0.
        -12    1    1    2    0    0 -0.25850628102E+02 -0.82654149994E+01  0.30275293670E+02  0.40659137536E+02  0.00000000000E+00 0.  1.
         11    1    3    3    0    0 -0.41551764242E+01  0.29457883338E+01 -0.87932054786E+00  0.51687875668E+01  0.51100000000E-03 0. -1.
        -11    1    3    3    0    0  0.50087933237E+01  0.52115095293E+01 -0.63781991761E+00  0.72563528472E+01  0.51100000000E-03 0.  1.
         12    1    3    3    0    0  0.24997011202E+02  0.10811713627E+00 -0.28758153204E+02  0.38103722050E+02  0.00000000000E+00 0. -1.
</event>
<event>
 7    1  0.2974434E-011  0.5052883E+02  0.7816164E-02  0.1300439E+00
        -11   -1    0    0    0    0  0.00000000000E+00  0.00000000000E+00  0.45593999997E+02  0.45594000000E+02  0.51100000000E-03 0.  1.
         11   -1    0    0    0    0 -0.00000000000E+00 -0.00000000000E+00 -0.45593999997E+02  0.45594000000E+02  0.51100000000E-03 0. -1.
    9900012    2    1    2    0    0  0.77198171757E+01  0.54291898816E+01 -0.39548661428E+02  0.50528827594E+02  0.29999901955E+02 0.  0.
        -12    1    1    2    0    0 -0.77198171757E+01 -0.54291898816E+01  0.39548661428E+02  0.40659172406E+02  0.00000000000E+00 0.  1.
         11    1    3    3    0    0 -0.39332645397E+01  0.10529253580E+01 -0.11511147786E+01  0.42313457958E+01  0.51100000000E-03 0. -1.
        -11    1    3    3    0    0  0.18695466355E+01 -0.78656606005E+01 -0.52712475676E+01  0.96514181593E+01  0.51100000000E-03 0.  1.
         12    1    3    3    0    0  0.97835350800E+01  0.12241925124E+02 -0.33126299082E+02  0.36646063639E+02  0.00000000000E+00 0. -1.
</event>
<event>
 7    1  0.2974434E-011  0.5052885E+02  0.7816164E-02  0.1300439E+00
        -11   -1    0    0    0    0  0.00000000000E+00  0.00000000000E+00  0.45593999997E+02  0.45594000000E+02  0.51100000000E-03 0.  1.
         11   -1    0    0    0    0 -0.00000000000E+00 -0.00000000000E+00 -0.45593999997E+02  0.45594000000E+02  0.51100000000E-03 0. -1.
    9900012    2    1    2    0    0  0.25466356490E+01  0.35665433911E+02 -0.19356077260E+02  0.50528852737E+02  0.29999978381E+02 0.  0.
        -12    1    1    2    0    0 -0.25466356490E+01 -0.35665433911E+02  0.19356077260E+02  0.40659147263E+02  0.00000000000E+00 0.  1.
         11    1    3    3    0    0 -0.22130414871E+01  0.34271465106E+01  0.30703008867E+01  0.51058430866E+01  0.51100000000E-03 0. -1.
        -11    1    3    3    0    0 -0.28274679800E+01 -0.18019131787E+01  0.89278878678E+00  0.34696596894E+01  0.51100000000E-03 0.  1.
         12    1    3    3    0    0  0.75871451161E+01  0.34040200580E+02 -0.23319166934E+02  0.41953349961E+02  0.00000000000E+00 0. -1.
</event>
<event>
 7    1  0.2974434E-011  0.5052888E+02  0.7816164E-02  0.1300439E+00
        -11   -1    0    0    0    0  0.00000000000E+00  0.00000000000E+00  0.45593999997E+02  0.45594000000E+02  0.51100000000E-03 0.  1.
         11   -1    0    0    0    0 -0.00000000000E+00 -0.00000000000E+00 -0.45593999997E+02  0.45594000000E+02  0.51100000000E-03 0. -1.
    9900012    2    1    2    0    0  0.54104384940E+01 -0.16290000411E+02 -0.36858199303E+02  0.50528882770E+02  0.30000069666E+02 0.  0.
        -12    1    1    2    0    0 -0.54104384940E+01  0.16290000411E+02  0.36858199303E+02  0.40659117230E+02  0.00000000000E+00 0.  1.
         11    1    3    3    0    0  0.73395541899E+01 -0.62237310668E+01 -0.18816941596E+02  0.21134833224E+02  0.51100000000E-03 0. -1.
        -11    1    3    3    0    0 -0.21025831139E+01 -0.16518632940E+02 -0.11746247993E+02  0.20377939841E+02  0.51100000000E-03 0.  1.
         12    1    3    3    0    0  0.17346741801E+00  0.64523635961E+01 -0.62950097139E+01  0.90161097054E+01  0.00000000000E+00 0. -1.
</event>
<event>
 7    1  0.2974434E-011  0.5052886E+02  0.7816164E-02  0.1300439E+00
        -11   -1    0    0    0    0  0.00000000000E+00  0.00000000000E+00  0.45593999997E+02  0.45594000000E+02  0.51100000000E-03 0.  1.
         11   -1    0    0    0    0 -0.00000000000E+00 -0.00000000000E+00 -0.45593999997E+02  0.45594000000E+02  0.51100000000E-03 0. -1.
    9900012    2    1    2    0    0 -0.12236267866E+02 -0.32645789972E+02 -0.20921086293E+02  0.50528859504E+02  0.29999998949E+02 0.  0.
        -12    1    1    2    0    0  0.12236267866E+02  0.32645789972E+02  0.20921086293E+02  0.40659140496E+02  0.00000000000E+00 0.  1.
         11    1    3    3    0    0  0.43819116631E+01 -0.76178827576E+01 -0.39810418117E+01  0.96479003777E+01  0.51100000000E-03 0. -1.
        -11    1    3    3    0    0  0.42125721778E+00 -0.76966377400E+01  0.41032964350E+01  0.87322810330E+01  0.51100000000E-03 0.  1.
         12    1    3    3    0    0 -0.17039436746E+02 -0.17331269474E+02 -0.21043340916E+02  0.32148678093E+02  0.00000000000E+00 0. -1.
</event>
<event>
 7    1  0.2974434E-011  0.5052886E+02  0.7816164E-02  0.1300439E+00
        -11   -1    0    0    0    0  0.00000000000E+00  0.00000000000E+00  0.45593999997E+02  0.45594000000E+02  0.51100000000E-03 0.  1.
         11   -1    0    0    0    0 -0.00000000000E+00 -0.00000000000E+00 -0.45593999997E+02  0.45594000000E+02  0.51100000000E-03 0. -1.
    9900012    2    1    2    0    0  0.19172913134E+02  0.29344443668E+02 -0.20602635348E+02  0.50528861353E+02  0.30000004568E+02 0.  0.
        -12    1    1    2    0    0 -0.19172913134E+02 -0.29344443668E+02  0.20602635348E+02  0.40659138647E+02  0.00000000000E+00 0.  1.
         11    1    3    3    0    0  0.52428093168E+01  0.12811790926E+02 -0.13382731821E+02  0.19254260503E+02  0.51100000000E-03 0. -1.
        -11    1    3    3    0    0 -0.32557052335E+01  0.95856196815E+01 -0.77198406704E+01  0.12731051075E+02  0.51100000000E-03 0.  1.
        -12    1    3    3    0    0  0.17185809051E+02  0.69470330599E+01  0.49993714331E+00  0.18543549774E+02  0.00000000000E+00 0.  1.
</event>
<event>
 7    1  0.2974434E-011  0.5052886E+02  0.7816164E-02  0.1300439E+00
        -11   -1    0    0    0    0  0.00000000000E+00  0.00000000000E+00  0.45593999997E+02  0.45594000000E+02  0.51100000000E-03 0. -1.
         11   -1    0    0    0    0 -0.00000000000E+00 -0.00000000000E+00 -0.45593999997E+02  0.45594000000E+02  0.51100000000E-03 0.  1.
    9900012    2    1    2    0    0  0.18015619881E+02 -0.27686292580E+02 -0.23708067137E+02  0.50528858299E+02  0.29999995285E+02 0.  0.
        -12    1    1    2    0    0 -0.18015619881E+02  0.27686292580E+02  0.23708067137E+02  0.40659141701E+02  0.00000000000E+00 0.  1.
         11    1    3    3    0    0 -0.25891796037E+01  0.12981459928E+01  0.76711823251E+00  0.29962484347E+01  0.51100000000E-03 0. -1.
        -11    1    3    3    0    0 -0.37286929082E+01 -0.24870432889E+01 -0.46408168040E+01  0.64517994385E+01  0.51100000000E-03 0.  1.
         12    1    3    3    0    0  0.24333492393E+02 -0.26497395284E+02 -0.19834368565E+02  0.41080810426E+02  0.00000000000E+00 0. -1.
</event>
<event>
 7    1  0.2974434E-011  0.5052886E+02  0.7816164E-02  0.1300439E+00
        -11   -1    0    0    0    0  0.00000000000E+00  0.00000000000E+00  0.45593999997E+02  0.45594000000E+02  0.51100000000E-03 0.  1.
         11   -1    0    0    0    0 -0.00000000000E+00 -0.00000000000E+00 -0.45593999997E+02  0.45594000000E+02  0.51100000000E-03 0. -1.
    9900012    2    1    2    0    0  0.22981341112E+02  0.27708924914E+01 -0.33426721063E+02  0.50528861230E+02  0.30000004194E+02 0.  0.
        -12    1    1    2    0    0 -0.22981341112E+02 -0.27708924914E+01  0.33426721063E+02  0.40659138770E+02  0.00000000000E+00 0.  1.
         11    1    3    3    0    0  0.93367502641E+01  0.46473482733E+01 -0.33379364571E+02  0.34970769664E+02  0.51100000000E-03 0. -1.
        -11    1    3    3    0    0  0.76728693709E+01 -0.45323234553E+01 -0.94330081280E+00  0.89612888008E+01  0.51100000000E-03 0.  1.
        -12    1    3    3    0    0  0.59717214765E+01  0.26558676734E+01  0.89594432074E+00  0.65968027648E+01  0.00000000000E+00 0.  1.
</event>
<event>
 7    1  0.2974434E-011  0.5052887E+02  0.7816164E-02  0.1300439E+00
        -11   -1    0    0    0    0  0.00000000000E+00  0.00000000000E+00  0.45593999997E+02  0.45594000000E+02  0.51100000000E-03 0.  1.
         11   -1    0    0    0    0 -0.00000000000E+00 -0.00000000000E+00 -0.45593999997E+02  0.45594000000E+02  0.51100000000E-03 0. -1.
    9900012    2    1    2    0    0 -0.19458000396E+02 -0.32301486635E+02 -0.15204118796E+02  0.50528867611E+02  0.30000023591E+02 0.  0.
        -12    1    1    2    0    0  0.19458000396E+02  0.32301486635E+02  0.15204118796E+02  0.40659132389E+02  0.00000000000E+00 0.  1.
         11    1    3    3    0    0 -0.15464061051E+02 -0.17708648439E+02 -0.11389986173E-01  0.23510285913E+02  0.51100000000E-03 0. -1.
        -11    1    3    3    0    0 -0.61647002914E+01 -0.50946939903E+00 -0.10181785538E+02  0.11913515256E+02  0.51100000000E-03 0.  1.
        -12    1    3    3    0    0  0.21707609457E+01 -0.14083368797E+02 -0.50109432716E+01  0.15105066442E+02  0.00000000000E+00 0.  1.
</event>
<event>
 7    1  0.2974434E-011  0.5052886E+02  0.7816164E-02  0.1300439E+00
        -11   -1    0    0    0    0  0.00000000000E+00  0.00000000000E+00  0.45593999997E+02  0.45594000000E+02  0.51100000000E-03 0.  1.
         11   -1    0    0    0    0 -0.00000000000E+00 -0.00000000000E+00 -0.45593999997E+02  0.45594000000E+02  0.51100000000E-03 0. -1.
    9900012    2    1    2    0    0  0.36248158099E+02  0.42301725571E+01 -0.17926015004E+02  0.50528864011E+02  0.30000012649E+02 0.  0.
        -12    1    1    2    0    0 -0.36248158099E+02 -0.42301725571E+01  0.17926015004E+02  0.40659135989E+02  0.00000000000E+00 0.  1.
         11    1    3    3    0    0  0.19570802228E+02 -0.64402772624E+01 -0.39700846837E+01  0.20982255449E+02  0.51100000000E-03 0. -1.
        -11    1    3    3    0    0  0.14363534669E+01  0.72586169178E+01  0.15262055462E+01  0.75551263704E+01  0.51100000000E-03 0.  1.
         12    1    3    3    0    0  0.15241002404E+02  0.34118329016E+01 -0.15482135866E+02  0.21991482192E+02  0.00000000000E+00 0. -1.
</event>
<event>
 7    1  0.2974434E-011  0.5052886E+02  0.7816164E-02  0.1300439E+00
        -11   -1    0    0    0    0  0.00000000000E+00  0.00000000000E+00  0.45593999997E+02  0.45594000000E+02  0.51100000000E-03 0.  1.
         11   -1    0    0    0    0 -0.00000000000E+00 -0.00000000000E+00 -0.45593999997E+02  0.45594000000E+02  0.51100000000E-03 0. -1.
    9900012    2    1    2    0    0 -0.25623866799E+02  0.21981001275E+02 -0.22658750859E+02  0.50528856412E+02  0.29999989551E+02 0.  0.
        -12    1    1    2    0    0  0.25623866799E+02 -0.21981001275E+02  0.22658750859E+02  0.40659143588E+02  0.00000000000E+00 0.  1.
         11    1    3    3    0    0 -0.10418838566E+01  0.61513357159E+01  0.13976226833E+01  0.63935750942E+01  0.51100000000E-03 0.  1.
        -11    1    3    3    0    0 -0.28507292034E+02  0.13785635080E+02 -0.23959628575E+02  0.39708604048E+02  0.51100000000E-03 0. -1.
         12    1    3    3    0    0  0.39253090924E+01  0.20440304790E+01 -0.96744967796E-01  0.44266772707E+01  0.00000000000E+00 0. -1.
</event>
<event>
 7    1  0.2974434E-011  0.5052886E+02  0.7816164E-02  0.1300439E+00
        -11   -1    0    0    0    0  0.00000000000E+00  0.00000000000E+00  0.45593999997E+02  0.45594000000E+02  0.51100000000E-03 0.  1.
         11   -1    0    0    0    0 -0.00000000000E+00 -0.00000000000E+00 -0.45593999997E+02  0.45594000000E+02  0.51100000000E-03 0. -1.
    9900012    2    1    2    0    0  0.62652797050E+01 -0.28735129854E+02 -0.28074975437E+02  0.50528860027E+02  0.30000000539E+02 0.  0.
        -12    1    1    2    0    0 -0.62652797050E+01  0.28735129854E+02  0.28074975437E+02  0.40659139973E+02  0.00000000000E+00 0.  1.
         11    1    3    3    0    0 -0.46666616715E+00 -0.32304434392E+01 -0.70541853096E+01  0.77727133466E+01  0.51100000000E-03 0. -1.
        -11    1    3    3    0    0 -0.40461736112E+01  0.30734427959E+01 -0.81669924245E+01  0.96185932981E+01  0.51100000000E-03 0.  1.
         12    1    3    3    0    0  0.10778119483E+02 -0.28578129211E+02 -0.12853797703E+02  0.33137553383E+02  0.00000000000E+00 0. -1.
</event>
<event>
 7    1  0.2974434E-011  0.5052886E+02  0.7816164E-02  0.1300439E+00
        -11   -1    0    0    0    0  0.00000000000E+00  0.00000000000E+00  0.45593999997E+02  0.45594000000E+02  0.51100000000E-03 0.  1.
         11   -1    0    0    0    0 -0.00000000000E+00 -0.00000000000E+00 -0.45593999997E+02  0.45594000000E+02  0.51100000000E-03 0. -1.
    9900012    2    1    2    0    0  0.68717320164E+01 -0.81295830426E+01 -0.39240985503E+02  0.50528858781E+02  0.29999996752E+02 0.  0.
        -12    1    1    2    0    0 -0.68717320164E+01  0.81295830426E+01  0.39240985503E+02  0.40659141219E+02  0.00000000000E+00 0.  1.
         11    1    3    3    0    0  0.81487456639E+00 -0.41447679208E+01 -0.12344386813E+02  0.13047107255E+02  0.51100000000E-03 0. -1.
        -11    1    3    3    0    0  0.10798207656E+02  0.18563491374E+01 -0.27822086401E+02  0.29901769390E+02  0.51100000000E-03 0.  1.
        -12    1    3    3    0    0 -0.47413502063E+01 -0.58411642592E+01  0.92548771040E+00  0.75799821361E+01  0.00000000000E+00 0.  1.
</event>
<event>
 7    1  0.2974434E-011  0.5052886E+02  0.7816164E-02  0.1300439E+00
        -11   -1    0    0    0    0  0.00000000000E+00  0.00000000000E+00  0.45593999997E+02  0.45594000000E+02  0.51100000000E-03 0.  1.
         11   -1    0    0    0    0 -0.00000000000E+00 -0.00000000000E+00 -0.45593999997E+02  0.45594000000E+02  0.51100000000E-03 0. -1.
    9900012    2    1    2    0    0  0.14482301108E+02  0.41529162704E+01 -0.37764821696E+02  0.50528861831E+02  0.30000006020E+02 0.  0.
        -12    1    1    2    0    0 -0.14482301108E+02 -0.41529162704E+01  0.37764821696E+02  0.40659138169E+02  0.00000000000E+00 0.  1.
         11    1    3    3    0    0  0.28939702532E+01  0.69569786732E+01 -0.34983070352E+01  0.83073923983E+01  0.51100000000E-03 0. -1.
        -11    1    3    3    0    0  0.39691214416E+01 -0.96925144398E+01 -0.58305122575E+01  0.11987227979E+02  0.51100000000E-03 0.  1.
         12    1    3    3    0    0  0.76192094134E+01  0.68884520369E+01 -0.28436002403E+02  0.30234241453E+02  0.00000000000E+00 0. -1.
</event>
<event>
 7    1  0.2974434E-011  0.5052886E+02  0.7816164E-02  0.1300439E+00
        -11   -1    0    0    0    0  0.00000000000E+00  0.00000000000E+00  0.45593999997E+02  0.45594000000E+02  0.51100000000E-03 0.  1.
         11   -1    0    0    0    0 -0.00000000000E+00 -0.00000000000E+00 -0.45593999997E+02  0.45594000000E+02  0.51100000000E-03 0. -1.
    9900012    2    1    2    0    0 -0.43215856633E+01 -0.24949422683E+02 -0.31812193273E+02  0.50528862826E+02  0.30000009046E+02 0.  0.
        -12    1    1    2    0    0  0.43215856633E+01  0.24949422683E+02  0.31812193273E+02  0.40659137174E+02  0.00000000000E+00 0.  1.
         11    1    3    3    0    0 -0.11800357120E+01  0.96419635558E+00  0.17883809308E+01  0.23495670896E+01  0.51100000000E-03 0. -1.
        -11    1    3    3    0    0  0.10029339267E+01 -0.87681082682E+01  0.14469962031E+01  0.89431201119E+01  0.51100000000E-03 0.  1.
         12    1    3    3    0    0 -0.41444838780E+01 -0.17145510771E+02 -0.35047570407E+02  0.39236175625E+02  0.00000000000E+00 0. -1.
</event>
<event>
 7    1  0.2974434E-011  0.5052885E+02  0.7816164E-02  0.1300439E+00
        -11   -1    0    0    0    0  0.00000000000E+00  0.00000000000E+00  0.45593999997E+02  0.45594000000E+02  0.51100000000E-03 0. -1.
         11   -1    0    0    0    0 -0.00000000000E+00 -0.00000000000E+00 -0.45593999997E+02  0.45594000000E+02  0.51100000000E-03 0.  1.
    9900012    2    1    2    0    0  0.29486629735E+02 -0.38217845401E-01  0.27994710318E+02  0.50528848514E+02  0.29999965544E+02 0.  0.
        -12    1    1    2    0    0 -0.29486629735E+02  0.38217845401E-01 -0.27994710318E+02  0.40659151486E+02  0.00000000000E+00 0.  1.
         11    1    3    3    0    0  0.16746396830E+02  0.20675994467E+01  0.18913638731E+02  0.25346449546E+02  0.51100000000E-03 0. -1.
        -11    1    3    3    0    0  0.62372145448E+01  0.64133536209E+01  0.11120726025E+02  0.14272508453E+02  0.51100000000E-03 0.  1.
         12    1    3    3    0    0  0.65030183606E+01 -0.85191709130E+01 -0.20396544383E+01  0.10909890516E+02  0.00000000000E+00 0. -1.
</event>
<event>
 7    1  0.2974434E-011  0.5052886E+02  0.7816164E-02  0.1300439E+00
        -11   -1    0    0    0    0  0.00000000000E+00  0.00000000000E+00  0.45593999997E+02  0.45594000000E+02  0.51100000000E-03 0.  1.
         11   -1    0    0    0    0 -0.00000000000E+00 -0.00000000000E+00 -0.45593999997E+02  0.45594000000E+02  0.51100000000E-03 0. -1.
    9900012    2    1    2    0    0 -0.22385482173E+02 -0.29656857031E+02 -0.16508375519E+02  0.50528862732E+02  0.30000008760E+02 0.  0.
        -12    1    1    2    0    0  0.22385482173E+02  0.29656857031E+02  0.16508375519E+02  0.40659137268E+02  0.00000000000E+00 0.  1.
         11    1    3    3    0    0 -0.23891827152E+02 -0.22460442046E+02 -0.82586031437E+01  0.33815608641E+02  0.51100000000E-03 0. -1.
        -11    1    3    3    0    0 -0.75780580429E+00 -0.10941060102E+01  0.32429354306E+01  0.35054198132E+01  0.51100000000E-03 0.  1.
        -12    1    3    3    0    0  0.22641507831E+01 -0.61023089747E+01 -0.11492707806E+02  0.13207834278E+02  0.00000000000E+00 0.  1.
</event>
<event>
 7    1  0.2974434E-011  0.5052886E+02  0.7816164E-02  0.1300439E+00
        -11   -1    0    0    0    0  0.00000000000E+00  0.00000000000E+00  0.45593999997E+02  0.45594000000E+02  0.51100000000E-03 0.  1.
         11   -1    0    0    0    0 -0.00000000000E+00 -0.00000000000E+00 -0.45593999997E+02  0.45594000000E+02  0.51100000000E-03 0. -1.
    9900012    2    1    2    0    0 -0.19208948254E+02  0.34907442790E+02 -0.81026358167E+01  0.50528856351E+02  0.29999989363E+02 0.  0.
        -12    1    1    2    0    0  0.19208948254E+02 -0.34907442790E+02  0.81026358167E+01  0.40659143649E+02  0.00000000000E+00 0.  1.
         11    1    3    3    0    0 -0.36865170232E+01  0.21411818804E+01 -0.89680105394E+01  0.99297674143E+01  0.51100000000E-03 0. -1.
        -11    1    3    3    0    0  0.29123989751E+01 -0.80016153464E-01 -0.17571986694E+00  0.29187922344E+01  0.51100000000E-03 0.  1.
         12    1    3    3    0    0 -0.18434830206E+02  0.32846277063E+02  0.10410945896E+01  0.37680296702E+02  0.00000000000E+00 0. -1.
</event>
<event>
 7    1  0.2974434E-011  0.5052886E+02  0.7816164E-02  0.1300439E+00
        -11   -1    0    0    0    0  0.00000000000E+00  0.00000000000E+00  0.45593999997E+02  0.45594000000E+02  0.51100000000E-03 0.  1.
         11   -1    0    0    0    0 -0.00000000000E+00 -0.00000000000E+00 -0.45593999997E+02  0.45594000000E+02  0.51100000000E-03 0. -1.
    9900012    2    1    2    0    0  0.11864756360E+02 -0.38829412168E+02  0.21610005167E+01  0.50528860609E+02  0.30000002306E+02 0.  0.
        -12    1    1    2    0    0 -0.11864756360E+02  0.38829412168E+02 -0.21610005167E+01  0.40659139391E+02  0.00000000000E+00 0.  1.
         11    1    3    3    0    0  0.83561075501E+01 -0.13036998923E+02  0.35868899728E+01  0.15895082707E+02  0.51100000000E-03 0. -1.
        -11    1    3    3    0    0  0.21330271846E+00 -0.20737739616E+01  0.84702552015E+01  0.87230304329E+01  0.51100000000E-03 0.  1.
         12    1    3    3    0    0  0.32953460914E+01 -0.23718639283E+02 -0.98961446576E+01  0.25910747469E+02  0.00000000000E+00 0. -1.
</event>
<event>
 7    1  0.2974434E-011  0.5052886E+02  0.7816164E-02  0.1300439E+00
        -11   -1    0    0    0    0  0.00000000000E+00  0.00000000000E+00  0.45593999997E+02  0.45594000000E+02  0.51100000000E-03 0.  1.
         11   -1    0    0    0    0 -0.00000000000E+00 -0.00000000000E+00 -0.45593999997E+02  0.45594000000E+02  0.51100000000E-03 0. -1.
    9900012    2    1    2    0    0 -0.38159958491E+02  0.91433548852E+01 -0.10648128862E+02  0.50528855655E+02  0.29999987249E+02 0.  0.
        -12    1    1    2    0    0  0.38159958491E+02 -0.91433548852E+01  0.10648128862E+02  0.40659144345E+02  0.00000000000E+00 0.  1.
         11    1    3    3    0    0 -0.13199388916E+02  0.12473868704E+02 -0.12783043264E+01  0.18205914709E+02  0.51100000000E-03 0. -1.
        -11    1    3    3    0    0 -0.20977686193E+02 -0.12615453665E+01  0.98356223858E+00  0.21038588586E+02  0.51100000000E-03 0.  1.
        -12    1    3    3    0    0 -0.39828833821E+01 -0.20689684521E+01 -0.10353386774E+02  0.11284352360E+02  0.00000000000E+00 0.  1.
</event>
<event>
 7    1  0.2974434E-011  0.5052886E+02  0.7816164E-02  0.1300439E+00
        -11   -1    0    0    0    0  0.00000000000E+00  0.00000000000E+00  0.45593999997E+02  0.45594000000E+02  0.51100000000E-03 0.  1.
         11   -1    0    0    0    0 -0.00000000000E+00 -0.00000000000E+00 -0.45593999997E+02  0.45594000000E+02  0.51100000000E-03 0. -1.
    9900012    2    1    2    0    0 -0.75838654638E+01 -0.21960931638E+02 -0.33367167995E+02  0.50528862850E+02  0.30000009119E+02 0.  0.
        -12    1    1    2    0    0  0.75838654638E+01  0.21960931638E+02  0.33367167995E+02  0.40659137150E+02  0.00000000000E+00 0.  1.
         11    1    3    3    0    0  0.27543647199E+00  0.47105333084E+01 -0.27102771659E+01  0.54415615293E+01  0.51100000000E-03 0. -1.
        -11    1    3    3    0    0 -0.19607534988E+01  0.13422449130E+01 -0.86719939589E+01  0.89916436303E+01  0.51100000000E-03 0.  1.
         12    1    3    3    0    0 -0.58985484370E+01 -0.28013709859E+02 -0.21984896870E+02  0.36095657691E+02  0.00000000000E+00 0. -1.
</event>
<event>
 7    1  0.2974434E-011  0.5052887E+02  0.7816164E-02  0.1300439E+00
        -11   -1    0    0    0    0  0.00000000000E+00  0.00000000000E+00  0.45593999997E+02  0.45594000000E+02  0.51100000000E-03 0. -1.
         11   -1    0    0    0    0 -0.00000000000E+00 -0.00000000000E+00 -0.45593999997E+02  0.45594000000E+02  0.51100000000E-03 0.  1.
    9900012    2    1    2    0    0 -0.29443432041E+02 -0.44811687225E+01  0.27679750620E+02  0.50528866243E+02  0.30000019432E+02 0.  0.
        -12    1    1    2    0    0  0.29443432041E+02  0.44811687225E+01 -0.27679750620E+02  0.40659133757E+02  0.00000000000E+00 0.  1.
         11    1    3    3    0    0 -0.21469660085E+02  0.17946839634E+01  0.94056611536E+01  0.23508161491E+02  0.51100000000E-03 0. -1.
        -11    1    3    3    0    0 -0.64762893105E+01 -0.26985844767E+01 -0.12402048506E+01  0.71248010319E+01  0.51100000000E-03 0.  1.
         12    1    3    3    0    0 -0.14974826454E+01 -0.35772682091E+01  0.19514294317E+02  0.19895903719E+02  0.00000000000E+00 0. -1.
</event>
<event>
 7    1  0.2974434E-011  0.5052887E+02  0.7816164E-02  0.1300439E+00
        -11   -1    0    0    0    0  0.00000000000E+00  0.00000000000E+00  0.45593999997E+02  0.45594000000E+02  0.51100000000E-03 0.  1.
         11   -1    0    0    0    0 -0.00000000000E+00 -0.00000000000E+00 -0.45593999997E+02  0.45594000000E+02  0.51100000000E-03 0. -1.
    9900012    2    1    2    0    0  0.36611379695E+02 -0.17290341647E+02 -0.37169701723E+01  0.50528869356E+02  0.30000028895E+02 0.  0.
        -12    1    1    2    0    0 -0.36611379695E+02  0.17290341647E+02  0.37169701723E+01  0.40659130644E+02  0.00000000000E+00 0.  1.
         11    1    3    3    0    0  0.59057773075E+01 -0.59576779480E+00 -0.18586834759E+01  0.62199557391E+01  0.51100000000E-03 0. -1.
        -11    1    3    3    0    0  0.10596342376E+02  0.73550803995E+01  0.92286638993E-01  0.12899154876E+02  0.51100000000E-03 0.  1.
         12    1    3    3    0    0  0.20109260012E+02 -0.24049654252E+02 -0.19505733353E+01  0.31409758742E+02  0.00000000000E+00 0. -1.
</event>
<event>
 7    1  0.2974434E-011  0.5052885E+02  0.7816164E-02  0.1300439E+00
        -11   -1    0    0    0    0  0.00000000000E+00  0.00000000000E+00  0.45593999997E+02  0.45594000000E+02  0.51100000000E-03 0.  1.
         11   -1    0    0    0    0 -0.00000000000E+00 -0.00000000000E+00 -0.45593999997E+02  0.45594000000E+02  0.51100000000E-03 0. -1.
    9900012    2    1    2    0    0 -0.31160949201E+02  0.22251672984E+02  0.13675705357E+02  0.50528848229E+02  0.29999964677E+02 0.  0.
        -12    1    1    2    0    0  0.31160949201E+02 -0.22251672984E+02 -0.13675705357E+02  0.40659151771E+02  0.00000000000E+00 0.  1.
         11    1    3    3    0    0 -0.11996887980E+02 -0.18992006417E+01  0.54795987725E+01  0.13325099896E+02  0.51100000000E-03 0. -1.
        -11    1    3    3    0    0 -0.20877114024E+02  0.21913437650E+02  0.11924114817E+02  0.32530557235E+02  0.51100000000E-03 0.  1.
        -12    1    3    3    0    0  0.17130528025E+01  0.22374359759E+01 -0.37280082328E+01  0.46731910976E+01  0.00000000000E+00 0.  1.
</event>
<event>
 7    1  0.2974434E-011  0.5052889E+02  0.7816164E-02  0.1300439E+00
        -11   -1    0    0    0    0  0.00000000000E+00  0.00000000000E+00  0.45593999997E+02  0.45594000000E+02  0.51100000000E-03 0. -1.
         11   -1    0    0    0    0 -0.00000000000E+00 -0.00000000000E+00 -0.45593999997E+02  0.45594000000E+02  0.51100000000E-03 0.  1.
    9900012    2    1    2    0    0 -0.89211022151E+01 -0.27863289180E+02  0.28234984954E+02  0.50528888795E+02  0.30000087981E+02 0.  0.
        -12    1    1    2    0    0  0.89211022151E+01  0.27863289180E+02 -0.28234984954E+02  0.40659111205E+02  0.00000000000E+00 0.  1.
         11    1    3    3    0    0  0.74351524343E+01 -0.12643286329E+02  0.94792368896E+01  0.17463966136E+02  0.51100000000E-03 0. -1.
        -11    1    3    3    0    0  0.23091365359E+01 -0.30222936247E+00 -0.49468392058E+00  0.23807911650E+01  0.51100000000E-03 0.  1.
         12    1    3    3    0    0 -0.18665391185E+02 -0.14917773488E+02  0.19250431985E+02  0.30684131494E+02  0.00000000000E+00 0. -1.
</event>
<event>
 7    1  0.2974434E-011  0.5052886E+02  0.7816164E-02  0.1300439E+00
        -11   -1    0    0    0    0  0.00000000000E+00  0.00000000000E+00  0.45593999997E+02  0.45594000000E+02  0.51100000000E-03 0. -1.
         11   -1    0    0    0    0 -0.00000000000E+00 -0.00000000000E+00 -0.45593999997E+02  0.45594000000E+02  0.51100000000E-03 0.  1.
    9900012    2    1    2    0    0  0.28357330794E+02  0.28922272042E+02 -0.35397162953E+01  0.50528860544E+02  0.30000002111E+02 0.  0.
        -12    1    1    2    0    0 -0.28357330794E+02 -0.28922272042E+02  0.35397162953E+01  0.40659139456E+02  0.00000000000E+00 0.  1.
         11    1    3    3    0    0  0.10851835799E+02  0.92489098202E+01  0.61378462643E+01  0.15523460635E+02  0.51100000000E-03 0. -1.
        -11    1    3    3    0    0  0.16381564902E+02  0.15239825160E+02  0.20005789348E+01  0.22463531687E+02  0.51100000000E-03 0.  1.
        -12    1    3    3    0    0  0.11239300930E+01  0.44335370622E+01 -0.11678141494E+02  0.12541868222E+02  0.00000000000E+00 0.  1.
</event>
<event>
 7    1  0.2974434E-011  0.5052886E+02  0.7816164E-02  0.1300439E+00
        -11   -1    0    0    0    0  0.00000000000E+00  0.00000000000E+00  0.45593999997E+02  0.45594000000E+02  0.51100000000E-03 0.  1.
         11   -1    0    0    0    0 -0.00000000000E+00 -0.00000000000E+00 -0.45593999997E+02  0.45594000000E+02  0.51100000000E-03 0. -1.
    9900012    2    1    2    0    0 -0.49579004139E+01  0.14517172454E+02 -0.37654165749E+02  0.50528864854E+02  0.30000015210E+02 0.  0.
        -12    1    1    2    0    0  0.49579004139E+01 -0.14517172454E+02  0.37654165749E+02  0.40659135146E+02  0.00000000000E+00 0.  1.
         11    1    3    3    0    0 -0.12670850184E+02  0.19834711442E+01 -0.18569854925E+02  0.22568210261E+02  0.51100000000E-03 0.  1.
        -11    1    3    3    0    0 -0.87152504257E+00 -0.79520506959E+00 -0.92051147141E+01  0.92804118531E+01  0.51100000000E-03 0. -1.
        -12    1    3    3    0    0  0.85844748124E+01  0.13328906379E+02 -0.98791961097E+01  0.18680242740E+02  0.00000000000E+00 0.  1.
</event>
<event>
 7    1  0.2974434E-011  0.5052886E+02  0.7816164E-02  0.1300439E+00
        -11   -1    0    0    0    0  0.00000000000E+00  0.00000000000E+00  0.45593999997E+02  0.45594000000E+02  0.51100000000E-03 0.  1.
         11   -1    0    0    0    0 -0.00000000000E+00 -0.00000000000E+00 -0.45593999997E+02  0.45594000000E+02  0.51100000000E-03 0. -1.
    9900012    2    1    2    0    0  0.21865677643E+02 -0.23896816469E+02 -0.24576413874E+02  0.50528858161E+02  0.29999994868E+02 0.  0.
        -12    1    1    2    0    0 -0.21865677643E+02  0.23896816469E+02  0.24576413874E+02  0.40659141839E+02  0.00000000000E+00 0.  1.
         11    1    3    3    0    0 -0.22762689410E+01 -0.54963079041E+00  0.15027231248E+01  0.27823859094E+01  0.51100000000E-03 0. -1.
        -11    1    3    3    0    0  0.58512489773E+01 -0.34695099193E+01  0.35324876997E+01  0.76650559870E+01  0.51100000000E-03 0.  1.
         12    1    3    3    0    0  0.18290697607E+02 -0.19877675759E+02 -0.29611624699E+02  0.40081416265E+02  0.00000000000E+00 0. -1.
</event>
<event>
 7    1  0.2974434E-011  0.5052886E+02  0.7816164E-02  0.1300439E+00
        -11   -1    0    0    0    0  0.00000000000E+00  0.00000000000E+00  0.45593999997E+02  0.45594000000E+02  0.51100000000E-03 0.  1.
         11   -1    0    0    0    0 -0.00000000000E+00 -0.00000000000E+00 -0.45593999997E+02  0.45594000000E+02  0.51100000000E-03 0. -1.
    9900012    2    1    2    0    0 -0.27825715121E+02 -0.17525416290E+02  0.23911397990E+02  0.50528860905E+02  0.30000003208E+02 0.  0.
        -12    1    1    2    0    0  0.27825715121E+02  0.17525416290E+02 -0.23911397990E+02  0.40659139095E+02  0.00000000000E+00 0.  1.
         11    1    3    3    0    0 -0.35760528505E+01  0.36709149636E+01  0.60945484923E+01  0.79628695987E+01  0.51100000000E-03 0. -1.
        -11    1    3    3    0    0 -0.88774980913E+01  0.14721914928E+01  0.11239706184E+02  0.14398205288E+02  0.51100000000E-03 0.  1.
         12    1    3    3    0    0 -0.15372164179E+02 -0.22668522746E+02  0.65771433135E+01  0.28167786019E+02  0.00000000000E+00 0. -1.
</event>
<event>
 7    1  0.2974434E-011  0.5052886E+02  0.7816164E-02  0.1300439E+00
        -11   -1    0    0    0    0  0.00000000000E+00  0.00000000000E+00  0.45593999997E+02  0.45594000000E+02  0.51100000000E-03 0. -1.
         11   -1    0    0    0    0 -0.00000000000E+00 -0.00000000000E+00 -0.45593999997E+02  0.45594000000E+02  0.51100000000E-03 0.  1.
    9900012    2    1    2    0    0  0.28279917729E+02 -0.29050968008E+02 -0.30746220731E+01  0.50528858471E+02  0.29999995809E+02 0.  0.
        -12    1    1    2    0    0 -0.28279917729E+02  0.29050968008E+02  0.30746220731E+01  0.40659141529E+02  0.00000000000E+00 0.  1.
         11    1    3    3    0    0  0.19394464805E+02 -0.17944805772E+02  0.59588099290E+01  0.27086320077E+02  0.51100000000E-03 0. -1.
        -11    1    3    3    0    0  0.12182285536E+02 -0.11215675774E+02 -0.33849462023E+01  0.16901400090E+02  0.51100000000E-03 0.  1.
         12    1    3    3    0    0 -0.32968326119E+01  0.10951353849E+00 -0.56484857998E+01  0.65411383044E+01  0.00000000000E+00 0. -1.
</event>
<event>
 7    1  0.2974434E-011  0.5052886E+02  0.7816164E-02  0.1300439E+00
        -11   -1    0    0    0    0  0.00000000000E+00  0.00000000000E+00  0.45593999997E+02  0.45594000000E+02  0.51100000000E-03 0. -1.
         11   -1    0    0    0    0 -0.00000000000E+00 -0.00000000000E+00 -0.45593999997E+02  0.45594000000E+02  0.51100000000E-03 0.  1.
    9900012    2    1    2    0    0 -0.19425241932E+02 -0.15735108435E+02  0.32066052123E+02  0.50528863753E+02  0.30000011863E+02 0.  0.
        -12    1    1    2    0    0  0.19425241932E+02  0.15735108435E+02 -0.32066052123E+02  0.40659136247E+02  0.00000000000E+00 0.  1.
         11    1    3    3    0    0 -0.26600024384E+01 -0.98110343752E+01  0.11153251637E+02  0.15090627251E+02  0.51100000000E-03 0. -1.
        -11    1    3    3    0    0 -0.39646117586E+01 -0.95313937354E+01  0.19500388588E+02  0.22064241847E+02  0.51100000000E-03 0.  1.
        -12    1    3    3    0    0 -0.12800627735E+02  0.36073196761E+01  0.14124118986E+01  0.13373994655E+02  0.00000000000E+00 0.  1.
</event>
<event>
 7    1  0.2974434E-011  0.5052886E+02  0.7816164E-02  0.1300439E+00
        -11   -1    0    0    0    0  0.00000000000E+00  0.00000000000E+00  0.45593999997E+02  0.45594000000E+02  0.51100000000E-03 0. -1.
         11   -1    0    0    0    0 -0.00000000000E+00 -0.00000000000E+00 -0.45593999997E+02  0.45594000000E+02  0.51100000000E-03 0.  1.
    9900012    2    1    2    0    0 -0.83212108129E+01  0.24418155875E+02  0.31427329844E+02  0.50528856541E+02  0.29999989941E+02 0.  0.
        -12    1    1    2    0    0  0.83212108129E+01 -0.24418155875E+02 -0.31427329844E+02  0.40659143459E+02  0.00000000000E+00 0.  1.
         11    1    3    3    0    0  0.42144583313E+00  0.27788631181E+01  0.39185938861E+01  0.48223516177E+01  0.51100000000E-03 0. -1.
        -11    1    3    3    0    0 -0.35621648576E+01  0.65569079453E+01 -0.53504179541E+01  0.91819950349E+01  0.51100000000E-03 0.  1.
         12    1    3    3    0    0 -0.51804917884E+01  0.15082384812E+02  0.32859153912E+02  0.36524509888E+02  0.00000000000E+00 0. -1.
</event>
<event>
 7    1  0.2974434E-011  0.5052886E+02  0.7816164E-02  0.1300439E+00
        -11   -1    0    0    0    0  0.00000000000E+00  0.00000000000E+00  0.45593999997E+02  0.45594000000E+02  0.51100000000E-03 0.  1.
         11   -1    0    0    0    0 -0.00000000000E+00 -0.00000000000E+00 -0.45593999997E+02  0.45594000000E+02  0.51100000000E-03 0. -1.
    9900012    2    1    2    0    0 -0.37663482397E+01  0.18073566363E+02 -0.36226052133E+02  0.50528855478E+02  0.29999986710E+02 0.  0.
        -12    1    1    2    0    0  0.37663482397E+01 -0.18073566363E+02  0.36226052133E+02  0.40659144522E+02  0.00000000000E+00 0.  1.
         11    1    3    3    0    0  0.50889873158E+01  0.40645015088E+01 -0.15727640933E+01  0.67001157878E+01  0.51100000000E-03 0.  1.
        -11    1    3    3    0    0  0.58569337148E+01  0.29772977687E+01 -0.30024993446E+01  0.72237785900E+01  0.51100000000E-03 0. -1.
         12    1    3    3    0    0 -0.14712269270E+02  0.11031767085E+02 -0.31650788695E+02  0.36604961100E+02  0.00000000000E+00 0. -1.
</event>
<event>
 7    1  0.2974434E-011  0.5052889E+02  0.7816164E-02  0.1300439E+00
        -11   -1    0    0    0    0  0.00000000000E+00  0.00000000000E+00  0.45593999997E+02  0.45594000000E+02  0.51100000000E-03 0.  1.
         11   -1    0    0    0    0 -0.00000000000E+00 -0.00000000000E+00 -0.45593999997E+02  0.45594000000E+02  0.51100000000E-03 0. -1.
    9900012    2    1    2    0    0  0.14719407874E+02  0.23904173253E+02 -0.29412462403E+02  0.50528887717E+02  0.30000084704E+02 0.  0.
        -12    1    1    2    0    0 -0.14719407874E+02 -0.23904173253E+02  0.29412462403E+02  0.40659112283E+02  0.00000000000E+00 0.  1.
         11    1    3    3    0    0 -0.19065707562E+01 -0.24287702879E+01 -0.88642163725E+01  0.93866005199E+01  0.51100000000E-03 0. -1.
        -11    1    3    3    0    0  0.12659853403E+01  0.36494496586E+01  0.30995900157E+01  0.49526417414E+01  0.51100000000E-03 0.  1.
         12    1    3    3    0    0  0.15359993290E+02  0.22683493882E+02 -0.23647836046E+02  0.36189645456E+02  0.00000000000E+00 0. -1.
</event>
<event>
 7    1  0.2974434E-011  0.5052889E+02  0.7816164E-02  0.1300439E+00
        -11   -1    0    0    0    0  0.00000000000E+00  0.00000000000E+00  0.45593999997E+02  0.45594000000E+02  0.51100000000E-03 0.  1.
         11   -1    0    0    0    0 -0.00000000000E+00 -0.00000000000E+00 -0.45593999997E+02  0.45594000000E+02  0.51100000000E-03 0. -1.
    9900012    2    1    2    0    0  0.28518260092E+02 -0.28234963003E+02 -0.65313965300E+01  0.50528887429E+02  0.30000083828E+02 0.  0.
        -12    1    1    2    0    0 -0.28518260092E+02  0.28234963003E+02  0.65313965300E+01  0.40659112571E+02  0.00000000000E+00 0.  1.
         11    1    3    3    0    0  0.69331100915E+01 -0.45043752187E-01 -0.82472912125E+01  0.10774407505E+02  0.51100000000E-03 0. -1.
        -11    1    3    3    0    0 -0.31232970075E+01 -0.21683659689E+01  0.63345510957E+00  0.38546155202E+01  0.51100000000E-03 0.  1.
         12    1    3    3    0    0  0.24708447008E+02 -0.26021553282E+02  0.10824395729E+01  0.35899864403E+02  0.00000000000E+00 0. -1.
</event>
<event>
 7    1  0.2974434E-011  0.5052883E+02  0.7816164E-02  0.1300439E+00
        -11   -1    0    0    0    0  0.00000000000E+00  0.00000000000E+00  0.45593999997E+02  0.45594000000E+02  0.51100000000E-03 0. -1.
         11   -1    0    0    0    0 -0.00000000000E+00 -0.00000000000E+00 -0.45593999997E+02  0.45594000000E+02  0.51100000000E-03 0.  1.
    9900012    2    1    2    0    0  0.27312145696E+02 -0.12843453280E+02  0.27244454519E+02  0.50528832562E+02  0.29999917057E+02 0.  0.
        -12    1    1    2    0    0 -0.27312145696E+02  0.12843453280E+02 -0.27244454519E+02  0.40659167438E+02  0.00000000000E+00 0.  1.
         11    1    3    3    0    0  0.11623089529E+02  0.64343487230E+01  0.50603417021E+01  0.14216332582E+02  0.51100000000E-03 0. -1.
        -11    1    3    3    0    0 -0.21606296699E+01 -0.58279969674E+01  0.65993059758E+01  0.90655782411E+01  0.51100000000E-03 0.  1.
         12    1    3    3    0    0  0.17849685837E+02 -0.13449805036E+02  0.15584806841E+02  0.27246921739E+02  0.00000000000E+00 0. -1.
</event>
<event>
 7    1  0.2974434E-011  0.5052887E+02  0.7816164E-02  0.1300439E+00
        -11   -1    0    0    0    0  0.00000000000E+00  0.00000000000E+00  0.45593999997E+02  0.45594000000E+02  0.51100000000E-03 0. -1.
         11   -1    0    0    0    0 -0.00000000000E+00 -0.00000000000E+00 -0.45593999997E+02  0.45594000000E+02  0.51100000000E-03 0.  1.
    9900012    2    1    2    0    0 -0.17075847167E+02 -0.17560466663E+02  0.32453204665E+02  0.50528867706E+02  0.30000023879E+02 0.  0.
        -12    1    1    2    0    0  0.17075847167E+02  0.17560466663E+02 -0.32453204665E+02  0.40659132294E+02  0.00000000000E+00 0.  1.
         11    1    3    3    0    0  0.61809987888E+01 -0.85396153544E+01  0.34918357360E+01  0.11105075123E+02  0.51100000000E-03 0. -1.
        -11    1    3    3    0    0 -0.77110474117E+01 -0.30991921191E+01  0.35174786261E+01  0.90242949931E+01  0.51100000000E-03 0.  1.
        -12    1    3    3    0    0 -0.15545798544E+02 -0.59216591891E+01  0.25443890303E+02  0.30399497589E+02  0.00000000000E+00 0.  1.
</event>
<event>
 7    1  0.2974434E-011  0.5052891E+02  0.7816164E-02  0.1300439E+00
        -11   -1    0    0    0    0  0.00000000000E+00  0.00000000000E+00  0.45593999997E+02  0.45594000000E+02  0.51100000000E-03 0.  1.
         11   -1    0    0    0    0 -0.00000000000E+00 -0.00000000000E+00 -0.45593999997E+02  0.45594000000E+02  0.51100000000E-03 0. -1.
    9900012    2    1    2    0    0 -0.40652663456E+02 -0.72256222068E+00 -0.15130848520E-01  0.50528912809E+02  0.30000160975E+02 0.  0.
        -12    1    1    2    0    0  0.40652663456E+02  0.72256222068E+00  0.15130848520E-01  0.40659087191E+02  0.00000000000E+00 0.  1.
         11    1    3    3    0    0 -0.15582804107E+02  0.85120084467E+01 -0.67235294782E+01  0.18986414104E+02  0.51100000000E-03 0. -1.
        -11    1    3    3    0    0 -0.15503689925E+02 -0.70533094392E+01 -0.34943233744E+01  0.17387463054E+02  0.51100000000E-03 0.  1.
        -12    1    3    3    0    0 -0.95661694244E+01 -0.21812612282E+01  0.10202722004E+02  0.14155035652E+02  0.00000000000E+00 0.  1.
</event>
<event>
 7    1  0.2974434E-011  0.5052886E+02  0.7816164E-02  0.1300439E+00
        -11   -1    0    0    0    0  0.00000000000E+00  0.00000000000E+00  0.45593999997E+02  0.45594000000E+02  0.51100000000E-03 0.  1.
         11   -1    0    0    0    0 -0.00000000000E+00 -0.00000000000E+00 -0.45593999997E+02  0.45594000000E+02  0.51100000000E-03 0. -1.
    9900012    2    1    2    0    0 -0.24185853620E+02  0.32091857326E+02 -0.61905218068E+01  0.50528863484E+02  0.30000011047E+02 0.  0.
        -12    1    1    2    0    0  0.24185853620E+02 -0.32091857326E+02  0.61905218068E+01  0.40659136516E+02  0.00000000000E+00 0.  1.
         11    1    3    3    0    0 -0.10087541568E+02  0.83058223984E+01  0.37784519345E+01  0.13602274805E+02  0.51100000000E-03 0. -1.
        -11    1    3    3    0    0 -0.35259248741E+01  0.57279324299E+01  0.72045431754E+01  0.98563075624E+01  0.51100000000E-03 0.  1.
         12    1    3    3    0    0 -0.10572387178E+02  0.18058102498E+02 -0.17173516917E+02  0.27070281117E+02  0.00000000000E+00 0. -1.
</event>
<event>
 7    1  0.2974434E-011  0.5052884E+02  0.7816164E-02  0.1300439E+00
        -11   -1    0    0    0    0  0.00000000000E+00  0.00000000000E+00  0.45593999997E+02  0.45594000000E+02  0.51100000000E-03 0.  1.
         11   -1    0    0    0    0 -0.00000000000E+00 -0.00000000000E+00 -0.45593999997E+02  0.45594000000E+02  0.51100000000E-03 0. -1.
    9900012    2    1    2    0    0 -0.16346933858E+02  0.24819030914E+02 -0.27748160544E+02  0.50528844136E+02  0.29999952234E+02 0.  0.
        -12    1    1    2    0    0  0.16346933858E+02 -0.24819030914E+02  0.27748160544E+02  0.40659155864E+02  0.00000000000E+00 0.  1.
         11    1    3    3    0    0 -0.46988689148E+00  0.42714399749E+01 -0.13202795719E+02  0.13884516852E+02  0.51100000000E-03 0. -1.
        -11    1    3    3    0    0 -0.28134304647E+01  0.43316304874E+01 -0.14949847509E+02  0.15816964135E+02  0.51100000000E-03 0.  1.
        -12    1    3    3    0    0 -0.13063616502E+02  0.16215960451E+02  0.40448268437E+00  0.20827363148E+02  0.00000000000E+00 0.  1.
</event>
<event>
 7    1  0.2974434E-011  0.5052886E+02  0.7816164E-02  0.1300439E+00
        -11   -1    0    0    0    0  0.00000000000E+00  0.00000000000E+00  0.45593999997E+02  0.45594000000E+02  0.51100000000E-03 0. -1.
         11   -1    0    0    0    0 -0.00000000000E+00 -0.00000000000E+00 -0.45593999997E+02  0.45594000000E+02  0.51100000000E-03 0.  1.
    9900012    2    1    2    0    0 -0.98245939620E+00 -0.21676187784E+02  0.34385220179E+02  0.50528859452E+02  0.29999998792E+02 0.  0.
        -12    1    1    2    0    0  0.98245939620E+00  0.21676187784E+02 -0.34385220179E+02  0.40659140548E+02  0.00000000000E+00 0.  1.
         11    1    3    3    0    0 -0.19696689541E+01 -0.68175532463E+01  0.62241763678E+01  0.94392266513E+01  0.51100000000E-03 0. -1.
        -11    1    3    3    0    0 -0.11397772164E+02 -0.93523855654E+01  0.79383996306E+01  0.16744984772E+02  0.51100000000E-03 0.  1.
        -12    1    3    3    0    0  0.12384981722E+02 -0.55062489721E+01  0.20222644181E+02  0.24344648029E+02  0.00000000000E+00 0.  1.
</event>
<event>
 7    1  0.2974434E-011  0.5052886E+02  0.7816164E-02  0.1300439E+00
        -11   -1    0    0    0    0  0.00000000000E+00  0.00000000000E+00  0.45593999997E+02  0.45594000000E+02  0.51100000000E-03 0.  1.
         11   -1    0    0    0    0 -0.00000000000E+00 -0.00000000000E+00 -0.45593999997E+02  0.45594000000E+02  0.51100000000E-03 0. -1.
    9900012    2    1    2    0    0  0.25548814273E+02 -0.25102453920E+02 -0.19242925433E+02  0.50528864706E+02  0.30000014762E+02 0.  0.
        -12    1    1    2    0    0 -0.25548814273E+02  0.25102453920E+02  0.19242925433E+02  0.40659135294E+02  0.00000000000E+00 0.  1.
         11    1    3    3    0    0 -0.18011633271E+00  0.20890781721E+00 -0.30820185751E+01  0.30943372679E+01  0.51100000000E-03 0. -1.
        -11    1    3    3    0    0 -0.51254282339E+01 -0.17643850091E+01 -0.77670475270E-01  0.54211716451E+01  0.51100000000E-03 0.  1.
         12    1    3    3    0    0  0.30854358840E+02 -0.23546976729E+02 -0.16083236383E+02  0.42013355793E+02  0.00000000000E+00 0. -1.
</event>
<event>
 7    1  0.2974434E-011  0.5052887E+02  0.7816164E-02  0.1300439E+00
        -11   -1    0    0    0    0  0.00000000000E+00  0.00000000000E+00  0.45593999997E+02  0.45594000000E+02  0.51100000000E-03 0. -1.
         11   -1    0    0    0    0 -0.00000000000E+00 -0.00000000000E+00 -0.45593999997E+02  0.45594000000E+02  0.51100000000E-03 0.  1.
    9900012    2    1    2    0    0 -0.25208666027E+02  0.30500183466E+02 -0.93502307976E+01  0.50528870025E+02  0.30000030928E+02 0.  0.
        -12    1    1    2    0    0  0.25208666027E+02 -0.30500183466E+02  0.93502307976E+01  0.40659129975E+02  0.00000000000E+00 0.  1.
         11    1    3    3    0    0 -0.60178554661E+01  0.97694493840E+01 -0.11035546186E+02  0.15919799168E+02  0.51100000000E-03 0. -1.
        -11    1    3    3    0    0 -0.14478254625E+02  0.17022015464E+02 -0.75586394188E+01  0.23590292444E+02  0.51100000000E-03 0.  1.
         12    1    3    3    0    0 -0.47125559361E+01  0.37087186178E+01  0.92439548071E+01  0.11018778413E+02  0.00000000000E+00 0. -1.
</event>
<event>
 7    1  0.2974434E-011  0.5052886E+02  0.7816164E-02  0.1300439E+00
        -11   -1    0    0    0    0  0.00000000000E+00  0.00000000000E+00  0.45593999997E+02  0.45594000000E+02  0.51100000000E-03 0.  1.
         11   -1    0    0    0    0 -0.00000000000E+00 -0.00000000000E+00 -0.45593999997E+02  0.45594000000E+02  0.51100000000E-03 0. -1.
    9900012    2    1    2    0    0  0.17866655166E+02 -0.25501250519E+02 -0.26146404363E+02  0.50528860733E+02  0.30000002683E+02 0.  0.
        -12    1    1    2    0    0 -0.17866655166E+02  0.25501250519E+02  0.26146404363E+02  0.40659139267E+02  0.00000000000E+00 0.  1.
         11    1    3    3    0    0  0.11715588874E+02  0.92433888054E+00 -0.73966821946E+01  0.13885976119E+02  0.51100000000E-03 0. -1.
        -11    1    3    3    0    0  0.49749527546E+01 -0.19273387219E+02 -0.41358628606E+01  0.20330247703E+02  0.51100000000E-03 0.  1.
         12    1    3    3    0    0  0.11761135371E+01 -0.71522021800E+01 -0.14613859308E+02  0.16312636910E+02  0.00000000000E+00 0. -1.
</event>
<event>
 7    1  0.2974434E-011  0.5052886E+02  0.7816164E-02  0.1300439E+00
        -11   -1    0    0    0    0  0.00000000000E+00  0.00000000000E+00  0.45593999997E+02  0.45594000000E+02  0.51100000000E-03 0.  1.
         11   -1    0    0    0    0 -0.00000000000E+00 -0.00000000000E+00 -0.45593999997E+02  0.45594000000E+02  0.51100000000E-03 0. -1.
    9900012    2    1    2    0    0 -0.10899471468E+01  0.13099912553E+02 -0.38475573922E+02  0.50528862253E+02  0.30000007304E+02 0.  0.
        -12    1    1    2    0    0  0.10899471468E+01 -0.13099912553E+02  0.38475573922E+02  0.40659137747E+02  0.00000000000E+00 0.  1.
         11    1    3    3    0    0 -0.75877637368E+00  0.11399635414E+01 -0.16991616436E+02  0.17046709003E+02  0.51100000000E-03 0. -1.
        -11    1    3    3    0    0  0.89452269902E+01  0.22297109683E-01 -0.13998024683E+02  0.16612112399E+02  0.51100000000E-03 0.  1.
        -12    1    3    3    0    0 -0.92763977634E+01  0.11937651902E+02 -0.74859328037E+01  0.16870040852E+02  0.00000000000E+00 0.  1.
</event>
<event>
 7    1  0.2974434E-011  0.5052886E+02  0.7816164E-02  0.1300439E+00
        -11   -1    0    0    0    0  0.00000000000E+00  0.00000000000E+00  0.45593999997E+02  0.45594000000E+02  0.51100000000E-03 0.  1.
         11   -1    0    0    0    0 -0.00000000000E+00 -0.00000000000E+00 -0.45593999997E+02  0.45594000000E+02  0.51100000000E-03 0. -1.
    9900012    2    1    2    0    0  0.17638890528E+02  0.23393663868E+02 -0.28191698365E+02  0.50528858040E+02  0.29999994499E+02 0.  0.
        -12    1    1    2    0    0 -0.17638890528E+02 -0.23393663868E+02  0.28191698365E+02  0.40659141960E+02  0.00000000000E+00 0.  1.
         11    1    3    3    0    0  0.82744071817E+01 -0.52747502994E-02 -0.12713605161E+02  0.15169100121E+02  0.51100000000E-03 0. -1.
        -11    1    3    3    0    0  0.77064489115E+01  0.20391677262E+02 -0.20066267441E+02  0.29628785760E+02  0.51100000000E-03 0.  1.
        -12    1    3    3    0    0  0.16580344346E+01  0.30072613563E+01  0.45881742373E+01  0.57309721586E+01  0.00000000000E+00 0.  1.
</event>
<event>
 7    1  0.2974434E-011  0.5052886E+02  0.7816164E-02  0.1300439E+00
        -11   -1    0    0    0    0  0.00000000000E+00  0.00000000000E+00  0.45593999997E+02  0.45594000000E+02  0.51100000000E-03 0.  1.
         11   -1    0    0    0    0 -0.00000000000E+00 -0.00000000000E+00 -0.45593999997E+02  0.45594000000E+02  0.51100000000E-03 0. -1.
    9900012    2    1    2    0    0 -0.30238592548E+02  0.14677072458E+02 -0.22877432979E+02  0.50528857425E+02  0.29999992628E+02 0.  0.
        -12    1    1    2    0    0  0.30238592548E+02 -0.14677072458E+02  0.22877432979E+02  0.40659142575E+02  0.00000000000E+00 0.  1.
         11    1    3    3    0    0 -0.58430056605E+01 -0.26721114078E+01 -0.85942307153E+01  0.10730409888E+02  0.51100000000E-03 0. -1.
        -11    1    3    3    0    0 -0.98595116566E+00 -0.88139472524E+00 -0.96831391547E+01  0.97730312858E+01  0.51100000000E-03 0.  1.
        -12    1    3    3    0    0 -0.23409635722E+02  0.18230578591E+02 -0.46000631088E+01  0.30025416251E+02  0.00000000000E+00 0.  1.
</event>
<event>
 7    1  0.2974434E-011  0.5052886E+02  0.7816164E-02  0.1300439E+00
        -11   -1    0    0    0    0  0.00000000000E+00  0.00000000000E+00  0.45593999997E+02  0.45594000000E+02  0.51100000000E-03 0. -1.
         11   -1    0    0    0    0 -0.00000000000E+00 -0.00000000000E+00 -0.45593999997E+02  0.45594000000E+02  0.51100000000E-03 0.  1.
    9900012    2    1    2    0    0  0.33711045499E+02 -0.21944180097E+02 -0.59316215057E+01  0.50528858808E+02  0.29999996833E+02 0.  0.
        -12    1    1    2    0    0 -0.33711045499E+02  0.21944180097E+02  0.59316215057E+01  0.40659141192E+02  0.00000000000E+00 0.  1.
         11    1    3    3    0    0  0.48844588969E+01 -0.81345242670E+01  0.29609094606E+01  0.99395879623E+01  0.51100000000E-03 0. -1.
        -11    1    3    3    0    0  0.24146962450E+01 -0.47966332243E+01 -0.11367716933E+02  0.12572328216E+02  0.51100000000E-03 0.  1.
         12    1    3    3    0    0  0.26411890357E+02 -0.90130226060E+01  0.24751859666E+01  0.28016942630E+02  0.00000000000E+00 0. -1.
</event>
<event>
 7    1  0.2974434E-011  0.5052886E+02  0.7816164E-02  0.1300439E+00
        -11   -1    0    0    0    0  0.00000000000E+00  0.00000000000E+00  0.45593999997E+02  0.45594000000E+02  0.51100000000E-03 0. -1.
         11   -1    0    0    0    0 -0.00000000000E+00 -0.00000000000E+00 -0.45593999997E+02  0.45594000000E+02  0.51100000000E-03 0.  1.
    9900012    2    1    2    0    0 -0.30725042212E+00 -0.21020883905E+02  0.34802210372E+02  0.50528858226E+02  0.29999995065E+02 0.  0.
        -12    1    1    2    0    0  0.30725042212E+00  0.21020883905E+02 -0.34802210372E+02  0.40659141774E+02  0.00000000000E+00 0.  1.
         11    1    3    3    0    0 -0.21973425645E+01 -0.88376868178E+00 -0.13055213325E+01  0.27043941354E+01  0.51100000000E-03 0. -1.
        -11    1    3    3    0    0 -0.81072552858E+01 -0.43450388162E+01  0.27724281079E+01  0.96069406399E+01  0.51100000000E-03 0.  1.
         12    1    3    3    0    0  0.99973474282E+01 -0.15792076408E+02  0.33335303597E+02  0.38217523451E+02  0.00000000000E+00 0. -1.
</event>
<event>
 7    1  0.2974434E-011  0.5052887E+02  0.7816164E-02  0.1300439E+00
        -11   -1    0    0    0    0  0.00000000000E+00  0.00000000000E+00  0.45593999997E+02  0.45594000000E+02  0.51100000000E-03 0.  1.
         11   -1    0    0    0    0 -0.00000000000E+00 -0.00000000000E+00 -0.45593999997E+02  0.45594000000E+02  0.51100000000E-03 0. -1.
    9900012    2    1    2    0    0  0.11070065648E+01  0.28019120318E+02 -0.29442622902E+02  0.50528872977E+02  0.30000039900E+02 0.  0.
        -12    1    1    2    0    0 -0.11070065648E+01 -0.28019120318E+02  0.29442622902E+02  0.40659127023E+02  0.00000000000E+00 0.  1.
         11    1    3    3    0    0  0.89742813900E+01  0.13078237186E+02 -0.15399567741E+02  0.22107118791E+02  0.51100000000E-03 0. -1.
        -11    1    3    3    0    0  0.82136928340E+00  0.11024360366E+02 -0.15228192214E+02  0.18817784337E+02  0.51100000000E-03 0.  1.
        -12    1    3    3    0    0 -0.86886441087E+01  0.39165227657E+01  0.11851370528E+01  0.96039698487E+01  0.00000000000E+00 0.  1.
</event>
<event>
 7    1  0.2974434E-011  0.5052886E+02  0.7816164E-02  0.1300439E+00
        -11   -1    0    0    0    0  0.00000000000E+00  0.00000000000E+00  0.45593999997E+02  0.45594000000E+02  0.51100000000E-03 0. -1.
         11   -1    0    0    0    0 -0.00000000000E+00 -0.00000000000E+00 -0.45593999997E+02  0.45594000000E+02  0.51100000000E-03 0.  1.
    9900012    2    1    2    0    0  0.64800106016E+01 -0.43131993157E+01  0.39907039061E+02  0.50528855981E+02  0.29999988239E+02 0.  0.
        -12    1    1    2    0    0 -0.64800106016E+01  0.43131993157E+01 -0.39907039061E+02  0.40659144019E+02  0.00000000000E+00 0.  1.
         11    1    3    3    0    0  0.62531163688E+01  0.96178374675E+00  0.60027265001E+01  0.87211936106E+01  0.51100000000E-03 0. -1.
        -11    1    3    3    0    0 -0.45516456173E+01 -0.15651772653E+01 -0.21340219740E+01  0.52651028237E+01  0.51100000000E-03 0.  1.
        -12    1    3    3    0    0  0.47785398501E+01 -0.37098057972E+01  0.36038334535E+02  0.36542559547E+02  0.00000000000E+00 0.  1.
</event>
<event>
 7    1  0.2974434E-011  0.5052886E+02  0.7816164E-02  0.1300439E+00
        -11   -1    0    0    0    0  0.00000000000E+00  0.00000000000E+00  0.45593999997E+02  0.45594000000E+02  0.51100000000E-03 0.  1.
         11   -1    0    0    0    0 -0.00000000000E+00 -0.00000000000E+00 -0.45593999997E+02  0.45594000000E+02  0.51100000000E-03 0. -1.
    9900012    2    1    2    0    0  0.28149071578E+01 -0.16456934420E+00 -0.40561249997E+02  0.50528858510E+02  0.29999995926E+02 0.  0.
        -12    1    1    2    0    0 -0.28149071578E+01  0.16456934420E+00  0.40561249997E+02  0.40659141490E+02  0.00000000000E+00 0.  1.
         11    1    3    3    0    0  0.13805196742E+02 -0.34552638573E+01 -0.21122892449E+02  0.25469567940E+02  0.51100000000E-03 0. -1.
        -11    1    3    3    0    0 -0.61173118574E+01 -0.35833535905E+01 -0.64951591017E+01  0.96150413069E+01  0.51100000000E-03 0.  1.
        -12    1    3    3    0    0 -0.48729777264E+01  0.68740481036E+01 -0.12943198447E+02  0.15444249262E+02  0.00000000000E+00 0.  1.
</event>
<event>
 7    1  0.2974434E-011  0.5052885E+02  0.7816164E-02  0.1300439E+00
        -11   -1    0    0    0    0  0.00000000000E+00  0.00000000000E+00  0.45593999997E+02  0.45594000000E+02  0.51100000000E-03 0.  1.
         11   -1    0    0    0    0 -0.00000000000E+00 -0.00000000000E+00 -0.45593999997E+02  0.45594000000E+02  0.51100000000E-03 0. -1.
    9900012    2    1    2    0    0 -0.15580467836E+02 -0.18046398825E+02 -0.32935434635E+02  0.50528851667E+02  0.29999975127E+02 0.  0.
        -12    1    1    2    0    0  0.15580467836E+02  0.18046398825E+02  0.32935434635E+02  0.40659148333E+02  0.00000000000E+00 0.  1.
         11    1    3    3    0    0  0.54819398794E+01  0.15886458920E+01 -0.65531388408E+01  0.86901720086E+01  0.51100000000E-03 0. -1.
        -11    1    3    3    0    0 -0.34076871440E+01 -0.71225084123E+01 -0.15990500505E+02  0.17833635760E+02  0.51100000000E-03 0.  1.
         12    1    3    3    0    0 -0.17654720572E+02 -0.12512536305E+02 -0.10391795290E+02  0.24005043899E+02  0.00000000000E+00 0. -1.
</event>
<event>
 7    1  0.2974434E-011  0.5052888E+02  0.7816164E-02  0.1300439E+00
        -11   -1    0    0    0    0  0.00000000000E+00  0.00000000000E+00  0.45593999997E+02  0.45594000000E+02  0.51100000000E-03 0.  1.
         11   -1    0    0    0    0 -0.00000000000E+00 -0.00000000000E+00 -0.45593999997E+02  0.45594000000E+02  0.51100000000E-03 0. -1.
    9900012    2    1    2    0    0  0.15858493074E+02  0.28975801017E+02 -0.23708131860E+02  0.50528876013E+02  0.30000049128E+02 0.  0.
        -12    1    1    2    0    0 -0.15858493074E+02 -0.28975801017E+02  0.23708131860E+02  0.40659123987E+02  0.00000000000E+00 0.  1.
         11    1    3    3    0    0  0.42204596796E+01  0.12800998717E+02 -0.14180398381E+02  0.19564292642E+02  0.51100000000E-03 0. -1.
        -11    1    3    3    0    0  0.70602175644E+01 -0.11428996263E+01 -0.10858908296E+02  0.13002645164E+02  0.51100000000E-03 0.  1.
        -12    1    3    3    0    0  0.45778158295E+01  0.17317701926E+02  0.13311748171E+01  0.17961938207E+02  0.00000000000E+00 0.  1.
</event>
<event>
 7    1  0.2974434E-011  0.5052886E+02  0.7816164E-02  0.1300439E+00
        -11   -1    0    0    0    0  0.00000000000E+00  0.00000000000E+00  0.45593999997E+02  0.45594000000E+02  0.51100000000E-03 0.  1.
         11   -1    0    0    0    0 -0.00000000000E+00 -0.00000000000E+00 -0.45593999997E+02  0.45594000000E+02  0.51100000000E-03 0. -1.
    9900012    2    1    2    0    0 -0.10583131134E+02 -0.21808962948E+02 -0.32642488110E+02  0.50528861304E+02  0.30000004420E+02 0.  0.
        -12    1    1    2    0    0  0.10583131134E+02  0.21808962948E+02  0.32642488110E+02  0.40659138696E+02  0.00000000000E+00 0.  1.
         11    1    3    3    0    0  0.66134545156E+00  0.21302546236E+01 -0.67250569476E+01  0.70853195960E+01  0.51100000000E-03 0. -1.
        -11    1    3    3    0    0 -0.11186177600E+02 -0.63846733942E+01 -0.94001564554E+00  0.12914265497E+02  0.51100000000E-03 0.  1.
         12    1    3    3    0    0 -0.58298985070E-01 -0.17554544178E+02 -0.24977415517E+02  0.30529276211E+02  0.00000000000E+00 0. -1.
</event>
<event>
 7    1  0.2974434E-011  0.5052886E+02  0.7816164E-02  0.1300439E+00
        -11   -1    0    0    0    0  0.00000000000E+00  0.00000000000E+00  0.45593999997E+02  0.45594000000E+02  0.51100000000E-03 0.  1.
         11   -1    0    0    0    0 -0.00000000000E+00 -0.00000000000E+00 -0.45593999997E+02  0.45594000000E+02  0.51100000000E-03 0. -1.
    9900012    2    1    2    0    0  0.75135591725E+01 -0.34895381556E+02 -0.19468558297E+02  0.50528856041E+02  0.29999988421E+02 0.  0.
        -12    1    1    2    0    0 -0.75135591725E+01  0.34895381556E+02  0.19468558297E+02  0.40659143959E+02  0.00000000000E+00 0.  1.
         11    1    3    3    0    0 -0.89852717352E+01 -0.12199063041E+02 -0.82305430792E+01  0.17242218154E+02  0.51100000000E-03 0. -1.
        -11    1    3    3    0    0 -0.17541263975E+01 -0.55825907265E+00 -0.28505510862E+01  0.33932660325E+01  0.51100000000E-03 0.  1.
         12    1    3    3    0    0  0.18252957305E+02 -0.22138059442E+02 -0.83874641314E+01  0.29893371854E+02  0.00000000000E+00 0. -1.
</event>
<event>
 7    1  0.2974434E-011  0.5052886E+02  0.7816164E-02  0.1300439E+00
        -11   -1    0    0    0    0  0.00000000000E+00  0.00000000000E+00  0.45593999997E+02  0.45594000000E+02  0.51100000000E-03 0. -1.
         11   -1    0    0    0    0 -0.00000000000E+00 -0.00000000000E+00 -0.45593999997E+02  0.45594000000E+02  0.51100000000E-03 0.  1.
    9900012    2    1    2    0    0 -0.11411121970E+02 -0.20824617231E+02  0.33004353341E+02  0.50528859245E+02  0.29999998163E+02 0.  0.
        -12    1    1    2    0    0  0.11411121970E+02  0.20824617231E+02 -0.33004353341E+02  0.40659140755E+02  0.00000000000E+00 0.  1.
         11    1    3    3    0    0 -0.66240582319E+01 -0.14559018133E+02  0.32647058133E+00  0.15998429290E+02  0.51100000000E-03 0.  1.
        -11    1    3    3    0    0 -0.31061314172E+01 -0.13433463494E+01  0.34110261126E+01  0.48049694273E+01  0.51100000000E-03 0. -1.
        -12    1    3    3    0    0 -0.16809323213E+01 -0.49222527483E+01  0.29266856647E+02  0.29725460528E+02  0.00000000000E+00 0.  1.
</event>
<event>
 7    1  0.2974434E-011  0.5052888E+02  0.7816164E-02  0.1300439E+00
        -11   -1    0    0    0    0  0.00000000000E+00  0.00000000000E+00  0.45593999997E+02  0.45594000000E+02  0.51100000000E-03 0.  1.
         11   -1    0    0    0    0 -0.00000000000E+00 -0.00000000000E+00 -0.45593999997E+02  0.45594000000E+02  0.51100000000E-03 0. -1.
    9900012    2    1    2    0    0  0.23926264328E+02  0.26787061180E+02  0.19056534516E+02  0.50528877050E+02  0.30000052280E+02 0.  0.
        -12    1    1    2    0    0 -0.23926264328E+02 -0.26787061180E+02 -0.19056534516E+02  0.40659122950E+02  0.00000000000E+00 0.  1.
         11    1    3    3    0    0  0.17184473071E+01  0.19414466376E+01  0.16156168864E+01  0.30549131540E+01  0.51100000000E-03 0. -1.
        -11    1    3    3    0    0  0.15663719795E+02  0.20024540311E+02  0.25513869760E+02  0.36017938348E+02  0.51100000000E-03 0.  1.
        -12    1    3    3    0    0  0.65440972249E+01  0.48210742317E+01 -0.80729521305E+01  0.11456025547E+02  0.00000000000E+00 0.  1.
</event>
<event>
 7    1  0.2974434E-011  0.5052887E+02  0.7816164E-02  0.1300439E+00
        -11   -1    0    0    0    0  0.00000000000E+00  0.00000000000E+00  0.45593999997E+02  0.45594000000E+02  0.51100000000E-03 0. -1.
         11   -1    0    0    0    0 -0.00000000000E+00 -0.00000000000E+00 -0.45593999997E+02  0.45594000000E+02  0.51100000000E-03 0.  1.
    9900012    2    1    2    0    0 -0.14894503226E+02 -0.34106420777E+02 -0.16372864262E+02  0.50528870045E+02  0.30000030988E+02 0.  0.
        -12    1    1    2    0    0  0.14894503226E+02  0.34106420777E+02  0.16372864262E+02  0.40659129955E+02  0.00000000000E+00 0.  1.
         11    1    3    3    0    0 -0.16392608687E+01 -0.52820459505E-01  0.17704076622E+01  0.24133606751E+01  0.51100000000E-03 0. -1.
        -11    1    3    3    0    0  0.54290511710E+01 -0.66213506617E+01  0.26331437232E+01  0.89582547034E+01  0.51100000000E-03 0.  1.
         12    1    3    3    0    0 -0.18684293528E+02 -0.27432249656E+02 -0.20776415647E+02  0.39157254666E+02  0.00000000000E+00 0. -1.
</event>
<event>
 7    1  0.2974434E-011  0.5052886E+02  0.7816164E-02  0.1300439E+00
        -11   -1    0    0    0    0  0.00000000000E+00  0.00000000000E+00  0.45593999997E+02  0.45594000000E+02  0.51100000000E-03 0.  1.
         11   -1    0    0    0    0 -0.00000000000E+00 -0.00000000000E+00 -0.45593999997E+02  0.45594000000E+02  0.51100000000E-03 0. -1.
    9900012    2    1    2    0    0  0.27089816066E+02  0.12437467878E+02 -0.27651708267E+02  0.50528859431E+02  0.29999998727E+02 0.  0.
        -12    1    1    2    0    0 -0.27089816066E+02 -0.12437467878E+02  0.27651708267E+02  0.40659140569E+02  0.00000000000E+00 0.  1.
         11    1    3    3    0    0  0.39380800139E+01  0.13207881106E+01  0.30100996129E+01  0.51296837495E+01  0.51100000000E-03 0. -1.
        -11    1    3    3    0    0 -0.40628292155E+01  0.18813763496E+01 -0.23476019748E+01  0.50554320781E+01  0.51100000000E-03 0.  1.
         12    1    3    3    0    0  0.27214565267E+02  0.92353034179E+01 -0.28314205905E+02  0.40343743604E+02  0.00000000000E+00 0. -1.
</event>
<event>
 7    1  0.2974434E-011  0.5052886E+02  0.7816164E-02  0.1300439E+00
        -11   -1    0    0    0    0  0.00000000000E+00  0.00000000000E+00  0.45593999997E+02  0.45594000000E+02  0.51100000000E-03 0.  1.
         11   -1    0    0    0    0 -0.00000000000E+00 -0.00000000000E+00 -0.45593999997E+02  0.45594000000E+02  0.51100000000E-03 0. -1.
    9900012    2    1    2    0    0 -0.56866926719E+00 -0.90232277537E+01 -0.39641188602E+02  0.50528857638E+02  0.29999993276E+02 0.  0.
        -12    1    1    2    0    0  0.56866926719E+00  0.90232277537E+01  0.39641188602E+02  0.40659142362E+02  0.00000000000E+00 0.  1.
         11    1    3    3    0    0  0.10179380192E+01  0.26962517552E+01  0.98858598805E-02  0.28820252133E+01  0.51100000000E-03 0. -1.
        -11    1    3    3    0    0  0.10266596509E+02 -0.16518574275E+01 -0.11641544716E+02  0.15609522750E+02  0.51100000000E-03 0.  1.
         12    1    3    3    0    0 -0.11853203796E+02 -0.10067622081E+02 -0.28009529746E+02  0.32037309674E+02  0.00000000000E+00 0. -1.
</event>
<event>
 7    1  0.2974434E-011  0.5052874E+02  0.7816164E-02  0.1300439E+00
        -11   -1    0    0    0    0  0.00000000000E+00  0.00000000000E+00  0.45593999997E+02  0.45594000000E+02  0.51100000000E-03 0. -1.
         11   -1    0    0    0    0 -0.00000000000E+00 -0.00000000000E+00 -0.45593999997E+02  0.45594000000E+02  0.51100000000E-03 0.  1.
    9900012    2    1    2    0    0  0.24429315596E+02 -0.16743026713E+02 -0.27857764697E+02  0.50528739580E+02  0.29999634425E+02 0.  0.
        -12    1    1    2    0    0 -0.24429315596E+02  0.16743026713E+02  0.27857764697E+02  0.40659260420E+02  0.00000000000E+00 0.  1.
         11    1    3    3    0    0  0.83865964497E+01 -0.24668848632E+01 -0.16415959689E+01  0.88946814740E+01  0.51100000000E-03 0. -1.
        -11    1    3    3    0    0 -0.11991496270E+00  0.30455770076E+01  0.28246224263E+01  0.41555277667E+01  0.51100000000E-03 0.  1.
         12    1    3    3    0    0  0.16162634109E+02 -0.17321718857E+02 -0.29040791155E+02  0.37478530339E+02  0.00000000000E+00 0. -1.
</event>
<event>
 7    1  0.2974434E-011  0.5052886E+02  0.7816164E-02  0.1300439E+00
        -11   -1    0    0    0    0  0.00000000000E+00  0.00000000000E+00  0.45593999997E+02  0.45594000000E+02  0.51100000000E-03 0.  1.
         11   -1    0    0    0    0 -0.00000000000E+00 -0.00000000000E+00 -0.45593999997E+02  0.45594000000E+02  0.51100000000E-03 0. -1.
    9900012    2    1    2    0    0 -0.30532333732E+01 -0.29049504735E+02 -0.28283742155E+02  0.50528855522E+02  0.29999986845E+02 0.  0.
        -12    1    1    2    0    0  0.30532333732E+01  0.29049504735E+02  0.28283742155E+02  0.40659144478E+02  0.00000000000E+00 0.  1.
         11    1    3    3    0    0 -0.27015282564E+01 -0.53302883075E+01 -0.17049846809E+01  0.62142740030E+01  0.51100000000E-03 0. -1.
        -11    1    3    3    0    0  0.64053730485E+01 -0.26519884961E+02 -0.16577831652E+02  0.31924247913E+02  0.51100000000E-03 0.  1.
         12    1    3    3    0    0 -0.67570781652E+01  0.28006685337E+01 -0.10000925823E+02  0.12390333606E+02  0.00000000000E+00 0. -1.
</event>
<event>
 7    1  0.2974434E-011  0.5052886E+02  0.7816164E-02  0.1300439E+00
        -11   -1    0    0    0    0  0.00000000000E+00  0.00000000000E+00  0.45593999997E+02  0.45594000000E+02  0.51100000000E-03 0. -1.
         11   -1    0    0    0    0 -0.00000000000E+00 -0.00000000000E+00 -0.45593999997E+02  0.45594000000E+02  0.51100000000E-03 0.  1.
    9900012    2    1    2    0    0 -0.22556448247E+02  0.93288312852E+01  0.32516845735E+02  0.50528859487E+02  0.29999998898E+02 0.  0.
        -12    1    1    2    0    0  0.22556448247E+02 -0.93288312852E+01 -0.32516845735E+02  0.40659140513E+02  0.00000000000E+00 0.  1.
         11    1    3    3    0    0 -0.98205208426E+01 -0.73224225866E+01  0.93948539480E+01  0.15437738925E+02  0.51100000000E-03 0. -1.
        -11    1    3    3    0    0 -0.52130035516E+01 -0.24739665234E+01  0.61956033325E+01  0.84664878965E+01  0.51100000000E-03 0.  1.
        -12    1    3    3    0    0 -0.75229238530E+01  0.19125220395E+02  0.16926388454E+02  0.26624632666E+02  0.00000000000E+00 0.  1.
</event>
<event>
 7    1  0.2974434E-011  0.5052887E+02  0.7816164E-02  0.1300439E+00
        -11   -1    0    0    0    0  0.00000000000E+00  0.00000000000E+00  0.45593999997E+02  0.45594000000E+02  0.51100000000E-03 0.  1.
         11   -1    0    0    0    0 -0.00000000000E+00 -0.00000000000E+00 -0.45593999997E+02  0.45594000000E+02  0.51100000000E-03 0. -1.
    9900012    2    1    2    0    0 -0.10658848782E+02  0.19484935283E+02 -0.34057174898E+02  0.50528869139E+02  0.30000028235E+02 0.  0.
        -12    1    1    2    0    0  0.10658848782E+02 -0.19484935283E+02  0.34057174898E+02  0.40659130861E+02  0.00000000000E+00 0.  1.
         11    1    3    3    0    0 -0.85323365463E+01  0.11252200299E+02 -0.21269434813E+02  0.25530406108E+02  0.51100000000E-03 0. -1.
        -11    1    3    3    0    0 -0.92454523367E+01  0.74931124544E+01 -0.20227616163E+01  0.12071316746E+02  0.51100000000E-03 0.  1.
        -12    1    3    3    0    0  0.71189401008E+01  0.73962252887E+00 -0.10764978469E+02  0.12927146285E+02  0.00000000000E+00 0.  1.
</event>
<event>
 7    1  0.2974434E-011  0.5052886E+02  0.7816164E-02  0.1300439E+00
        -11   -1    0    0    0    0  0.00000000000E+00  0.00000000000E+00  0.45593999997E+02  0.45594000000E+02  0.51100000000E-03 0. -1.
         11   -1    0    0    0    0 -0.00000000000E+00 -0.00000000000E+00 -0.45593999997E+02  0.45594000000E+02  0.51100000000E-03 0.  1.
    9900012    2    1    2    0    0  0.16563675487E+02 -0.14412957271E+02  0.34221002168E+02  0.50528859917E+02  0.30000000204E+02 0.  0.
        -12    1    1    2    0    0 -0.16563675487E+02  0.14412957271E+02 -0.34221002168E+02  0.40659140083E+02  0.00000000000E+00 0.  1.
         11    1    3    3    0    0  0.21836946457E+01 -0.15769114444E+02  0.14266587598E+02  0.21376833596E+02  0.51100000000E-03 0. -1.
        -11    1    3    3    0    0 -0.30084389259E+01 -0.10514835089E+01  0.57358539186E+01  0.65617332144E+01  0.51100000000E-03 0.  1.
        -12    1    3    3    0    0  0.17388419767E+02  0.24076406819E+01  0.14218560651E+02  0.22590293106E+02  0.00000000000E+00 0.  1.
</event>
<event>
 7    1  0.2974434E-011  0.5052886E+02  0.7816164E-02  0.1300439E+00
        -11   -1    0    0    0    0  0.00000000000E+00  0.00000000000E+00  0.45593999997E+02  0.45594000000E+02  0.51100000000E-03 0. -1.
         11   -1    0    0    0    0 -0.00000000000E+00 -0.00000000000E+00 -0.45593999997E+02  0.45594000000E+02  0.51100000000E-03 0.  1.
    9900012    2    1    2    0    0  0.19866271440E+02 -0.16106499747E+02  0.31608188293E+02  0.50528860287E+02  0.30000001329E+02 0.  0.
        -12    1    1    2    0    0 -0.19866271440E+02  0.16106499747E+02 -0.31608188293E+02  0.40659139713E+02  0.00000000000E+00 0.  1.
         11    1    3    3    0    0  0.19206118903E+02 -0.39826639947E+01  0.12487052568E+02  0.23252163295E+02  0.51100000000E-03 0. -1.
        -11    1    3    3    0    0  0.73340858894E+01 -0.48570603239E+01  0.52159684385E+01  0.10226738377E+02  0.51100000000E-03 0.  1.
        -12    1    3    3    0    0 -0.66739333523E+01 -0.72667754286E+01  0.13905167286E+02  0.17049958615E+02  0.00000000000E+00 0.  1.
</event>
<event>
 7    1  0.2974434E-011  0.5052885E+02  0.7816164E-02  0.1300439E+00
        -11   -1    0    0    0    0  0.00000000000E+00  0.00000000000E+00  0.45593999997E+02  0.45594000000E+02  0.51100000000E-03 0. -1.
         11   -1    0    0    0    0 -0.00000000000E+00 -0.00000000000E+00 -0.45593999997E+02  0.45594000000E+02  0.51100000000E-03 0.  1.
    9900012    2    1    2    0    0 -0.12044378581E+02  0.25845799490E+02  0.28984370660E+02  0.50528854052E+02  0.29999982376E+02 0.  0.
        -12    1    1    2    0    0  0.12044378581E+02 -0.25845799490E+02 -0.28984370660E+02  0.40659145948E+02  0.00000000000E+00 0.  1.
         11    1    3    3    0    0 -0.14918181741E+02  0.14059616947E+02  0.98892886611E+01  0.22760118753E+02  0.51100000000E-03 0. -1.
        -11    1    3    3    0    0 -0.60621353083E+01  0.30943905068E+01  0.30715309278E+01  0.74671975737E+01  0.51100000000E-03 0.  1.
         12    1    3    3    0    0  0.89359384677E+01  0.86917920358E+01  0.16023551071E+02  0.20301537726E+02  0.00000000000E+00 0. -1.
</event>
<event>
 7    1  0.2974434E-011  0.5052886E+02  0.7816164E-02  0.1300439E+00
        -11   -1    0    0    0    0  0.00000000000E+00  0.00000000000E+00  0.45593999997E+02  0.45594000000E+02  0.51100000000E-03 0. -1.
         11   -1    0    0    0    0 -0.00000000000E+00 -0.00000000000E+00 -0.45593999997E+02  0.45594000000E+02  0.51100000000E-03 0.  1.
    9900012    2    1    2    0    0 -0.25400505528E+00 -0.40639826131E+02  0.12271284752E+01  0.50528857967E+02  0.29999994278E+02 0.  0.
        -12    1    1    2    0    0  0.25400505528E+00  0.40639826131E+02 -0.12271284752E+01  0.40659142033E+02  0.00000000000E+00 0.  1.
         11    1    3    3    0    0  0.39050594917E+01 -0.13293014783E+02  0.11433498636E+02  0.17963257583E+02  0.51100000000E-03 0. -1.
        -11    1    3    3    0    0 -0.20404757074E+00 -0.85135224193E+01  0.32159842926E+01  0.91029805354E+01  0.51100000000E-03 0.  1.
        -12    1    3    3    0    0 -0.39550169763E+01 -0.18833288928E+02 -0.13422354453E+02  0.23462619849E+02  0.00000000000E+00 0.  1.
</event>
<event>
 7    1  0.2974434E-011  0.5052894E+02  0.7816164E-02  0.1300439E+00
        -11   -1    0    0    0    0  0.00000000000E+00  0.00000000000E+00  0.45593999997E+02  0.45594000000E+02  0.51100000000E-03 0.  1.
         11   -1    0    0    0    0 -0.00000000000E+00 -0.00000000000E+00 -0.45593999997E+02  0.45594000000E+02  0.51100000000E-03 0. -1.
    9900012    2    1    2    0    0 -0.43753678798E+01 -0.13816073491E+02 -0.37988570557E+02  0.50528939217E+02  0.30000241244E+02 0.  0.
        -12    1    1    2    0    0  0.43753678798E+01  0.13816073491E+02  0.37988570557E+02  0.40659060783E+02  0.00000000000E+00 0.  1.
         11    1    3    3    0    0 -0.61692978597E+01 -0.34211366836E+01 -0.54667365447E+01  0.89246636351E+01  0.51100000000E-03 0. -1.
        -11    1    3    3    0    0 -0.29251035094E+01  0.64006143821E+01 -0.37962929460E+01  0.79959949601E+01  0.51100000000E-03 0.  1.
         12    1    3    3    0    0  0.47190334893E+01 -0.16795551190E+02 -0.28725541066E+02  0.33608280622E+02  0.00000000000E+00 0. -1.
</event>
<event>
 7    1  0.2974434E-011  0.5052887E+02  0.7816164E-02  0.1300439E+00
        -11   -1    0    0    0    0  0.00000000000E+00  0.00000000000E+00  0.45593999997E+02  0.45594000000E+02  0.51100000000E-03 0.  1.
         11   -1    0    0    0    0 -0.00000000000E+00 -0.00000000000E+00 -0.45593999997E+02  0.45594000000E+02  0.51100000000E-03 0. -1.
    9900012    2    1    2    0    0 -0.19474637989E+02 -0.84898122711E+01 -0.34667373770E+02  0.50528865217E+02  0.30000016312E+02 0.  0.
        -12    1    1    2    0    0  0.19474637989E+02  0.84898122711E+01  0.34667373770E+02  0.40659134783E+02  0.00000000000E+00 0.  1.
         11    1    3    3    0    0 -0.20386937288E+01  0.21581879677E+01 -0.85883105520E+01  0.90869756147E+01  0.51100000000E-03 0. -1.
        -11    1    3    3    0    0  0.10565994212E+01  0.21607290161E+01 -0.17023106104E+02  0.17192187001E+02  0.51100000000E-03 0.  1.
        -12    1    3    3    0    0 -0.18492543682E+02 -0.12808729255E+02 -0.90559571148E+01  0.24249702600E+02  0.00000000000E+00 0.  1.
</event>
<event>
 7    1  0.2974434E-011  0.5052886E+02  0.7816164E-02  0.1300439E+00
        -11   -1    0    0    0    0  0.00000000000E+00  0.00000000000E+00  0.45593999997E+02  0.45594000000E+02  0.51100000000E-03 0.  1.
         11   -1    0    0    0    0 -0.00000000000E+00 -0.00000000000E+00 -0.45593999997E+02  0.45594000000E+02  0.51100000000E-03 0. -1.
    9900012    2    1    2    0    0 -0.31030561976E+02  0.19663646212E+02 -0.17424443246E+02  0.50528856116E+02  0.29999988652E+02 0.  0.
        -12    1    1    2    0    0  0.31030561976E+02 -0.19663646212E+02  0.17424443246E+02  0.40659143884E+02  0.00000000000E+00 0.  1.
         11    1    3    3    0    0 -0.32343636213E+01  0.23051638284E+01  0.34015314240E+01  0.52292738119E+01  0.51100000000E-03 0. -1.
        -11    1    3    3    0    0 -0.21216296348E+02  0.68259559417E+00 -0.60629224803E+01  0.22076145423E+02  0.51100000000E-03 0.  1.
        -12    1    3    3    0    0 -0.65799020069E+01  0.16675886789E+02 -0.14763052190E+02  0.23223436881E+02  0.00000000000E+00 0.  1.
</event>
<event>
 7    1  0.2974434E-011  0.5052886E+02  0.7816164E-02  0.1300439E+00
        -11   -1    0    0    0    0  0.00000000000E+00  0.00000000000E+00  0.45593999997E+02  0.45594000000E+02  0.51100000000E-03 0. -1.
         11   -1    0    0    0    0 -0.00000000000E+00 -0.00000000000E+00 -0.45593999997E+02  0.45594000000E+02  0.51100000000E-03 0.  1.
    9900012    2    1    2    0    0 -0.92380287637E+01 -0.28501466728E+02  0.27486190279E+02  0.50528862809E+02  0.30000008993E+02 0.  0.
        -12    1    1    2    0    0  0.92380287637E+01  0.28501466728E+02 -0.27486190279E+02  0.40659137191E+02  0.00000000000E+00 0.  1.
         11    1    3    3    0    0 -0.21561371942E+00 -0.41113319571E+01  0.15429291673E+02  0.15969113361E+02  0.51100000000E-03 0. -1.
        -11    1    3    3    0    0 -0.21197761118E+01 -0.32704688459E+01 -0.51489583685E+01  0.64576458387E+01  0.51100000000E-03 0.  1.
         12    1    3    3    0    0 -0.69026389325E+01 -0.21119665925E+02  0.17205856975E+02  0.28102103609E+02  0.00000000000E+00 0. -1.
</event>
<event>
 7    1  0.2974434E-011  0.5052885E+02  0.7816164E-02  0.1300439E+00
        -11   -1    0    0    0    0  0.00000000000E+00  0.00000000000E+00  0.45593999997E+02  0.45594000000E+02  0.51100000000E-03 0.  1.
         11   -1    0    0    0    0 -0.00000000000E+00 -0.00000000000E+00 -0.45593999997E+02  0.45594000000E+02  0.51100000000E-03 0. -1.
    9900012    2    1    2    0    0  0.22469908794E+02  0.38970580721E+01 -0.33661290904E+02  0.50528851360E+02  0.29999974194E+02 0.  0.
        -12    1    1    2    0    0 -0.22469908794E+02 -0.38970580721E+01  0.33661290904E+02  0.40659148640E+02  0.00000000000E+00 0.  1.
         11    1    3    3    0    0 -0.23410355245E+01 -0.11944279736E+00 -0.10038712678E+02  0.10308756782E+02  0.51100000000E-03 0. -1.
        -11    1    3    3    0    0 -0.25739752707E+01 -0.29925313254E+01 -0.49967582144E+01  0.63677457033E+01  0.51100000000E-03 0.  1.
         12    1    3    3    0    0  0.27384919589E+02  0.70090321949E+01 -0.18625820012E+02  0.33852348875E+02  0.00000000000E+00 0. -1.
</event>
<event>
 7    1  0.2974434E-011  0.5052884E+02  0.7816164E-02  0.1300439E+00
        -11   -1    0    0    0    0  0.00000000000E+00  0.00000000000E+00  0.45593999997E+02  0.45594000000E+02  0.51100000000E-03 0.  1.
         11   -1    0    0    0    0 -0.00000000000E+00 -0.00000000000E+00 -0.45593999997E+02  0.45594000000E+02  0.51100000000E-03 0. -1.
    9900012    2    1    2    0    0 -0.26209235940E+02  0.34465364638E-01 -0.31084435042E+02  0.50528839429E+02  0.29999937930E+02 0.  0.
        -12    1    1    2    0    0  0.26209235940E+02 -0.34465364638E-01  0.31084435042E+02  0.40659160571E+02  0.00000000000E+00 0.  1.
         11    1    3    3    0    0 -0.26904793275E+02 -0.22752065942E+01 -0.25304273336E+02  0.37004739096E+02  0.51100000000E-03 0. -1.
        -11    1    3    3    0    0 -0.39459521619E+01 -0.56179940819E+00  0.16424072297E+01  0.43108768027E+01  0.51100000000E-03 0.  1.
         12    1    3    3    0    0  0.46415094972E+01  0.28714713671E+01 -0.74225689360E+01  0.92132235311E+01  0.00000000000E+00 0. -1.
</event>
<event>
 7    1  0.2974434E-011  0.5052883E+02  0.7816164E-02  0.1300439E+00
        -11   -1    0    0    0    0  0.00000000000E+00  0.00000000000E+00  0.45593999997E+02  0.45594000000E+02  0.51100000000E-03 0. -1.
         11   -1    0    0    0    0 -0.00000000000E+00 -0.00000000000E+00 -0.45593999997E+02  0.45594000000E+02  0.51100000000E-03 0.  1.
    9900012    2    1    2    0    0 -0.25292830317E+02 -0.23280384397E+02 -0.21713236333E+02  0.50528828892E+02  0.29999905901E+02 0.  0.
        -12    1    1    2    0    0  0.25292830317E+02  0.23280384397E+02  0.21713236333E+02  0.40659171108E+02  0.00000000000E+00 0.  1.
         11    1    3    3    0    0 -0.11831486184E+02 -0.23928684054E+02 -0.15238738078E+02  0.30737357147E+02  0.51100000000E-03 0. -1.
        -11    1    3    3    0    0  0.10239915860E+01 -0.31146557899E+01 -0.29624441992E+01  0.44187911641E+01  0.51100000000E-03 0.  1.
         12    1    3    3    0    0 -0.14485335719E+02  0.37629554468E+01 -0.35120540558E+01  0.15372680582E+02  0.00000000000E+00 0. -1.
</event>
<event>
 7    1  0.2974434E-011  0.5052887E+02  0.7816164E-02  0.1300439E+00
        -11   -1    0    0    0    0  0.00000000000E+00  0.00000000000E+00  0.45593999997E+02  0.45594000000E+02  0.51100000000E-03 0.  1.
         11   -1    0    0    0    0 -0.00000000000E+00 -0.00000000000E+00 -0.45593999997E+02  0.45594000000E+02  0.51100000000E-03 0. -1.
    9900012    2    1    2    0    0  0.76919419228E+01  0.23242132171E+02 -0.32462314118E+02  0.50528874132E+02  0.30000043413E+02 0.  0.
        -12    1    1    2    0    0 -0.76919419228E+01 -0.23242132171E+02  0.32462314118E+02  0.40659125868E+02  0.00000000000E+00 0.  1.
         11    1    3    3    0    0  0.12743057875E+02  0.28285200494E+02 -0.26220224810E+02  0.40619432299E+02  0.51100000000E-03 0. -1.
        -11    1    3    3    0    0 -0.27093286379E+01 -0.17521611894E+01 -0.44351378648E+01  0.54846128982E+01  0.51100000000E-03 0.  1.
        -12    1    3    3    0    0 -0.23417873142E+01 -0.32909071334E+01 -0.18069514439E+01  0.44248289352E+01  0.00000000000E+00 0.  1.
</event>
<event>
 7    1  0.2974434E-011  0.5052887E+02  0.7816164E-02  0.1300439E+00
        -11   -1    0    0    0    0  0.00000000000E+00  0.00000000000E+00  0.45593999997E+02  0.45594000000E+02  0.51100000000E-03 0. -1.
         11   -1    0    0    0    0 -0.00000000000E+00 -0.00000000000E+00 -0.45593999997E+02  0.45594000000E+02  0.51100000000E-03 0.  1.
    9900012    2    1    2    0    0  0.38967108708E+02 -0.11532734403E+02  0.13136669330E+01  0.50528865175E+02  0.30000016187E+02 0.  0.
        -12    1    1    2    0    0 -0.38967108708E+02  0.11532734403E+02 -0.13136669330E+01  0.40659134825E+02  0.00000000000E+00 0.  1.
         11    1    3    3    0    0  0.23855423862E+02 -0.14472653330E+02 -0.80578906776E+00  0.27913943439E+02  0.51100000000E-03 0. -1.
        -11    1    3    3    0    0  0.33246037383E+01 -0.64416345198E+01  0.21110051134E+01  0.75500985526E+01  0.51100000000E-03 0.  1.
        -12    1    3    3    0    0  0.11787081108E+02  0.93815534474E+01  0.84508873983E-02  0.15064823184E+02  0.00000000000E+00 0.  1.
</event>
<event>
 7    1  0.2974434E-011  0.5052886E+02  0.7816164E-02  0.1300439E+00
        -11   -1    0    0    0    0  0.00000000000E+00  0.00000000000E+00  0.45593999997E+02  0.45594000000E+02  0.51100000000E-03 0. -1.
         11   -1    0    0    0    0 -0.00000000000E+00 -0.00000000000E+00 -0.45593999997E+02  0.45594000000E+02  0.51100000000E-03 0.  1.
    9900012    2    1    2    0    0  0.25482445976E+01 -0.23837155189E+02  0.32839951669E+02  0.50528856580E+02  0.29999990060E+02 0.  0.
        -12    1    1    2    0    0 -0.25482445976E+01  0.23837155189E+02 -0.32839951669E+02  0.40659143420E+02  0.00000000000E+00 0.  1.
         11    1    3    3    0    0 -0.61926057713E+01 -0.58658825312E+01  0.10048995394E+02  0.13181018655E+02  0.51100000000E-03 0. -1.
        -11    1    3    3    0    0 -0.57668147045E+01 -0.12157664038E+02  0.13990565074E+02  0.19411358995E+02  0.51100000000E-03 0.  1.
        -12    1    3    3    0    0  0.14507665073E+02 -0.58136086199E+01  0.88003912014E+01  0.17936478929E+02  0.00000000000E+00 0.  1.
</event>
<event>
 7    1  0.2974434E-011  0.5052887E+02  0.7816164E-02  0.1300439E+00
        -11   -1    0    0    0    0  0.00000000000E+00  0.00000000000E+00  0.45593999997E+02  0.45594000000E+02  0.51100000000E-03 0.  1.
         11   -1    0    0    0    0 -0.00000000000E+00 -0.00000000000E+00 -0.45593999997E+02  0.45594000000E+02  0.51100000000E-03 0. -1.
    9900012    2    1    2    0    0  0.27251846257E+02  0.24146397604E+02 -0.18095674811E+02  0.50528867096E+02  0.30000022024E+02 0.  0.
        -12    1    1    2    0    0 -0.27251846257E+02 -0.24146397604E+02  0.18095674811E+02  0.40659132904E+02  0.00000000000E+00 0.  1.
         11    1    3    3    0    0  0.79266017836E+01  0.61070898776E+01 -0.56203053730E+01  0.11476732782E+02  0.51100000000E-03 0. -1.
        -11    1    3    3    0    0 -0.59804325042E+01  0.10834281313E+00 -0.16850738889E+01  0.62142405308E+01  0.51100000000E-03 0.  1.
         12    1    3    3    0    0  0.25305676978E+02  0.17930964914E+02 -0.10790295549E+02  0.32837893782E+02  0.00000000000E+00 0. -1.
</event>
<event>
 7    1  0.2974434E-011  0.5052886E+02  0.7816164E-02  0.1300439E+00
        -11   -1    0    0    0    0  0.00000000000E+00  0.00000000000E+00  0.45593999997E+02  0.45594000000E+02  0.51100000000E-03 0. -1.
         11   -1    0    0    0    0 -0.00000000000E+00 -0.00000000000E+00 -0.45593999997E+02  0.45594000000E+02  0.51100000000E-03 0.  1.
    9900012    2    1    2    0    0 -0.86983888202E+01  0.27699752708E+02 -0.28464494024E+02  0.50528859721E+02  0.29999999609E+02 0.  0.
        -12    1    1    2    0    0  0.86983888202E+01 -0.27699752708E+02  0.28464494024E+02  0.40659140279E+02  0.00000000000E+00 0.  1.
         11    1    3    3    0    0 -0.43508779313E+00  0.28243903029E+01  0.16211094187E+01  0.32854950890E+01  0.51100000000E-03 0. -1.
        -11    1    3    3    0    0  0.81468937437E+01  0.95855097042E+01 -0.48542111965E+01  0.13483962346E+02  0.51100000000E-03 0.  1.
         12    1    3    3    0    0 -0.16410194771E+02  0.15289852701E+02 -0.25231392246E+02  0.33759402286E+02  0.00000000000E+00 0. -1.
</event>
<event>
 7    1  0.2974434E-011  0.5052886E+02  0.7816164E-02  0.1300439E+00
        -11   -1    0    0    0    0  0.00000000000E+00  0.00000000000E+00  0.45593999997E+02  0.45594000000E+02  0.51100000000E-03 0.  1.
         11   -1    0    0    0    0 -0.00000000000E+00 -0.00000000000E+00 -0.45593999997E+02  0.45594000000E+02  0.51100000000E-03 0. -1.
    9900012    2    1    2    0    0  0.29257416982E+02  0.12060733701E+02 -0.25528570915E+02  0.50528859836E+02  0.29999999959E+02 0.  0.
        -12    1    1    2    0    0 -0.29257416982E+02 -0.12060733701E+02  0.25528570915E+02  0.40659140164E+02  0.00000000000E+00 0.  1.
         11    1    3    3    0    0  0.97316389687E+01  0.13443285520E+02 -0.57759402884E+01  0.17572370616E+02  0.51100000000E-03 0. -1.
        -11    1    3    3    0    0  0.19114452308E+02  0.51107219060E+01 -0.13662881310E+02  0.24044876614E+02  0.51100000000E-03 0.  1.
        -12    1    3    3    0    0  0.41132570585E+00 -0.64932737253E+01 -0.60897493167E+01  0.89116126065E+01  0.00000000000E+00 0.  1.
</event>
<event>
 7    1  0.2974434E-011  0.5052886E+02  0.7816164E-02  0.1300439E+00
        -11   -1    0    0    0    0  0.00000000000E+00  0.00000000000E+00  0.45593999997E+02  0.45594000000E+02  0.51100000000E-03 0.  1.
         11   -1    0    0    0    0 -0.00000000000E+00 -0.00000000000E+00 -0.45593999997E+02  0.45594000000E+02  0.51100000000E-03 0. -1.
    9900012    2    1    2    0    0  0.65223044727E+01 -0.11587247482E+02 -0.38423444597E+02  0.50528857676E+02  0.29999993391E+02 0.  0.
        -12    1    1    2    0    0 -0.65223044727E+01  0.11587247482E+02  0.38423444597E+02  0.40659142324E+02  0.00000000000E+00 0.  1.
         11    1    3    3    0    0 -0.16192181032E+01 -0.89213982662E+01 -0.25867511276E+02  0.27410606599E+02  0.51100000000E-03 0. -1.
        -11    1    3    3    0    0  0.20270631631E+00 -0.87133791676E+01 -0.89876546033E+01  0.12519664608E+02  0.51100000000E-03 0.  1.
         12    1    3    3    0    0  0.79388162597E+01  0.60475299515E+01 -0.35682787181E+01  0.10598586468E+02  0.00000000000E+00 0. -1.
</event>
<event>
 7    1  0.2974434E-011  0.5052894E+02  0.7816164E-02  0.1300439E+00
        -11   -1    0    0    0    0  0.00000000000E+00  0.00000000000E+00  0.45593999997E+02  0.45594000000E+02  0.51100000000E-03 0. -1.
         11   -1    0    0    0    0 -0.00000000000E+00 -0.00000000000E+00 -0.45593999997E+02  0.45594000000E+02  0.51100000000E-03 0.  1.
    9900012    2    1    2    0    0 -0.16088742685E+01  0.16708502731E+02  0.37032374112E+02  0.50528938620E+02  0.30000239429E+02 0.  0.
        -12    1    1    2    0    0  0.16088742685E+01 -0.16708502731E+02 -0.37032374112E+02  0.40659061380E+02  0.00000000000E+00 0.  1.
         11    1    3    3    0    0 -0.75856864410E+01 -0.11172511891E+01  0.90333325030E+01  0.11848712393E+02  0.51100000000E-03 0. -1.
        -11    1    3    3    0    0  0.12061224500E+01 -0.33097300158E+01  0.33149552458E+00  0.35382105203E+01  0.51100000000E-03 0.  1.
         12    1    3    3    0    0  0.47706897225E+01  0.21135483936E+02  0.27667546084E+02  0.35142015707E+02  0.00000000000E+00 0. -1.
</event>
<event>
 7    1  0.2974434E-011  0.5052887E+02  0.7816164E-02  0.1300439E+00
        -11   -1    0    0    0    0  0.00000000000E+00  0.00000000000E+00  0.45593999997E+02  0.45594000000E+02  0.51100000000E-03 0. -1.
         11   -1    0    0    0    0 -0.00000000000E+00 -0.00000000000E+00 -0.45593999997E+02  0.45594000000E+02  0.51100000000E-03 0.  1.
    9900012    2    1    2    0    0  0.91554420617E+01  0.37917679023E+02  0.11471374193E+02  0.50528869074E+02  0.30000028036E+02 0.  0.
        -12    1    1    2    0    0 -0.91554420617E+01 -0.37917679023E+02 -0.11471374193E+02  0.40659130926E+02  0.00000000000E+00 0.  1.
         11    1    3    3    0    0  0.10698045856E+01 -0.58369043246E+00 -0.44340003938E+01  0.45984275710E+01  0.51100000000E-03 0. -1.
        -11    1    3    3    0    0  0.12856910452E+01 -0.18028602326E+01  0.86078486358E+00  0.23757645768E+01  0.51100000000E-03 0.  1.
         12    1    3    3    0    0  0.67999464309E+01  0.40304229688E+02  0.15044589723E+02  0.43554676926E+02  0.00000000000E+00 0. -1.
</event>
<event>
 7    1  0.2974434E-011  0.5052878E+02  0.7816164E-02  0.1300439E+00
        -11   -1    0    0    0    0  0.00000000000E+00  0.00000000000E+00  0.45593999997E+02  0.45594000000E+02  0.51100000000E-03 0.  1.
         11   -1    0    0    0    0 -0.00000000000E+00 -0.00000000000E+00 -0.45593999997E+02  0.45594000000E+02  0.51100000000E-03 0. -1.
    9900012    2    1    2    0    0 -0.12808716196E+02 -0.79900764129E+01 -0.37752713358E+02  0.50528783363E+02  0.29999767509E+02 0.  0.
        -12    1    1    2    0    0  0.12808716196E+02  0.79900764129E+01  0.37752713358E+02  0.40659216637E+02  0.00000000000E+00 0.  1.
         11    1    3    3    0    0 -0.60257126035E+01  0.59821729404E+01 -0.13287288396E+02  0.15768564889E+02  0.51100000000E-03 0. -1.
        -11    1    3    3    0    0  0.43406391752E+01 -0.51959445781E+01 -0.33660052745E+00  0.67788117458E+01  0.51100000000E-03 0.  1.
        -12    1    3    3    0    0 -0.11123642768E+02 -0.87763047751E+01 -0.24128824434E+02  0.27981406728E+02  0.00000000000E+00 0.  1.
</event>
<event>
 7    1  0.2974434E-011  0.5052887E+02  0.7816164E-02  0.1300439E+00
        -11   -1    0    0    0    0  0.00000000000E+00  0.00000000000E+00  0.45593999997E+02  0.45594000000E+02  0.51100000000E-03 0.  1.
         11   -1    0    0    0    0 -0.00000000000E+00 -0.00000000000E+00 -0.45593999997E+02  0.45594000000E+02  0.51100000000E-03 0. -1.
    9900012    2    1    2    0    0 -0.13186686451E+02  0.23102620561E+02 -0.30749712697E+02  0.50528873014E+02  0.30000040013E+02 0.  0.
        -12    1    1    2    0    0  0.13186686451E+02 -0.23102620561E+02  0.30749712697E+02  0.40659126986E+02  0.00000000000E+00 0.  1.
         11    1    3    3    0    0 -0.26474911326E+01  0.26641690265E+02 -0.20864225187E+02  0.33942668758E+02  0.51100000000E-03 0. -1.
        -11    1    3    3    0    0  0.18919972174E+00 -0.19324225382E+01 -0.34886444054E+01  0.39925797987E+01  0.51100000000E-03 0.  1.
        -12    1    3    3    0    0 -0.10728395040E+02 -0.16066471666E+01 -0.63968431047E+01  0.12593624457E+02  0.00000000000E+00 0.  1.
</event>
<event>
 7    1  0.2974434E-011  0.5052886E+02  0.7816164E-02  0.1300439E+00
        -11   -1    0    0    0    0  0.00000000000E+00  0.00000000000E+00  0.45593999997E+02  0.45594000000E+02  0.51100000000E-03 0.  1.
         11   -1    0    0    0    0 -0.00000000000E+00 -0.00000000000E+00 -0.45593999997E+02  0.45594000000E+02  0.51100000000E-03 0. -1.
    9900012    2    1    2    0    0  0.17249967120E+02 -0.35932393344E+02 -0.80291720173E+01  0.50528857604E+02  0.29999993175E+02 0.  0.
        -12    1    1    2    0    0 -0.17249967120E+02  0.35932393344E+02  0.80291720173E+01  0.40659142396E+02  0.00000000000E+00 0.  1.
         11    1    3    3    0    0  0.10168959880E+02 -0.82890818035E+01  0.14966193291E+01  0.13204411834E+02  0.51100000000E-03 0. -1.
        -11    1    3    3    0    0 -0.62511837558E+01 -0.21592391567E+01  0.10187118421E+01  0.66915907050E+01  0.51100000000E-03 0.  1.
         12    1    3    3    0    0  0.13332190995E+02 -0.25484072383E+02 -0.10544503189E+02  0.30632855066E+02  0.00000000000E+00 0. -1.
</event>
<event>
 7    1  0.2974434E-011  0.5052887E+02  0.7816164E-02  0.1300439E+00
        -11   -1    0    0    0    0  0.00000000000E+00  0.00000000000E+00  0.45593999997E+02  0.45594000000E+02  0.51100000000E-03 0. -1.
         11   -1    0    0    0    0 -0.00000000000E+00 -0.00000000000E+00 -0.45593999997E+02  0.45594000000E+02  0.51100000000E-03 0.  1.
    9900012    2    1    2    0    0 -0.28002634504E+02 -0.28464503071E+02  0.76674453210E+01  0.50528865823E+02  0.30000018156E+02 0.  0.
        -12    1    1    2    0    0  0.28002634504E+02  0.28464503071E+02 -0.76674453210E+01  0.40659134177E+02  0.00000000000E+00 0.  1.
         11    1    3    3    0    0 -0.16801655971E+01 -0.20246458144E+01  0.17700311345E+00  0.26369447227E+01  0.51100000000E-03 0. -1.
        -11    1    3    3    0    0  0.34441543181E+01 -0.76233182570E+01  0.94519711128E+01  0.12622081381E+02  0.51100000000E-03 0.  1.
        -12    1    3    3    0    0 -0.29766623225E+02 -0.18816539000E+02 -0.19615289052E+01  0.35269839719E+02  0.00000000000E+00 0.  1.
</event>
<event>
 7    1  0.2974434E-011  0.5052886E+02  0.7816164E-02  0.1300439E+00
        -11   -1    0    0    0    0  0.00000000000E+00  0.00000000000E+00  0.45593999997E+02  0.45594000000E+02  0.51100000000E-03 0.  1.
         11   -1    0    0    0    0 -0.00000000000E+00 -0.00000000000E+00 -0.45593999997E+02  0.45594000000E+02  0.51100000000E-03 0. -1.
    9900012    2    1    2    0    0  0.13508618632E+02  0.36847038407E+02 -0.10629141955E+02  0.50528859879E+02  0.30000000087E+02 0.  0.
        -12    1    1    2    0    0 -0.13508618632E+02 -0.36847038407E+02  0.10629141955E+02  0.40659140121E+02  0.00000000000E+00 0.  1.
         11    1    3    3    0    0  0.21254285938E+01  0.50470831996E+01  0.28059498975E+01  0.61533609206E+01  0.51100000000E-03 0. -1.
        -11    1    3    3    0    0 -0.87655366932E+00 -0.29814285386E+01  0.27045038271E+01  0.41196606266E+01  0.51100000000E-03 0.  1.
         12    1    3    3    0    0  0.12259743708E+02  0.34781383746E+02 -0.16139595680E+02  0.40255838331E+02  0.00000000000E+00 0. -1.
</event>
<event>
 7    1  0.2974434E-011  0.5052886E+02  0.7816164E-02  0.1300439E+00
        -11   -1    0    0    0    0  0.00000000000E+00  0.00000000000E+00  0.45593999997E+02  0.45594000000E+02  0.51100000000E-03 0.  1.
         11   -1    0    0    0    0 -0.00000000000E+00 -0.00000000000E+00 -0.45593999997E+02  0.45594000000E+02  0.51100000000E-03 0. -1.
    9900012    2    1    2    0    0  0.38779761016E+02 -0.71751313882E+01 -0.98900459739E+01  0.50528863459E+02  0.30000010969E+02 0.  0.
        -12    1    1    2    0    0 -0.38779761016E+02  0.71751313882E+01  0.98900459739E+01  0.40659136541E+02  0.00000000000E+00 0.  1.
         11    1    3    3    0    0  0.13981718928E+02 -0.11759819905E+01 -0.75431157378E+01  0.15930159859E+02  0.51100000000E-03 0. -1.
        -11    1    3    3    0    0  0.21262634659E+02  0.57409798746E+01 -0.34321557873E+01  0.22289867119E+02  0.51100000000E-03 0.  1.
        -12    1    3    3    0    0  0.35354074293E+01 -0.11740129272E+02  0.10852255512E+01  0.12308836481E+02  0.00000000000E+00 0.  1.
</event>
<event>
 7    1  0.2974434E-011  0.5052888E+02  0.7816164E-02  0.1300439E+00
        -11   -1    0    0    0    0  0.00000000000E+00  0.00000000000E+00  0.45593999997E+02  0.45594000000E+02  0.51100000000E-03 0.  1.
         11   -1    0    0    0    0 -0.00000000000E+00 -0.00000000000E+00 -0.45593999997E+02  0.45594000000E+02  0.51100000000E-03 0. -1.
    9900012    2    1    2    0    0 -0.26953112461E+02 -0.23744208341E+02 -0.19050107506E+02  0.50528876828E+02  0.30000051607E+02 0.  0.
        -12    1    1    2    0    0  0.26953112461E+02  0.23744208341E+02  0.19050107506E+02  0.40659123172E+02  0.00000000000E+00 0.  1.
         11    1    3    3    0    0 -0.19287448310E+02 -0.23347455934E+02 -0.13740625434E+02  0.33255287526E+02  0.51100000000E-03 0.  1.
        -11    1    3    3    0    0 -0.90633096333E+01 -0.40581513926E+01 -0.78023121432E+01  0.12628865716E+02  0.51100000000E-03 0. -1.
        -12    1    3    3    0    0  0.13976454815E+01  0.36613989860E+01  0.24928300706E+01  0.46447235857E+01  0.00000000000E+00 0.  1.
</event>
<event>
 7    1  0.2974434E-011  0.5052887E+02  0.7816164E-02  0.1300439E+00
        -11   -1    0    0    0    0  0.00000000000E+00  0.00000000000E+00  0.45593999997E+02  0.45594000000E+02  0.51100000000E-03 0.  1.
         11   -1    0    0    0    0 -0.00000000000E+00 -0.00000000000E+00 -0.45593999997E+02  0.45594000000E+02  0.51100000000E-03 0. -1.
    9900012    2    1    2    0    0  0.33233444545E+02  0.75951753402E+01 -0.22158887730E+02  0.50528870272E+02  0.30000031679E+02 0.  0.
        -12    1    1    2    0    0 -0.33233444545E+02 -0.75951753402E+01  0.22158887730E+02  0.40659129728E+02  0.00000000000E+00 0.  1.
         11    1    3    3    0    0  0.10449321492E+02  0.86729955273E+01 -0.14913227323E+02  0.20169618749E+02  0.51100000000E-03 0. -1.
        -11    1    3    3    0    0  0.15788488515E+01  0.55880106631E+01 -0.56048221656E+01  0.80704806942E+01  0.51100000000E-03 0.  1.
        -12    1    3    3    0    0  0.21205274202E+02 -0.66658308502E+01 -0.16408382416E+01  0.22288770829E+02  0.00000000000E+00 0.  1.
</event>
<event>
 7    1  0.2974434E-011  0.5052882E+02  0.7816164E-02  0.1300439E+00
        -11   -1    0    0    0    0  0.00000000000E+00  0.00000000000E+00  0.45593999997E+02  0.45594000000E+02  0.51100000000E-03 0.  1.
         11   -1    0    0    0    0 -0.00000000000E+00 -0.00000000000E+00 -0.45593999997E+02  0.45594000000E+02  0.51100000000E-03 0. -1.
    9900012    2    1    2    0    0  0.14795325335E+02 -0.29601042435E+02 -0.23622988923E+02  0.50528819356E+02  0.29999876914E+02 0.  0.
        -12    1    1    2    0    0 -0.14795325335E+02  0.29601042435E+02  0.23622988923E+02  0.40659180644E+02  0.00000000000E+00 0.  1.
         11    1    3    3    0    0  0.38086731870E+01  0.34921488703E+00 -0.28839555875E+01  0.47901088270E+01  0.51100000000E-03 0. -1.
        -11    1    3    3    0    0  0.11735748188E+02 -0.16602729108E+01 -0.98675750825E+01  0.15422494284E+02  0.51100000000E-03 0.  1.
        -12    1    3    3    0    0 -0.74909604014E+00 -0.28289984411E+02 -0.10871458253E+02  0.30316216245E+02  0.00000000000E+00 0.  1.
</event>
<event>
 7    1  0.2974434E-011  0.5052887E+02  0.7816164E-02  0.1300439E+00
        -11   -1    0    0    0    0  0.00000000000E+00  0.00000000000E+00  0.45593999997E+02  0.45594000000E+02  0.51100000000E-03 0. -1.
         11   -1    0    0    0    0 -0.00000000000E+00 -0.00000000000E+00 -0.45593999997E+02  0.45594000000E+02  0.51100000000E-03 0.  1.
    9900012    2    1    2    0    0  0.36675165899E+02  0.13352530696E+02  0.11393285641E+02  0.50528870306E+02  0.30000031783E+02 0.  0.
        -12    1    1    2    0    0 -0.36675165899E+02 -0.13352530696E+02 -0.11393285641E+02  0.40659129694E+02  0.00000000000E+00 0.  1.
         11    1    3    3    0    0  0.23164532457E+00 -0.63630071107E+00 -0.11963632233E+01  0.13747084689E+01  0.51100000000E-03 0. -1.
        -11    1    3    3    0    0  0.14544560608E+02 -0.73483042886E+01  0.58243580806E+00  0.16305859405E+02  0.51100000000E-03 0.  1.
         12    1    3    3    0    0  0.21898959967E+02  0.21337135696E+02  0.12007213056E+02  0.32848302433E+02  0.00000000000E+00 0. -1.
</event>
<event>
 7    1  0.3098875E-011  0.5052887E+02  0.7816164E-02  0.1300439E+00
        -11   -1    0    0    0    0  0.00000000000E+00  0.00000000000E+00  0.45593999997E+02  0.45594000000E+02  0.51100000000E-03 0.  1.
         11   -1    0    0    0    0 -0.00000000000E+00 -0.00000000000E+00 -0.45593999997E+02  0.45594000000E+02  0.51100000000E-03 0. -1.
    9900012    2    1    2    0    0  0.28302167899E+02 -0.13813904034E+02 -0.25716305722E+02  0.50528867786E+02  0.30000024122E+02 0.  0.
        -12    1    1    2    0    0 -0.28302167899E+02  0.13813904034E+02  0.25716305722E+02  0.40659132214E+02  0.00000000000E+00 0.  1.
         11    1    3    3    0    0  0.14422270278E+02 -0.35977172469E+01 -0.76646689358E+01  0.16724012662E+02  0.51100000000E-03 0. -1.
        -11    1    3    3    0    0  0.14295948253E+02 -0.13746494499E+02 -0.52458599418E+01  0.20514855453E+02  0.51100000000E-03 0.  1.
        -12    1    3    3    0    0 -0.41605063194E+00  0.35303077125E+01 -0.12805776844E+02  0.13289999671E+02  0.00000000000E+00 0.  1.
</event>
<event>
 7    1  0.2974434E-011  0.5052886E+02  0.7816164E-02  0.1300439E+00
        -11   -1    0    0    0    0  0.00000000000E+00  0.00000000000E+00  0.45593999997E+02  0.45594000000E+02  0.51100000000E-03 0. -1.
         11   -1    0    0    0    0 -0.00000000000E+00 -0.00000000000E+00 -0.45593999997E+02  0.45594000000E+02  0.51100000000E-03 0.  1.
    9900012    2    1    2    0    0 -0.89586359476E+01 -0.32561335424E+02  0.22642163148E+02  0.50528864807E+02  0.30000015067E+02 0.  0.
        -12    1    1    2    0    0  0.89586359476E+01  0.32561335424E+02 -0.22642163148E+02  0.40659135193E+02  0.00000000000E+00 0.  1.
         11    1    3    3    0    0 -0.34152581351E+01 -0.44695984053E+01  0.24613238964E+01  0.61399848223E+01  0.51100000000E-03 0. -1.
        -11    1    3    3    0    0 -0.78507055504E+01  0.19629436364E+01 -0.38487549088E-01  0.80924784159E+01  0.51100000000E-03 0.  1.
         12    1    3    3    0    0  0.23073277380E+01 -0.30054680655E+02  0.20219326801E+02  0.36296401569E+02  0.00000000000E+00 0. -1.
</event>
<event>
 7    1  0.2974434E-011  0.5052885E+02  0.7816164E-02  0.1300439E+00
        -11   -1    0    0    0    0  0.00000000000E+00  0.00000000000E+00  0.45593999997E+02  0.45594000000E+02  0.51100000000E-03 0. -1.
         11   -1    0    0    0    0 -0.00000000000E+00 -0.00000000000E+00 -0.45593999997E+02  0.45594000000E+02  0.51100000000E-03 0.  1.
    9900012    2    1    2    0    0  0.15864388387E+01  0.36844424560E+02 -0.17121283519E+02  0.50528846557E+02  0.29999959596E+02 0.  0.
        -12    1    1    2    0    0 -0.15864388387E+01 -0.36844424560E+02  0.17121283519E+02  0.40659153443E+02  0.00000000000E+00 0.  1.
         11    1    3    3    0    0  0.52671309092E+01  0.46791024824E+01 -0.53960843671E+01  0.88743672909E+01  0.51100000000E-03 0. -1.
        -11    1    3    3    0    0  0.70376879042E+01  0.64265263487E+01 -0.98565120296E+01  0.13710584291E+02  0.51100000000E-03 0.  1.
        -12    1    3    3    0    0 -0.10718379975E+02  0.25738795729E+02 -0.18686871220E+01  0.27943894976E+02  0.00000000000E+00 0.  1.
</event>
<event>
 7    1  0.2974434E-011  0.5052886E+02  0.7816164E-02  0.1300439E+00
        -11   -1    0    0    0    0  0.00000000000E+00  0.00000000000E+00  0.45593999997E+02  0.45594000000E+02  0.51100000000E-03 0.  1.
         11   -1    0    0    0    0 -0.00000000000E+00 -0.00000000000E+00 -0.45593999997E+02  0.45594000000E+02  0.51100000000E-03 0. -1.
    9900012    2    1    2    0    0  0.16327097993E+02 -0.88648291748E+01 -0.36166372265E+02  0.50528858249E+02  0.29999995133E+02 0.  0.
        -12    1    1    2    0    0 -0.16327097993E+02  0.88648291748E+01  0.36166372265E+02  0.40659141751E+02  0.00000000000E+00 0.  1.
         11    1    3    3    0    0  0.92184004270E+01 -0.13025120823E+02 -0.75647770278E+01  0.17659516716E+02  0.51100000000E-03 0. -1.
        -11    1    3    3    0    0  0.59431086057E+01 -0.31304727187E+01 -0.57088343857E+01  0.88153950363E+01  0.51100000000E-03 0.  1.
         12    1    3    3    0    0  0.11655889600E+01  0.72907643668E+01 -0.22892760851E+02  0.24053946497E+02  0.00000000000E+00 0. -1.
</event>
<event>
 7    1  0.2974434E-011  0.5052886E+02  0.7816164E-02  0.1300439E+00
        -11   -1    0    0    0    0  0.00000000000E+00  0.00000000000E+00  0.45593999997E+02  0.45594000000E+02  0.51100000000E-03 0.  1.
         11   -1    0    0    0    0 -0.00000000000E+00 -0.00000000000E+00 -0.45593999997E+02  0.45594000000E+02  0.51100000000E-03 0. -1.
    9900012    2    1    2    0    0 -0.71039412093E+01  0.62288099714E+01 -0.39546194438E+02  0.50528861435E+02  0.30000004816E+02 0.  0.
        -12    1    1    2    0    0  0.71039412093E+01 -0.62288099714E+01  0.39546194438E+02  0.40659138565E+02  0.00000000000E+00 0.  1.
         11    1    3    3    0    0  0.25121106408E+01 -0.11296004882E+01 -0.47809702814E+01  0.55176420895E+01  0.51100000000E-03 0. -1.
        -11    1    3    3    0    0 -0.28741342856E+01 -0.97013770176E+01 -0.14442767985E+02  0.17634367334E+02  0.51100000000E-03 0.  1.
         12    1    3    3    0    0 -0.67419175645E+01  0.17059787477E+02 -0.20322456171E+02  0.27376852011E+02  0.00000000000E+00 0. -1.
</event>
<event>
 7    1  0.2974434E-011  0.5052887E+02  0.7816164E-02  0.1300439E+00
        -11   -1    0    0    0    0  0.00000000000E+00  0.00000000000E+00  0.45593999997E+02  0.45594000000E+02  0.51100000000E-03 0.  1.
         11   -1    0    0    0    0 -0.00000000000E+00 -0.00000000000E+00 -0.45593999997E+02  0.45594000000E+02  0.51100000000E-03 0. -1.
    9900012    2    1    2    0    0  0.14901848812E+02 -0.43906364459E+01 -0.37574218172E+02  0.50528872394E+02  0.30000038129E+02 0.  0.
        -12    1    1    2    0    0 -0.14901848812E+02  0.43906364459E+01  0.37574218172E+02  0.40659127606E+02  0.00000000000E+00 0.  1.
         11    1    3    3    0    0  0.59448060800E+00  0.32999075800E+01  0.53328928018E+00  0.33951723001E+01  0.51100000000E-03 0.  1.
        -11    1    3    3    0    0  0.59658001880E+01  0.33988329856E+01 -0.31400878185E+00  0.68732408166E+01  0.51100000000E-03 0. -1.
        -12    1    3    3    0    0  0.83415680156E+01 -0.11089377012E+02 -0.37793498671E+02  0.40260459277E+02  0.00000000000E+00 0.  1.
</event>
<event>
 7    1  0.2974434E-011  0.5052871E+02  0.7816164E-02  0.1300439E+00
        -11   -1    0    0    0    0  0.00000000000E+00  0.00000000000E+00  0.45593999997E+02  0.45594000000E+02  0.51100000000E-03 0.  1.
         11   -1    0    0    0    0 -0.00000000000E+00 -0.00000000000E+00 -0.45593999997E+02  0.45594000000E+02  0.51100000000E-03 0. -1.
    9900012    2    1    2    0    0  0.26312592299E+02 -0.25677323786E+01 -0.30890642830E+02  0.50528713515E+02  0.29999555196E+02 0.  0.
        -12    1    1    2    0    0 -0.26312592299E+02  0.25677323786E+01  0.30890642830E+02  0.40659286485E+02  0.00000000000E+00 0.  1.
         11    1    3    3    0    0  0.12376634077E+02 -0.86547318174E+01 -0.24475773510E+02  0.28760197202E+02  0.51100000000E-03 0. -1.
        -11    1    3    3    0    0  0.14804678938E+01 -0.31741797282E+01 -0.51065263528E+01  0.61922381886E+01  0.51100000000E-03 0.  1.
        -12    1    3    3    0    0  0.12455490329E+02  0.92611791670E+01 -0.13083429668E+01  0.15576278124E+02  0.00000000000E+00 0.  1.
</event>
<event>
 7    1  0.2974434E-011  0.5052886E+02  0.7816164E-02  0.1300439E+00
        -11   -1    0    0    0    0  0.00000000000E+00  0.00000000000E+00  0.45593999997E+02  0.45594000000E+02  0.51100000000E-03 0.  1.
         11   -1    0    0    0    0 -0.00000000000E+00 -0.00000000000E+00 -0.45593999997E+02  0.45594000000E+02  0.51100000000E-03 0. -1.
    9900012    2    1    2    0    0  0.11217785815E+00  0.58419775833E+01 -0.40237100763E+02  0.50528861252E+02  0.30000004261E+02 0.  0.
        -12    1    1    2    0    0 -0.11217785815E+00 -0.58419775833E+01  0.40237100763E+02  0.40659138748E+02  0.00000000000E+00 0.  1.
         11    1    3    3    0    0  0.26934854416E+01 -0.22763306739E+01 -0.17121203819E+02  0.17480622576E+02  0.51100000000E-03 0. -1.
        -11    1    3    3    0    0  0.15656114504E+01 -0.45327737332E+01 -0.18256308294E+02  0.18875644882E+02  0.51100000000E-03 0.  1.
        -12    1    3    3    0    0 -0.41469190338E+01  0.12651081990E+02 -0.48595886491E+01  0.14172593794E+02  0.00000000000E+00 0.  1.
</event>
<event>
 7    1  0.2974434E-011  0.5052885E+02  0.7816164E-02  0.1300439E+00
        -11   -1    0    0    0    0  0.00000000000E+00  0.00000000000E+00  0.45593999997E+02  0.45594000000E+02  0.51100000000E-03 0. -1.
         11   -1    0    0    0    0 -0.00000000000E+00 -0.00000000000E+00 -0.45593999997E+02  0.45594000000E+02  0.51100000000E-03 0.  1.
    9900012    2    1    2    0    0  0.21647756313E+01 -0.23198408934E+02  0.33321374165E+02  0.50528850884E+02  0.29999972746E+02 0.  0.
        -12    1    1    2    0    0 -0.21647756313E+01  0.23198408934E+02 -0.33321374165E+02  0.40659149116E+02  0.00000000000E+00 0.  1.
         11    1    3    3    0    0  0.43980083029E+01 -0.51801241321E+01 -0.25387334200E+01  0.72540561547E+01  0.51100000000E-03 0. -1.
        -11    1    3    3    0    0 -0.52157603104E+01 -0.17396715943E+02  0.19556891150E+02  0.26689358796E+02  0.51100000000E-03 0.  1.
        -12    1    3    3    0    0  0.29825276388E+01 -0.62156885958E+00  0.16303216435E+02  0.16585435933E+02  0.00000000000E+00 0.  1.
</event>
<event>
 7    1  0.2974434E-011  0.5052887E+02  0.7816164E-02  0.1300439E+00
        -11   -1    0    0    0    0  0.00000000000E+00  0.00000000000E+00  0.45593999997E+02  0.45594000000E+02  0.51100000000E-03 0.  1.
         11   -1    0    0    0    0 -0.00000000000E+00 -0.00000000000E+00 -0.45593999997E+02  0.45594000000E+02  0.51100000000E-03 0. -1.
    9900012    2    1    2    0    0 -0.11151771219E+02 -0.26633027607E+02 -0.28626641458E+02  0.50528871111E+02  0.30000034229E+02 0.  0.
        -12    1    1    2    0    0  0.11151771219E+02  0.26633027607E+02  0.28626641458E+02  0.40659128889E+02  0.00000000000E+00 0.  1.
         11    1    3    3    0    0  0.13132543918E+01 -0.11519974730E+02 -0.19559996367E+02  0.22738247800E+02  0.51100000000E-03 0. -1.
        -11    1    3    3    0    0 -0.28387565374E+01 -0.16295303099E+02 -0.50640853046E+01  0.17298566472E+02  0.51100000000E-03 0.  1.
         12    1    3    3    0    0 -0.96262690737E+01  0.11822502216E+01 -0.40025597864E+01  0.10492056839E+02  0.00000000000E+00 0. -1.
</event>
<event>
 7    1  0.2974434E-011  0.5052890E+02  0.7816164E-02  0.1300439E+00
        -11   -1    0    0    0    0  0.00000000000E+00  0.00000000000E+00  0.45593999997E+02  0.45594000000E+02  0.51100000000E-03 0.  1.
         11   -1    0    0    0    0 -0.00000000000E+00 -0.00000000000E+00 -0.45593999997E+02  0.45594000000E+02  0.51100000000E-03 0. -1.
    9900012    2    1    2    0    0 -0.92403608467E+01 -0.24673166158E+02 -0.30967938639E+02  0.50528897447E+02  0.30000114280E+02 0.  0.
        -12    1    1    2    0    0  0.92403608467E+01  0.24673166158E+02  0.30967938639E+02  0.40659102553E+02  0.00000000000E+00 0.  1.
         11    1    3    3    0    0  0.47988056606E+01 -0.18341373712E+02 -0.19865221493E+02  0.27460181183E+02  0.51100000000E-03 0. -1.
        -11    1    3    3    0    0  0.30560069987E+00  0.29987676386E+01 -0.90046360044E+00  0.31459234089E+01  0.51100000000E-03 0.  1.
         12    1    3    3    0    0 -0.14344767207E+02 -0.93305600853E+01 -0.10202253546E+02  0.19922792855E+02  0.00000000000E+00 0. -1.
</event>
<event>
 7    1  0.2974434E-011  0.5052885E+02  0.7816164E-02  0.1300439E+00
        -11   -1    0    0    0    0  0.00000000000E+00  0.00000000000E+00  0.45593999997E+02  0.45594000000E+02  0.51100000000E-03 0. -1.
         11   -1    0    0    0    0 -0.00000000000E+00 -0.00000000000E+00 -0.45593999997E+02  0.45594000000E+02  0.51100000000E-03 0.  1.
    9900012    2    1    2    0    0 -0.28584394549E+02  0.51191824474E+01  0.28458615608E+02  0.50528850440E+02  0.29999971396E+02 0.  0.
        -12    1    1    2    0    0  0.28584394549E+02 -0.51191824474E+01 -0.28458615608E+02  0.40659149560E+02  0.00000000000E+00 0.  1.
         11    1    3    3    0    0 -0.91174982537E+01 -0.15577862431E+01 -0.82420924899E+00  0.92862690857E+01  0.51100000000E-03 0. -1.
        -11    1    3    3    0    0  0.25894812980E+01  0.20042436173E+01  0.13066413851E+02  0.13470470558E+02  0.51100000000E-03 0.  1.
         12    1    3    3    0    0 -0.22056377594E+02  0.46727250731E+01  0.16216411006E+02  0.27772110796E+02  0.00000000000E+00 0. -1.
</event>
<event>
 7    1  0.2974434E-011  0.5052887E+02  0.7816164E-02  0.1300439E+00
        -11   -1    0    0    0    0  0.00000000000E+00  0.00000000000E+00  0.45593999997E+02  0.45594000000E+02  0.51100000000E-03 0.  1.
         11   -1    0    0    0    0 -0.00000000000E+00 -0.00000000000E+00 -0.45593999997E+02  0.45594000000E+02  0.51100000000E-03 0. -1.
    9900012    2    1    2    0    0 -0.17049504645E+02  0.21124920251E+02 -0.30269071306E+02  0.50528873816E+02  0.30000042452E+02 0.  0.
        -12    1    1    2    0    0  0.17049504645E+02 -0.21124920251E+02  0.30269071306E+02  0.40659126184E+02  0.00000000000E+00 0.  1.
         11    1    3    3    0    0 -0.19968604140E+01  0.12297807521E+02 -0.90118882248E+01  0.15376529224E+02  0.51100000000E-03 0. -1.
        -11    1    3    3    0    0  0.44624398331E+01 -0.36949675768E+00 -0.96874943322E+01  0.10672274538E+02  0.51100000000E-03 0.  1.
        -12    1    3    3    0    0 -0.19515084064E+02  0.91966094873E+01 -0.11569688749E+02  0.24480070054E+02  0.00000000000E+00 0.  1.
</event>
<event>
 7    1  0.2974434E-011  0.5052885E+02  0.7816164E-02  0.1300439E+00
        -11   -1    0    0    0    0  0.00000000000E+00  0.00000000000E+00  0.45593999997E+02  0.45594000000E+02  0.51100000000E-03 0. -1.
         11   -1    0    0    0    0 -0.00000000000E+00 -0.00000000000E+00 -0.45593999997E+02  0.45594000000E+02  0.51100000000E-03 0.  1.
    9900012    2    1    2    0    0 -0.10000260677E+02  0.38049815682E+02  0.10265107023E+02  0.50528854544E+02  0.29999983871E+02 0.  0.
        -12    1    1    2    0    0  0.10000260677E+02 -0.38049815682E+02 -0.10265107023E+02  0.40659145456E+02  0.00000000000E+00 0.  1.
         11    1    3    3    0    0 -0.20742652253E+01  0.27469306869E+02 -0.23768610148E+01  0.27649861928E+02  0.51100000000E-03 0. -1.
        -11    1    3    3    0    0  0.23917199612E+00  0.12969890534E+01 -0.28014395695E+01  0.30963604072E+01  0.51100000000E-03 0.  1.
        -12    1    3    3    0    0 -0.81651674474E+01  0.92835197596E+01  0.15443407607E+02  0.19782632209E+02  0.00000000000E+00 0.  1.
</event>
<event>
 7    1  0.2974434E-011  0.5052886E+02  0.7816164E-02  0.1300439E+00
        -11   -1    0    0    0    0  0.00000000000E+00  0.00000000000E+00  0.45593999997E+02  0.45594000000E+02  0.51100000000E-03 0. -1.
         11   -1    0    0    0    0 -0.00000000000E+00 -0.00000000000E+00 -0.45593999997E+02  0.45594000000E+02  0.51100000000E-03 0.  1.
    9900012    2    1    2    0    0 -0.34121372811E+02 -0.22005049366E+02  0.21623149074E+01  0.50528857290E+02  0.29999992220E+02 0.  0.
        -12    1    1    2    0    0  0.34121372811E+02  0.22005049366E+02 -0.21623149074E+01  0.40659142710E+02  0.00000000000E+00 0.  1.
         11    1    3    3    0    0 -0.52267660335E+01 -0.16525208211E+02  0.31397948322E+01  0.17614196020E+02  0.51100000000E-03 0. -1.
        -11    1    3    3    0    0 -0.12419742181E+02 -0.97891665036E+01  0.49831741414E+00  0.15821697038E+02  0.51100000000E-03 0.  1.
         12    1    3    3    0    0 -0.16474864597E+02  0.43093253485E+01 -0.14757973389E+01  0.17092964232E+02  0.00000000000E+00 0. -1.
</event>
<event>
 7    1  0.2974434E-011  0.5052886E+02  0.7816164E-02  0.1300439E+00
        -11   -1    0    0    0    0  0.00000000000E+00  0.00000000000E+00  0.45593999997E+02  0.45594000000E+02  0.51100000000E-03 0.  1.
         11   -1    0    0    0    0 -0.00000000000E+00 -0.00000000000E+00 -0.45593999997E+02  0.45594000000E+02  0.51100000000E-03 0. -1.
    9900012    2    1    2    0    0 -0.17634688998E+02  0.32528783962E+02 -0.16854138791E+02  0.50528855439E+02  0.29999986591E+02 0.  0.
        -12    1    1    2    0    0  0.17634688998E+02 -0.32528783962E+02  0.16854138791E+02  0.40659144561E+02  0.00000000000E+00 0.  1.
         11    1    3    3    0    0 -0.77358615562E+01  0.11700491889E+02  0.18934895212E+01  0.14153811052E+02  0.51100000000E-03 0. -1.
        -11    1    3    3    0    0 -0.24280812137E+01  0.18061414531E+02 -0.26521516873E+01  0.18415867671E+02  0.51100000000E-03 0.  1.
         12    1    3    3    0    0 -0.74707462277E+01  0.27668775418E+01 -0.16095476625E+02  0.17959176716E+02  0.00000000000E+00 0. -1.
</event>
<event>
 7    1  0.2974434E-011  0.5052886E+02  0.7816164E-02  0.1300439E+00
        -11   -1    0    0    0    0  0.00000000000E+00  0.00000000000E+00  0.45593999997E+02  0.45594000000E+02  0.51100000000E-03 0.  1.
         11   -1    0    0    0    0 -0.00000000000E+00 -0.00000000000E+00 -0.45593999997E+02  0.45594000000E+02  0.51100000000E-03 0. -1.
    9900012    2    1    2    0    0 -0.29246292689E+01 -0.36964828433E+01 -0.40385001154E+02  0.50528858838E+02  0.29999996925E+02 0.  0.
        -12    1    1    2    0    0  0.29246292689E+01  0.36964828433E+01  0.40385001154E+02  0.40659141162E+02  0.00000000000E+00 0.  1.
         11    1    3    3    0    0  0.19604040086E+01 -0.54105203968E+01 -0.27359379252E+02  0.27958049791E+02  0.51100000000E-03 0. -1.
        -11    1    3    3    0    0 -0.98673070369E+01  0.39101893677E+01 -0.13422086683E+02  0.17111567440E+02  0.51100000000E-03 0.  1.
        -12    1    3    3    0    0  0.49822737593E+01 -0.21961518142E+01  0.39646478086E+00  0.54592416073E+01  0.00000000000E+00 0.  1.
</event>
<event>
 7    1  0.2974434E-011  0.5052885E+02  0.7816164E-02  0.1300439E+00
        -11   -1    0    0    0    0  0.00000000000E+00  0.00000000000E+00  0.45593999997E+02  0.45594000000E+02  0.51100000000E-03 0.  1.
         11   -1    0    0    0    0 -0.00000000000E+00 -0.00000000000E+00 -0.45593999997E+02  0.45594000000E+02  0.51100000000E-03 0. -1.
    9900012    2    1    2    0    0  0.33019944760E+02 -0.22515133940E+02 -0.74778701557E+01  0.50528849119E+02  0.29999967381E+02 0.  0.
        -12    1    1    2    0    0 -0.33019944760E+02  0.22515133940E+02  0.74778701557E+01  0.40659150881E+02  0.00000000000E+00 0.  1.
         11    1    3    3    0    0  0.20930282953E+02 -0.29579956590E+01 -0.46581642047E+01  0.21645437783E+02  0.51100000000E-03 0. -1.
        -11    1    3    3    0    0  0.15034272522E+02 -0.10806598666E+02 -0.54188152635E+01  0.19291850199E+02  0.51100000000E-03 0.  1.
        -12    1    3    3    0    0 -0.29446107143E+01 -0.87505396151E+01  0.25991093125E+01  0.95915611364E+01  0.00000000000E+00 0.  1.
</event>
<event>
 7    1  0.2974434E-011  0.5052893E+02  0.7816164E-02  0.1300439E+00
        -11   -1    0    0    0    0  0.00000000000E+00  0.00000000000E+00  0.45593999997E+02  0.45594000000E+02  0.51100000000E-03 0.  1.
         11   -1    0    0    0    0 -0.00000000000E+00 -0.00000000000E+00 -0.45593999997E+02  0.45594000000E+02  0.51100000000E-03 0. -1.
    9900012    2    1    2    0    0  0.39564451899E+02  0.65560121265E+01  0.66957493151E+01  0.50528927114E+02  0.30000204455E+02 0.  0.
        -12    1    1    2    0    0 -0.39564451899E+02 -0.65560121265E+01 -0.66957493151E+01  0.40659072886E+02  0.00000000000E+00 0.  1.
         11    1    3    3    0    0  0.23488340544E+02  0.45349195392E+01  0.67331348270E+01  0.24851614467E+02  0.51100000000E-03 0. -1.
        -11    1    3    3    0    0 -0.18491240434E+01  0.48086551704E+01  0.46507875016E+01  0.69406230932E+01  0.51100000000E-03 0.  1.
         12    1    3    3    0    0  0.17925235398E+02 -0.27875625832E+01 -0.46881730135E+01  0.18736689554E+02  0.00000000000E+00 0. -1.
</event>
<event>
 7    1  0.2974434E-011  0.5052886E+02  0.7816164E-02  0.1300439E+00
        -11   -1    0    0    0    0  0.00000000000E+00  0.00000000000E+00  0.45593999997E+02  0.45594000000E+02  0.51100000000E-03 0. -1.
         11   -1    0    0    0    0 -0.00000000000E+00 -0.00000000000E+00 -0.45593999997E+02  0.45594000000E+02  0.51100000000E-03 0.  1.
    9900012    2    1    2    0    0 -0.20962007819E+02 -0.20240043220E+02  0.28356667164E+02  0.50528859650E+02  0.29999999392E+02 0.  0.
        -12    1    1    2    0    0  0.20962007819E+02  0.20240043220E+02 -0.28356667164E+02  0.40659140350E+02  0.00000000000E+00 0.  1.
         11    1    3    3    0    0 -0.10319510172E+02 -0.11744313282E+02  0.15892890640E+02  0.22293612489E+02  0.51100000000E-03 0. -1.
        -11    1    3    3    0    0  0.91331996202E+00 -0.92834023186E+01 -0.21650767727E+01  0.95761824155E+01  0.51100000000E-03 0.  1.
         12    1    3    3    0    0 -0.11555817608E+02  0.78767238123E+00  0.14628853297E+02  0.18659064745E+02  0.00000000000E+00 0. -1.
</event>
<event>
 7    1  0.2974434E-011  0.5052885E+02  0.7816164E-02  0.1300439E+00
        -11   -1    0    0    0    0  0.00000000000E+00  0.00000000000E+00  0.45593999997E+02  0.45594000000E+02  0.51100000000E-03 0. -1.
         11   -1    0    0    0    0 -0.00000000000E+00 -0.00000000000E+00 -0.45593999997E+02  0.45594000000E+02  0.51100000000E-03 0.  1.
    9900012    2    1    2    0    0 -0.46418813303E+01 -0.25560646547E+02  0.31277352733E+02  0.50528849638E+02  0.29999968960E+02 0.  0.
        -12    1    1    2    0    0  0.46418813303E+01  0.25560646547E+02 -0.31277352733E+02  0.40659150362E+02  0.00000000000E+00 0.  1.
         11    1    3    3    0    0 -0.16138121927E+01 -0.29077809834E+01 -0.23560359792E+01  0.40755963781E+01  0.51100000000E-03 0. -1.
        -11    1    3    3    0    0  0.72587303617E+01 -0.17374992107E+02  0.13269230017E+02  0.23035884673E+02  0.51100000000E-03 0.  1.
         12    1    3    3    0    0 -0.10286799499E+02 -0.52778734565E+01  0.20364158695E+02  0.23417368587E+02  0.00000000000E+00 0. -1.
</event>
<event>
 7    1  0.2974434E-011  0.5052886E+02  0.7816164E-02  0.1300439E+00
        -11   -1    0    0    0    0  0.00000000000E+00  0.00000000000E+00  0.45593999997E+02  0.45594000000E+02  0.51100000000E-03 0. -1.
         11   -1    0    0    0    0 -0.00000000000E+00 -0.00000000000E+00 -0.45593999997E+02  0.45594000000E+02  0.51100000000E-03 0.  1.
    9900012    2    1    2    0    0  0.74744338700E+01 -0.30557749725E+02  0.25758928522E+02  0.50528860455E+02  0.30000001839E+02 0.  0.
        -12    1    1    2    0    0 -0.74744338700E+01  0.30557749725E+02 -0.25758928522E+02  0.40659139545E+02  0.00000000000E+00 0.  1.
         11    1    3    3    0    0  0.57077907037E+01 -0.76798285282E+01 -0.36685095948E+01  0.10247760919E+02  0.51100000000E-03 0. -1.
        -11    1    3    3    0    0  0.20560157464E+01  0.87392834778E+00 -0.27247592392E+00  0.22505987862E+01  0.51100000000E-03 0.  1.
         12    1    3    3    0    0 -0.28937258005E+00 -0.23751849544E+02  0.29699914041E+02  0.38030500750E+02  0.00000000000E+00 0. -1.
</event>
<event>
 7    1  0.2974434E-011  0.5052887E+02  0.7816164E-02  0.1300439E+00
        -11   -1    0    0    0    0  0.00000000000E+00  0.00000000000E+00  0.45593999997E+02  0.45594000000E+02  0.51100000000E-03 0. -1.
         11   -1    0    0    0    0 -0.00000000000E+00 -0.00000000000E+00 -0.45593999997E+02  0.45594000000E+02  0.51100000000E-03 0.  1.
    9900012    2    1    2    0    0 -0.30620771077E+02  0.90589769586E+01  0.25168795580E+02  0.50528868728E+02  0.30000026984E+02 0.  0.
        -12    1    1    2    0    0  0.30620771077E+02 -0.90589769586E+01 -0.25168795580E+02  0.40659131272E+02  0.00000000000E+00 0.  1.
         11    1    3    3    0    0 -0.12528119372E+02  0.12130404944E+01  0.11652267111E+02  0.17152275981E+02  0.51100000000E-03 0. -1.
        -11    1    3    3    0    0 -0.44386565347E+01  0.16472362535E+01  0.17279585151E+02  0.17916448375E+02  0.51100000000E-03 0.  1.
         12    1    3    3    0    0 -0.13653995170E+02  0.61987002107E+01 -0.37630566821E+01  0.15460144371E+02  0.00000000000E+00 0. -1.
</event>
<event>
 7    1  0.2974434E-011  0.5052886E+02  0.7816164E-02  0.1300439E+00
        -11   -1    0    0    0    0  0.00000000000E+00  0.00000000000E+00  0.45593999997E+02  0.45594000000E+02  0.51100000000E-03 0.  1.
         11   -1    0    0    0    0 -0.00000000000E+00 -0.00000000000E+00 -0.45593999997E+02  0.45594000000E+02  0.51100000000E-03 0. -1.
    9900012    2    1    2    0    0 -0.13970887858E+02  0.70944655948E+01 -0.37518640867E+02  0.50528861272E+02  0.30000004322E+02 0.  0.
        -12    1    1    2    0    0  0.13970887858E+02 -0.70944655948E+01  0.37518640867E+02  0.40659138728E+02  0.00000000000E+00 0.  1.
         11    1    3    3    0    0  0.12708007849E+01  0.20486273910E+00 -0.13821411094E+02  0.13881221426E+02  0.51100000000E-03 0. -1.
        -11    1    3    3    0    0 -0.38600436561E+01 -0.11080323407E+00 -0.22941374050E+02  0.23264110943E+02  0.51100000000E-03 0.  1.
        -12    1    3    3    0    0 -0.11381644987E+02  0.70004060898E+01 -0.75585572266E+00  0.13383528904E+02  0.00000000000E+00 0.  1.
</event>
<event>
 7    1  0.2974434E-011  0.5052887E+02  0.7816164E-02  0.1300439E+00
        -11   -1    0    0    0    0  0.00000000000E+00  0.00000000000E+00  0.45593999997E+02  0.45594000000E+02  0.51100000000E-03 0. -1.
         11   -1    0    0    0    0 -0.00000000000E+00 -0.00000000000E+00 -0.45593999997E+02  0.45594000000E+02  0.51100000000E-03 0.  1.
    9900012    2    1    2    0    0  0.58859984465E+01  0.38732498352E+02 -0.10877201837E+02  0.50528869093E+02  0.30000028096E+02 0.  0.
        -12    1    1    2    0    0 -0.58859984465E+01 -0.38732498352E+02  0.10877201837E+02  0.40659130907E+02  0.00000000000E+00 0.  1.
         11    1    3    3    0    0 -0.33794370374E+01  0.11799993664E+02 -0.32448469879E+01  0.12696041800E+02  0.51100000000E-03 0. -1.
        -11    1    3    3    0    0  0.50728620599E+01  0.33141652851E+01  0.73692107660E+01  0.95405916269E+01  0.51100000000E-03 0.  1.
         12    1    3    3    0    0  0.41925734240E+01  0.23618339403E+02 -0.15001565616E+02  0.28292235666E+02  0.00000000000E+00 0. -1.
</event>
<event>
 7    1  0.2974434E-011  0.5052887E+02  0.7816164E-02  0.1300439E+00
        -11   -1    0    0    0    0  0.00000000000E+00  0.00000000000E+00  0.45593999997E+02  0.45594000000E+02  0.51100000000E-03 0.  1.
         11   -1    0    0    0    0 -0.00000000000E+00 -0.00000000000E+00 -0.45593999997E+02  0.45594000000E+02  0.51100000000E-03 0. -1.
    9900012    2    1    2    0    0  0.53679150269E+01 -0.27367466364E+02 -0.29586681503E+02  0.50528874956E+02  0.30000045917E+02 0.  0.
        -12    1    1    2    0    0 -0.53679150269E+01  0.27367466364E+02  0.29586681503E+02  0.40659125044E+02  0.00000000000E+00 0.  1.
         11    1    3    3    0    0  0.75978456101E+01 -0.11905708119E+02 -0.31704126478E+02  0.34707704905E+02  0.51100000000E-03 0.  1.
        -11    1    3    3    0    0 -0.15667555163E+01 -0.87747531033E+01  0.18026915541E+01  0.90939931808E+01  0.51100000000E-03 0. -1.
        -12    1    3    3    0    0 -0.66317506689E+00 -0.66870051419E+01  0.31475342070E+00  0.67271768709E+01  0.00000000000E+00 0.  1.
</event>
<event>
 7    1  0.2974434E-011  0.5052887E+02  0.7816164E-02  0.1300439E+00
        -11   -1    0    0    0    0  0.00000000000E+00  0.00000000000E+00  0.45593999997E+02  0.45594000000E+02  0.51100000000E-03 0. -1.
         11   -1    0    0    0    0 -0.00000000000E+00 -0.00000000000E+00 -0.45593999997E+02  0.45594000000E+02  0.51100000000E-03 0.  1.
    9900012    2    1    2    0    0 -0.11862217294E+02 -0.16786347574E+02  0.35080927419E+02  0.50528866554E+02  0.30000020377E+02 0.  0.
        -12    1    1    2    0    0  0.11862217294E+02  0.16786347574E+02 -0.35080927419E+02  0.40659133446E+02  0.00000000000E+00 0.  1.
         11    1    3    3    0    0 -0.10884546139E+02 -0.28534724276E+01  0.22054417605E+02  0.24759099049E+02  0.51100000000E-03 0. -1.
        -11    1    3    3    0    0 -0.30261533602E+01  0.26495586040E+01 -0.77753834626E+00  0.40966243539E+01  0.51100000000E-03 0.  1.
         12    1    3    3    0    0  0.20484822055E+01 -0.16582433751E+02  0.13804048160E+02  0.21673143151E+02  0.00000000000E+00 0. -1.
</event>
<event>
 7    1  0.2974434E-011  0.5052886E+02  0.7816164E-02  0.1300439E+00
        -11   -1    0    0    0    0  0.00000000000E+00  0.00000000000E+00  0.45593999997E+02  0.45594000000E+02  0.51100000000E-03 0.  1.
         11   -1    0    0    0    0 -0.00000000000E+00 -0.00000000000E+00 -0.45593999997E+02  0.45594000000E+02  0.51100000000E-03 0. -1.
    9900012    2    1    2    0    0  0.38258280953E+02  0.12837983019E+02  0.49654684544E+01  0.50528859005E+02  0.29999997430E+02 0.  0.
        -12    1    1    2    0    0 -0.38258280953E+02 -0.12837983019E+02 -0.49654684544E+01  0.40659140995E+02  0.00000000000E+00 0.  1.
         11    1    3    3    0    0  0.15475937513E+02  0.54425221980E+01  0.21247636250E+00  0.16406426675E+02  0.51100000000E-03 0. -1.
        -11    1    3    3    0    0  0.16700647256E+02  0.15864393041E+02  0.10516810676E+01  0.23058547627E+02  0.51100000000E-03 0.  1.
        -12    1    3    3    0    0  0.60816961844E+01 -0.84689322195E+01  0.37013110243E+01  0.11063884703E+02  0.00000000000E+00 0.  1.
</event>
<event>
 7    1  0.2974434E-011  0.5052886E+02  0.7816164E-02  0.1300439E+00
        -11   -1    0    0    0    0  0.00000000000E+00  0.00000000000E+00  0.45593999997E+02  0.45594000000E+02  0.51100000000E-03 0.  1.
         11   -1    0    0    0    0 -0.00000000000E+00 -0.00000000000E+00 -0.45593999997E+02  0.45594000000E+02  0.51100000000E-03 0. -1.
    9900012    2    1    2    0    0 -0.10435005894E+02 -0.82607407494E+01 -0.38419220621E+02  0.50528859590E+02  0.29999999211E+02 0.  0.
        -12    1    1    2    0    0  0.10435005894E+02  0.82607407494E+01  0.38419220621E+02  0.40659140410E+02  0.00000000000E+00 0.  1.
         11    1    3    3    0    0 -0.52530823051E+01 -0.30085782623E+01 -0.16755325848E+02  0.17815368686E+02  0.51100000000E-03 0. -1.
        -11    1    3    3    0    0 -0.68647119529E+01 -0.25075842803E+01 -0.26172340582E+02  0.27173583881E+02  0.51100000000E-03 0.  1.
        -12    1    3    3    0    0  0.16827883643E+01 -0.27445782068E+01  0.45084458096E+01  0.55399070236E+01  0.00000000000E+00 0.  1.
</event>
<event>
 7    1  0.2974434E-011  0.5052884E+02  0.7816164E-02  0.1300439E+00
        -11   -1    0    0    0    0  0.00000000000E+00  0.00000000000E+00  0.45593999997E+02  0.45594000000E+02  0.51100000000E-03 0.  1.
         11   -1    0    0    0    0 -0.00000000000E+00 -0.00000000000E+00 -0.45593999997E+02  0.45594000000E+02  0.51100000000E-03 0. -1.
    9900012    2    1    2    0    0 -0.25022886909E+02  0.81387239459E+01 -0.30996509487E+02  0.50528839936E+02  0.29999939469E+02 0.  0.
        -12    1    1    2    0    0  0.25022886909E+02 -0.81387239459E+01  0.30996509487E+02  0.40659160064E+02  0.00000000000E+00 0.  1.
         11    1    3    3    0    0 -0.58938196432E+01  0.45367090776E+01 -0.20032099868E+01  0.77027066511E+01  0.51100000000E-03 0. -1.
        -11    1    3    3    0    0 -0.15084316522E+02  0.13712303919E+02 -0.16291652137E+02  0.26095628241E+02  0.51100000000E-03 0.  1.
        -12    1    3    3    0    0 -0.40447507444E+01 -0.10110289051E+02 -0.12701647364E+02  0.16730505044E+02  0.00000000000E+00 0.  1.
</event>
<event>
 7    1  0.2974434E-011  0.5052885E+02  0.7816164E-02  0.1300439E+00
        -11   -1    0    0    0    0  0.00000000000E+00  0.00000000000E+00  0.45593999997E+02  0.45594000000E+02  0.51100000000E-03 0.  1.
         11   -1    0    0    0    0 -0.00000000000E+00 -0.00000000000E+00 -0.45593999997E+02  0.45594000000E+02  0.51100000000E-03 0. -1.
    9900012    2    1    2    0    0 -0.24813161295E+02 -0.31189673033E+02 -0.80422314286E+01  0.50528853874E+02  0.29999981835E+02 0.  0.
        -12    1    1    2    0    0  0.24813161295E+02  0.31189673033E+02  0.80422314286E+01  0.40659146126E+02  0.00000000000E+00 0.  1.
         11    1    3    3    0    0 -0.18463700427E+02 -0.17932825863E+02  0.31872372719E+01  0.25935553947E+02  0.51100000000E-03 0. -1.
        -11    1    3    3    0    0 -0.28724411992E+01 -0.11131890642E+02  0.11562051804E+01  0.11554510738E+02  0.51100000000E-03 0.  1.
         12    1    3    3    0    0 -0.34770196695E+01 -0.21249565278E+01 -0.12385673881E+02  0.13038789189E+02  0.00000000000E+00 0. -1.
</event>
<event>
 7    1  0.2974434E-011  0.5052887E+02  0.7816164E-02  0.1300439E+00
        -11   -1    0    0    0    0  0.00000000000E+00  0.00000000000E+00  0.45593999997E+02  0.45594000000E+02  0.51100000000E-03 0.  1.
         11   -1    0    0    0    0 -0.00000000000E+00 -0.00000000000E+00 -0.45593999997E+02  0.45594000000E+02  0.51100000000E-03 0. -1.
    9900012    2    1    2    0    0  0.39849324391E+02  0.56690070088E+01 -0.57496625392E+01  0.50528869240E+02  0.30000028541E+02 0.  0.
        -12    1    1    2    0    0 -0.39849324391E+02 -0.56690070088E+01  0.57496625392E+01  0.40659130760E+02  0.00000000000E+00 0.  1.
         11    1    3    3    0    0 -0.36594675363E+01  0.18074531484E+01 -0.19794012016E+01  0.45361458212E+01  0.51100000000E-03 0. -1.
        -11    1    3    3    0    0 -0.94423488662E+00  0.82327084666E+00  0.16031434910E+00  0.12629550110E+01  0.51100000000E-03 0.  1.
         12    1    3    3    0    0  0.44453026814E+02  0.30382830137E+01 -0.39305756867E+01  0.44729768408E+02  0.00000000000E+00 0. -1.
</event>
<event>
 7    1  0.2974434E-011  0.5052886E+02  0.7816164E-02  0.1300439E+00
        -11   -1    0    0    0    0  0.00000000000E+00  0.00000000000E+00  0.45593999997E+02  0.45594000000E+02  0.51100000000E-03 0. -1.
         11   -1    0    0    0    0 -0.00000000000E+00 -0.00000000000E+00 -0.45593999997E+02  0.45594000000E+02  0.51100000000E-03 0.  1.
    9900012    2    1    2    0    0 -0.26485282827E+02  0.14402992552E+02  0.27280925730E+02  0.50528864378E+02  0.30000013762E+02 0.  0.
        -12    1    1    2    0    0  0.26485282827E+02 -0.14402992552E+02 -0.27280925730E+02  0.40659135622E+02  0.00000000000E+00 0.  1.
         11    1    3    3    0    0 -0.11867321863E+02  0.14333333181E+02  0.21237994350E+02  0.28237035477E+02  0.51100000000E-03 0. -1.
        -11    1    3    3    0    0  0.26431626059E+00  0.82051849222E+00  0.72878994973E+01  0.73387051328E+01  0.51100000000E-03 0.  1.
        -12    1    3    3    0    0 -0.14882277224E+02 -0.75085912079E+00 -0.12449681169E+01  0.14953123768E+02  0.00000000000E+00 0.  1.
</event>
<event>
 7    1  0.2974434E-011  0.5052886E+02  0.7816164E-02  0.1300439E+00
        -11   -1    0    0    0    0  0.00000000000E+00  0.00000000000E+00  0.45593999997E+02  0.45594000000E+02  0.51100000000E-03 0.  1.
         11   -1    0    0    0    0 -0.00000000000E+00 -0.00000000000E+00 -0.45593999997E+02  0.45594000000E+02  0.51100000000E-03 0. -1.
    9900012    2    1    2    0    0 -0.34700741086E+02 -0.21183016192E+02 -0.55138374680E+00  0.50528860425E+02  0.30000001749E+02 0.  0.
        -12    1    1    2    0    0  0.34700741086E+02  0.21183016192E+02  0.55138374680E+00  0.40659139575E+02  0.00000000000E+00 0.  1.
         11    1    3    3    0    0 -0.17591921511E+02 -0.51301462123E+01 -0.13517335428E+02  0.22770868669E+02  0.51100000000E-03 0. -1.
        -11    1    3    3    0    0 -0.55708830612E+01 -0.11365774602E+01  0.30389772805E+01  0.64468542389E+01  0.51100000000E-03 0.  1.
         12    1    3    3    0    0 -0.11537936514E+02 -0.14916292519E+02  0.99269744011E+01  0.21311137517E+02  0.00000000000E+00 0. -1.
</event>
<event>
 7    1  0.2974434E-011  0.5052878E+02  0.7816164E-02  0.1300439E+00
        -11   -1    0    0    0    0  0.00000000000E+00  0.00000000000E+00  0.45593999997E+02  0.45594000000E+02  0.51100000000E-03 0.  1.
         11   -1    0    0    0    0 -0.00000000000E+00 -0.00000000000E+00 -0.45593999997E+02  0.45594000000E+02  0.51100000000E-03 0. -1.
    9900012    2    1    2    0    0 -0.12655456317E+02 -0.42461367268E+01 -0.38405489163E+02  0.50528783954E+02  0.29999769304E+02 0.  0.
        -12    1    1    2    0    0  0.12655456317E+02  0.42461367268E+01  0.38405489163E+02  0.40659216046E+02  0.00000000000E+00 0.  1.
         11    1    3    3    0    0 -0.64023607970E+01  0.33846458681E+01 -0.31677815852E+02  0.32495077609E+02  0.51100000000E-03 0. -1.
        -11    1    3    3    0    0  0.28934941808E+01  0.98016058780E+00  0.10830289453E+01  0.32412922284E+01  0.51100000000E-03 0.  1.
         12    1    3    3    0    0 -0.91465897004E+01 -0.86109431827E+01 -0.78107022560E+01  0.14792414116E+02  0.00000000000E+00 0. -1.
</event>
<event>
 7    1  0.2974434E-011  0.5052886E+02  0.7816164E-02  0.1300439E+00
        -11   -1    0    0    0    0  0.00000000000E+00  0.00000000000E+00  0.45593999997E+02  0.45594000000E+02  0.51100000000E-03 0.  1.
         11   -1    0    0    0    0 -0.00000000000E+00 -0.00000000000E+00 -0.45593999997E+02  0.45594000000E+02  0.51100000000E-03 0. -1.
    9900012    2    1    2    0    0 -0.18031818209E+02 -0.16528346985E+02 -0.32478192287E+02  0.50528859623E+02  0.29999999309E+02 0.  0.
        -12    1    1    2    0    0  0.18031818209E+02  0.16528346985E+02  0.32478192287E+02  0.40659140377E+02  0.00000000000E+00 0.  1.
         11    1    3    3    0    0 -0.15449830933E+02 -0.18587310746E+02 -0.20667546491E+02  0.31801460263E+02  0.51100000000E-03 0. -1.
        -11    1    3    3    0    0 -0.32167987089E+01 -0.44116182482E+01 -0.25202502662E+00  0.54656826085E+01  0.51100000000E-03 0.  1.
        -12    1    3    3    0    0  0.63481143320E+00  0.64705820094E+01 -0.11558620770E+02  0.13261716751E+02  0.00000000000E+00 0.  1.
</event>
<event>
 7    1  0.2974434E-011  0.5052886E+02  0.7816164E-02  0.1300439E+00
        -11   -1    0    0    0    0  0.00000000000E+00  0.00000000000E+00  0.45593999997E+02  0.45594000000E+02  0.51100000000E-03 0.  1.
         11   -1    0    0    0    0 -0.00000000000E+00 -0.00000000000E+00 -0.45593999997E+02  0.45594000000E+02  0.51100000000E-03 0. -1.
    9900012    2    1    2    0    0  0.35673370591E+02  0.18604935177E+02 -0.58679620935E+01  0.50528856362E+02  0.29999989398E+02 0.  0.
        -12    1    1    2    0    0 -0.35673370591E+02 -0.18604935177E+02  0.58679620935E+01  0.40659143638E+02  0.00000000000E+00 0.  1.
         11    1    3    3    0    0  0.10501104021E+02  0.45149733403E+01 -0.99653246236E+01  0.15164625450E+02  0.51100000000E-03 0. -1.
        -11    1    3    3    0    0  0.13098784402E+02  0.72763930352E+01 -0.79811855682E+01  0.16977142626E+02  0.51100000000E-03 0.  1.
        -12    1    3    3    0    0  0.12073482167E+02  0.68135688019E+01  0.12078548098E+02  0.18387088285E+02  0.00000000000E+00 0.  1.
</event>
<event>
 7    1  0.2974434E-011  0.5052885E+02  0.7816164E-02  0.1300439E+00
        -11   -1    0    0    0    0  0.00000000000E+00  0.00000000000E+00  0.45593999997E+02  0.45594000000E+02  0.51100000000E-03 0.  1.
         11   -1    0    0    0    0 -0.00000000000E+00 -0.00000000000E+00 -0.45593999997E+02  0.45594000000E+02  0.51100000000E-03 0. -1.
    9900012    2    1    2    0    0 -0.15303304025E+02  0.30331540148E+02 -0.22337697777E+02  0.50528853627E+02  0.29999981083E+02 0.  0.
        -12    1    1    2    0    0  0.15303304025E+02 -0.30331540148E+02  0.22337697777E+02  0.40659146373E+02  0.00000000000E+00 0.  1.
         11    1    3    3    0    0 -0.11325970834E+02  0.14984710833E+02 -0.11473799931E+02  0.22010616966E+02  0.51100000000E-03 0. -1.
        -11    1    3    3    0    0  0.80396089417E+01  0.10904015317E+02 -0.52208777680E+01  0.14518623451E+02  0.51100000000E-03 0.  1.
         12    1    3    3    0    0 -0.12016942133E+02  0.44428139979E+01 -0.56430200784E+01  0.13999613210E+02  0.00000000000E+00 0. -1.
</event>
<event>
 7    1  0.2974434E-011  0.5052886E+02  0.7816164E-02  0.1300439E+00
        -11   -1    0    0    0    0  0.00000000000E+00  0.00000000000E+00  0.45593999997E+02  0.45594000000E+02  0.51100000000E-03 0. -1.
         11   -1    0    0    0    0 -0.00000000000E+00 -0.00000000000E+00 -0.45593999997E+02  0.45594000000E+02  0.51100000000E-03 0.  1.
    9900012    2    1    2    0    0 -0.20279895764E+02  0.23319008819E+02  0.26421871389E+02  0.50528860410E+02  0.30000001703E+02 0.  0.
        -12    1    1    2    0    0  0.20279895764E+02 -0.23319008819E+02 -0.26421871389E+02  0.40659139590E+02  0.00000000000E+00 0.  1.
         11    1    3    3    0    0 -0.32573540240E+01  0.14495241604E+01 -0.28870462820E+01  0.45876477661E+01  0.51100000000E-03 0.  1.
        -11    1    3    3    0    0 -0.14509976878E+02  0.15259507522E+02  0.64637122621E+01  0.22026610617E+02  0.51100000000E-03 0. -1.
         12    1    3    3    0    0 -0.25125648620E+01  0.66099771364E+01  0.22845205409E+02  0.23914602027E+02  0.00000000000E+00 0. -1.
</event>
<event>
 7    1  0.2974434E-011  0.5052887E+02  0.7816164E-02  0.1300439E+00
        -11   -1    0    0    0    0  0.00000000000E+00  0.00000000000E+00  0.45593999997E+02  0.45594000000E+02  0.51100000000E-03 0.  1.
         11   -1    0    0    0    0 -0.00000000000E+00 -0.00000000000E+00 -0.45593999997E+02  0.45594000000E+02  0.51100000000E-03 0. -1.
    9900012    2    1    2    0    0 -0.31349914925E+02  0.24431818341E+01 -0.25775539640E+02  0.50528871296E+02  0.30000034790E+02 0.  0.
        -12    1    1    2    0    0  0.31349914925E+02 -0.24431818341E+01  0.25775539640E+02  0.40659128704E+02  0.00000000000E+00 0.  1.
         11    1    3    3    0    0 -0.65743193863E+01 -0.43630030611E+01 -0.17393919339E+00  0.78922573582E+01  0.51100000000E-03 0. -1.
        -11    1    3    3    0    0 -0.97691633871E+00 -0.17102013542E+01  0.35456412783E+01  0.40559495239E+01  0.51100000000E-03 0.  1.
         12    1    3    3    0    0 -0.23798679200E+02  0.85163862494E+01 -0.29147241725E+02  0.38580664413E+02  0.00000000000E+00 0. -1.
</event>
<event>
 7    1  0.2974434E-011  0.5052886E+02  0.7816164E-02  0.1300439E+00
        -11   -1    0    0    0    0  0.00000000000E+00  0.00000000000E+00  0.45593999997E+02  0.45594000000E+02  0.51100000000E-03 0.  1.
         11   -1    0    0    0    0 -0.00000000000E+00 -0.00000000000E+00 -0.45593999997E+02  0.45594000000E+02  0.51100000000E-03 0. -1.
    9900012    2    1    2    0    0 -0.75317035859E+01 -0.24166973728E+02 -0.31818177181E+02  0.50528861087E+02  0.30000003759E+02 0.  0.
        -12    1    1    2    0    0  0.75317035859E+01  0.24166973728E+02  0.31818177181E+02  0.40659138913E+02  0.00000000000E+00 0.  1.
         11    1    3    3    0    0  0.14522673610E+01  0.53960357041E+00 -0.16243093973E+02  0.16316812023E+02  0.51100000000E-03 0. -1.
        -11    1    3    3    0    0 -0.21022999151E+01  0.15338772676E+01 -0.38770918270E+01  0.46695059376E+01  0.51100000000E-03 0.  1.
        -12    1    3    3    0    0 -0.68816710318E+01 -0.26240454566E+02 -0.11697991380E+02  0.29542543126E+02  0.00000000000E+00 0.  1.
</event>
<event>
 7    1  0.2974434E-011  0.5052885E+02  0.7816164E-02  0.1300439E+00
        -11   -1    0    0    0    0  0.00000000000E+00  0.00000000000E+00  0.45593999997E+02  0.45594000000E+02  0.51100000000E-03 0.  1.
         11   -1    0    0    0    0 -0.00000000000E+00 -0.00000000000E+00 -0.45593999997E+02  0.45594000000E+02  0.51100000000E-03 0. -1.
    9900012    2    1    2    0    0 -0.68886168138E+01  0.15439306004E+02 -0.36977572550E+02  0.50528854864E+02  0.29999984844E+02 0.  0.
        -12    1    1    2    0    0  0.68886168138E+01 -0.15439306004E+02  0.36977572550E+02  0.40659145136E+02  0.00000000000E+00 0.  1.
         11    1    3    3    0    0 -0.24894505196E+01  0.50165545790E+01 -0.99598196848E+00  0.56881599904E+01  0.51100000000E-03 0. -1.
        -11    1    3    3    0    0  0.57282256460E+01  0.94457698661E+01 -0.32105640783E+02  0.33953016180E+02  0.51100000000E-03 0.  1.
         12    1    3    3    0    0 -0.10127391940E+02  0.97698155893E+00 -0.38759497992E+01  0.10887678693E+02  0.00000000000E+00 0. -1.
</event>
<event>
 7    1  0.2974434E-011  0.5052886E+02  0.7816164E-02  0.1300439E+00
        -11   -1    0    0    0    0  0.00000000000E+00  0.00000000000E+00  0.45593999997E+02  0.45594000000E+02  0.51100000000E-03 0. -1.
         11   -1    0    0    0    0 -0.00000000000E+00 -0.00000000000E+00 -0.45593999997E+02  0.45594000000E+02  0.51100000000E-03 0.  1.
    9900012    2    1    2    0    0  0.39184068265E+02  0.31205598104E+01  0.10394061675E+02  0.50528860591E+02  0.30000002254E+02 0.  0.
        -12    1    1    2    0    0 -0.39184068265E+02 -0.31205598104E+01 -0.10394061675E+02  0.40659139409E+02  0.00000000000E+00 0.  1.
         11    1    3    3    0    0  0.25371413612E+02  0.70863344883E+01  0.15086561108E+02  0.30356697638E+02  0.51100000000E-03 0. -1.
        -11    1    3    3    0    0  0.10591757891E+02  0.29190756137E+01  0.44854793761E+00  0.10995796159E+02  0.51100000000E-03 0.  1.
        -12    1    3    3    0    0  0.32208967620E+01 -0.68848502915E+01 -0.51410473698E+01  0.91763667944E+01  0.00000000000E+00 0.  1.
</event>
<event>
 7    1  0.2974434E-011  0.5052885E+02  0.7816164E-02  0.1300439E+00
        -11   -1    0    0    0    0  0.00000000000E+00  0.00000000000E+00  0.45593999997E+02  0.45594000000E+02  0.51100000000E-03 0.  1.
         11   -1    0    0    0    0 -0.00000000000E+00 -0.00000000000E+00 -0.45593999997E+02  0.45594000000E+02  0.51100000000E-03 0. -1.
    9900012    2    1    2    0    0 -0.25275846264E+02 -0.20610695425E+02 -0.24279562205E+02  0.50528852061E+02  0.29999976326E+02 0.  0.
        -12    1    1    2    0    0  0.25275846264E+02  0.20610695425E+02  0.24279562205E+02  0.40659147939E+02  0.00000000000E+00 0.  1.
         11    1    3    3    0    0 -0.11338255004E+02 -0.16113668871E+02 -0.72622358964E+01  0.20998724283E+02  0.51100000000E-03 0. -1.
        -11    1    3    3    0    0 -0.36735467036E+01 -0.44653562061E+01 -0.18294820858E+02  0.19186839810E+02  0.51100000000E-03 0.  1.
        -12    1    3    3    0    0 -0.10264044557E+02 -0.31670347241E-01  0.12774945495E+01  0.10343287968E+02  0.00000000000E+00 0.  1.
</event>
<event>
 7    1  0.2974434E-011  0.5052886E+02  0.7816164E-02  0.1300439E+00
        -11   -1    0    0    0    0  0.00000000000E+00  0.00000000000E+00  0.45593999997E+02  0.45594000000E+02  0.51100000000E-03 0. -1.
         11   -1    0    0    0    0 -0.00000000000E+00 -0.00000000000E+00 -0.45593999997E+02  0.45594000000E+02  0.51100000000E-03 0.  1.
    9900012    2    1    2    0    0 -0.22638733312E+02  0.26665952316E+02 -0.20726322591E+02  0.50528859490E+02  0.29999998905E+02 0.  0.
        -12    1    1    2    0    0  0.22638733312E+02 -0.26665952316E+02  0.20726322591E+02  0.40659140510E+02  0.00000000000E+00 0.  1.
         11    1    3    3    0    0 -0.23119527787E+01  0.45632762104E+01  0.14109966593E+01  0.53065551214E+01  0.51100000000E-03 0. -1.
        -11    1    3    3    0    0  0.14674308499E+01  0.13820060655E+02 -0.13098450218E+01  0.13959338238E+02  0.51100000000E-03 0.  1.
        -12    1    3    3    0    0 -0.21794211383E+02  0.82826154510E+01 -0.20827474228E+02  0.31262966130E+02  0.00000000000E+00 0.  1.
</event>
<event>
 7    1  0.3370866E-011  0.5052885E+02  0.7816164E-02  0.1300439E+00
        -11   -1    0    0    0    0  0.00000000000E+00  0.00000000000E+00  0.45593999997E+02  0.45594000000E+02  0.51100000000E-03 0. -1.
         11   -1    0    0    0    0 -0.00000000000E+00 -0.00000000000E+00 -0.45593999997E+02  0.45594000000E+02  0.51100000000E-03 0.  1.
    9900012    2    1    2    0    0  0.15265447447E+02  0.33029091195E+02  0.18144183022E+02  0.50528854307E+02  0.29999983153E+02 0.  0.
        -12    1    1    2    0    0 -0.15265447447E+02 -0.33029091195E+02 -0.18144183022E+02  0.40659145693E+02  0.00000000000E+00 0.  1.
         11    1    3    3    0    0 -0.73785755460E+00  0.12413884354E+02  0.88755666185E+01  0.15278240789E+02  0.51100000000E-03 0. -1.
        -11    1    3    3    0    0  0.66354817725E+01  0.23328081525E+02  0.68576533797E+01  0.25204293605E+02  0.51100000000E-03 0.  1.
        -12    1    3    3    0    0  0.93678232293E+01 -0.27128746843E+01  0.24109630237E+01  0.10046319914E+02  0.00000000000E+00 0.  1.
</event>
<event>
 7    1  0.2974434E-011  0.5052886E+02  0.7816164E-02  0.1300439E+00
        -11   -1    0    0    0    0  0.00000000000E+00  0.00000000000E+00  0.45593999997E+02  0.45594000000E+02  0.51100000000E-03 0.  1.
         11   -1    0    0    0    0 -0.00000000000E+00 -0.00000000000E+00 -0.45593999997E+02  0.45594000000E+02  0.51100000000E-03 0. -1.
    9900012    2    1    2    0    0 -0.17353763569E+02  0.32426074669E+02 -0.17336737750E+02  0.50528857065E+02  0.29999991534E+02 0.  0.
        -12    1    1    2    0    0  0.17353763569E+02 -0.32426074669E+02  0.17336737750E+02  0.40659142935E+02  0.00000000000E+00 0.  1.
         11    1    3    3    0    0 -0.84904536365E+00  0.13015014960E+02  0.34710501124E+01  0.13496654459E+02  0.51100000000E-03 0. -1.
        -11    1    3    3    0    0 -0.69001583151E+01  0.19209606521E+02 -0.10543449254E+02  0.22973582435E+02  0.51100000000E-03 0.  1.
        -12    1    3    3    0    0 -0.96045598903E+01  0.20145318835E+00 -0.10264338608E+02  0.14058620171E+02  0.00000000000E+00 0.  1.
</event>
<event>
 7    1  0.2974434E-011  0.5052885E+02  0.7816164E-02  0.1300439E+00
        -11   -1    0    0    0    0  0.00000000000E+00  0.00000000000E+00  0.45593999997E+02  0.45594000000E+02  0.51100000000E-03 0.  1.
         11   -1    0    0    0    0 -0.00000000000E+00 -0.00000000000E+00 -0.45593999997E+02  0.45594000000E+02  0.51100000000E-03 0. -1.
    9900012    2    1    2    0    0  0.95827343419E+01  0.92464586995E+01 -0.38416670495E+02  0.50528851363E+02  0.29999974204E+02 0.  0.
        -12    1    1    2    0    0 -0.95827343419E+01 -0.92464586995E+01  0.38416670495E+02  0.40659148637E+02  0.00000000000E+00 0.  1.
         11    1    3    3    0    0  0.11986413808E+01  0.40410783910E+01  0.90138767546E+00  0.43104008775E+01  0.51100000000E-03 0. -1.
        -11    1    3    3    0    0  0.15072705004E+02  0.45097105120E+01 -0.18209969761E+02  0.24065056078E+02  0.51100000000E-03 0.  1.
         12    1    3    3    0    0 -0.66886120434E+01  0.69566979651E+00 -0.21108088409E+02  0.22153394408E+02  0.00000000000E+00 0. -1.
</event>
<event>
 7    1  0.2974434E-011  0.5052887E+02  0.7816164E-02  0.1300439E+00
        -11   -1    0    0    0    0  0.00000000000E+00  0.00000000000E+00  0.45593999997E+02  0.45594000000E+02  0.51100000000E-03 0. -1.
         11   -1    0    0    0    0 -0.00000000000E+00 -0.00000000000E+00 -0.45593999997E+02  0.45594000000E+02  0.51100000000E-03 0.  1.
    9900012    2    1    2    0    0  0.14760158251E+01 -0.36587799683E+02  0.17672561337E+02  0.50528866554E+02  0.30000020378E+02 0.  0.
        -12    1    1    2    0    0 -0.14760158251E+01  0.36587799683E+02 -0.17672561337E+02  0.40659133446E+02  0.00000000000E+00 0.  1.
         11    1    3    3    0    0 -0.19432439242E+01 -0.91567452051E+01  0.13208909573E+02  0.16189424698E+02  0.51100000000E-03 0. -1.
        -11    1    3    3    0    0 -0.16861531347E+01 -0.14144897453E+02  0.11643123727E+02  0.18397922892E+02  0.51100000000E-03 0.  1.
        -12    1    3    3    0    0  0.51054128840E+01 -0.13286157025E+02 -0.71794719630E+01  0.15941518964E+02  0.00000000000E+00 0.  1.
</event>
<event>
 7    1  0.2974434E-011  0.5052886E+02  0.7816164E-02  0.1300439E+00
        -11   -1    0    0    0    0  0.00000000000E+00  0.00000000000E+00  0.45593999997E+02  0.45594000000E+02  0.51100000000E-03 0.  1.
         11   -1    0    0    0    0 -0.00000000000E+00 -0.00000000000E+00 -0.45593999997E+02  0.45594000000E+02  0.51100000000E-03 0. -1.
    9900012    2    1    2    0    0  0.15578527768E+02 -0.35738096744E+02 -0.11543978790E+02  0.50528861635E+02  0.30000005425E+02 0.  0.
        -12    1    1    2    0    0 -0.15578527768E+02  0.35738096744E+02  0.11543978790E+02  0.40659138365E+02  0.00000000000E+00 0.  1.
         11    1    3    3    0    0 -0.54656471398E+00 -0.58367108180E+01  0.10617810703E+00  0.58632073314E+01  0.51100000000E-03 0. -1.
        -11    1    3    3    0    0 -0.23337687663E+01 -0.14478680781E+02 -0.14278779619E+02  0.20468566668E+02  0.51100000000E-03 0.  1.
         12    1    3    3    0    0  0.18458861249E+02 -0.15422705145E+02  0.26286227217E+01  0.24197087635E+02  0.00000000000E+00 0. -1.
</event>
<event>
 7    1  0.2974434E-011  0.5052893E+02  0.7816164E-02  0.1300439E+00
        -11   -1    0    0    0    0  0.00000000000E+00  0.00000000000E+00  0.45593999997E+02  0.45594000000E+02  0.51100000000E-03 0.  1.
         11   -1    0    0    0    0 -0.00000000000E+00 -0.00000000000E+00 -0.45593999997E+02  0.45594000000E+02  0.51100000000E-03 0. -1.
    9900012    2    1    2    0    0  0.40496339626E+02  0.23383479921E+01 -0.27818622499E+01  0.50528927802E+02  0.30000206545E+02 0.  0.
        -12    1    1    2    0    0 -0.40496339626E+02 -0.23383479921E+01  0.27818622499E+01  0.40659072198E+02  0.00000000000E+00 0.  1.
         11    1    3    3    0    0  0.17989588941E+01 -0.82746181166E+01  0.28620323431E+01  0.89385002921E+01  0.51100000000E-03 0.  1.
        -11    1    3    3    0    0  0.31665260469E+01 -0.12770154316E+01 -0.19733328367E+01  0.39435641701E+01  0.51100000000E-03 0. -1.
        -12    1    3    3    0    0  0.35530854685E+02  0.11889981540E+02 -0.36705617563E+01  0.37646863339E+02  0.00000000000E+00 0.  1.
</event>
<event>
 7    1  0.2974434E-011  0.5052886E+02  0.7816164E-02  0.1300439E+00
        -11   -1    0    0    0    0  0.00000000000E+00  0.00000000000E+00  0.45593999997E+02  0.45594000000E+02  0.51100000000E-03 0.  1.
         11   -1    0    0    0    0 -0.00000000000E+00 -0.00000000000E+00 -0.45593999997E+02  0.45594000000E+02  0.51100000000E-03 0. -1.
    9900012    2    1    2    0    0 -0.21908942151E+02 -0.58283159715E+01 -0.33751961412E+02  0.50528856965E+02  0.29999991229E+02 0.  0.
        -12    1    1    2    0    0  0.21908942151E+02  0.58283159715E+01  0.33751961412E+02  0.40659143035E+02  0.00000000000E+00 0.  1.
         11    1    3    3    0    0 -0.19686611109E+01 -0.17930196563E+00  0.33592856666E-01  0.19770949663E+01  0.51100000000E-03 0. -1.
        -11    1    3    3    0    0 -0.23477132104E+02  0.18019946221E+01 -0.14694394627E+02  0.27755146372E+02  0.51100000000E-03 0.  1.
         12    1    3    3    0    0  0.35368510642E+01 -0.74510086280E+01 -0.19091159642E+02  0.20796615626E+02  0.00000000000E+00 0. -1.
</event>
<event>
 7    1  0.2974434E-011  0.5052886E+02  0.7816164E-02  0.1300439E+00
        -11   -1    0    0    0    0  0.00000000000E+00  0.00000000000E+00  0.45593999997E+02  0.45594000000E+02  0.51100000000E-03 0. -1.
         11   -1    0    0    0    0 -0.00000000000E+00 -0.00000000000E+00 -0.45593999997E+02  0.45594000000E+02  0.51100000000E-03 0.  1.
    9900012    2    1    2    0    0 -0.38208909377E+02  0.13657636295E+02  0.25911006721E+01  0.50528860958E+02  0.30000003368E+02 0.  0.
        -12    1    1    2    0    0  0.38208909377E+02 -0.13657636295E+02 -0.25911006721E+01  0.40659139042E+02  0.00000000000E+00 0.  1.
         11    1    3    3    0    0 -0.11703590336E+02 -0.70468360085E+00 -0.21974512246E+01  0.11928931129E+02  0.51100000000E-03 0. -1.
        -11    1    3    3    0    0 -0.18267596921E+02 -0.20500514339E+01  0.78401573056E+01  0.19984390783E+02  0.51100000000E-03 0.  1.
        -12    1    3    3    0    0 -0.82377221197E+01  0.16412371330E+02 -0.30516054089E+01  0.18615539046E+02  0.00000000000E+00 0.  1.
</event>
<event>
 7    1  0.2974434E-011  0.5052884E+02  0.7816164E-02  0.1300439E+00
        -11   -1    0    0    0    0  0.00000000000E+00  0.00000000000E+00  0.45593999997E+02  0.45594000000E+02  0.51100000000E-03 0.  1.
         11   -1    0    0    0    0 -0.00000000000E+00 -0.00000000000E+00 -0.45593999997E+02  0.45594000000E+02  0.51100000000E-03 0. -1.
    9900012    2    1    2    0    0  0.28076940390E+02 -0.26092169385E+02  0.13566555984E+02  0.50528839578E+02  0.29999938382E+02 0.  0.
        -12    1    1    2    0    0 -0.28076940390E+02  0.26092169385E+02 -0.13566555984E+02  0.40659160422E+02  0.00000000000E+00 0.  1.
         11    1    3    3    0    0  0.13750020265E+02 -0.13003478085E+02  0.12244223433E+02  0.22540508143E+02  0.51100000000E-03 0. -1.
        -11    1    3    3    0    0  0.11046165076E+02 -0.14459518387E+02  0.84200922577E+01  0.20049772786E+02  0.51100000000E-03 0.  1.
        -12    1    3    3    0    0  0.32807550489E+01  0.13708270868E+01 -0.70977597058E+01  0.79385586496E+01  0.00000000000E+00 0.  1.
</event>
<event>
 7    1  0.2974434E-011  0.5052883E+02  0.7816164E-02  0.1300439E+00
        -11   -1    0    0    0    0  0.00000000000E+00  0.00000000000E+00  0.45593999997E+02  0.45594000000E+02  0.51100000000E-03 0. -1.
         11   -1    0    0    0    0 -0.00000000000E+00 -0.00000000000E+00 -0.45593999997E+02  0.45594000000E+02  0.51100000000E-03 0.  1.
    9900012    2    1    2    0    0  0.15275793516E+02  0.37398967837E+02 -0.45973452204E+01  0.50528828268E+02  0.29999904004E+02 0.  0.
        -12    1    1    2    0    0 -0.15275793516E+02 -0.37398967837E+02  0.45973452204E+01  0.40659171732E+02  0.00000000000E+00 0.  1.
         11    1    3    3    0    0  0.78126892854E+00 -0.95656636229E+00 -0.67726863377E+01  0.68843794807E+01  0.51100000000E-03 0. -1.
        -11    1    3    3    0    0 -0.24530422439E+01  0.11844962133E+02 -0.11013871539E+00  0.12096804329E+02  0.51100000000E-03 0.  1.
         12    1    3    3    0    0  0.16947566832E+02  0.26510572067E+02  0.22854798327E+01  0.31547644459E+02  0.00000000000E+00 0. -1.
</event>
<event>
 7    1  0.2974434E-011  0.5052886E+02  0.7816164E-02  0.1300439E+00
        -11   -1    0    0    0    0  0.00000000000E+00  0.00000000000E+00  0.45593999997E+02  0.45594000000E+02  0.51100000000E-03 0.  1.
         11   -1    0    0    0    0 -0.00000000000E+00 -0.00000000000E+00 -0.45593999997E+02  0.45594000000E+02  0.51100000000E-03 0. -1.
    9900012    2    1    2    0    0 -0.25969416305E+01  0.85588987634E+01 -0.39663167162E+02  0.50528859783E+02  0.29999999797E+02 0.  0.
        -12    1    1    2    0    0  0.25969416305E+01 -0.85588987634E+01  0.39663167162E+02  0.40659140217E+02  0.00000000000E+00 0.  1.
         11    1    3    3    0    0  0.15089299628E+01 -0.25646413333E+01 -0.88375752554E+01  0.93250732681E+01  0.51100000000E-03 0. -1.
        -11    1    3    3    0    0  0.10376542106E+02  0.51829475045E+01 -0.14774152730E+02  0.18783268088E+02  0.51100000000E-03 0.  1.
         12    1    3    3    0    0 -0.14482413700E+02  0.59405925921E+01 -0.16051439177E+02  0.22420518427E+02  0.00000000000E+00 0. -1.
</event>
<event>
 7    1  0.2974434E-011  0.5052884E+02  0.7816164E-02  0.1300439E+00
        -11   -1    0    0    0    0  0.00000000000E+00  0.00000000000E+00  0.45593999997E+02  0.45594000000E+02  0.51100000000E-03 0. -1.
         11   -1    0    0    0    0 -0.00000000000E+00 -0.00000000000E+00 -0.45593999997E+02  0.45594000000E+02  0.51100000000E-03 0.  1.
    9900012    2    1    2    0    0 -0.23753958005E+02  0.14130668465E+02  0.29820140730E+02  0.50528842294E+02  0.29999946637E+02 0.  0.
        -12    1    1    2    0    0  0.23753958005E+02 -0.14130668465E+02 -0.29820140730E+02  0.40659157706E+02  0.00000000000E+00 0.  1.
         11    1    3    3    0    0 -0.42959691083E+01 -0.50644333722E+01  0.49762475250E+01  0.82986068501E+01  0.51100000000E-03 0. -1.
        -11    1    3    3    0    0 -0.42898397670E+01  0.12731372380E+02  0.13142919883E+01  0.13498812229E+02  0.51100000000E-03 0.  1.
         12    1    3    3    0    0 -0.15168149130E+02  0.64637294575E+01  0.23529601217E+02  0.28731423215E+02  0.00000000000E+00 0. -1.
</event>
<event>
 7    1  0.2974434E-011  0.5052885E+02  0.7816164E-02  0.1300439E+00
        -11   -1    0    0    0    0  0.00000000000E+00  0.00000000000E+00  0.45593999997E+02  0.45594000000E+02  0.51100000000E-03 0. -1.
         11   -1    0    0    0    0 -0.00000000000E+00 -0.00000000000E+00 -0.45593999997E+02  0.45594000000E+02  0.51100000000E-03 0.  1.
    9900012    2    1    2    0    0  0.16158697230E+02  0.92527536343E+01  0.36144843158E+02  0.50528848104E+02  0.29999964296E+02 0.  0.
        -12    1    1    2    0    0 -0.16158697230E+02 -0.92527536343E+01 -0.36144843158E+02  0.40659151896E+02  0.00000000000E+00 0.  1.
         11    1    3    3    0    0  0.12362713047E+02 -0.44949346458E+00  0.70203714782E+01  0.14224075865E+02  0.51100000000E-03 0.  1.
        -11    1    3    3    0    0  0.97058408032E+01  0.56566894781E+01  0.26313064064E+02  0.28610816525E+02  0.51100000000E-03 0. -1.
        -12    1    3    3    0    0 -0.59098566205E+01  0.40455576208E+01  0.28114076164E+01  0.76939557136E+01  0.00000000000E+00 0.  1.
</event>
<event>
 7    1  0.2974434E-011  0.5052886E+02  0.7816164E-02  0.1300439E+00
        -11   -1    0    0    0    0  0.00000000000E+00  0.00000000000E+00  0.45593999997E+02  0.45594000000E+02  0.51100000000E-03 0.  1.
         11   -1    0    0    0    0 -0.00000000000E+00 -0.00000000000E+00 -0.45593999997E+02  0.45594000000E+02  0.51100000000E-03 0. -1.
    9900012    2    1    2    0    0 -0.13707504319E+01  0.25524021154E+02 -0.31619794535E+02  0.50528855653E+02  0.29999987242E+02 0.  0.
        -12    1    1    2    0    0  0.13707504319E+01 -0.25524021154E+02  0.31619794535E+02  0.40659144347E+02  0.00000000000E+00 0.  1.
         11    1    3    3    0    0  0.19031536454E+01  0.25340245149E+02 -0.26459058852E+02  0.36685580459E+02  0.51100000000E-03 0. -1.
        -11    1    3    3    0    0  0.75757273568E-01  0.25807835128E+01 -0.82821031029E+01  0.86752184280E+01  0.51100000000E-03 0.  1.
        -12    1    3    3    0    0 -0.33496613509E+01 -0.23970075086E+01  0.31213674199E+01  0.51680567656E+01  0.00000000000E+00 0.  1.
</event>
<event>
 7    1  0.2974434E-011  0.5052875E+02  0.7816164E-02  0.1300439E+00
        -11   -1    0    0    0    0  0.00000000000E+00  0.00000000000E+00  0.45593999997E+02  0.45594000000E+02  0.51100000000E-03 0.  1.
         11   -1    0    0    0    0 -0.00000000000E+00 -0.00000000000E+00 -0.45593999997E+02  0.45594000000E+02  0.51100000000E-03 0. -1.
    9900012    2    1    2    0    0 -0.39192729742E+02 -0.52375711758E+01 -0.94695499326E+01  0.50528750224E+02  0.29999666778E+02 0.  0.
        -12    1    1    2    0    0  0.39192729742E+02  0.52375711758E+01  0.94695499326E+01  0.40659249776E+02  0.00000000000E+00 0.  1.
         11    1    3    3    0    0 -0.24865221212E+02 -0.10732322501E+02 -0.27191413357E+01  0.27218664590E+02  0.51100000000E-03 0. -1.
        -11    1    3    3    0    0 -0.13401182386E+02  0.10327061554E+02 -0.31406628654E+01  0.17207662630E+02  0.51100000000E-03 0.  1.
         12    1    3    3    0    0 -0.92632614366E+00 -0.48323102287E+01 -0.36097457315E+01  0.61024230037E+01  0.00000000000E+00 0. -1.
</event>
<event>
 7    1  0.2974434E-011  0.5052887E+02  0.7816164E-02  0.1300439E+00
        -11   -1    0    0    0    0  0.00000000000E+00  0.00000000000E+00  0.45593999997E+02  0.45594000000E+02  0.51100000000E-03 0. -1.
         11   -1    0    0    0    0 -0.00000000000E+00 -0.00000000000E+00 -0.45593999997E+02  0.45594000000E+02  0.51100000000E-03 0.  1.
    9900012    2    1    2    0    0  0.29613773694E+02 -0.97015828516E+01  0.26116445781E+02  0.50528867663E+02  0.30000023747E+02 0.  0.
        -12    1    1    2    0    0 -0.29613773694E+02  0.97015828516E+01 -0.26116445781E+02  0.40659132337E+02  0.00000000000E+00 0.  1.
         11    1    3    3    0    0  0.23355830901E+02 -0.10554486627E+02  0.13914946718E+02  0.29163637762E+02  0.51100000000E-03 0. -1.
        -11    1    3    3    0    0  0.69936457777E+01  0.74157707282E+01  0.10304047968E+02  0.14494072635E+02  0.51100000000E-03 0.  1.
        -12    1    3    3    0    0 -0.73570298536E+00 -0.65628669527E+01  0.18974510948E+01  0.68711572663E+01  0.00000000000E+00 0.  1.
</event>
<event>
 7    1  0.5500567E-011  0.5052886E+02  0.7816164E-02  0.1300439E+00
        -11   -1    0    0    0    0  0.00000000000E+00  0.00000000000E+00  0.45593999997E+02  0.45594000000E+02  0.51100000000E-03 0. -1.
         11   -1    0    0    0    0 -0.00000000000E+00 -0.00000000000E+00 -0.45593999997E+02  0.45594000000E+02  0.51100000000E-03 0.  1.
    9900012    2    1    2    0    0  0.13189143915E+02  0.38122118178E+01  0.38271130799E+02  0.50528856763E+02  0.29999990616E+02 0.  0.
        -12    1    1    2    0    0 -0.13189143915E+02 -0.38122118178E+01 -0.38271130799E+02  0.40659143237E+02  0.00000000000E+00 0.  1.
         11    1    3    3    0    0  0.45273286432E+01 -0.51684814244E+01  0.26628044867E+02  0.27500230519E+02  0.51100000000E-03 0. -1.
        -11    1    3    3    0    0 -0.22301214305E+01  0.77331387571E+01  0.83134257661E+01  0.11570994981E+02  0.51100000000E-03 0.  1.
        -12    1    3    3    0    0  0.10891936703E+02  0.12475544852E+01  0.33296601659E+01  0.11457631263E+02  0.00000000000E+00 0.  1.
</event>
<event>
 7    1  0.2974434E-011  0.5052887E+02  0.7816164E-02  0.1300439E+00
        -11   -1    0    0    0    0  0.00000000000E+00  0.00000000000E+00  0.45593999997E+02  0.45594000000E+02  0.51100000000E-03 0.  1.
         11   -1    0    0    0    0 -0.00000000000E+00 -0.00000000000E+00 -0.45593999997E+02  0.45594000000E+02  0.51100000000E-03 0. -1.
    9900012    2    1    2    0    0 -0.32258724513E+02 -0.12063057023E+02 -0.21610691628E+02  0.50528872555E+02  0.30000038618E+02 0.  0.
        -12    1    1    2    0    0  0.32258724513E+02  0.12063057023E+02  0.21610691628E+02  0.40659127445E+02  0.00000000000E+00 0.  1.
         11    1    3    3    0    0 -0.19655881048E+02  0.42567681827E+01 -0.11915657380E+02  0.23376411748E+02  0.51100000000E-03 0.  1.
        -11    1    3    3    0    0 -0.93715566883E+01 -0.69220510533E+00 -0.32782513410E+01  0.99524949025E+01  0.51100000000E-03 0. -1.
        -12    1    3    3    0    0 -0.32312867764E+01 -0.15627620101E+02 -0.64167829072E+01  0.17199965905E+02  0.00000000000E+00 0.  1.
</event>
<event>
 7    1  0.2974434E-011  0.5052886E+02  0.7816164E-02  0.1300439E+00
        -11   -1    0    0    0    0  0.00000000000E+00  0.00000000000E+00  0.45593999997E+02  0.45594000000E+02  0.51100000000E-03 0.  1.
         11   -1    0    0    0    0 -0.00000000000E+00 -0.00000000000E+00 -0.45593999997E+02  0.45594000000E+02  0.51100000000E-03 0. -1.
    9900012    2    1    2    0    0  0.14022301361E+02  0.27453397916E+02 -0.26511351313E+02  0.50528859071E+02  0.29999997633E+02 0.  0.
        -12    1    1    2    0    0 -0.14022301361E+02 -0.27453397916E+02  0.26511351313E+02  0.40659140929E+02  0.00000000000E+00 0.  1.
         11    1    3    3    0    0  0.14873289221E+02  0.12847165218E+02 -0.10442495574E+02  0.22255563360E+02  0.51100000000E-03 0. -1.
        -11    1    3    3    0    0  0.81336641019E+01  0.87666716464E+01 -0.11608668800E+02  0.16666499784E+02  0.51100000000E-03 0.  1.
        -12    1    3    3    0    0 -0.89846519622E+01  0.58395610525E+01 -0.44601869397E+01  0.11606795928E+02  0.00000000000E+00 0.  1.
</event>
<event>
 7    1  0.2974434E-011  0.5052885E+02  0.7816164E-02  0.1300439E+00
        -11   -1    0    0    0    0  0.00000000000E+00  0.00000000000E+00  0.45593999997E+02  0.45594000000E+02  0.51100000000E-03 0. -1.
         11   -1    0    0    0    0 -0.00000000000E+00 -0.00000000000E+00 -0.45593999997E+02  0.45594000000E+02  0.51100000000E-03 0.  1.
    9900012    2    1    2    0    0  0.32433047159E+02  0.95699157665E+01  0.22576098900E+02  0.50528854936E+02  0.29999985065E+02 0.  0.
        -12    1    1    2    0    0 -0.32433047159E+02 -0.95699157665E+01 -0.22576098900E+02  0.40659145064E+02  0.00000000000E+00 0.  1.
         11    1    3    3    0    0  0.28368456570E+00 -0.43444235824E+01 -0.88289267193E+00  0.44422959072E+01  0.51100000000E-03 0. -1.
        -11    1    3    3    0    0 -0.14843275957E+01 -0.84739667158E+00  0.43688807071E+01  0.46913141468E+01  0.51100000000E-03 0.  1.
         12    1    3    3    0    0  0.33633690189E+02  0.14761736020E+02  0.19090110865E+02  0.41395244882E+02  0.00000000000E+00 0. -1.
</event>
<event>
 7    1  0.2974434E-011  0.5052885E+02  0.7816164E-02  0.1300439E+00
        -11   -1    0    0    0    0  0.00000000000E+00  0.00000000000E+00  0.45593999997E+02  0.45594000000E+02  0.51100000000E-03 0.  1.
         11   -1    0    0    0    0 -0.00000000000E+00 -0.00000000000E+00 -0.45593999997E+02  0.45594000000E+02  0.51100000000E-03 0. -1.
    9900012    2    1    2    0    0  0.32067151351E+02  0.23996486457E+02  0.70023370963E+01  0.50528852408E+02  0.29999977380E+02 0.  0.
        -12    1    1    2    0    0 -0.32067151351E+02 -0.23996486457E+02 -0.70023370963E+01  0.40659147592E+02  0.00000000000E+00 0.  1.
         11    1    3    3    0    0  0.68929013984E+01  0.13881568088E+01  0.44397711498E+01  0.83156862096E+01  0.51100000000E-03 0. -1.
        -11    1    3    3    0    0  0.14154469378E+02  0.13660671941E+02  0.13866304001E+02  0.24067350252E+02  0.51100000000E-03 0.  1.
         12    1    3    3    0    0  0.11019780575E+02  0.89476577074E+01 -0.11303738054E+02  0.18145815947E+02  0.00000000000E+00 0. -1.
</event>
<event>
 7    1  0.2974434E-011  0.5052886E+02  0.7816164E-02  0.1300439E+00
        -11   -1    0    0    0    0  0.00000000000E+00  0.00000000000E+00  0.45593999997E+02  0.45594000000E+02  0.51100000000E-03 0.  1.
         11   -1    0    0    0    0 -0.00000000000E+00 -0.00000000000E+00 -0.45593999997E+02  0.45594000000E+02  0.51100000000E-03 0. -1.
    9900012    2    1    2    0    0 -0.20036360276E+02 -0.12558671027E+02 -0.33075514545E+02  0.50528860640E+02  0.30000002402E+02 0.  0.
        -12    1    1    2    0    0  0.20036360276E+02  0.12558671027E+02  0.33075514545E+02  0.40659139360E+02  0.00000000000E+00 0.  1.
         11    1    3    3    0    0 -0.98452023918E+01 -0.56029392868E+01 -0.11137861954E+02  0.15886249021E+02  0.51100000000E-03 0. -1.
        -11    1    3    3    0    0 -0.97345904987E+01 -0.36035621633E+01 -0.26788077980E+02  0.28728888502E+02  0.51100000000E-03 0.  1.
        -12    1    3    3    0    0 -0.45656738563E+00 -0.33521695768E+01  0.48504253894E+01  0.59137231173E+01  0.00000000000E+00 0.  1.
</event>
<event>
 7    1  0.2974434E-011  0.5052886E+02  0.7816164E-02  0.1300439E+00
        -11   -1    0    0    0    0  0.00000000000E+00  0.00000000000E+00  0.45593999997E+02  0.45594000000E+02  0.51100000000E-03 0. -1.
         11   -1    0    0    0    0 -0.00000000000E+00 -0.00000000000E+00 -0.45593999997E+02  0.45594000000E+02  0.51100000000E-03 0.  1.
    9900012    2    1    2    0    0  0.25559198536E+02  0.17060451688E+02  0.26623944183E+02  0.50528855327E+02  0.29999986253E+02 0.  0.
        -12    1    1    2    0    0 -0.25559198536E+02 -0.17060451688E+02 -0.26623944183E+02  0.40659144673E+02  0.00000000000E+00 0.  1.
         11    1    3    3    0    0  0.17763820595E+02  0.19543773354E+01  0.15691246093E+02  0.23782096567E+02  0.51100000000E-03 0. -1.
        -11    1    3    3    0    0  0.10615013528E+02  0.55065433173E+01  0.11677250492E+02  0.16714027367E+02  0.51100000000E-03 0.  1.
        -12    1    3    3    0    0 -0.28196355870E+01  0.95995310353E+01 -0.74455240125E+00  0.10032731394E+02  0.00000000000E+00 0.  1.
</event>
<event>
 7    1  0.2974434E-011  0.5052887E+02  0.7816164E-02  0.1300439E+00
        -11   -1    0    0    0    0  0.00000000000E+00  0.00000000000E+00  0.45593999997E+02  0.45594000000E+02  0.51100000000E-03 0.  1.
         11   -1    0    0    0    0 -0.00000000000E+00 -0.00000000000E+00 -0.45593999997E+02  0.45594000000E+02  0.51100000000E-03 0. -1.
    9900012    2    1    2    0    0 -0.80126256813E+01  0.15077215229E+02 -0.36900408665E+02  0.50528871271E+02  0.30000034714E+02 0.  0.
        -12    1    1    2    0    0  0.80126256813E+01 -0.15077215229E+02  0.36900408665E+02  0.40659128729E+02  0.00000000000E+00 0.  1.
         11    1    3    3    0    0 -0.40874015573E+01 -0.41258623874E+00  0.32100238845E+01  0.52135719517E+01  0.51100000000E-03 0. -1.
        -11    1    3    3    0    0  0.51832244732E+01  0.55999535327E+01 -0.15215145582E+02  0.17021338104E+02  0.51100000000E-03 0.  1.
         12    1    3    3    0    0 -0.91084485972E+01  0.98898479349E+01 -0.24895286968E+02  0.28293961215E+02  0.00000000000E+00 0. -1.
</event>
<event>
 7    1  0.2974434E-011  0.5052886E+02  0.7816164E-02  0.1300439E+00
        -11   -1    0    0    0    0  0.00000000000E+00  0.00000000000E+00  0.45593999997E+02  0.45594000000E+02  0.51100000000E-03 0.  1.
         11   -1    0    0    0    0 -0.00000000000E+00 -0.00000000000E+00 -0.45593999997E+02  0.45594000000E+02  0.51100000000E-03 0. -1.
    9900012    2    1    2    0    0  0.25755803854E+02  0.26120751045E+02 -0.17535976745E+02  0.50528861449E+02  0.30000004860E+02 0.  0.
        -12    1    1    2    0    0 -0.25755803854E+02 -0.26120751045E+02  0.17535976745E+02  0.40659138551E+02  0.00000000000E+00 0.  1.
         11    1    3    3    0    0  0.39754397604E+01  0.10006941602E+02 -0.73765658299E+01  0.13052077429E+02  0.51100000000E-03 0. -1.
        -11    1    3    3    0    0  0.44908764155E+01  0.17919388495E+02 -0.31837870923E+01  0.18745905033E+02  0.51100000000E-03 0.  1.
        -12    1    3    3    0    0  0.17289487678E+02 -0.18055790521E+01 -0.69756238227E+01  0.18730878986E+02  0.00000000000E+00 0.  1.
</event>
<event>
 7    1  0.2974434E-011  0.5052895E+02  0.7816164E-02  0.1300438E+00
        -11   -1    0    0    0    0  0.00000000000E+00  0.00000000000E+00  0.45593999997E+02  0.45594000000E+02  0.51100000000E-03 0.  1.
         11   -1    0    0    0    0 -0.00000000000E+00 -0.00000000000E+00 -0.45593999997E+02  0.45594000000E+02  0.51100000000E-03 0. -1.
    9900012    2    1    2    0    0 -0.27839249405E+02  0.21298765311E+02 -0.20603331947E+02  0.50528948136E+02  0.30000268353E+02 0.  0.
        -12    1    1    2    0    0  0.27839249405E+02 -0.21298765311E+02  0.20603331947E+02  0.40659051864E+02  0.00000000000E+00 0.  1.
         11    1    3    3    0    0 -0.19280219121E+02  0.12747441948E+02 -0.52010746817E+01  0.23691249517E+02  0.51100000000E-03 0.  1.
        -11    1    3    3    0    0 -0.36972624029E+01 -0.48947001139E+01 -0.45177984803E+00  0.61507677385E+01  0.51100000000E-03 0. -1.
        -12    1    3    3    0    0 -0.48617678813E+01  0.13446023477E+02 -0.14950477417E+02  0.20686930881E+02  0.00000000000E+00 0.  1.
</event>
<event>
 7    1  0.2974434E-011  0.5052886E+02  0.7816164E-02  0.1300439E+00
        -11   -1    0    0    0    0  0.00000000000E+00  0.00000000000E+00  0.45593999997E+02  0.45594000000E+02  0.51100000000E-03 0.  1.
         11   -1    0    0    0    0 -0.00000000000E+00 -0.00000000000E+00 -0.45593999997E+02  0.45594000000E+02  0.51100000000E-03 0. -1.
    9900012    2    1    2    0    0 -0.98983973648E+01 -0.32580187528E+02 -0.22219780188E+02  0.50528861773E+02  0.30000005847E+02 0.  0.
        -12    1    1    2    0    0  0.98983973648E+01  0.32580187528E+02  0.22219780188E+02  0.40659138227E+02  0.00000000000E+00 0.  1.
         11    1    3    3    0    0 -0.37706515250E+01 -0.19429236341E+01 -0.12209271153E+02  0.12925133173E+02  0.51100000000E-03 0. -1.
        -11    1    3    3    0    0  0.26552724683E+01 -0.55424962205E+01 -0.91249990644E+01  0.11001606447E+02  0.51100000000E-03 0.  1.
         12    1    3    3    0    0 -0.87830183081E+01 -0.25094767673E+02 -0.88550996994E+00  0.26602122154E+02  0.00000000000E+00 0. -1.
</event>
<event>
 7    1  0.2974434E-011  0.5052887E+02  0.7816164E-02  0.1300439E+00
        -11   -1    0    0    0    0  0.00000000000E+00  0.00000000000E+00  0.45593999997E+02  0.45594000000E+02  0.51100000000E-03 0. -1.
         11   -1    0    0    0    0 -0.00000000000E+00 -0.00000000000E+00 -0.45593999997E+02  0.45594000000E+02  0.51100000000E-03 0.  1.
    9900012    2    1    2    0    0  0.38303623362E+02  0.45808522718E+01 -0.12845739788E+02  0.50528870633E+02  0.30000032776E+02 0.  0.
        -12    1    1    2    0    0 -0.38303623362E+02 -0.45808522718E+01  0.12845739788E+02  0.40659129367E+02  0.00000000000E+00 0.  1.
         11    1    3    3    0    0 -0.40843253368E+00 -0.51194520415E+00 -0.31793541469E+01  0.32461050629E+01  0.51100000000E-03 0.  1.
        -11    1    3    3    0    0  0.41916623772E+01 -0.34421021634E+01 -0.10384554281E+02  0.11715676194E+02  0.51100000000E-03 0. -1.
         12    1    3    3    0    0  0.34520393518E+02  0.85348996394E+01  0.71816864041E+00  0.35567089376E+02  0.00000000000E+00 0. -1.
</event>
<event>
 7    1  0.2974434E-011  0.5052889E+02  0.7816164E-02  0.1300439E+00
        -11   -1    0    0    0    0  0.00000000000E+00  0.00000000000E+00  0.45593999997E+02  0.45594000000E+02  0.51100000000E-03 0.  1.
         11   -1    0    0    0    0 -0.00000000000E+00 -0.00000000000E+00 -0.45593999997E+02  0.45594000000E+02  0.51100000000E-03 0. -1.
    9900012    2    1    2    0    0  0.16508144556E+02  0.93765747571E+01 -0.35954477468E+02  0.50528887358E+02  0.30000083614E+02 0.  0.
        -12    1    1    2    0    0 -0.16508144556E+02 -0.93765747571E+01  0.35954477468E+02  0.40659112642E+02  0.00000000000E+00 0.  1.
         11    1    3    3    0    0  0.81405119042E+01  0.46002064201E+01 -0.23377928470E+02  0.25178510142E+02  0.51100000000E-03 0. -1.
        -11    1    3    3    0    0  0.63940536854E+01  0.11865134507E+02 -0.40201525916E+01  0.14065097459E+02  0.51100000000E-03 0.  1.
        -12    1    3    3    0    0  0.19735789662E+01 -0.70887661699E+01 -0.85563964064E+01  0.11285279758E+02  0.00000000000E+00 0.  1.
</event>
<event>
 7    1  0.2974434E-011  0.5052886E+02  0.7816164E-02  0.1300439E+00
        -11   -1    0    0    0    0  0.00000000000E+00  0.00000000000E+00  0.45593999997E+02  0.45594000000E+02  0.51100000000E-03 0.  1.
         11   -1    0    0    0    0 -0.00000000000E+00 -0.00000000000E+00 -0.45593999997E+02  0.45594000000E+02  0.51100000000E-03 0. -1.
    9900012    2    1    2    0    0  0.35693226527E+02  0.13971211716E+02 -0.13563353267E+02  0.50528859225E+02  0.29999998101E+02 0.  0.
        -12    1    1    2    0    0 -0.35693226527E+02 -0.13971211716E+02  0.13563353267E+02  0.40659140775E+02  0.00000000000E+00 0.  1.
         11    1    3    3    0    0  0.58438610078E+01  0.32610253973E+01  0.23813376898E+01  0.71032223374E+01  0.51100000000E-03 0.  1.
        -11    1    3    3    0    0  0.29901946953E+02  0.15238838811E+02 -0.83519114944E+01  0.34584723012E+02  0.51100000000E-03 0. -1.
         12    1    3    3    0    0 -0.52581434068E-01 -0.45286524927E+01 -0.75927794620E+01  0.88409138762E+01  0.00000000000E+00 0. -1.
</event>
<event>
 7    1  0.2974434E-011  0.5052887E+02  0.7816164E-02  0.1300439E+00
        -11   -1    0    0    0    0  0.00000000000E+00  0.00000000000E+00  0.45593999997E+02  0.45594000000E+02  0.51100000000E-03 0.  1.
         11   -1    0    0    0    0 -0.00000000000E+00 -0.00000000000E+00 -0.45593999997E+02  0.45594000000E+02  0.51100000000E-03 0. -1.
    9900012    2    1    2    0    0 -0.39394598277E+02 -0.33913549053E+01  0.94725503481E+01  0.50528869764E+02  0.30000030134E+02 0.  0.
        -12    1    1    2    0    0  0.39394598277E+02  0.33913549053E+01 -0.94725503481E+01  0.40659130236E+02  0.00000000000E+00 0.  1.
         11    1    3    3    0    0 -0.20987760631E+02 -0.11360178120E+02  0.19042744873E+01  0.23940885631E+02  0.51100000000E-03 0. -1.
        -11    1    3    3    0    0 -0.81454103180E+01  0.44154115616E+01 -0.45448723340E+01  0.10319856264E+02  0.51100000000E-03 0.  1.
        -12    1    3    3    0    0 -0.10261427328E+02  0.35534116532E+01  0.12113148195E+02  0.16268127869E+02  0.00000000000E+00 0.  1.
</event>
<event>
 7    1  0.2974434E-011  0.5052888E+02  0.7816164E-02  0.1300439E+00
        -11   -1    0    0    0    0  0.00000000000E+00  0.00000000000E+00  0.45593999997E+02  0.45594000000E+02  0.51100000000E-03 0.  1.
         11   -1    0    0    0    0 -0.00000000000E+00 -0.00000000000E+00 -0.45593999997E+02  0.45594000000E+02  0.51100000000E-03 0. -1.
    9900012    2    1    2    0    0 -0.30838141796E+02 -0.19978706488E+02 -0.17407605443E+02  0.50528875199E+02  0.30000046654E+02 0.  0.
        -12    1    1    2    0    0  0.30838141796E+02  0.19978706488E+02  0.17407605443E+02  0.40659124801E+02  0.00000000000E+00 0.  1.
         11    1    3    3    0    0 -0.54511166392E+01  0.45193365011E+01 -0.38691363983E+01  0.80690328884E+01  0.51100000000E-03 0. -1.
        -11    1    3    3    0    0  0.28609060754E+01 -0.18637472459E+01  0.83168359941E+00  0.35142616919E+01  0.51100000000E-03 0.  1.
         12    1    3    3    0    0 -0.28247931232E+02 -0.22634295743E+02 -0.14370152644E+02  0.38945580618E+02  0.00000000000E+00 0. -1.
</event>
<event>
 7    1  0.2974434E-011  0.5052885E+02  0.7816164E-02  0.1300439E+00
        -11   -1    0    0    0    0  0.00000000000E+00  0.00000000000E+00  0.45593999997E+02  0.45594000000E+02  0.51100000000E-03 0.  1.
         11   -1    0    0    0    0 -0.00000000000E+00 -0.00000000000E+00 -0.45593999997E+02  0.45594000000E+02  0.51100000000E-03 0. -1.
    9900012    2    1    2    0    0 -0.19702601083E+01  0.24627625485E+02 -0.32291872197E+02  0.50528845165E+02  0.29999955363E+02 0.  0.
        -12    1    1    2    0    0  0.19702601083E+01 -0.24627625485E+02  0.32291872197E+02  0.40659154835E+02  0.00000000000E+00 0.  1.
         11    1    3    3    0    0 -0.14668377962E+01 -0.49932218344E+01 -0.14096326607E+02  0.15026320291E+02  0.51100000000E-03 0. -1.
        -11    1    3    3    0    0  0.31383850325E+01  0.88108602736E+01 -0.52627046995E+01  0.10732044558E+02  0.51100000000E-03 0.  1.
        -12    1    3    3    0    0 -0.36418073446E+01  0.20809987046E+02 -0.12932840890E+02  0.24770480316E+02  0.00000000000E+00 0.  1.
</event>
<event>
 7    1  0.2974434E-011  0.5052886E+02  0.7816164E-02  0.1300439E+00
        -11   -1    0    0    0    0  0.00000000000E+00  0.00000000000E+00  0.45593999997E+02  0.45594000000E+02  0.51100000000E-03 0. -1.
         11   -1    0    0    0    0 -0.00000000000E+00 -0.00000000000E+00 -0.45593999997E+02  0.45594000000E+02  0.51100000000E-03 0.  1.
    9900012    2    1    2    0    0 -0.91691270429E+01  0.30923557585E+02 -0.24755322613E+02  0.50528864469E+02  0.30000014041E+02 0.  0.
        -12    1    1    2    0    0  0.91691270429E+01 -0.30923557585E+02  0.24755322613E+02  0.40659135531E+02  0.00000000000E+00 0.  1.
         11    1    3    3    0    0 -0.37346713536E+01  0.30371855294E+02 -0.22422867848E+02  0.37936557131E+02  0.51100000000E-03 0. -1.
        -11    1    3    3    0    0 -0.21548734978E+01  0.20237403741E+01 -0.64687400504E+01  0.71122150554E+01  0.51100000000E-03 0.  1.
        -12    1    3    3    0    0 -0.32795821915E+01 -0.14720380837E+01  0.41362852855E+01  0.54800922833E+01  0.00000000000E+00 0.  1.
</event>
<event>
 7    1  0.2974434E-011  0.5052885E+02  0.7816164E-02  0.1300439E+00
        -11   -1    0    0    0    0  0.00000000000E+00  0.00000000000E+00  0.45593999997E+02  0.45594000000E+02  0.51100000000E-03 0.  1.
         11   -1    0    0    0    0 -0.00000000000E+00 -0.00000000000E+00 -0.45593999997E+02  0.45594000000E+02  0.51100000000E-03 0. -1.
    9900012    2    1    2    0    0 -0.60570845884E+01 -0.21129071424E+01 -0.40149896229E+02  0.50528845834E+02  0.29999957396E+02 0.  0.
        -12    1    1    2    0    0  0.60570845884E+01  0.21129071424E+01  0.40149896229E+02  0.40659154166E+02  0.00000000000E+00 0.  1.
         11    1    3    3    0    0 -0.53599894232E+01 -0.54945137475E+01 -0.38330416209E+02  0.39091430966E+02  0.51100000000E-03 0. -1.
        -11    1    3    3    0    0  0.29053901864E+01  0.23651055251E+00 -0.49337614275E+01  0.57305524569E+01  0.51100000000E-03 0.  1.
        -12    1    3    3    0    0 -0.36024853516E+01  0.31450960527E+01  0.31142814078E+01  0.57068624108E+01  0.00000000000E+00 0.  1.
</event>
<event>
 7    1  0.2974434E-011  0.5052885E+02  0.7816164E-02  0.1300439E+00
        -11   -1    0    0    0    0  0.00000000000E+00  0.00000000000E+00  0.45593999997E+02  0.45594000000E+02  0.51100000000E-03 0.  1.
         11   -1    0    0    0    0 -0.00000000000E+00 -0.00000000000E+00 -0.45593999997E+02  0.45594000000E+02  0.51100000000E-03 0. -1.
    9900012    2    1    2    0    0  0.13547625363E+02 -0.37034539303E+02 -0.99030733046E+01  0.50528854470E+02  0.29999983648E+02 0.  0.
        -12    1    1    2    0    0 -0.13547625363E+02  0.37034539303E+02  0.99030733046E+01  0.40659145530E+02  0.00000000000E+00 0.  1.
         11    1    3    3    0    0 -0.17871047602E+01 -0.22095319273E+02  0.43795179215E+01  0.22595952175E+02  0.51100000000E-03 0. -1.
        -11    1    3    3    0    0 -0.27272644329E-01  0.67916508487E-01  0.13614062226E+01  0.13633721477E+01  0.51100000000E-03 0.  1.
         12    1    3    3    0    0  0.15362002767E+02 -0.15007136538E+02 -0.15643997449E+02  0.26569530148E+02  0.00000000000E+00 0. -1.
</event>
<event>
 7    1  0.2974434E-011  0.5052886E+02  0.7816164E-02  0.1300439E+00
        -11   -1    0    0    0    0  0.00000000000E+00  0.00000000000E+00  0.45593999997E+02  0.45594000000E+02  0.51100000000E-03 0. -1.
         11   -1    0    0    0    0 -0.00000000000E+00 -0.00000000000E+00 -0.45593999997E+02  0.45594000000E+02  0.51100000000E-03 0.  1.
    9900012    2    1    2    0    0 -0.10068640730E+02 -0.56806997021E+00  0.39388645390E+02  0.50528860617E+02  0.30000002333E+02 0.  0.
        -12    1    1    2    0    0  0.10068640730E+02  0.56806997021E+00 -0.39388645390E+02  0.40659139383E+02  0.00000000000E+00 0.  1.
         11    1    3    3    0    0 -0.87183864251E+01 -0.15971767501E+01  0.19426850781E+02  0.21353308103E+02  0.51100000000E-03 0. -1.
        -11    1    3    3    0    0 -0.36114712356E+01  0.10700118297E+02  0.95940784956E+01  0.14818285950E+02  0.51100000000E-03 0.  1.
        -12    1    3    3    0    0  0.22612169305E+01 -0.96710115174E+01  0.10367716114E+02  0.14357266564E+02  0.00000000000E+00 0.  1.
</event>
<event>
 7    1  0.2974434E-011  0.5052886E+02  0.7816164E-02  0.1300439E+00
        -11   -1    0    0    0    0  0.00000000000E+00  0.00000000000E+00  0.45593999997E+02  0.45594000000E+02  0.51100000000E-03 0.  1.
         11   -1    0    0    0    0 -0.00000000000E+00 -0.00000000000E+00 -0.45593999997E+02  0.45594000000E+02  0.51100000000E-03 0. -1.
    9900012    2    1    2    0    0 -0.17122740953E+02  0.35553352050E+02 -0.97947179790E+01  0.50528860806E+02  0.30000002906E+02 0.  0.
        -12    1    1    2    0    0  0.17122740953E+02 -0.35553352050E+02  0.97947179790E+01  0.40659139194E+02  0.00000000000E+00 0.  1.
         11    1    3    3    0    0 -0.33999276147E+01  0.23783275989E+01 -0.82503232067E+01  0.92349219396E+01  0.51100000000E-03 0. -1.
        -11    1    3    3    0    0 -0.17539368824E+02  0.24409879367E+02 -0.61529134514E+01  0.30681101898E+02  0.51100000000E-03 0.  1.
         12    1    3    3    0    0  0.38165554856E+01  0.87651450837E+01  0.46085186791E+01  0.10612836969E+02  0.00000000000E+00 0. -1.
</event>
<event>
 7    1  0.2974434E-011  0.5052886E+02  0.7816164E-02  0.1300439E+00
        -11   -1    0    0    0    0  0.00000000000E+00  0.00000000000E+00  0.45593999997E+02  0.45594000000E+02  0.51100000000E-03 0.  1.
         11   -1    0    0    0    0 -0.00000000000E+00 -0.00000000000E+00 -0.45593999997E+02  0.45594000000E+02  0.51100000000E-03 0. -1.
    9900012    2    1    2    0    0  0.20940714444E+02 -0.13028468112E+02 -0.32325082005E+02  0.50528862904E+02  0.30000009282E+02 0.  0.
        -12    1    1    2    0    0 -0.20940714444E+02  0.13028468112E+02  0.32325082005E+02  0.40659137096E+02  0.00000000000E+00 0.  1.
         11    1    3    3    0    0  0.21413661056E+00  0.33322155827E+01 -0.18238187175E+02  0.18541331853E+02  0.51100000000E-03 0. -1.
        -11    1    3    3    0    0  0.10843712271E+02 -0.38410128225E+01 -0.13640188739E+01  0.11584473362E+02  0.51100000000E-03 0.  1.
        -12    1    3    3    0    0  0.98828655620E+01 -0.12519670872E+02 -0.12722875957E+02  0.20403057689E+02  0.00000000000E+00 0.  1.
</event>
<event>
 7    1  0.2974434E-011  0.5052886E+02  0.7816164E-02  0.1300439E+00
        -11   -1    0    0    0    0  0.00000000000E+00  0.00000000000E+00  0.45593999997E+02  0.45594000000E+02  0.51100000000E-03 0.  1.
         11   -1    0    0    0    0 -0.00000000000E+00 -0.00000000000E+00 -0.45593999997E+02  0.45594000000E+02  0.51100000000E-03 0. -1.
    9900012    2    1    2    0    0  0.17279324130E+02 -0.32597273071E+02  0.17088258575E+02  0.50528857914E+02  0.29999994115E+02 0.  0.
        -12    1    1    2    0    0 -0.17279324130E+02  0.32597273071E+02 -0.17088258575E+02  0.40659142086E+02  0.00000000000E+00 0.  1.
         11    1    3    3    0    0  0.13662196931E+02 -0.11029543451E+02  0.14735083377E+02  0.22922241080E+02  0.51100000000E-03 0. -1.
        -11    1    3    3    0    0  0.45458208733E+01 -0.13818935574E+02  0.92102349187E+01  0.17217894625E+02  0.51100000000E-03 0.  1.
         12    1    3    3    0    0 -0.92869367474E+00 -0.77487940462E+01 -0.68570597213E+01  0.10388722209E+02  0.00000000000E+00 0. -1.
</event>
<event>
 7    1  0.2974434E-011  0.5052890E+02  0.7816164E-02  0.1300439E+00
        -11   -1    0    0    0    0  0.00000000000E+00  0.00000000000E+00  0.45593999997E+02  0.45594000000E+02  0.51100000000E-03 0. -1.
         11   -1    0    0    0    0 -0.00000000000E+00 -0.00000000000E+00 -0.45593999997E+02  0.45594000000E+02  0.51100000000E-03 0.  1.
    9900012    2    1    2    0    0  0.44603424981E+01 -0.40358857832E+02 -0.21047442025E+01  0.50528904968E+02  0.30000137139E+02 0.  0.
        -12    1    1    2    0    0 -0.44603424981E+01  0.40358857832E+02  0.21047442025E+01  0.40659095032E+02  0.00000000000E+00 0.  1.
         11    1    3    3    0    0 -0.36707463392E+01 -0.26265984582E+01 -0.30408210014E+01  0.54424250818E+01  0.51100000000E-03 0. -1.
        -11    1    3    3    0    0  0.17913162678E+01  0.92970501476E+00  0.52948502124E+01  0.56664454836E+01  0.51100000000E-03 0.  1.
        -12    1    3    3    0    0  0.63397725695E+01 -0.38661964388E+02 -0.43587734135E+01  0.39420034402E+02  0.00000000000E+00 0.  1.
</event>
<event>
 7    1  0.2974434E-011  0.5052886E+02  0.7816164E-02  0.1300439E+00
        -11   -1    0    0    0    0  0.00000000000E+00  0.00000000000E+00  0.45593999997E+02  0.45594000000E+02  0.51100000000E-03 0. -1.
         11   -1    0    0    0    0 -0.00000000000E+00 -0.00000000000E+00 -0.45593999997E+02  0.45594000000E+02  0.51100000000E-03 0.  1.
    9900012    2    1    2    0    0 -0.25075890336E+02  0.27787138301E+02 -0.15882073782E+02  0.50528860822E+02  0.30000002953E+02 0.  0.
        -12    1    1    2    0    0  0.25075890336E+02 -0.27787138301E+02  0.15882073782E+02  0.40659139178E+02  0.00000000000E+00 0.  1.
         11    1    3    3    0    0 -0.22788339255E+02  0.24951737794E+02 -0.88972570842E+01  0.34943651910E+02  0.51100000000E-03 0. -1.
        -11    1    3    3    0    0  0.52778967852E+00  0.70231537161E+01 -0.93072877178E-01  0.70435724520E+01  0.51100000000E-03 0.  1.
        -12    1    3    3    0    0 -0.28153407593E+01 -0.41877532082E+01 -0.68917438205E+01  0.85416364598E+01  0.00000000000E+00 0.  1.
</event>
<event>
 7    1  0.2974434E-011  0.5052886E+02  0.7816164E-02  0.1300439E+00
        -11   -1    0    0    0    0  0.00000000000E+00  0.00000000000E+00  0.45593999997E+02  0.45594000000E+02  0.51100000000E-03 0.  1.
         11   -1    0    0    0    0 -0.00000000000E+00 -0.00000000000E+00 -0.45593999997E+02  0.45594000000E+02  0.51100000000E-03 0. -1.
    9900012    2    1    2    0    0 -0.39736372923E+01 -0.37592486181E+02  0.14972659555E+02  0.50528863945E+02  0.30000012447E+02 0.  0.
        -12    1    1    2    0    0  0.39736372923E+01  0.37592486181E+02 -0.14972659555E+02  0.40659136055E+02  0.00000000000E+00 0.  1.
         11    1    3    3    0    0 -0.10116006127E+02 -0.93687523347E+01  0.12803407958E+01  0.13847251463E+02  0.51100000000E-03 0. -1.
        -11    1    3    3    0    0 -0.10217284666E+01 -0.20677302959E+02  0.15827180360E+02  0.26059440231E+02  0.51100000000E-03 0.  1.
         12    1    3    3    0    0  0.71640973013E+01 -0.75464308872E+01 -0.21348616010E+01  0.10622172251E+02  0.00000000000E+00 0. -1.
</event>
<event>
 7    1  0.2974434E-011  0.5052888E+02  0.7816164E-02  0.1300439E+00
        -11   -1    0    0    0    0  0.00000000000E+00  0.00000000000E+00  0.45593999997E+02  0.45594000000E+02  0.51100000000E-03 0.  1.
         11   -1    0    0    0    0 -0.00000000000E+00 -0.00000000000E+00 -0.45593999997E+02  0.45594000000E+02  0.51100000000E-03 0. -1.
    9900012    2    1    2    0    0 -0.16070053841E+02 -0.15362931737E+02 -0.34042590691E+02  0.50528877002E+02  0.30000052135E+02 0.  0.
        -12    1    1    2    0    0  0.16070053841E+02  0.15362931737E+02  0.34042590691E+02  0.40659122998E+02  0.00000000000E+00 0.  1.
         11    1    3    3    0    0  0.15485803317E+01  0.23706128092E+01 -0.10564819832E+01  0.30222608387E+01  0.51100000000E-03 0.  1.
        -11    1    3    3    0    0 -0.42114835890E+01  0.50604506125E+01 -0.12228750177E+02  0.13888379516E+02  0.51100000000E-03 0. -1.
         12    1    3    3    0    0 -0.13407150584E+02 -0.22793995159E+02 -0.20757358531E+02  0.33618236647E+02  0.00000000000E+00 0. -1.
</event>
<event>
 7    1  0.2974434E-011  0.5052886E+02  0.7816164E-02  0.1300439E+00
        -11   -1    0    0    0    0  0.00000000000E+00  0.00000000000E+00  0.45593999997E+02  0.45594000000E+02  0.51100000000E-03 0. -1.
         11   -1    0    0    0    0 -0.00000000000E+00 -0.00000000000E+00 -0.45593999997E+02  0.45594000000E+02  0.51100000000E-03 0.  1.
    9900012    2    1    2    0    0  0.52925168976E+01  0.65159278873E+01  0.39783132412E+02  0.50528859873E+02  0.30000000071E+02 0.  0.
        -12    1    1    2    0    0 -0.52925168976E+01 -0.65159278873E+01 -0.39783132412E+02  0.40659140127E+02  0.00000000000E+00 0.  1.
         11    1    3    3    0    0 -0.23487256559E+01  0.43283761443E+01 -0.23779278797E+01  0.54686281201E+01  0.51100000000E-03 0. -1.
        -11    1    3    3    0    0  0.26624918629E+01  0.17715621969E+01  0.66745055746E+00  0.32669230241E+01  0.51100000000E-03 0.  1.
         12    1    3    3    0    0  0.49787506906E+01  0.41598954608E+00  0.41493609734E+02  0.41793308729E+02  0.00000000000E+00 0. -1.
</event>
<event>
 7    1  0.2974434E-011  0.5052886E+02  0.7816164E-02  0.1300439E+00
        -11   -1    0    0    0    0  0.00000000000E+00  0.00000000000E+00  0.45593999997E+02  0.45594000000E+02  0.51100000000E-03 0.  1.
         11   -1    0    0    0    0 -0.00000000000E+00 -0.00000000000E+00 -0.45593999997E+02  0.45594000000E+02  0.51100000000E-03 0. -1.
    9900012    2    1    2    0    0 -0.38122254941E+00 -0.18806419993E+01 -0.40613835868E+02  0.50528858237E+02  0.29999995097E+02 0.  0.
        -12    1    1    2    0    0  0.38122254941E+00  0.18806419993E+01  0.40613835868E+02  0.40659141763E+02  0.00000000000E+00 0.  1.
         11    1    3    3    0    0 -0.52105883668E+01 -0.33789523649E+01 -0.31718644639E+02  0.32320890585E+02  0.51100000000E-03 0. -1.
        -11    1    3    3    0    0 -0.30535952950E+01 -0.27120422174E+01  0.16327444238E+01  0.43983487616E+01  0.51100000000E-03 0.  1.
        -12    1    3    3    0    0  0.78829611124E+01  0.42103525831E+01 -0.10527935653E+02  0.13809618890E+02  0.00000000000E+00 0.  1.
</event>
<event>
 7    1  0.2974434E-011  0.5052886E+02  0.7816164E-02  0.1300439E+00
        -11   -1    0    0    0    0  0.00000000000E+00  0.00000000000E+00  0.45593999997E+02  0.45594000000E+02  0.51100000000E-03 0.  1.
         11   -1    0    0    0    0 -0.00000000000E+00 -0.00000000000E+00 -0.45593999997E+02  0.45594000000E+02  0.51100000000E-03 0. -1.
    9900012    2    1    2    0    0 -0.26291948745E+02 -0.31001333063E+02  0.90342145942E+00  0.50528863378E+02  0.30000010724E+02 0.  0.
        -12    1    1    2    0    0  0.26291948745E+02  0.31001333063E+02 -0.90342145942E+00  0.40659136622E+02  0.00000000000E+00 0.  1.
         11    1    3    3    0    0 -0.60726547851E+01 -0.22787391790E+02  0.49478987409E+01  0.24096142076E+02  0.51100000000E-03 0. -1.
        -11    1    3    3    0    0 -0.87721474034E+01 -0.11260188582E+02 -0.20437560767E+01  0.14419409008E+02  0.51100000000E-03 0.  1.
        -12    1    3    3    0    0 -0.11447146557E+02  0.30462473082E+01 -0.20007212048E+01  0.12013312295E+02  0.00000000000E+00 0.  1.
</event>
<event>
 7    1  0.2974434E-011  0.5052885E+02  0.7816164E-02  0.1300439E+00
        -11   -1    0    0    0    0  0.00000000000E+00  0.00000000000E+00  0.45593999997E+02  0.45594000000E+02  0.51100000000E-03 0.  1.
         11   -1    0    0    0    0 -0.00000000000E+00 -0.00000000000E+00 -0.45593999997E+02  0.45594000000E+02  0.51100000000E-03 0. -1.
    9900012    2    1    2    0    0  0.12394283088E+02 -0.28604516026E+02 -0.26102304130E+02  0.50528845172E+02  0.29999955386E+02 0.  0.
        -12    1    1    2    0    0 -0.12394283088E+02  0.28604516026E+02  0.26102304130E+02  0.40659154828E+02  0.00000000000E+00 0.  1.
         11    1    3    3    0    0 -0.21573796786E+01 -0.16108534634E+02 -0.10743126841E+02  0.19482144382E+02  0.51100000000E-03 0. -1.
        -11    1    3    3    0    0  0.10585926089E+02 -0.25942456362E+01 -0.17061183206E+02  0.20245392420E+02  0.51100000000E-03 0.  1.
         12    1    3    3    0    0  0.39657366781E+01 -0.99017357563E+01  0.17020059166E+01  0.10801308371E+02  0.00000000000E+00 0. -1.
</event>
<event>
 7    1  0.2974434E-011  0.5052885E+02  0.7816164E-02  0.1300439E+00
        -11   -1    0    0    0    0  0.00000000000E+00  0.00000000000E+00  0.45593999997E+02  0.45594000000E+02  0.51100000000E-03 0.  1.
         11   -1    0    0    0    0 -0.00000000000E+00 -0.00000000000E+00 -0.45593999997E+02  0.45594000000E+02  0.51100000000E-03 0. -1.
    9900012    2    1    2    0    0  0.72542601963E+01 -0.36356905165E+02 -0.16694840036E+02  0.50528849394E+02  0.29999968218E+02 0.  0.
        -12    1    1    2    0    0 -0.72542601963E+01  0.36356905165E+02  0.16694840036E+02  0.40659150606E+02  0.00000000000E+00 0.  1.
         11    1    3    3    0    0  0.56188438468E+00 -0.54548339432E+01 -0.65677430616E+01  0.85560608105E+01  0.51100000000E-03 0. -1.
        -11    1    3    3    0    0  0.13601399133E+02 -0.22637763850E+02 -0.14751555944E+02  0.30250203529E+02  0.51100000000E-03 0.  1.
        -12    1    3    3    0    0 -0.69090233216E+01 -0.82643073721E+01  0.46244589699E+01  0.11722585055E+02  0.00000000000E+00 0.  1.
</event>
<event>
 7    1  0.2974434E-011  0.5052886E+02  0.7816164E-02  0.1300439E+00
        -11   -1    0    0    0    0  0.00000000000E+00  0.00000000000E+00  0.45593999997E+02  0.45594000000E+02  0.51100000000E-03 0.  1.
         11   -1    0    0    0    0 -0.00000000000E+00 -0.00000000000E+00 -0.45593999997E+02  0.45594000000E+02  0.51100000000E-03 0. -1.
    9900012    2    1    2    0    0  0.22691055420E+02 -0.26606688013E+02 -0.20745256244E+02  0.50528862040E+02  0.30000006656E+02 0.  0.
        -12    1    1    2    0    0 -0.22691055420E+02  0.26606688013E+02  0.20745256244E+02  0.40659137960E+02  0.00000000000E+00 0.  1.
         11    1    3    3    0    0  0.73929508964E+01 -0.18631129999E+02 -0.21246524718E+02  0.29209408431E+02  0.51100000000E-03 0. -1.
        -11    1    3    3    0    0  0.72882361138E+01 -0.84375380429E+01 -0.43222638965E+01  0.11957942939E+02  0.51100000000E-03 0.  1.
        -12    1    3    3    0    0  0.80098684097E+01  0.46198002951E+00  0.48235323713E+01  0.93615106701E+01  0.00000000000E+00 0.  1.
</event>
<event>
 7    1  0.2974434E-011  0.5052886E+02  0.7816164E-02  0.1300439E+00
        -11   -1    0    0    0    0  0.00000000000E+00  0.00000000000E+00  0.45593999997E+02  0.45594000000E+02  0.51100000000E-03 0. -1.
         11   -1    0    0    0    0 -0.00000000000E+00 -0.00000000000E+00 -0.45593999997E+02  0.45594000000E+02  0.51100000000E-03 0.  1.
    9900012    2    1    2    0    0  0.32421714336E+02  0.14616611705E+02  0.19706663054E+02  0.50528862442E+02  0.30000007880E+02 0.  0.
        -12    1    1    2    0    0 -0.32421714336E+02 -0.14616611705E+02 -0.19706663054E+02  0.40659137558E+02  0.00000000000E+00 0.  1.
         11    1    3    3    0    0  0.20944713229E+02  0.16197727046E+02  0.82209122654E+01  0.27724191106E+02  0.51100000000E-03 0. -1.
        -11    1    3    3    0    0  0.96079508532E+01 -0.32134818229E+00 -0.14075645589E+01  0.97158233054E+01  0.51100000000E-03 0.  1.
        -12    1    3    3    0    0  0.18690502530E+01 -0.12597671583E+01  0.12893315347E+02  0.13088848031E+02  0.00000000000E+00 0.  1.
</event>
<event>
 7    1  0.2974434E-011  0.5052885E+02  0.7816164E-02  0.1300439E+00
        -11   -1    0    0    0    0  0.00000000000E+00  0.00000000000E+00  0.45593999997E+02  0.45594000000E+02  0.51100000000E-03 0. -1.
         11   -1    0    0    0    0 -0.00000000000E+00 -0.00000000000E+00 -0.45593999997E+02  0.45594000000E+02  0.51100000000E-03 0.  1.
    9900012    2    1    2    0    0  0.23147298034E+02  0.33426343417E+02  0.22016214909E+00  0.50528852052E+02  0.29999976298E+02 0.  0.
        -12    1    1    2    0    0 -0.23147298034E+02 -0.33426343417E+02 -0.22016214909E+00  0.40659147948E+02  0.00000000000E+00 0.  1.
         11    1    3    3    0    0 -0.12447039987E+00  0.17295510561E+02  0.88599181452E+01  0.19433175969E+02  0.51100000000E-03 0.  1.
        -11    1    3    3    0    0  0.93922070425E+01  0.55779173399E+01  0.13404445878E+01  0.11005612520E+02  0.51100000000E-03 0. -1.
        -12    1    3    3    0    0  0.13879561391E+02  0.10552915516E+02 -0.99802005839E+01  0.20090063563E+02  0.00000000000E+00 0.  1.
</event>
<event>
 7    1  0.2974434E-011  0.5052886E+02  0.7816164E-02  0.1300439E+00
        -11   -1    0    0    0    0  0.00000000000E+00  0.00000000000E+00  0.45593999997E+02  0.45594000000E+02  0.51100000000E-03 0.  1.
         11   -1    0    0    0    0 -0.00000000000E+00 -0.00000000000E+00 -0.45593999997E+02  0.45594000000E+02  0.51100000000E-03 0. -1.
    9900012    2    1    2    0    0  0.33102324668E+02 -0.15110575630E+02 -0.18140351402E+02  0.50528859044E+02  0.29999997550E+02 0.  0.
        -12    1    1    2    0    0 -0.33102324668E+02  0.15110575630E+02  0.18140351402E+02  0.40659140956E+02  0.00000000000E+00 0.  1.
         11    1    3    3    0    0  0.10683360748E+00 -0.21092236262E+01  0.34043535194E+01  0.40062277608E+01  0.51100000000E-03 0.  1.
        -11    1    3    3    0    0  0.11081488643E+02 -0.75981958791E+01  0.23648925123E+01  0.13642752215E+02  0.51100000000E-03 0. -1.
        -12    1    3    3    0    0  0.21914002418E+02 -0.54031561245E+01 -0.23909597434E+02  0.32879879068E+02  0.00000000000E+00 0.  1.
</event>
<event>
 7    1  0.2974434E-011  0.5052890E+02  0.7816164E-02  0.1300439E+00
        -11   -1    0    0    0    0  0.00000000000E+00  0.00000000000E+00  0.45593999997E+02  0.45594000000E+02  0.51100000000E-03 0.  1.
         11   -1    0    0    0    0 -0.00000000000E+00 -0.00000000000E+00 -0.45593999997E+02  0.45594000000E+02  0.51100000000E-03 0. -1.
    9900012    2    1    2    0    0 -0.13800999617E+02 -0.18537443172E+02 -0.33452327306E+02  0.50528897797E+02  0.30000115343E+02 0.  0.
        -12    1    1    2    0    0  0.13800999617E+02  0.18537443172E+02  0.33452327306E+02  0.40659102203E+02  0.00000000000E+00 0.  1.
         11    1    3    3    0    0 -0.13247838989E+02 -0.67780822507E+01 -0.12437857137E+02  0.19394533438E+02  0.51100000000E-03 0. -1.
        -11    1    3    3    0    0  0.22426017339E+00 -0.16959078808E+02 -0.12279165425E+02  0.20938924291E+02  0.51100000000E-03 0.  1.
         12    1    3    3    0    0 -0.77742080165E+00  0.51997178870E+01 -0.87353047441E+01  0.10195440068E+02  0.00000000000E+00 0. -1.
</event>
<event>
 7    1  0.2974434E-011  0.5052885E+02  0.7816164E-02  0.1300439E+00
        -11   -1    0    0    0    0  0.00000000000E+00  0.00000000000E+00  0.45593999997E+02  0.45594000000E+02  0.51100000000E-03 0.  1.
         11   -1    0    0    0    0 -0.00000000000E+00 -0.00000000000E+00 -0.45593999997E+02  0.45594000000E+02  0.51100000000E-03 0. -1.
    9900012    2    1    2    0    0 -0.29905863280E+02 -0.62882130167E+01 -0.26819106288E+02  0.50528846744E+02  0.29999960162E+02 0.  0.
        -12    1    1    2    0    0  0.29905863280E+02  0.62882130167E+01  0.26819106288E+02  0.40659153256E+02  0.00000000000E+00 0.  1.
         11    1    3    3    0    0  0.24848598207E+01 -0.65042564054E+01 -0.98278725941E+00  0.70317672582E+01  0.51100000000E-03 0. -1.
        -11    1    3    3    0    0 -0.92362421112E+00  0.29206196450E+01 -0.72525526022E+00  0.31478717013E+01  0.51100000000E-03 0.  1.
        -12    1    3    3    0    0 -0.31467098889E+02 -0.27045762563E+01 -0.25111063768E+02  0.40349207784E+02  0.00000000000E+00 0.  1.
</event>
<event>
 7    1  0.2974434E-011  0.5052885E+02  0.7816164E-02  0.1300439E+00
        -11   -1    0    0    0    0  0.00000000000E+00  0.00000000000E+00  0.45593999997E+02  0.45594000000E+02  0.51100000000E-03 0. -1.
         11   -1    0    0    0    0 -0.00000000000E+00 -0.00000000000E+00 -0.45593999997E+02  0.45594000000E+02  0.51100000000E-03 0.  1.
    9900012    2    1    2    0    0  0.71174815647E+01 -0.39161977366E+02 -0.82974220502E+01  0.50528853086E+02  0.29999979441E+02 0.  0.
        -12    1    1    2    0    0 -0.71174815647E+01  0.39161977366E+02  0.82974220502E+01  0.40659146914E+02  0.00000000000E+00 0.  1.
         11    1    3    3    0    0 -0.31654902375E+01 -0.30384873041E+01 -0.29617793423E+00  0.43977784359E+01  0.51100000000E-03 0. -1.
        -11    1    3    3    0    0 -0.58540628171E+01 -0.12278030573E+02 -0.10567004744E+02  0.17224449940E+02  0.51100000000E-03 0.  1.
         12    1    3    3    0    0  0.16137034619E+02 -0.23845459489E+02  0.25657606279E+01  0.28906624710E+02  0.00000000000E+00 0. -1.
</event>
<event>
 7    1  0.2974434E-011  0.5052886E+02  0.7816164E-02  0.1300439E+00
        -11   -1    0    0    0    0  0.00000000000E+00  0.00000000000E+00  0.45593999997E+02  0.45594000000E+02  0.51100000000E-03 0. -1.
         11   -1    0    0    0    0 -0.00000000000E+00 -0.00000000000E+00 -0.45593999997E+02  0.45594000000E+02  0.51100000000E-03 0.  1.
    9900012    2    1    2    0    0  0.29583555192E+02  0.18669022178E+02  0.20723086923E+02  0.50528862546E+02  0.30000008195E+02 0.  0.
        -12    1    1    2    0    0 -0.29583555192E+02 -0.18669022178E+02 -0.20723086923E+02  0.40659137454E+02  0.00000000000E+00 0.  1.
         11    1    3    3    0    0  0.11038670542E+02 -0.18756439607E+01  0.62925893187E+01  0.12843946753E+02  0.51100000000E-03 0. -1.
        -11    1    3    3    0    0  0.28170627363E+01 -0.33293256148E+01  0.68286101661E+01  0.81024791621E+01  0.51100000000E-03 0.  1.
        -12    1    3    3    0    0  0.15727821914E+02  0.23873991753E+02  0.76018874383E+01  0.29582436631E+02  0.00000000000E+00 0.  1.
</event>
<event>
 7    1  0.2974434E-011  0.5052885E+02  0.7816164E-02  0.1300439E+00
        -11   -1    0    0    0    0  0.00000000000E+00  0.00000000000E+00  0.45593999997E+02  0.45594000000E+02  0.51100000000E-03 0.  1.
         11   -1    0    0    0    0 -0.00000000000E+00 -0.00000000000E+00 -0.45593999997E+02  0.45594000000E+02  0.51100000000E-03 0. -1.
    9900012    2    1    2    0    0  0.20351674625E+02 -0.13063710095E+02 -0.32685088232E+02  0.50528853745E+02  0.29999981443E+02 0.  0.
        -12    1    1    2    0    0 -0.20351674625E+02  0.13063710095E+02  0.32685088232E+02  0.40659146255E+02  0.00000000000E+00 0.  1.
         11    1    3    3    0    0  0.85684855695E+01 -0.44144740620E+01 -0.11978663102E+02  0.15375138899E+02  0.51100000000E-03 0. -1.
        -11    1    3    3    0    0  0.45806106841E+01  0.75066787161E+01 -0.13372554820E+02  0.16004919315E+02  0.51100000000E-03 0.  1.
        -12    1    3    3    0    0  0.72025783710E+01 -0.16155914749E+02 -0.73338703101E+01  0.19148795531E+02  0.00000000000E+00 0.  1.
</event>
<event>
 7    1  0.2974434E-011  0.5052886E+02  0.7816164E-02  0.1300439E+00
        -11   -1    0    0    0    0  0.00000000000E+00  0.00000000000E+00  0.45593999997E+02  0.45594000000E+02  0.51100000000E-03 0. -1.
         11   -1    0    0    0    0 -0.00000000000E+00 -0.00000000000E+00 -0.45593999997E+02  0.45594000000E+02  0.51100000000E-03 0.  1.
    9900012    2    1    2    0    0 -0.50754392680E+01 -0.18803817787E+02  0.35690637899E+02  0.50528864732E+02  0.30000014838E+02 0.  0.
        -12    1    1    2    0    0  0.50754392680E+01  0.18803817787E+02 -0.35690637899E+02  0.40659135268E+02  0.00000000000E+00 0.  1.
         11    1    3    3    0    0  0.99941803335E+00  0.17575532421E+01  0.13533347160E+01  0.24329703900E+01  0.51100000000E-03 0. -1.
        -11    1    3    3    0    0  0.81477477320E+01 -0.27679501317E+01  0.25228332865E+01  0.89672754552E+01  0.51100000000E-03 0.  1.
         12    1    3    3    0    0 -0.14222605033E+02 -0.17793420898E+02  0.31814469896E+02  0.39128618887E+02  0.00000000000E+00 0. -1.
</event>
<event>
 7    1  0.2974434E-011  0.5052886E+02  0.7816164E-02  0.1300439E+00
        -11   -1    0    0    0    0  0.00000000000E+00  0.00000000000E+00  0.45593999997E+02  0.45594000000E+02  0.51100000000E-03 0.  1.
         11   -1    0    0    0    0 -0.00000000000E+00 -0.00000000000E+00 -0.45593999997E+02  0.45594000000E+02  0.51100000000E-03 0. -1.
    9900012    2    1    2    0    0  0.58473652734E+01 -0.99989628952E+01 -0.38974286910E+02  0.50528856136E+02  0.29999988711E+02 0.  0.
        -12    1    1    2    0    0 -0.58473652734E+01  0.99989628952E+01  0.38974286910E+02  0.40659143864E+02  0.00000000000E+00 0.  1.
         11    1    3    3    0    0  0.57431328084E+00  0.22094093098E+01  0.16123884413E+01  0.27948384550E+01  0.51100000000E-03 0. -1.
        -11    1    3    3    0    0 -0.36342762010E+01 -0.42770388398E+01 -0.33273827688E+02  0.33743868095E+02  0.51100000000E-03 0.  1.
         12    1    3    3    0    0  0.89073281935E+01 -0.79313333652E+01 -0.73128476630E+01  0.13990149586E+02  0.00000000000E+00 0. -1.
</event>
<event>
 7    1  0.2974434E-011  0.5052886E+02  0.7816164E-02  0.1300439E+00
        -11   -1    0    0    0    0  0.00000000000E+00  0.00000000000E+00  0.45593999997E+02  0.45594000000E+02  0.51100000000E-03 0.  1.
         11   -1    0    0    0    0 -0.00000000000E+00 -0.00000000000E+00 -0.45593999997E+02  0.45594000000E+02  0.51100000000E-03 0. -1.
    9900012    2    1    2    0    0  0.32003370166E+02 -0.13711690908E+02 -0.20998559430E+02  0.50528859974E+02  0.30000000376E+02 0.  0.
        -12    1    1    2    0    0 -0.32003370166E+02  0.13711690908E+02  0.20998559430E+02  0.40659140026E+02  0.00000000000E+00 0.  1.
         11    1    3    3    0    0  0.19377571819E+02  0.13231466372E+01 -0.66224148683E+01  0.20520657533E+02  0.51100000000E-03 0. -1.
        -11    1    3    3    0    0  0.12451022458E+02 -0.12921184041E+02 -0.27059073825E+01  0.18146814935E+02  0.51100000000E-03 0.  1.
        -12    1    3    3    0    0  0.17477588864E+00 -0.21136535048E+01 -0.11670237179E+02  0.11861387506E+02  0.00000000000E+00 0.  1.
</event>
<event>
 7    1  0.2974434E-011  0.5052887E+02  0.7816164E-02  0.1300439E+00
        -11   -1    0    0    0    0  0.00000000000E+00  0.00000000000E+00  0.45593999997E+02  0.45594000000E+02  0.51100000000E-03 0. -1.
         11   -1    0    0    0    0 -0.00000000000E+00 -0.00000000000E+00 -0.45593999997E+02  0.45594000000E+02  0.51100000000E-03 0.  1.
    9900012    2    1    2    0    0  0.11417407461E+02 -0.11894081203E+01  0.39005040413E+02  0.50528867416E+02  0.30000022999E+02 0.  0.
        -12    1    1    2    0    0 -0.11417407461E+02  0.11894081203E+01 -0.39005040413E+02  0.40659132584E+02  0.00000000000E+00 0.  1.
         11    1    3    3    0    0  0.64133558129E+01 -0.55399022997E+01  0.14190316834E+02  0.16528361758E+02  0.51100000000E-03 0. -1.
        -11    1    3    3    0    0  0.81042769450E+01 -0.43907644721E+01  0.22682596957E+02  0.24483837984E+02  0.51100000000E-03 0.  1.
        -12    1    3    3    0    0 -0.31002252971E+01  0.87412586515E+01  0.21321266226E+01  0.95166676752E+01  0.00000000000E+00 0.  1.
</event>
<event>
 7    1  0.2974434E-011  0.5052886E+02  0.7816164E-02  0.1300439E+00
        -11   -1    0    0    0    0  0.00000000000E+00  0.00000000000E+00  0.45593999997E+02  0.45594000000E+02  0.51100000000E-03 0.  1.
         11   -1    0    0    0    0 -0.00000000000E+00 -0.00000000000E+00 -0.45593999997E+02  0.45594000000E+02  0.51100000000E-03 0. -1.
    9900012    2    1    2    0    0  0.93100430868E+01  0.10089104054E+02 -0.38271383899E+02  0.50528858981E+02  0.29999997358E+02 0.  0.
        -12    1    1    2    0    0 -0.93100430868E+01 -0.10089104054E+02  0.38271383899E+02  0.40659141019E+02  0.00000000000E+00 0.  1.
         11    1    3    3    0    0  0.25892739989E+01  0.71804857415E+01 -0.90863544662E+01  0.11866994273E+02  0.51100000000E-03 0. -1.
        -11    1    3    3    0    0  0.85023328744E+01  0.83523278568E+01 -0.30533706004E+02  0.32777404527E+02  0.51100000000E-03 0.  1.
        -12    1    3    3    0    0 -0.17815637864E+01 -0.54437095443E+01  0.13486765713E+01  0.58844601810E+01  0.00000000000E+00 0.  1.
</event>
<event>
 7    1  0.2974434E-011  0.5052888E+02  0.7816164E-02  0.1300439E+00
        -11   -1    0    0    0    0  0.00000000000E+00  0.00000000000E+00  0.45593999997E+02  0.45594000000E+02  0.51100000000E-03 0. -1.
         11   -1    0    0    0    0 -0.00000000000E+00 -0.00000000000E+00 -0.45593999997E+02  0.45594000000E+02  0.51100000000E-03 0.  1.
    9900012    2    1    2    0    0 -0.46421796852E+01  0.15128830528E+02  0.37453077871E+02  0.50528875718E+02  0.30000048233E+02 0.  0.
        -12    1    1    2    0    0  0.46421796852E+01 -0.15128830528E+02 -0.37453077871E+02  0.40659124282E+02  0.00000000000E+00 0.  1.
         11    1    3    3    0    0 -0.63590221491E-01 -0.27694729416E+01 -0.13062499707E+00  0.27732809525E+01  0.51100000000E-03 0.  1.
        -11    1    3    3    0    0 -0.13343283990E+02  0.73088263529E+01  0.15324763726E+02  0.21594225010E+02  0.51100000000E-03 0. -1.
         12    1    3    3    0    0  0.87646945259E+01  0.10589477116E+02  0.22258939142E+02  0.26161369755E+02  0.00000000000E+00 0. -1.
</event>
<event>
 7    1  0.2974434E-011  0.5052886E+02  0.7816164E-02  0.1300439E+00
        -11   -1    0    0    0    0  0.00000000000E+00  0.00000000000E+00  0.45593999997E+02  0.45594000000E+02  0.51100000000E-03 0. -1.
         11   -1    0    0    0    0 -0.00000000000E+00 -0.00000000000E+00 -0.45593999997E+02  0.45594000000E+02  0.51100000000E-03 0.  1.
    9900012    2    1    2    0    0 -0.28028917166E+02  0.21603621568E+02  0.20020719328E+02  0.50528857550E+02  0.29999993008E+02 0.  0.
        -12    1    1    2    0    0  0.28028917166E+02 -0.21603621568E+02 -0.20020719328E+02  0.40659142450E+02  0.00000000000E+00 0.  1.
         11    1    3    3    0    0 -0.87633231309E+01  0.61067240538E+01  0.11176910718E+02  0.15459988500E+02  0.51100000000E-03 0. -1.
        -11    1    3    3    0    0 -0.97933809774E+01  0.85206010683E+01  0.16528954960E+02  0.21017071772E+02  0.51100000000E-03 0.  1.
        -12    1    3    3    0    0 -0.94722130581E+01  0.69762964463E+01 -0.76851463496E+01  0.14051797278E+02  0.00000000000E+00 0.  1.
</event>
<event>
 7    1  0.2974434E-011  0.5052887E+02  0.7816164E-02  0.1300439E+00
        -11   -1    0    0    0    0  0.00000000000E+00  0.00000000000E+00  0.45593999997E+02  0.45594000000E+02  0.51100000000E-03 0.  1.
         11   -1    0    0    0    0 -0.00000000000E+00 -0.00000000000E+00 -0.45593999997E+02  0.45594000000E+02  0.51100000000E-03 0. -1.
    9900012    2    1    2    0    0  0.26742632912E+01 -0.12483524319E+02 -0.38602786886E+02  0.50528865492E+02  0.30000017150E+02 0.  0.
        -12    1    1    2    0    0 -0.26742632912E+01  0.12483524319E+02  0.38602786886E+02  0.40659134508E+02  0.00000000000E+00 0.  1.
         11    1    3    3    0    0 -0.79077729918E+01 -0.12587380390E+01 -0.69410943172E+01  0.10596984747E+02  0.51100000000E-03 0. -1.
        -11    1    3    3    0    0 -0.43790732734E+00 -0.80588805553E+01 -0.25843578175E+02  0.27074487101E+02  0.51100000000E-03 0.  1.
        -12    1    3    3    0    0  0.11019943610E+02 -0.31659057247E+01 -0.58181143936E+01  0.12857393645E+02  0.00000000000E+00 0.  1.
</event>
<event>
 7    1  0.2974434E-011  0.5052886E+02  0.7816164E-02  0.1300439E+00
        -11   -1    0    0    0    0  0.00000000000E+00  0.00000000000E+00  0.45593999997E+02  0.45594000000E+02  0.51100000000E-03 0.  1.
         11   -1    0    0    0    0 -0.00000000000E+00 -0.00000000000E+00 -0.45593999997E+02  0.45594000000E+02  0.51100000000E-03 0. -1.
    9900012    2    1    2    0    0  0.89748682403E+01 -0.26241911510E+02 -0.29731792382E+02  0.50528860094E+02  0.30000000743E+02 0.  0.
        -12    1    1    2    0    0 -0.89748682403E+01  0.26241911510E+02  0.29731792382E+02  0.40659139906E+02  0.00000000000E+00 0.  1.
         11    1    3    3    0    0  0.13042946840E+02 -0.16259617621E+02 -0.26266994315E+02  0.33532799139E+02  0.51100000000E-03 0. -1.
        -11    1    3    3    0    0  0.34445747031E+01 -0.33540883622E+01 -0.49121208768E+01  0.68734223933E+01  0.51100000000E-03 0.  1.
         12    1    3    3    0    0 -0.75126533029E+01 -0.66282055262E+01  0.14473228100E+01  0.10122638562E+02  0.00000000000E+00 0. -1.
</event>
<event>
 7    1  0.2974434E-011  0.5052886E+02  0.7816164E-02  0.1300439E+00
        -11   -1    0    0    0    0  0.00000000000E+00  0.00000000000E+00  0.45593999997E+02  0.45594000000E+02  0.51100000000E-03 0.  1.
         11   -1    0    0    0    0 -0.00000000000E+00 -0.00000000000E+00 -0.45593999997E+02  0.45594000000E+02  0.51100000000E-03 0. -1.
    9900012    2    1    2    0    0  0.12668780724E+02  0.31638155224E+02 -0.22174192176E+02  0.50528859949E+02  0.30000000301E+02 0.  0.
        -12    1    1    2    0    0 -0.12668780724E+02 -0.31638155224E+02  0.22174192176E+02  0.40659140051E+02  0.00000000000E+00 0.  1.
         11    1    3    3    0    0  0.56784725550E+01  0.12585441326E+02 -0.69382853978E+01  0.15452449270E+02  0.51100000000E-03 0. -1.
        -11    1    3    3    0    0  0.14282711218E+02  0.92367782625E+01 -0.15255188663E+02  0.22848078559E+02  0.51100000000E-03 0.  1.
        -12    1    3    3    0    0 -0.72924030496E+01  0.98159356355E+01  0.19281885038E-01  0.12228332120E+02  0.00000000000E+00 0.  1.
</event>
<event>
 7    1  0.2974434E-011  0.5052894E+02  0.7816164E-02  0.1300439E+00
        -11   -1    0    0    0    0  0.00000000000E+00  0.00000000000E+00  0.45593999997E+02  0.45594000000E+02  0.51100000000E-03 0.  1.
         11   -1    0    0    0    0 -0.00000000000E+00 -0.00000000000E+00 -0.45593999997E+02  0.45594000000E+02  0.51100000000E-03 0. -1.
    9900012    2    1    2    0    0  0.28661048357E+02  0.28767787722E+02 -0.20292785322E+01  0.50528938590E+02  0.30000239339E+02 0.  0.
        -12    1    1    2    0    0 -0.28661048357E+02 -0.28767787722E+02  0.20292785322E+01  0.40659061410E+02  0.00000000000E+00 0.  1.
         11    1    3    3    0    0  0.55177095190E+01  0.42471785696E+01  0.10592607783E+02  0.12676236983E+02  0.51100000000E-03 0. -1.
        -11    1    3    3    0    0 -0.26425182681E+00  0.49604929147E+01 -0.37471085541E+00  0.49816390346E+01  0.51100000000E-03 0.  1.
         12    1    3    3    0    0  0.23407590665E+02  0.19560116238E+02 -0.12247175459E+02  0.32871062573E+02  0.00000000000E+00 0. -1.
</event>
<event>
 7    1  0.2974434E-011  0.5052887E+02  0.7816164E-02  0.1300439E+00
        -11   -1    0    0    0    0  0.00000000000E+00  0.00000000000E+00  0.45593999997E+02  0.45594000000E+02  0.51100000000E-03 0.  1.
         11   -1    0    0    0    0 -0.00000000000E+00 -0.00000000000E+00 -0.45593999997E+02  0.45594000000E+02  0.51100000000E-03 0. -1.
    9900012    2    1    2    0    0  0.19449379974E+02 -0.11886213500E+02 -0.33669039806E+02  0.50528871945E+02  0.30000036764E+02 0.  0.
        -12    1    1    2    0    0 -0.19449379974E+02  0.11886213500E+02  0.33669039806E+02  0.40659128055E+02  0.00000000000E+00 0.  1.
         11    1    3    3    0    0  0.59732449402E+01  0.54682915678E+01 -0.95183644760E+01  0.12497244910E+02  0.51100000000E-03 0. -1.
        -11    1    3    3    0    0  0.11421664469E+02 -0.20545305963E+01 -0.17994531312E+02  0.21412115090E+02  0.51100000000E-03 0.  1.
        -12    1    3    3    0    0  0.20544705648E+01 -0.15299974471E+02 -0.61561440174E+01  0.16619511945E+02  0.00000000000E+00 0.  1.
</event>
<event>
 7    1  0.2974434E-011  0.5052886E+02  0.7816164E-02  0.1300439E+00
        -11   -1    0    0    0    0  0.00000000000E+00  0.00000000000E+00  0.45593999997E+02  0.45594000000E+02  0.51100000000E-03 0. -1.
         11   -1    0    0    0    0 -0.00000000000E+00 -0.00000000000E+00 -0.45593999997E+02  0.45594000000E+02  0.51100000000E-03 0.  1.
    9900012    2    1    2    0    0 -0.10836560914E+02 -0.29449352895E+02  0.25854790779E+02  0.50528860257E+02  0.30000001237E+02 0.  0.
        -12    1    1    2    0    0  0.10836560914E+02  0.29449352895E+02 -0.25854790779E+02  0.40659139743E+02  0.00000000000E+00 0.  1.
         11    1    3    3    0    0 -0.13842795456E+02 -0.20193204374E+02  0.18070314750E+02  0.30429011886E+02  0.51100000000E-03 0. -1.
        -11    1    3    3    0    0 -0.51602624605E+01 -0.89757078375E+01  0.46159521255E+01  0.11335724685E+02  0.51100000000E-03 0.  1.
        -12    1    3    3    0    0  0.81664970018E+01 -0.28044068333E+00  0.31685239043E+01  0.87641236863E+01  0.00000000000E+00 0.  1.
</event>
<event>
 7    1  0.2974434E-011  0.5052886E+02  0.7816164E-02  0.1300439E+00
        -11   -1    0    0    0    0  0.00000000000E+00  0.00000000000E+00  0.45593999997E+02  0.45594000000E+02  0.51100000000E-03 0. -1.
         11   -1    0    0    0    0 -0.00000000000E+00 -0.00000000000E+00 -0.45593999997E+02  0.45594000000E+02  0.51100000000E-03 0.  1.
    9900012    2    1    2    0    0  0.22324838530E+02 -0.26515924669E+02  0.21252596321E+02  0.50528861706E+02  0.30000005641E+02 0.  0.
        -12    1    1    2    0    0 -0.22324838530E+02  0.26515924669E+02 -0.21252596321E+02  0.40659138294E+02  0.00000000000E+00 0.  1.
         11    1    3    3    0    0  0.19756240630E+02 -0.21799828642E+02  0.79566699253E+01  0.30477043315E+02  0.51100000000E-03 0. -1.
        -11    1    3    3    0    0  0.28485318067E+01 -0.62925908353E+01  0.25399860685E+00  0.69119713850E+01  0.51100000000E-03 0.  1.
         12    1    3    3    0    0 -0.27993390633E+00  0.15764948088E+01  0.13041927789E+02  0.13139847006E+02  0.00000000000E+00 0. -1.
</event>
<event>
 7    1  0.2974434E-011  0.5052884E+02  0.7816164E-02  0.1300439E+00
        -11   -1    0    0    0    0  0.00000000000E+00  0.00000000000E+00  0.45593999997E+02  0.45594000000E+02  0.51100000000E-03 0. -1.
         11   -1    0    0    0    0 -0.00000000000E+00 -0.00000000000E+00 -0.45593999997E+02  0.45594000000E+02  0.51100000000E-03 0.  1.
    9900012    2    1    2    0    0  0.51159411758E+01 -0.35173969283E+02  0.19743011961E+02  0.50528837558E+02  0.29999932240E+02 0.  0.
        -12    1    1    2    0    0 -0.51159411758E+01  0.35173969283E+02 -0.19743011961E+02  0.40659162442E+02  0.00000000000E+00 0.  1.
         11    1    3    3    0    0  0.83074255047E+01 -0.26284648186E+02  0.15335981076E+02  0.31545021233E+02  0.51100000000E-03 0. -1.
        -11    1    3    3    0    0  0.53839301284E+00 -0.12928221110E+02  0.26114311950E+01  0.13200315953E+02  0.51100000000E-03 0.  1.
        -12    1    3    3    0    0 -0.37298773418E+01  0.40389000131E+01  0.17955996903E+01  0.57835003716E+01  0.00000000000E+00 0.  1.
</event>
<event>
 7    1  0.2974434E-011  0.5052886E+02  0.7816164E-02  0.1300439E+00
        -11   -1    0    0    0    0  0.00000000000E+00  0.00000000000E+00  0.45593999997E+02  0.45594000000E+02  0.51100000000E-03 0.  1.
         11   -1    0    0    0    0 -0.00000000000E+00 -0.00000000000E+00 -0.45593999997E+02  0.45594000000E+02  0.51100000000E-03 0. -1.
    9900012    2    1    2    0    0  0.35370440659E+02 -0.10517369180E+01  0.20024761855E+02  0.50528864368E+02  0.30000013734E+02 0.  0.
        -12    1    1    2    0    0 -0.35370440659E+02  0.10517369180E+01 -0.20024761855E+02  0.40659135632E+02  0.00000000000E+00 0.  1.
         11    1    3    3    0    0  0.11871130216E+02 -0.48719870830E+01  0.69240187680E+01  0.14580878811E+02  0.51100000000E-03 0. -1.
        -11    1    3    3    0    0  0.10505597001E+02 -0.99032263008E+01  0.40574289524E+01  0.14996805976E+02  0.51100000000E-03 0.  1.
         12    1    3    3    0    0  0.12993713441E+02  0.13723476466E+02  0.90433141344E+01  0.20951179581E+02  0.00000000000E+00 0. -1.
</event>
<event>
 7    1  0.2974434E-011  0.5052885E+02  0.7816164E-02  0.1300439E+00
        -11   -1    0    0    0    0  0.00000000000E+00  0.00000000000E+00  0.45593999997E+02  0.45594000000E+02  0.51100000000E-03 0. -1.
         11   -1    0    0    0    0 -0.00000000000E+00 -0.00000000000E+00 -0.45593999997E+02  0.45594000000E+02  0.51100000000E-03 0.  1.
    9900012    2    1    2    0    0 -0.55255894024E+01 -0.40109789912E+02  0.37200999449E+01  0.50528849386E+02  0.29999968194E+02 0.  0.
        -12    1    1    2    0    0  0.55255894024E+01  0.40109789912E+02 -0.37200999449E+01  0.40659150614E+02  0.00000000000E+00 0.  1.
         11    1    3    3    0    0 -0.87427872380E+01 -0.38029243225E+01  0.16501623659E+01  0.96758254524E+01  0.51100000000E-03 0.  1.
        -11    1    3    3    0    0 -0.54632359875E+01 -0.11719802200E+02 -0.49572757969E+01  0.13848295730E+02  0.51100000000E-03 0. -1.
         12    1    3    3    0    0  0.86804338231E+01 -0.24587063390E+02  0.70272133759E+01  0.27004728203E+02  0.00000000000E+00 0. -1.
</event>
<event>
 7    1  0.2974434E-011  0.5052885E+02  0.7816164E-02  0.1300439E+00
        -11   -1    0    0    0    0  0.00000000000E+00  0.00000000000E+00  0.45593999997E+02  0.45594000000E+02  0.51100000000E-03 0. -1.
         11   -1    0    0    0    0 -0.00000000000E+00 -0.00000000000E+00 -0.45593999997E+02  0.45594000000E+02  0.51100000000E-03 0.  1.
    9900012    2    1    2    0    0  0.36889702437E+02 -0.34672329457E+01  0.16741992666E+02  0.50528853813E+02  0.29999981650E+02 0.  0.
        -12    1    1    2    0    0 -0.36889702437E+02  0.34672329457E+01 -0.16741992666E+02  0.40659146187E+02  0.00000000000E+00 0.  1.
         11    1    3    3    0    0  0.96857940818E+01 -0.73757496426E+01 -0.95838866112E+00  0.12212075944E+02  0.51100000000E-03 0.  1.
        -11    1    3    3    0    0  0.23011466828E+02  0.49063976004E+01  0.22012489328E+02  0.32220335654E+02  0.51100000000E-03 0. -1.
         12    1    3    3    0    0  0.41924415277E+01 -0.99788090349E+00 -0.43121080010E+01  0.60964422144E+01  0.00000000000E+00 0. -1.
</event>
<event>
 7    1  0.2974434E-011  0.5052885E+02  0.7816164E-02  0.1300439E+00
        -11   -1    0    0    0    0  0.00000000000E+00  0.00000000000E+00  0.45593999997E+02  0.45594000000E+02  0.51100000000E-03 0.  1.
         11   -1    0    0    0    0 -0.00000000000E+00 -0.00000000000E+00 -0.45593999997E+02  0.45594000000E+02  0.51100000000E-03 0. -1.
    9900012    2    1    2    0    0  0.18931333760E+02  0.75726186457E+01 -0.35177073382E+02  0.50528850442E+02  0.29999971402E+02 0.  0.
        -12    1    1    2    0    0 -0.18931333760E+02 -0.75726186457E+01  0.35177073382E+02  0.40659149558E+02  0.00000000000E+00 0.  1.
         11    1    3    3    0    0  0.33628579612E+00 -0.17594299304E+01 -0.83279079395E+00  0.19754044103E+01  0.51100000000E-03 0. -1.
        -11    1    3    3    0    0  0.12744103444E+02 -0.86139628904E+01 -0.13968010342E+02  0.20777820926E+02  0.51100000000E-03 0.  1.
         12    1    3    3    0    0  0.58509445205E+01  0.17946011467E+02 -0.20376272246E+02  0.27775625105E+02  0.00000000000E+00 0. -1.
</event>
<event>
 7    1  0.2974434E-011  0.5052888E+02  0.7816164E-02  0.1300439E+00
        -11   -1    0    0    0    0  0.00000000000E+00  0.00000000000E+00  0.45593999997E+02  0.45594000000E+02  0.51100000000E-03 0. -1.
         11   -1    0    0    0    0 -0.00000000000E+00 -0.00000000000E+00 -0.45593999997E+02  0.45594000000E+02  0.51100000000E-03 0.  1.
    9900012    2    1    2    0    0  0.39015664602E+02  0.10707716911E+02  0.40357065955E+01  0.50528877856E+02  0.30000054730E+02 0.  0.
        -12    1    1    2    0    0 -0.39015664602E+02 -0.10707716911E+02 -0.40357065955E+01  0.40659122144E+02  0.00000000000E+00 0.  1.
         11    1    3    3    0    0 -0.19738994022E+01 -0.11313391371E+01 -0.32792995516E+01  0.39912420252E+01  0.51100000000E-03 0.  1.
        -11    1    3    3    0    0  0.28501547368E+02  0.13902961018E+01 -0.35775775424E+00  0.28537678891E+02  0.51100000000E-03 0. -1.
        -12    1    3    3    0    0  0.12488016637E+02  0.10448759946E+02  0.76727639013E+01  0.17999956939E+02  0.00000000000E+00 0.  1.
</event>
<event>
 7    1  0.3316865E-011  0.5052888E+02  0.7816164E-02  0.1300439E+00
        -11   -1    0    0    0    0  0.00000000000E+00  0.00000000000E+00  0.45593999997E+02  0.45594000000E+02  0.51100000000E-03 0.  1.
         11   -1    0    0    0    0 -0.00000000000E+00 -0.00000000000E+00 -0.45593999997E+02  0.45594000000E+02  0.51100000000E-03 0. -1.
    9900012    2    1    2    0    0 -0.28371284692E+02 -0.26419365377E+02 -0.12257718025E+02  0.50528876630E+02  0.30000051004E+02 0.  0.
        -12    1    1    2    0    0  0.28371284692E+02  0.26419365377E+02  0.12257718025E+02  0.40659123370E+02  0.00000000000E+00 0.  1.
         11    1    3    3    0    0 -0.88971984919E+01 -0.18839756186E+02 -0.40017598004E+01  0.21215810989E+02  0.51100000000E-03 0. -1.
        -11    1    3    3    0    0 -0.12734833553E+02 -0.54286249333E+01 -0.14376820352E+02  0.19958429748E+02  0.51100000000E-03 0.  1.
        -12    1    3    3    0    0 -0.67392526468E+01 -0.21509842585E+01  0.61208621274E+01  0.93546358936E+01  0.00000000000E+00 0.  1.
</event>
<event>
 7    1  0.2974434E-011  0.5052886E+02  0.7816164E-02  0.1300439E+00
        -11   -1    0    0    0    0  0.00000000000E+00  0.00000000000E+00  0.45593999997E+02  0.45594000000E+02  0.51100000000E-03 0. -1.
         11   -1    0    0    0    0 -0.00000000000E+00 -0.00000000000E+00 -0.45593999997E+02  0.45594000000E+02  0.51100000000E-03 0.  1.
    9900012    2    1    2    0    0  0.20132068143E+02  0.11794535314E+02  0.33297960132E+02  0.50528863512E+02  0.30000011132E+02 0.  0.
        -12    1    1    2    0    0 -0.20132068143E+02 -0.11794535314E+02 -0.33297960132E+02  0.40659136488E+02  0.00000000000E+00 0.  1.
         11    1    3    3    0    0  0.54595246452E+01  0.17442876753E+01  0.11496917789E+02  0.12846325068E+02  0.51100000000E-03 0. -1.
        -11    1    3    3    0    0 -0.69066517923E+00  0.76545621062E+01  0.20716121547E+02  0.22095860057E+02  0.51100000000E-03 0.  1.
        -12    1    3    3    0    0  0.15363208677E+02  0.23956855321E+01  0.10849207959E+01  0.15586678388E+02  0.00000000000E+00 0.  1.
</event>
<event>
 7    1  0.2974434E-011  0.5052887E+02  0.7816164E-02  0.1300439E+00
        -11   -1    0    0    0    0  0.00000000000E+00  0.00000000000E+00  0.45593999997E+02  0.45594000000E+02  0.51100000000E-03 0.  1.
         11   -1    0    0    0    0 -0.00000000000E+00 -0.00000000000E+00 -0.45593999997E+02  0.45594000000E+02  0.51100000000E-03 0. -1.
    9900012    2    1    2    0    0  0.21550745745E+01 -0.39624437216E+02 -0.88557500035E+01  0.50528872129E+02  0.30000037323E+02 0.  0.
        -12    1    1    2    0    0 -0.21550745745E+01  0.39624437216E+02  0.88557500035E+01  0.40659127871E+02  0.00000000000E+00 0.  1.
         11    1    3    3    0    0 -0.38070661376E+00  0.41440494805E+01 -0.24873570403E+01  0.48481985241E+01  0.51100000000E-03 0. -1.
        -11    1    3    3    0    0  0.42693125116E+01 -0.56945187161E+01 -0.78212103973E+00  0.71600479266E+01  0.51100000000E-03 0.  1.
         12    1    3    3    0    0 -0.17335313233E+01 -0.38073967980E+02 -0.55862719234E+01  0.38520625678E+02  0.00000000000E+00 0. -1.
</event>
<event>
 7    1  0.2974434E-011  0.5052886E+02  0.7816164E-02  0.1300439E+00
        -11   -1    0    0    0    0  0.00000000000E+00  0.00000000000E+00  0.45593999997E+02  0.45594000000E+02  0.51100000000E-03 0. -1.
         11   -1    0    0    0    0 -0.00000000000E+00 -0.00000000000E+00 -0.45593999997E+02  0.45594000000E+02  0.51100000000E-03 0.  1.
    9900012    2    1    2    0    0  0.36704264446E+02  0.16588190661E+02 -0.55493155458E+01  0.50528855875E+02  0.29999987918E+02 0.  0.
        -12    1    1    2    0    0 -0.36704264446E+02 -0.16588190661E+02  0.55493155458E+01  0.40659144125E+02  0.00000000000E+00 0.  1.
         11    1    3    3    0    0  0.32549051714E+02  0.40406578128E+01 -0.97596208615E+01  0.34220138555E+02  0.51100000000E-03 0.  1.
        -11    1    3    3    0    0  0.45586586865E+01  0.27490283038E+01  0.37109662757E+01  0.64892061607E+01  0.51100000000E-03 0. -1.
        -12    1    3    3    0    0 -0.40344595480E+00  0.97985045442E+01  0.49933903999E+00  0.98195111599E+01  0.00000000000E+00 0.  1.
</event>
<event>
 7    1  0.2974434E-011  0.5052887E+02  0.7816164E-02  0.1300439E+00
        -11   -1    0    0    0    0  0.00000000000E+00  0.00000000000E+00  0.45593999997E+02  0.45594000000E+02  0.51100000000E-03 0. -1.
         11   -1    0    0    0    0 -0.00000000000E+00 -0.00000000000E+00 -0.45593999997E+02  0.45594000000E+02  0.51100000000E-03 0.  1.
    9900012    2    1    2    0    0 -0.36135357860E+02  0.14151471211E+02  0.12129998251E+02  0.50528867168E+02  0.30000022244E+02 0.  0.
        -12    1    1    2    0    0  0.36135357860E+02 -0.14151471211E+02 -0.12129998251E+02  0.40659132832E+02  0.00000000000E+00 0.  1.
         11    1    3    3    0    0 -0.47109456739E+01 -0.18826708544E+01  0.37623987145E+00  0.50871421634E+01  0.51100000000E-03 0. -1.
        -11    1    3    3    0    0  0.37062076023E+01  0.30562566910E+01 -0.24439281416E+01  0.53897555394E+01  0.51100000000E-03 0.  1.
         12    1    3    3    0    0 -0.35130619788E+02  0.12977885374E+02  0.14197686521E+02  0.40051969465E+02  0.00000000000E+00 0. -1.
</event>
<event>
 7    1  0.2974434E-011  0.5052886E+02  0.7816164E-02  0.1300439E+00
        -11   -1    0    0    0    0  0.00000000000E+00  0.00000000000E+00  0.45593999997E+02  0.45594000000E+02  0.51100000000E-03 0. -1.
         11   -1    0    0    0    0 -0.00000000000E+00 -0.00000000000E+00 -0.45593999997E+02  0.45594000000E+02  0.51100000000E-03 0.  1.
    9900012    2    1    2    0    0  0.93016866772E+01 -0.28440318876E+02  0.27528035040E+02  0.50528858027E+02  0.29999994457E+02 0.  0.
        -12    1    1    2    0    0 -0.93016866772E+01  0.28440318876E+02 -0.27528035040E+02  0.40659141973E+02  0.00000000000E+00 0.  1.
         11    1    3    3    0    0 -0.48500556270E+01 -0.72623941259E+01  0.10327692620E+02  0.13525037639E+02  0.51100000000E-03 0.  1.
        -11    1    3    3    0    0 -0.35971227790E+01 -0.11836010797E+02  0.40360034605E+01  0.13012292960E+02  0.51100000000E-03 0. -1.
         12    1    3    3    0    0  0.17748865083E+02 -0.93419139531E+01  0.13164338960E+02  0.23991527427E+02  0.00000000000E+00 0. -1.
</event>
<event>
 7    1  0.2974434E-011  0.5052886E+02  0.7816164E-02  0.1300439E+00
        -11   -1    0    0    0    0  0.00000000000E+00  0.00000000000E+00  0.45593999997E+02  0.45594000000E+02  0.51100000000E-03 0.  1.
         11   -1    0    0    0    0 -0.00000000000E+00 -0.00000000000E+00 -0.45593999997E+02  0.45594000000E+02  0.51100000000E-03 0. -1.
    9900012    2    1    2    0    0 -0.36034054292E+02  0.18648392323E+01 -0.18741253431E+02  0.50528864811E+02  0.30000015081E+02 0.  0.
        -12    1    1    2    0    0  0.36034054292E+02 -0.18648392323E+01  0.18741253431E+02  0.40659135189E+02  0.00000000000E+00 0.  1.
         11    1    3    3    0    0 -0.13594105029E+02  0.33027797582E+00 -0.34604614284E+01  0.14031520539E+02  0.51100000000E-03 0. -1.
        -11    1    3    3    0    0 -0.23164066261E+02 -0.38974200360E+01 -0.38260141853E+01  0.23799206572E+02  0.51100000000E-03 0.  1.
         12    1    3    3    0    0  0.72411699753E+00  0.54319812925E+01 -0.11454777818E+02  0.12698137700E+02  0.00000000000E+00 0. -1.
</event>
<event>
 7    1  0.2974434E-011  0.5052886E+02  0.7816164E-02  0.1300439E+00
        -11   -1    0    0    0    0  0.00000000000E+00  0.00000000000E+00  0.45593999997E+02  0.45594000000E+02  0.51100000000E-03 0.  1.
         11   -1    0    0    0    0 -0.00000000000E+00 -0.00000000000E+00 -0.45593999997E+02  0.45594000000E+02  0.51100000000E-03 0. -1.
    9900012    2    1    2    0    0  0.14948484197E+02  0.33263999209E+02  0.17978176519E+02  0.50528860140E+02  0.30000000883E+02 0.  0.
        -12    1    1    2    0    0 -0.14948484197E+02 -0.33263999209E+02 -0.17978176519E+02  0.40659139860E+02  0.00000000000E+00 0.  1.
         11    1    3    3    0    0  0.18576734721E+02  0.15749002934E+02  0.30882626324E+01  0.24549206354E+02  0.51100000000E-03 0. -1.
        -11    1    3    3    0    0  0.35525947251E+01  0.53454082343E+01  0.16758309694E+01  0.66334552212E+01  0.51100000000E-03 0.  1.
        -12    1    3    3    0    0 -0.71808452482E+01  0.12169588040E+02  0.13214082918E+02  0.19346198565E+02  0.00000000000E+00 0.  1.
</event>
<event>
 7    1  0.2974434E-011  0.5052885E+02  0.7816164E-02  0.1300439E+00
        -11   -1    0    0    0    0  0.00000000000E+00  0.00000000000E+00  0.45593999997E+02  0.45594000000E+02  0.51100000000E-03 0.  1.
         11   -1    0    0    0    0 -0.00000000000E+00 -0.00000000000E+00 -0.45593999997E+02  0.45594000000E+02  0.51100000000E-03 0. -1.
    9900012    2    1    2    0    0 -0.32071791371E+02 -0.16922953659E+02 -0.18389671773E+02  0.50528853548E+02  0.29999980844E+02 0.  0.
        -12    1    1    2    0    0  0.32071791371E+02  0.16922953659E+02  0.18389671773E+02  0.40659146452E+02  0.00000000000E+00 0.  1.
         11    1    3    3    0    0 -0.22012856760E+02 -0.10593004372E+02 -0.33272249877E+00  0.24431297733E+02  0.51100000000E-03 0. -1.
        -11    1    3    3    0    0 -0.60723981947E+01 -0.38340874723E+01  0.26015679638E+00  0.71862318638E+01  0.51100000000E-03 0.  1.
         12    1    3    3    0    0 -0.39865364160E+01 -0.24958618146E+01 -0.18317106070E+02  0.18911323951E+02  0.00000000000E+00 0. -1.
</event>
<event>
 7    1  0.2974434E-011  0.5052886E+02  0.7816164E-02  0.1300439E+00
        -11   -1    0    0    0    0  0.00000000000E+00  0.00000000000E+00  0.45593999997E+02  0.45594000000E+02  0.51100000000E-03 0.  1.
         11   -1    0    0    0    0 -0.00000000000E+00 -0.00000000000E+00 -0.45593999997E+02  0.45594000000E+02  0.51100000000E-03 0. -1.
    9900012    2    1    2    0    0  0.15051851905E+02 -0.23039932723E+02 -0.29929396404E+02  0.50528861854E+02  0.30000006092E+02 0.  0.
        -12    1    1    2    0    0 -0.15051851905E+02  0.23039932723E+02  0.29929396404E+02  0.40659138146E+02  0.00000000000E+00 0.  1.
         11    1    3    3    0    0  0.56620165157E+01 -0.18178074179E+01 -0.46469208144E+01  0.75469681428E+01  0.51100000000E-03 0. -1.
        -11    1    3    3    0    0  0.82656988601E+01  0.85689127094E+00  0.12963565356E+01  0.84105041956E+01  0.51100000000E-03 0.  1.
        -12    1    3    3    0    0  0.11241365293E+01 -0.22079016576E+02 -0.26578832126E+02  0.34571389516E+02  0.00000000000E+00 0.  1.
</event>
<event>
 7    1  0.2974434E-011  0.5052886E+02  0.7816164E-02  0.1300439E+00
        -11   -1    0    0    0    0  0.00000000000E+00  0.00000000000E+00  0.45593999997E+02  0.45594000000E+02  0.51100000000E-03 0.  1.
         11   -1    0    0    0    0 -0.00000000000E+00 -0.00000000000E+00 -0.45593999997E+02  0.45594000000E+02  0.51100000000E-03 0. -1.
    9900012    2    1    2    0    0  0.97364787022E+01  0.15671690126E+02 -0.36232097016E+02  0.50528859046E+02  0.29999997557E+02 0.  0.
        -12    1    1    2    0    0 -0.97364787022E+01 -0.15671690126E+02  0.36232097016E+02  0.40659140954E+02  0.00000000000E+00 0.  1.
         11    1    3    3    0    0 -0.45910549705E+01 -0.15710401252E+01 -0.13414295805E+02  0.14264967053E+02  0.51100000000E-03 0. -1.
        -11    1    3    3    0    0  0.11776711299E+02  0.18521434598E+01 -0.13832097931E+02  0.18260566745E+02  0.51100000000E-03 0.  1.
        -12    1    3    3    0    0  0.25508223734E+01  0.15390586791E+02 -0.89857032799E+01  0.18003325248E+02  0.00000000000E+00 0.  1.
</event>
<event>
 7    1  0.2974434E-011  0.5052882E+02  0.7816164E-02  0.1300439E+00
        -11   -1    0    0    0    0  0.00000000000E+00  0.00000000000E+00  0.45593999997E+02  0.45594000000E+02  0.51100000000E-03 0. -1.
         11   -1    0    0    0    0 -0.00000000000E+00 -0.00000000000E+00 -0.45593999997E+02  0.45594000000E+02  0.51100000000E-03 0.  1.
    9900012    2    1    2    0    0  0.16707082067E+02 -0.37038183041E+02 -0.14884616858E+01  0.50528817613E+02  0.29999871617E+02 0.  0.
        -12    1    1    2    0    0 -0.16707082067E+02  0.37038183041E+02  0.14884616858E+01  0.40659182387E+02  0.00000000000E+00 0.  1.
         11    1    3    3    0    0  0.63080499445E+01 -0.16897059086E+02  0.84374494436E+01  0.19912123273E+02  0.51100000000E-03 0.  1.
        -11    1    3    3    0    0 -0.15637927333E+01  0.22389557158E+01  0.11051091790E+01  0.29461223615E+01  0.51100000000E-03 0. -1.
        -12    1    3    3    0    0  0.11962824856E+02 -0.22380079671E+02 -0.11031020308E+02  0.27670571979E+02  0.00000000000E+00 0.  1.
</event>
<event>
 7    1  0.2974434E-011  0.5052898E+02  0.7816164E-02  0.1300438E+00
        -11   -1    0    0    0    0  0.00000000000E+00  0.00000000000E+00  0.45593999997E+02  0.45594000000E+02  0.51100000000E-03 0.  1.
         11   -1    0    0    0    0 -0.00000000000E+00 -0.00000000000E+00 -0.45593999997E+02  0.45594000000E+02  0.51100000000E-03 0. -1.
    9900012    2    1    2    0    0  0.11387128667E+01 -0.14924547361E+02 -0.37803669251E+02  0.50528976527E+02  0.30000354649E+02 0.  0.
        -12    1    1    2    0    0 -0.11387128667E+01  0.14924547361E+02  0.37803669251E+02  0.40659023473E+02  0.00000000000E+00 0.  1.
         11    1    3    3    0    0  0.74586655399E+01  0.25404692131E+00 -0.17884092571E+01  0.76742842928E+01  0.51100000000E-03 0. -1.
        -11    1    3    3    0    0  0.13763731490E+01 -0.12659374153E+01  0.13106083787E+01  0.22835707058E+01  0.51100000000E-03 0.  1.
         12    1    3    3    0    0 -0.76963258221E+01 -0.13912656867E+02 -0.37325868373E+02  0.40571121528E+02  0.00000000000E+00 0. -1.
</event>
<event>
 7    1  0.2974434E-011  0.5052887E+02  0.7816164E-02  0.1300439E+00
        -11   -1    0    0    0    0  0.00000000000E+00  0.00000000000E+00  0.45593999997E+02  0.45594000000E+02  0.51100000000E-03 0. -1.
         11   -1    0    0    0    0 -0.00000000000E+00 -0.00000000000E+00 -0.45593999997E+02  0.45594000000E+02  0.51100000000E-03 0.  1.
    9900012    2    1    2    0    0 -0.14175543511E+02 -0.26687280629E+02  0.27203092789E+02  0.50528865252E+02  0.30000016419E+02 0.  0.
        -12    1    1    2    0    0  0.14175543511E+02  0.26687280629E+02 -0.27203092789E+02  0.40659134748E+02  0.00000000000E+00 0.  1.
         11    1    3    3    0    0 -0.10064908189E+02 -0.15060549942E+02  0.90114185955E+01  0.20231861179E+02  0.51100000000E-03 0. -1.
        -11    1    3    3    0    0 -0.55992555489E+01 -0.99361952560E+01 -0.55187420614E+00  0.11418590292E+02  0.51100000000E-03 0.  1.
        -12    1    3    3    0    0  0.14886202277E+01 -0.16905354308E+01  0.18743548400E+02  0.18878413780E+02  0.00000000000E+00 0.  1.
</event>
<event>
 7    1  0.2974434E-011  0.5052886E+02  0.7816164E-02  0.1300439E+00
        -11   -1    0    0    0    0  0.00000000000E+00  0.00000000000E+00  0.45593999997E+02  0.45594000000E+02  0.51100000000E-03 0. -1.
         11   -1    0    0    0    0 -0.00000000000E+00 -0.00000000000E+00 -0.45593999997E+02  0.45594000000E+02  0.51100000000E-03 0.  1.
    9900012    2    1    2    0    0 -0.35653447676E+02  0.11830872011E+02 -0.15557236551E+02  0.50528862370E+02  0.30000007660E+02 0.  0.
        -12    1    1    2    0    0  0.35653447676E+02 -0.11830872011E+02  0.15557236551E+02  0.40659137630E+02  0.00000000000E+00 0.  1.
         11    1    3    3    0    0 -0.17612878927E+02 -0.74054890881E+01 -0.91628362637E+01  0.21189911311E+02  0.51100000000E-03 0.  1.
        -11    1    3    3    0    0 -0.45527458550E+01  0.33958365936E+01  0.30993242461E+01  0.64703177692E+01  0.51100000000E-03 0. -1.
        -12    1    3    3    0    0 -0.13487822894E+02  0.15840524505E+02 -0.94937245332E+01  0.22868633290E+02  0.00000000000E+00 0.  1.
</event>
<event>
 7    1  0.2974434E-011  0.5052886E+02  0.7816164E-02  0.1300439E+00
        -11   -1    0    0    0    0  0.00000000000E+00  0.00000000000E+00  0.45593999997E+02  0.45594000000E+02  0.51100000000E-03 0. -1.
         11   -1    0    0    0    0 -0.00000000000E+00 -0.00000000000E+00 -0.45593999997E+02  0.45594000000E+02  0.51100000000E-03 0.  1.
    9900012    2    1    2    0    0  0.11192553154E+02  0.33537985437E+02  0.20077243147E+02  0.50528863195E+02  0.30000010169E+02 0.  0.
        -12    1    1    2    0    0 -0.11192553154E+02 -0.33537985437E+02 -0.20077243147E+02  0.40659136805E+02  0.00000000000E+00 0.  1.
         11    1    3    3    0    0  0.34908686574E+01  0.21794098378E+02  0.24348382720E+02  0.32863545600E+02  0.51100000000E-03 0. -1.
        -11    1    3    3    0    0 -0.20761824880E+01  0.24874825486E+01  0.69602916897E+00  0.33139945712E+01  0.51100000000E-03 0.  1.
        -12    1    3    3    0    0  0.97778669846E+01  0.92564045109E+01 -0.49671687414E+01  0.14351323024E+02  0.00000000000E+00 0.  1.
</event>
<event>
 7    1  0.2974434E-011  0.5052888E+02  0.7816164E-02  0.1300439E+00
        -11   -1    0    0    0    0  0.00000000000E+00  0.00000000000E+00  0.45593999997E+02  0.45594000000E+02  0.51100000000E-03 0.  1.
         11   -1    0    0    0    0 -0.00000000000E+00 -0.00000000000E+00 -0.45593999997E+02  0.45594000000E+02  0.51100000000E-03 0. -1.
    9900012    2    1    2    0    0  0.35659892009E+02  0.10611313249E+02 -0.16399273703E+02  0.50528879929E+02  0.30000061031E+02 0.  0.
        -12    1    1    2    0    0 -0.35659892009E+02 -0.10611313249E+02  0.16399273703E+02  0.40659120071E+02  0.00000000000E+00 0.  1.
         11    1    3    3    0    0  0.14313887886E+02  0.14547344740E+01  0.92331403757E-01  0.14387917298E+02  0.51100000000E-03 0. -1.
        -11    1    3    3    0    0  0.79591356711E+01  0.37504431699E-01  0.48713324557E+01  0.93316197612E+01  0.51100000000E-03 0.  1.
         12    1    3    3    0    0  0.13386868452E+02  0.91190743437E+01 -0.21362937562E+02  0.26809342870E+02  0.00000000000E+00 0. -1.
</event>
<event>
 7    1  0.2974434E-011  0.5052886E+02  0.7816164E-02  0.1300439E+00
        -11   -1    0    0    0    0  0.00000000000E+00  0.00000000000E+00  0.45593999997E+02  0.45594000000E+02  0.51100000000E-03 0.  1.
         11   -1    0    0    0    0 -0.00000000000E+00 -0.00000000000E+00 -0.45593999997E+02  0.45594000000E+02  0.51100000000E-03 0. -1.
    9900012    2    1    2    0    0  0.54152875095E+01  0.37734941650E+02 -0.14139106095E+02  0.50528862265E+02  0.30000007341E+02 0.  0.
        -12    1    1    2    0    0 -0.54152875095E+01 -0.37734941650E+02  0.14139106095E+02  0.40659137735E+02  0.00000000000E+00 0.  1.
         11    1    3    3    0    0  0.80655748710E+01  0.28677911275E+01 -0.76152574582E+01  0.11457306418E+02  0.51100000000E-03 0. -1.
        -11    1    3    3    0    0  0.22852188969E+01 -0.74266551077E+00  0.46725696707E+00  0.24478780202E+01  0.51100000000E-03 0.  1.
         12    1    3    3    0    0 -0.49355062584E+01  0.35609816034E+02 -0.69911056037E+01  0.36623677827E+02  0.00000000000E+00 0. -1.
</event>
<event>
 7    1  0.2974434E-011  0.5052885E+02  0.7816164E-02  0.1300439E+00
        -11   -1    0    0    0    0  0.00000000000E+00  0.00000000000E+00  0.45593999997E+02  0.45594000000E+02  0.51100000000E-03 0.  1.
         11   -1    0    0    0    0 -0.00000000000E+00 -0.00000000000E+00 -0.45593999997E+02  0.45594000000E+02  0.51100000000E-03 0. -1.
    9900012    2    1    2    0    0 -0.12812397756E+01 -0.18578212306E+02 -0.36143803826E+02  0.50528854622E+02  0.29999984108E+02 0.  0.
        -12    1    1    2    0    0  0.12812397756E+01  0.18578212306E+02  0.36143803826E+02  0.40659145378E+02  0.00000000000E+00 0.  1.
         11    1    3    3    0    0  0.12884758419E+02 -0.49162393783E+01 -0.14738387579E+02  0.20184312667E+02  0.51100000000E-03 0. -1.
        -11    1    3    3    0    0 -0.23663956479E+01 -0.79479554309E+01 -0.68575254954E+01  0.10760830826E+02  0.51100000000E-03 0.  1.
        -12    1    3    3    0    0 -0.11799602547E+02 -0.57140174969E+01 -0.14547890752E+02  0.19583711128E+02  0.00000000000E+00 0.  1.
</event>
<event>
 7    1  0.2974434E-011  0.5052886E+02  0.7816164E-02  0.1300439E+00
        -11   -1    0    0    0    0  0.00000000000E+00  0.00000000000E+00  0.45593999997E+02  0.45594000000E+02  0.51100000000E-03 0. -1.
         11   -1    0    0    0    0 -0.00000000000E+00 -0.00000000000E+00 -0.45593999997E+02  0.45594000000E+02  0.51100000000E-03 0.  1.
    9900012    2    1    2    0    0  0.29600827647E+02  0.27673031937E+02 -0.33406209068E+01  0.50528862749E+02  0.30000008811E+02 0.  0.
        -12    1    1    2    0    0 -0.29600827647E+02 -0.27673031937E+02  0.33406209068E+01  0.40659137251E+02  0.00000000000E+00 0.  1.
         11    1    3    3    0    0  0.31773502201E+01  0.30911089237E+01 -0.66899989015E+01  0.80253719143E+01  0.51100000000E-03 0.  1.
        -11    1    3    3    0    0  0.19522961372E+02  0.23977782090E+02 -0.53533693360E+01  0.31380545218E+02  0.51100000000E-03 0. -1.
         12    1    3    3    0    0  0.69005160550E+01  0.60414092346E+00  0.87027473307E+01  0.11122945616E+02  0.00000000000E+00 0. -1.
</event>
<event>
 7    1  0.2974434E-011  0.5052886E+02  0.7816164E-02  0.1300439E+00
        -11   -1    0    0    0    0  0.00000000000E+00  0.00000000000E+00  0.45593999997E+02  0.45594000000E+02  0.51100000000E-03 0. -1.
         11   -1    0    0    0    0 -0.00000000000E+00 -0.00000000000E+00 -0.45593999997E+02  0.45594000000E+02  0.51100000000E-03 0.  1.
    9900012    2    1    2    0    0  0.15744361978E+02 -0.92205200230E-01  0.37486958709E+02  0.50528861924E+02  0.30000006303E+02 0.  0.
        -12    1    1    2    0    0 -0.15744361978E+02  0.92205200230E-01 -0.37486958709E+02  0.40659138076E+02  0.00000000000E+00 0.  1.
         11    1    3    3    0    0  0.13858211727E+02 -0.78692603409E+01  0.27372224958E+02  0.31673553479E+02  0.51100000000E-03 0. -1.
        -11    1    3    3    0    0  0.36729542907E+01 -0.31274751682E+01  0.24787642907E+01  0.54236488473E+01  0.51100000000E-03 0.  1.
         12    1    3    3    0    0 -0.17868040402E+01  0.10904530309E+02  0.76359694602E+01  0.13431659597E+02  0.00000000000E+00 0. -1.
</event>
<event>
 7    1  0.2974434E-011  0.5052886E+02  0.7816164E-02  0.1300439E+00
        -11   -1    0    0    0    0  0.00000000000E+00  0.00000000000E+00  0.45593999997E+02  0.45594000000E+02  0.51100000000E-03 0.  1.
         11   -1    0    0    0    0 -0.00000000000E+00 -0.00000000000E+00 -0.45593999997E+02  0.45594000000E+02  0.51100000000E-03 0. -1.
    9900012    2    1    2    0    0 -0.11653137700E+02  0.37877775617E+02 -0.90908705383E+01  0.50528862883E+02  0.30000009219E+02 0.  0.
        -12    1    1    2    0    0  0.11653137700E+02 -0.37877775617E+02  0.90908705383E+01  0.40659137117E+02  0.00000000000E+00 0.  1.
         11    1    3    3    0    0 -0.25943060715E+01  0.16152481814E+02  0.47764139055E+01  0.17042512221E+02  0.51100000000E-03 0. -1.
        -11    1    3    3    0    0  0.18190581454E+01  0.12351999810E+02  0.13569515946E+01  0.12558749529E+02  0.51100000000E-03 0.  1.
         12    1    3    3    0    0 -0.10877889774E+02  0.93732939927E+01 -0.15224236038E+02  0.20927601132E+02  0.00000000000E+00 0. -1.
</event>
<event>
 7    1  0.2974434E-011  0.5052887E+02  0.7816164E-02  0.1300439E+00
        -11   -1    0    0    0    0  0.00000000000E+00  0.00000000000E+00  0.45593999997E+02  0.45594000000E+02  0.51100000000E-03 0. -1.
         11   -1    0    0    0    0 -0.00000000000E+00 -0.00000000000E+00 -0.45593999997E+02  0.45594000000E+02  0.51100000000E-03 0.  1.
    9900012    2    1    2    0    0  0.11353850278E+02 -0.25425865408E+02  0.29627363741E+02  0.50528865355E+02  0.30000016732E+02 0.  0.
        -12    1    1    2    0    0 -0.11353850278E+02  0.25425865408E+02 -0.29627363741E+02  0.40659134645E+02  0.00000000000E+00 0.  1.
         11    1    3    3    0    0 -0.81897768577E+01 -0.11284805929E+02  0.11512647213E+02  0.18082044573E+02  0.51100000000E-03 0. -1.
        -11    1    3    3    0    0  0.27038210544E+00 -0.13482493343E+01  0.63448956106E+01  0.64921940299E+01  0.51100000000E-03 0.  1.
        -12    1    3    3    0    0  0.19273245030E+02 -0.12792810144E+02  0.11769820918E+02  0.25954626752E+02  0.00000000000E+00 0.  1.
</event>
<event>
 7    1  0.2974434E-011  0.5052887E+02  0.7816164E-02  0.1300439E+00
        -11   -1    0    0    0    0  0.00000000000E+00  0.00000000000E+00  0.45593999997E+02  0.45594000000E+02  0.51100000000E-03 0.  1.
         11   -1    0    0    0    0 -0.00000000000E+00 -0.00000000000E+00 -0.45593999997E+02  0.45594000000E+02  0.51100000000E-03 0. -1.
    9900012    2    1    2    0    0 -0.33588722050E+02 -0.22549984556E+02 -0.40571984282E+01  0.50528869273E+02  0.30000028641E+02 0.  0.
        -12    1    1    2    0    0  0.33588722050E+02  0.22549984556E+02  0.40571984282E+01  0.40659130727E+02  0.00000000000E+00 0.  1.
         11    1    3    3    0    0 -0.20481871168E+02 -0.17315353358E+01  0.18653169596E+01  0.20639396037E+02  0.51100000000E-03 0. -1.
        -11    1    3    3    0    0 -0.11344482908E+02 -0.35487336563E+01 -0.32736374097E+01  0.12329132376E+02  0.51100000000E-03 0.  1.
        -12    1    3    3    0    0 -0.17623679744E+01 -0.17269715564E+02 -0.26488779781E+01  0.17560340859E+02  0.00000000000E+00 0.  1.
</event>
<event>
 7    1  0.2974434E-011  0.5052888E+02  0.7816164E-02  0.1300439E+00
        -11   -1    0    0    0    0  0.00000000000E+00  0.00000000000E+00  0.45593999997E+02  0.45594000000E+02  0.51100000000E-03 0.  1.
         11   -1    0    0    0    0 -0.00000000000E+00 -0.00000000000E+00 -0.45593999997E+02  0.45594000000E+02  0.51100000000E-03 0. -1.
    9900012    2    1    2    0    0  0.30835550968E+02  0.25514538396E+02 -0.71652922148E+01  0.50528876969E+02  0.30000052036E+02 0.  0.
        -12    1    1    2    0    0 -0.30835550968E+02 -0.25514538396E+02  0.71652922148E+01  0.40659123031E+02  0.00000000000E+00 0.  1.
         11    1    3    3    0    0  0.52714928288E+01 -0.34551112979E+00 -0.73561444037E+01  0.90565377123E+01  0.51100000000E-03 0. -1.
        -11    1    3    3    0    0  0.19083567779E+02  0.14285503128E+02  0.90747555652E+01  0.25507045058E+02  0.51100000000E-03 0.  1.
         12    1    3    3    0    0  0.64804903610E+01  0.11574546398E+02 -0.88839033764E+01  0.15965294199E+02  0.00000000000E+00 0. -1.
</event>
<event>
 7    1  0.2974434E-011  0.5052885E+02  0.7816164E-02  0.1300439E+00
        -11   -1    0    0    0    0  0.00000000000E+00  0.00000000000E+00  0.45593999997E+02  0.45594000000E+02  0.51100000000E-03 0.  1.
         11   -1    0    0    0    0 -0.00000000000E+00 -0.00000000000E+00 -0.45593999997E+02  0.45594000000E+02  0.51100000000E-03 0. -1.
    9900012    2    1    2    0    0  0.25831013356E+02  0.56854871903E+00 -0.31394298047E+02  0.50528850372E+02  0.29999971189E+02 0.  0.
        -12    1    1    2    0    0 -0.25831013356E+02 -0.56854871903E+00  0.31394298047E+02  0.40659149628E+02  0.00000000000E+00 0.  1.
         11    1    3    3    0    0  0.73589610370E+01  0.10879917414E+02 -0.50753499832E+01  0.14081409311E+02  0.51100000000E-03 0. -1.
        -11    1    3    3    0    0  0.67511457253E+01 -0.30353819936E+01 -0.80912271809E+00  0.74462199998E+01  0.51100000000E-03 0.  1.
         12    1    3    3    0    0  0.11720906594E+02 -0.72759867009E+01 -0.25509825346E+02  0.29001221061E+02  0.00000000000E+00 0. -1.
</event>
<event>
 7    1  0.2974434E-011  0.5052887E+02  0.7816164E-02  0.1300439E+00
        -11   -1    0    0    0    0  0.00000000000E+00  0.00000000000E+00  0.45593999997E+02  0.45594000000E+02  0.51100000000E-03 0.  1.
         11   -1    0    0    0    0 -0.00000000000E+00 -0.00000000000E+00 -0.45593999997E+02  0.45594000000E+02  0.51100000000E-03 0. -1.
    9900012    2    1    2    0    0 -0.81280572780E+01 -0.11577196488E+02 -0.38119134889E+02  0.50528865253E+02  0.30000016424E+02 0.  0.
        -12    1    1    2    0    0  0.81280572780E+01  0.11577196488E+02  0.38119134889E+02  0.40659134747E+02  0.00000000000E+00 0.  1.
         11    1    3    3    0    0  0.19951859033E+01  0.25419606764E+01  0.50044927599E+00  0.32699817443E+01  0.51100000000E-03 0. -1.
        -11    1    3    3    0    0 -0.89319923890E+01  0.39300082408E+00 -0.41838160502E+01  0.98711323914E+01  0.51100000000E-03 0.  1.
         12    1    3    3    0    0 -0.11912507922E+01 -0.14512157989E+02 -0.34435768115E+02  0.37387751118E+02  0.00000000000E+00 0. -1.
</event>
<event>
 7    1  0.2974434E-011  0.5052889E+02  0.7816164E-02  0.1300439E+00
        -11   -1    0    0    0    0  0.00000000000E+00  0.00000000000E+00  0.45593999997E+02  0.45594000000E+02  0.51100000000E-03 0.  1.
         11   -1    0    0    0    0 -0.00000000000E+00 -0.00000000000E+00 -0.45593999997E+02  0.45594000000E+02  0.51100000000E-03 0. -1.
    9900012    2    1    2    0    0 -0.31491902259E+02 -0.23139908317E+02  0.11223558834E+02  0.50528886167E+02  0.30000079993E+02 0.  0.
        -12    1    1    2    0    0  0.31491902259E+02  0.23139908317E+02 -0.11223558834E+02  0.40659113833E+02  0.00000000000E+00 0.  1.
         11    1    3    3    0    0 -0.16898017254E+02 -0.15450832369E+01 -0.12560717271E+01  0.17014934199E+02  0.51100000000E-03 0. -1.
        -11    1    3    3    0    0 -0.17537199596E+01 -0.18989099980E+01 -0.40279036568E+01  0.47859587343E+01  0.51100000000E-03 0.  1.
        -12    1    3    3    0    0 -0.12840165045E+02 -0.19695915082E+02  0.16507534218E+02  0.28727993234E+02  0.00000000000E+00 0.  1.
</event>
<event>
 7    1  0.2974434E-011  0.5052887E+02  0.7816164E-02  0.1300439E+00
        -11   -1    0    0    0    0  0.00000000000E+00  0.00000000000E+00  0.45593999997E+02  0.45594000000E+02  0.51100000000E-03 0. -1.
         11   -1    0    0    0    0 -0.00000000000E+00 -0.00000000000E+00 -0.45593999997E+02  0.45594000000E+02  0.51100000000E-03 0.  1.
    9900012    2    1    2    0    0 -0.10457087415E+02 -0.32811528720E+02  0.21615221363E+02  0.50528869553E+02  0.30000029492E+02 0.  0.
        -12    1    1    2    0    0  0.10457087415E+02  0.32811528720E+02 -0.21615221363E+02  0.40659130447E+02  0.00000000000E+00 0.  1.
         11    1    3    3    0    0 -0.57240516352E+01 -0.11447704761E+02  0.75210144644E+01  0.14845213715E+02  0.51100000000E-03 0. -1.
        -11    1    3    3    0    0 -0.11557630079E+02 -0.12119856551E+02  0.16966629277E+02  0.23839803798E+02  0.51100000000E-03 0.  1.
        -12    1    3    3    0    0  0.68245942998E+01 -0.92439674086E+01 -0.28724223781E+01  0.11843852039E+02  0.00000000000E+00 0.  1.
</event>
<event>
 7    1  0.2974434E-011  0.5052886E+02  0.7816164E-02  0.1300439E+00
        -11   -1    0    0    0    0  0.00000000000E+00  0.00000000000E+00  0.45593999997E+02  0.45594000000E+02  0.51100000000E-03 0.  1.
         11   -1    0    0    0    0 -0.00000000000E+00 -0.00000000000E+00 -0.45593999997E+02  0.45594000000E+02  0.51100000000E-03 0. -1.
    9900012    2    1    2    0    0 -0.38692276504E+02 -0.53908848096E+01 -0.11269958270E+02  0.50528857614E+02  0.29999993204E+02 0.  0.
        -12    1    1    2    0    0  0.38692276504E+02  0.53908848096E+01  0.11269958270E+02  0.40659142386E+02  0.00000000000E+00 0.  1.
         11    1    3    3    0    0 -0.24754945098E+02 -0.70796618113E+01 -0.43276654833E+01  0.26108573438E+02  0.51100000000E-03 0. -1.
        -11    1    3    3    0    0 -0.16757403099E+02  0.17774238964E+01  0.80837528829E-01  0.16851597233E+02  0.51100000000E-03 0.  1.
        -12    1    3    3    0    0  0.28200716921E+01 -0.88646894694E-01 -0.70231303160E+01  0.75686869439E+01  0.00000000000E+00 0.  1.
</event>
<event>
 7    1  0.2974434E-011  0.5052886E+02  0.7816164E-02  0.1300439E+00
        -11   -1    0    0    0    0  0.00000000000E+00  0.00000000000E+00  0.45593999997E+02  0.45594000000E+02  0.51100000000E-03 0.  1.
         11   -1    0    0    0    0 -0.00000000000E+00 -0.00000000000E+00 -0.45593999997E+02  0.45594000000E+02  0.51100000000E-03 0. -1.
    9900012    2    1    2    0    0  0.26879178264E+02  0.27213015565E+02 -0.13788658219E+02  0.50528861596E+02  0.30000005308E+02 0.  0.
        -12    1    1    2    0    0 -0.26879178264E+02 -0.27213015565E+02  0.13788658219E+02  0.40659138404E+02  0.00000000000E+00 0.  1.
         11    1    3    3    0    0  0.16464886545E+00  0.30336732302E+01 -0.72665620104E+01  0.78761161893E+01  0.51100000000E-03 0. -1.
        -11    1    3    3    0    0  0.63409589970E+01  0.16477626784E+01 -0.10128305283E+02  0.12062564032E+02  0.51100000000E-03 0.  1.
        -12    1    3    3    0    0  0.20373570401E+02  0.22531579656E+02  0.36062090747E+01  0.30590181375E+02  0.00000000000E+00 0.  1.
</event>
<event>
 7    1  0.2974434E-011  0.5052885E+02  0.7816164E-02  0.1300439E+00
        -11   -1    0    0    0    0  0.00000000000E+00  0.00000000000E+00  0.45593999997E+02  0.45594000000E+02  0.51100000000E-03 0.  1.
         11   -1    0    0    0    0 -0.00000000000E+00 -0.00000000000E+00 -0.45593999997E+02  0.45594000000E+02  0.51100000000E-03 0. -1.
    9900012    2    1    2    0    0 -0.34458958428E+02  0.53038432039E+01 -0.20919263262E+02  0.50528854115E+02  0.29999982567E+02 0.  0.
        -12    1    1    2    0    0  0.34458958428E+02 -0.53038432039E+01  0.20919263262E+02  0.40659145885E+02  0.00000000000E+00 0.  1.
         11    1    3    3    0    0 -0.43973014768E+01  0.49217292273E+01 -0.61073811455E+01  0.89922068250E+01  0.51100000000E-03 0. -1.
        -11    1    3    3    0    0 -0.77046829213E+01  0.39413737151E+01  0.62029797921E+01  0.10647700420E+02  0.51100000000E-03 0.  1.
         12    1    3    3    0    0 -0.22356974030E+02 -0.35592597386E+01 -0.21014861908E+02  0.30888946869E+02  0.00000000000E+00 0. -1.
</event>
<event>
 7    1  0.2974434E-011  0.5052886E+02  0.7816164E-02  0.1300439E+00
        -11   -1    0    0    0    0  0.00000000000E+00  0.00000000000E+00  0.45593999997E+02  0.45594000000E+02  0.51100000000E-03 0.  1.
         11   -1    0    0    0    0 -0.00000000000E+00 -0.00000000000E+00 -0.45593999997E+02  0.45594000000E+02  0.51100000000E-03 0. -1.
    9900012    2    1    2    0    0 -0.35527158395E+02  0.10159828415E+01 -0.19747270130E+02  0.50528857334E+02  0.29999992353E+02 0.  0.
        -12    1    1    2    0    0  0.35527158395E+02 -0.10159828415E+01  0.19747270130E+02  0.40659142666E+02  0.00000000000E+00 0.  1.
         11    1    3    3    0    0 -0.53278058818E+01 -0.42663423872E+01  0.77051527904E+00  0.68688344670E+01  0.51100000000E-03 0. -1.
        -11    1    3    3    0    0 -0.17324350947E+02 -0.64789886792E+01 -0.26362326442E+01  0.18683151577E+02  0.51100000000E-03 0.  1.
        -12    1    3    3    0    0 -0.12875001566E+02  0.11761313908E+02 -0.17881552765E+02  0.24976871290E+02  0.00000000000E+00 0.  1.
</event>
<event>
 7    1  0.2974434E-011  0.5052886E+02  0.7816164E-02  0.1300439E+00
        -11   -1    0    0    0    0  0.00000000000E+00  0.00000000000E+00  0.45593999997E+02  0.45594000000E+02  0.51100000000E-03 0. -1.
         11   -1    0    0    0    0 -0.00000000000E+00 -0.00000000000E+00 -0.45593999997E+02  0.45594000000E+02  0.51100000000E-03 0.  1.
    9900012    2    1    2    0    0  0.23556213394E+02  0.22530447346E+02  0.24303277198E+02  0.50528861671E+02  0.30000005536E+02 0.  0.
        -12    1    1    2    0    0 -0.23556213394E+02 -0.22530447346E+02 -0.24303277198E+02  0.40659138329E+02  0.00000000000E+00 0.  1.
         11    1    3    3    0    0  0.83891789151E+01  0.61105078133E+01  0.19544357482E+02  0.22129133247E+02  0.51100000000E-03 0. -1.
        -11    1    3    3    0    0  0.90665408081E+01  0.15895934965E+02  0.95344619352E+01  0.20634652294E+02  0.51100000000E-03 0.  1.
        -12    1    3    3    0    0  0.61004936707E+01  0.52400456735E+00 -0.47755422197E+01  0.77650761301E+01  0.00000000000E+00 0.  1.
</event>
<event>
 7    1  0.2974434E-011  0.5052894E+02  0.7816164E-02  0.1300439E+00
        -11   -1    0    0    0    0  0.00000000000E+00  0.00000000000E+00  0.45593999997E+02  0.45594000000E+02  0.51100000000E-03 0. -1.
         11   -1    0    0    0    0 -0.00000000000E+00 -0.00000000000E+00 -0.45593999997E+02  0.45594000000E+02  0.51100000000E-03 0.  1.
    9900012    2    1    2    0    0  0.28901929436E+01  0.95226109673E+01  0.39422403132E+02  0.50528939465E+02  0.30000241995E+02 0.  0.
        -12    1    1    2    0    0 -0.28901929436E+01 -0.95226109673E+01 -0.39422403132E+02  0.40659060535E+02  0.00000000000E+00 0.  1.
         11    1    3    3    0    0  0.13270306645E+02  0.20710598091E+01  0.27150790438E+02  0.30291182692E+02  0.51100000000E-03 0. -1.
        -11    1    3    3    0    0 -0.27362212122E+01  0.50690963456E+01  0.21458533830E+00  0.57644333123E+01  0.51100000000E-03 0.  1.
        -12    1    3    3    0    0 -0.76438924896E+01  0.23824548126E+01  0.12057027356E+02  0.14473323460E+02  0.00000000000E+00 0.  1.
</event>
<event>
 7    1  0.2974434E-011  0.5052886E+02  0.7816164E-02  0.1300439E+00
        -11   -1    0    0    0    0  0.00000000000E+00  0.00000000000E+00  0.45593999997E+02  0.45594000000E+02  0.51100000000E-03 0.  1.
         11   -1    0    0    0    0 -0.00000000000E+00 -0.00000000000E+00 -0.45593999997E+02  0.45594000000E+02  0.51100000000E-03 0. -1.
    9900012    2    1    2    0    0 -0.40179624274E+02  0.34355954795E+01 -0.51923428159E+01  0.50528856539E+02  0.29999989935E+02 0.  0.
        -12    1    1    2    0    0  0.40179624274E+02 -0.34355954795E+01  0.51923428159E+01  0.40659143461E+02  0.00000000000E+00 0.  1.
         11    1    3    3    0    0 -0.72627372459E+01 -0.23250870688E+01  0.55891727470E+01  0.94547466617E+01  0.51100000000E-03 0. -1.
        -11    1    3    3    0    0 -0.37784454800E+01  0.94554772039E-01  0.59127063610E+01  0.70175271730E+01  0.51100000000E-03 0.  1.
         12    1    3    3    0    0 -0.29138441548E+02  0.56661277762E+01 -0.16694221924E+02  0.34056582704E+02  0.00000000000E+00 0. -1.
</event>
<event>
 7    1  0.2974434E-011  0.5052886E+02  0.7816164E-02  0.1300439E+00
        -11   -1    0    0    0    0  0.00000000000E+00  0.00000000000E+00  0.45593999997E+02  0.45594000000E+02  0.51100000000E-03 0. -1.
         11   -1    0    0    0    0 -0.00000000000E+00 -0.00000000000E+00 -0.45593999997E+02  0.45594000000E+02  0.51100000000E-03 0.  1.
    9900012    2    1    2    0    0  0.33061584751E+02 -0.20543900065E+02  0.11749287784E+02  0.50528856138E+02  0.29999988718E+02 0.  0.
        -12    1    1    2    0    0 -0.33061584751E+02  0.20543900065E+02 -0.11749287784E+02  0.40659143862E+02  0.00000000000E+00 0.  1.
         11    1    3    3    0    0  0.93106616303E+01 -0.66545669310E+01  0.31660353485E+01  0.11874150964E+02  0.51100000000E-03 0. -1.
        -11    1    3    3    0    0  0.22140316403E+02 -0.15883052879E+02  0.15451145202E+02  0.31324157890E+02  0.51100000000E-03 0.  1.
        -12    1    3    3    0    0  0.16106067182E+01  0.19937197454E+01 -0.68678927672E+01  0.73305472842E+01  0.00000000000E+00 0.  1.
</event>
<event>
 7    1  0.2974434E-011  0.5052886E+02  0.7816164E-02  0.1300439E+00
        -11   -1    0    0    0    0  0.00000000000E+00  0.00000000000E+00  0.45593999997E+02  0.45594000000E+02  0.51100000000E-03 0.  1.
         11   -1    0    0    0    0 -0.00000000000E+00 -0.00000000000E+00 -0.45593999997E+02  0.45594000000E+02  0.51100000000E-03 0. -1.
    9900012    2    1    2    0    0 -0.25028681209E+02  0.25589577637E+01 -0.31940290788E+02  0.50528864206E+02  0.30000013241E+02 0.  0.
        -12    1    1    2    0    0  0.25028681209E+02 -0.25589577637E+01  0.31940290788E+02  0.40659135794E+02  0.00000000000E+00 0.  1.
         11    1    3    3    0    0  0.25605784803E+01  0.23800432007E+01 -0.24635103250E+01  0.42766869389E+01  0.51100000000E-03 0. -1.
        -11    1    3    3    0    0 -0.25701306061E+01 -0.44809119218E+01  0.22033657166E+01  0.56159561720E+01  0.51100000000E-03 0.  1.
         12    1    3    3    0    0 -0.25019129083E+02  0.46598264848E+01 -0.31680146180E+02  0.40636221095E+02  0.00000000000E+00 0. -1.
</event>
<event>
 7    1  0.2974434E-011  0.5052886E+02  0.7816164E-02  0.1300439E+00
        -11   -1    0    0    0    0  0.00000000000E+00  0.00000000000E+00  0.45593999997E+02  0.45594000000E+02  0.51100000000E-03 0.  1.
         11   -1    0    0    0    0 -0.00000000000E+00 -0.00000000000E+00 -0.45593999997E+02  0.45594000000E+02  0.51100000000E-03 0. -1.
    9900012    2    1    2    0    0 -0.25603223507E+02  0.13179349908E+02 -0.28704441539E+02  0.50528864717E+02  0.30000014793E+02 0.  0.
        -12    1    1    2    0    0  0.25603223507E+02 -0.13179349908E+02  0.28704441539E+02  0.40659135283E+02  0.00000000000E+00 0.  1.
         11    1    3    3    0    0 -0.20207163550E+02  0.52828363729E+01 -0.17758329174E+02  0.27415252583E+02  0.51100000000E-03 0. -1.
        -11    1    3    3    0    0 -0.60656208314E+01  0.13454750920E+02 -0.78985767273E+01  0.16739462147E+02  0.51100000000E-03 0.  1.
        -12    1    3    3    0    0  0.66956087517E+00 -0.55582373848E+01 -0.30475356374E+01  0.63741499867E+01  0.00000000000E+00 0.  1.
</event>
<event>
 7    1  0.2974434E-011  0.5052887E+02  0.7816164E-02  0.1300439E+00
        -11   -1    0    0    0    0  0.00000000000E+00  0.00000000000E+00  0.45593999997E+02  0.45594000000E+02  0.51100000000E-03 0.  1.
         11   -1    0    0    0    0 -0.00000000000E+00 -0.00000000000E+00 -0.45593999997E+02  0.45594000000E+02  0.51100000000E-03 0. -1.
    9900012    2    1    2    0    0  0.35513268575E+02 -0.46201466784E+01 -0.19251662122E+02  0.50528874399E+02  0.30000044222E+02 0.  0.
        -12    1    1    2    0    0 -0.35513268575E+02  0.46201466784E+01  0.19251662122E+02  0.40659125601E+02  0.00000000000E+00 0.  1.
         11    1    3    3    0    0  0.75724488853E+01  0.65772964316E+01  0.33197773253E+01  0.10565213307E+02  0.51100000000E-03 0. -1.
        -11    1    3    3    0    0  0.68523882958E+01 -0.62136024879E+01 -0.13740452467E+02  0.16563940216E+02  0.51100000000E-03 0.  1.
        -12    1    3    3    0    0  0.21088431394E+02 -0.49838406221E+01 -0.88309869807E+01  0.23399720876E+02  0.00000000000E+00 0.  1.
</event>
<event>
 7    1  0.2974434E-011  0.5052895E+02  0.7816164E-02  0.1300438E+00
        -11   -1    0    0    0    0  0.00000000000E+00  0.00000000000E+00  0.45593999997E+02  0.45594000000E+02  0.51100000000E-03 0. -1.
         11   -1    0    0    0    0 -0.00000000000E+00 -0.00000000000E+00 -0.45593999997E+02  0.45594000000E+02  0.51100000000E-03 0.  1.
    9900012    2    1    2    0    0 -0.33713658646E+02  0.12463675718E+02  0.19005382872E+02  0.50528947259E+02  0.30000265686E+02 0.  0.
        -12    1    1    2    0    0  0.33713658646E+02 -0.12463675718E+02 -0.19005382872E+02  0.40659052741E+02  0.00000000000E+00 0.  1.
         11    1    3    3    0    0 -0.20209559016E+02  0.11119201320E+02  0.11547066988E+02  0.25795303253E+02  0.51100000000E-03 0. -1.
        -11    1    3    3    0    0 -0.17806916874E+02  0.21770723470E+01  0.90220173962E+01  0.20080406638E+02  0.51100000000E-03 0.  1.
         12    1    3    3    0    0  0.43028172441E+01 -0.83259794973E+00 -0.15637015122E+01  0.46532373678E+01  0.00000000000E+00 0. -1.
</event>
<event>
 7    1  0.2974434E-011  0.5052886E+02  0.7816164E-02  0.1300439E+00
        -11   -1    0    0    0    0  0.00000000000E+00  0.00000000000E+00  0.45593999997E+02  0.45594000000E+02  0.51100000000E-03 0.  1.
         11   -1    0    0    0    0 -0.00000000000E+00 -0.00000000000E+00 -0.45593999997E+02  0.45594000000E+02  0.51100000000E-03 0. -1.
    9900012    2    1    2    0    0  0.18740770695E+02 -0.27189209469E+02  0.23721213473E+02  0.50528861219E+02  0.30000004161E+02 0.  0.
        -12    1    1    2    0    0 -0.18740770695E+02  0.27189209469E+02 -0.23721213473E+02  0.40659138781E+02  0.00000000000E+00 0.  1.
         11    1    3    3    0    0 -0.16892097890E+01  0.12838785144E+01  0.19562089753E+01  0.28859188428E+01  0.51100000000E-03 0. -1.
        -11    1    3    3    0    0  0.70251202112E+01 -0.59354485021E+01  0.19207430857E+02  0.21295709974E+02  0.51100000000E-03 0.  1.
         12    1    3    3    0    0  0.13404860273E+02 -0.22537639481E+02  0.25575736403E+01  0.26347232402E+02  0.00000000000E+00 0. -1.
</event>
<event>
 7    1  0.2974434E-011  0.5052885E+02  0.7816164E-02  0.1300439E+00
        -11   -1    0    0    0    0  0.00000000000E+00  0.00000000000E+00  0.45593999997E+02  0.45594000000E+02  0.51100000000E-03 0.  1.
         11   -1    0    0    0    0 -0.00000000000E+00 -0.00000000000E+00 -0.45593999997E+02  0.45594000000E+02  0.51100000000E-03 0. -1.
    9900012    2    1    2    0    0  0.39707132752E+02 -0.10083878394E+01 -0.86886742051E+01  0.50528852237E+02  0.29999976859E+02 0.  0.
        -12    1    1    2    0    0 -0.39707132752E+02  0.10083878394E+01  0.86886742051E+01  0.40659147763E+02  0.00000000000E+00 0.  1.
         11    1    3    3    0    0  0.30174273287E+01 -0.55987483461E+01  0.35428040816E+01  0.72802686591E+01  0.51100000000E-03 0.  1.
        -11    1    3    3    0    0  0.31601118177E+02 -0.15970740732E+01 -0.42247389001E+01  0.31922245138E+02  0.51100000000E-03 0. -1.
        -12    1    3    3    0    0  0.50885872462E+01  0.61874345799E+01 -0.80067393867E+01  0.11326338440E+02  0.00000000000E+00 0.  1.
</event>
<event>
 7    1  0.2974434E-011  0.5052888E+02  0.7816164E-02  0.1300439E+00
        -11   -1    0    0    0    0  0.00000000000E+00  0.00000000000E+00  0.45593999997E+02  0.45594000000E+02  0.51100000000E-03 0.  1.
         11   -1    0    0    0    0 -0.00000000000E+00 -0.00000000000E+00 -0.45593999997E+02  0.45594000000E+02  0.51100000000E-03 0. -1.
    9900012    2    1    2    0    0 -0.60611936227E+01 -0.85371286322E+01 -0.39287956129E+02  0.50528878880E+02  0.30000057845E+02 0.  0.
        -12    1    1    2    0    0  0.60611936227E+01  0.85371286322E+01  0.39287956129E+02  0.40659121120E+02  0.00000000000E+00 0.  1.
         11    1    3    3    0    0  0.89887773261E+00 -0.77172977184E+01 -0.11353570226E+02  0.13757478780E+02  0.51100000000E-03 0. -1.
        -11    1    3    3    0    0  0.19754394294E+01  0.49072975994E+01  0.14863595333E+01  0.54948335363E+01  0.51100000000E-03 0.  1.
         12    1    3    3    0    0 -0.89355107848E+01 -0.57271285132E+01 -0.29420745436E+02  0.31276566564E+02  0.00000000000E+00 0. -1.
</event>
<event>
 7    1  0.2974434E-011  0.5052885E+02  0.7816164E-02  0.1300439E+00
        -11   -1    0    0    0    0  0.00000000000E+00  0.00000000000E+00  0.45593999997E+02  0.45594000000E+02  0.51100000000E-03 0. -1.
         11   -1    0    0    0    0 -0.00000000000E+00 -0.00000000000E+00 -0.45593999997E+02  0.45594000000E+02  0.51100000000E-03 0.  1.
    9900012    2    1    2    0    0  0.25195385096E+02 -0.26872736806E+02  0.17210896747E+02  0.50528851209E+02  0.29999973734E+02 0.  0.
        -12    1    1    2    0    0 -0.25195385096E+02  0.26872736806E+02 -0.17210896747E+02  0.40659148791E+02  0.00000000000E+00 0.  1.
         11    1    3    3    0    0  0.11211389623E+02 -0.75263752626E+01  0.85676806616E+01  0.15992083480E+02  0.51100000000E-03 0. -1.
        -11    1    3    3    0    0  0.17347354294E+02 -0.44925102790E+01  0.69214059884E+01  0.19209872741E+02  0.51100000000E-03 0.  1.
        -12    1    3    3    0    0 -0.33633588199E+01 -0.14853851265E+02  0.17218100967E+01  0.15326894987E+02  0.00000000000E+00 0.  1.
</event>
<event>
 7    1  0.2974434E-011  0.5052886E+02  0.7816164E-02  0.1300439E+00
        -11   -1    0    0    0    0  0.00000000000E+00  0.00000000000E+00  0.45593999997E+02  0.45594000000E+02  0.51100000000E-03 0. -1.
         11   -1    0    0    0    0 -0.00000000000E+00 -0.00000000000E+00 -0.45593999997E+02  0.45594000000E+02  0.51100000000E-03 0.  1.
    9900012    2    1    2    0    0  0.26164525141E+02  0.28002850589E+02  0.13580266523E+02  0.50528860120E+02  0.30000000821E+02 0.  0.
        -12    1    1    2    0    0 -0.26164525141E+02 -0.28002850589E+02 -0.13580266523E+02  0.40659139880E+02  0.00000000000E+00 0.  1.
         11    1    3    3    0    0  0.16755897887E+01  0.48248861475E+01  0.72404417479E+00  0.51586207172E+01  0.51100000000E-03 0. -1.
        -11    1    3    3    0    0  0.18324404783E+02  0.93141128167E+01 -0.57664193753E+01  0.21349194385E+02  0.51100000000E-03 0.  1.
        -12    1    3    3    0    0  0.61645305692E+01  0.13863851625E+02  0.18622641723E+02  0.24021045018E+02  0.00000000000E+00 0.  1.
</event>
<event>
 7    1  0.2974434E-011  0.5052894E+02  0.7816164E-02  0.1300439E+00
        -11   -1    0    0    0    0  0.00000000000E+00  0.00000000000E+00  0.45593999997E+02  0.45594000000E+02  0.51100000000E-03 0. -1.
         11   -1    0    0    0    0 -0.00000000000E+00 -0.00000000000E+00 -0.45593999997E+02  0.45594000000E+02  0.51100000000E-03 0.  1.
    9900012    2    1    2    0    0  0.17962201123E+02 -0.32621943105E+02  0.16319543298E+02  0.50528937854E+02  0.30000237099E+02 0.  0.
        -12    1    1    2    0    0 -0.17962201123E+02  0.32621943105E+02 -0.16319543298E+02  0.40659062146E+02  0.00000000000E+00 0.  1.
         11    1    3    3    0    0  0.11032061936E+02 -0.18313361671E+02 -0.37612245139E+01  0.21707888344E+02  0.51100000000E-03 0. -1.
        -11    1    3    3    0    0  0.20379891977E+01 -0.10412414000E+02  0.36172172516E+01  0.11209639877E+02  0.51100000000E-03 0.  1.
         12    1    3    3    0    0  0.48921499894E+01 -0.38961674348E+01  0.16463550560E+02  0.17611409633E+02  0.00000000000E+00 0. -1.
</event>
<event>
 7    1  0.2974434E-011  0.5052886E+02  0.7816164E-02  0.1300439E+00
        -11   -1    0    0    0    0  0.00000000000E+00  0.00000000000E+00  0.45593999997E+02  0.45594000000E+02  0.51100000000E-03 0.  1.
         11   -1    0    0    0    0 -0.00000000000E+00 -0.00000000000E+00 -0.45593999997E+02  0.45594000000E+02  0.51100000000E-03 0. -1.
    9900012    2    1    2    0    0 -0.16160055218E+02  0.19725917628E+02 -0.31668701813E+02  0.50528857297E+02  0.29999992239E+02 0.  0.
        -12    1    1    2    0    0  0.16160055218E+02 -0.19725917628E+02  0.31668701813E+02  0.40659142703E+02  0.00000000000E+00 0.  1.
         11    1    3    3    0    0 -0.17741549033E+01  0.16174149945E+02 -0.21265626743E+02  0.26776438021E+02  0.51100000000E-03 0. -1.
        -11    1    3    3    0    0 -0.72247124266E+01  0.82379270805E+01 -0.10525117441E+02  0.15193354127E+02  0.51100000000E-03 0.  1.
        -12    1    3    3    0    0 -0.71611878880E+01 -0.46861593979E+01  0.12204237144E+00  0.85590651481E+01  0.00000000000E+00 0.  1.
</event>
<event>
 7    1  0.2974434E-011  0.5052886E+02  0.7816164E-02  0.1300439E+00
        -11   -1    0    0    0    0  0.00000000000E+00  0.00000000000E+00  0.45593999997E+02  0.45594000000E+02  0.51100000000E-03 0.  1.
         11   -1    0    0    0    0 -0.00000000000E+00 -0.00000000000E+00 -0.45593999997E+02  0.45594000000E+02  0.51100000000E-03 0. -1.
    9900012    2    1    2    0    0 -0.29882853759E+02 -0.86256280698E+00 -0.27557877126E+02  0.50528861358E+02  0.30000004585E+02 0.  0.
        -12    1    1    2    0    0  0.29882853759E+02  0.86256280698E+00  0.27557877126E+02  0.40659138642E+02  0.00000000000E+00 0.  1.
         11    1    3    3    0    0 -0.89785422685E+01  0.44808461057E+01 -0.14502526995E+02  0.17635631336E+02  0.51100000000E-03 0. -1.
        -11    1    3    3    0    0 -0.18645684630E+02 -0.15532881086E+01 -0.18209461173E+02  0.26108595055E+02  0.51100000000E-03 0.  1.
        -12    1    3    3    0    0 -0.22586268612E+01 -0.37901208041E+01  0.51541110428E+01  0.67846349681E+01  0.00000000000E+00 0.  1.
</event>
<event>
 7    1  0.2974434E-011  0.5052886E+02  0.7816164E-02  0.1300439E+00
        -11   -1    0    0    0    0  0.00000000000E+00  0.00000000000E+00  0.45593999997E+02  0.45594000000E+02  0.51100000000E-03 0.  1.
         11   -1    0    0    0    0 -0.00000000000E+00 -0.00000000000E+00 -0.45593999997E+02  0.45594000000E+02  0.51100000000E-03 0. -1.
    9900012    2    1    2    0    0  0.37960352280E+02 -0.43962190971E+01 -0.13887061387E+02  0.50528861279E+02  0.30000004344E+02 0.  0.
        -12    1    1    2    0    0 -0.37960352280E+02  0.43962190971E+01  0.13887061387E+02  0.40659138721E+02  0.00000000000E+00 0.  1.
         11    1    3    3    0    0  0.26314129060E+02  0.58642787209E+01 -0.68678474945E+01  0.27820684438E+02  0.51100000000E-03 0. -1.
        -11    1    3    3    0    0  0.46936647311E+01 -0.47385993998E+01  0.45874495557E+01  0.80950297447E+01  0.51100000000E-03 0.  1.
         12    1    3    3    0    0  0.69525584888E+01 -0.55218984182E+01 -0.11606663448E+02  0.14613147097E+02  0.00000000000E+00 0. -1.
</event>
<event>
 7    1  0.2974434E-011  0.5052886E+02  0.7816164E-02  0.1300439E+00
        -11   -1    0    0    0    0  0.00000000000E+00  0.00000000000E+00  0.45593999997E+02  0.45594000000E+02  0.51100000000E-03 0.  1.
         11   -1    0    0    0    0 -0.00000000000E+00 -0.00000000000E+00 -0.45593999997E+02  0.45594000000E+02  0.51100000000E-03 0. -1.
    9900012    2    1    2    0    0 -0.12301904200E+02  0.30397170209E+02 -0.24038318733E+02  0.50528861161E+02  0.30000003985E+02 0.  0.
        -12    1    1    2    0    0  0.12301904200E+02 -0.30397170209E+02  0.24038318733E+02  0.40659138839E+02  0.00000000000E+00 0.  1.
         11    1    3    3    0    0 -0.56128046264E+01 -0.11977317216E+01  0.17000361171E+01  0.59856712332E+01  0.51100000000E-03 0. -1.
        -11    1    3    3    0    0  0.68903188868E+00 -0.64289149174E+00  0.14508559308E+01  0.17300455505E+01  0.51100000000E-03 0.  1.
         12    1    3    3    0    0 -0.73781314619E+01  0.32237793422E+02 -0.27189210781E+02  0.42813144377E+02  0.00000000000E+00 0. -1.
</event>
<event>
 7    1  0.2974434E-011  0.5052886E+02  0.7816164E-02  0.1300439E+00
        -11   -1    0    0    0    0  0.00000000000E+00  0.00000000000E+00  0.45593999997E+02  0.45594000000E+02  0.51100000000E-03 0. -1.
         11   -1    0    0    0    0 -0.00000000000E+00 -0.00000000000E+00 -0.45593999997E+02  0.45594000000E+02  0.51100000000E-03 0.  1.
    9900012    2    1    2    0    0 -0.37087913631E+02  0.10112340867E+00  0.16662595007E+02  0.50528860366E+02  0.30000001567E+02 0.  0.
        -12    1    1    2    0    0  0.37087913631E+02 -0.10112340867E+00 -0.16662595007E+02  0.40659139634E+02  0.00000000000E+00 0.  1.
         11    1    3    3    0    0  0.12464327429E+01  0.30482006437E+01  0.72830312627E+00  0.33727655495E+01  0.51100000000E-03 0. -1.
        -11    1    3    3    0    0 -0.82902047504E+01  0.18820024610E+01 -0.53290217563E+01  0.10033339484E+02  0.51100000000E-03 0.  1.
         12    1    3    3    0    0 -0.30044141624E+02 -0.48290796960E+01  0.21263313637E+02  0.37122755332E+02  0.00000000000E+00 0. -1.
</event>
<event>
 7    1  0.2974434E-011  0.5052885E+02  0.7816164E-02  0.1300439E+00
        -11   -1    0    0    0    0  0.00000000000E+00  0.00000000000E+00  0.45593999997E+02  0.45594000000E+02  0.51100000000E-03 0.  1.
         11   -1    0    0    0    0 -0.00000000000E+00 -0.00000000000E+00 -0.45593999997E+02  0.45594000000E+02  0.51100000000E-03 0. -1.
    9900012    2    1    2    0    0 -0.18371621768E+02 -0.31496197469E+02 -0.17989978575E+02  0.50528852561E+02  0.29999977843E+02 0.  0.
        -12    1    1    2    0    0  0.18371621768E+02  0.31496197469E+02  0.17989978575E+02  0.40659147439E+02  0.00000000000E+00 0.  1.
         11    1    3    3    0    0 -0.43385109942E+01 -0.85070353785E+01  0.41197885862E+01  0.10400239749E+02  0.51100000000E-03 0. -1.
        -11    1    3    3    0    0 -0.20351364871E+01 -0.17355030451E+02 -0.44208920127E+01  0.18024515220E+02  0.51100000000E-03 0.  1.
        -12    1    3    3    0    0 -0.11997974287E+02 -0.56341316393E+01 -0.17688875148E+02  0.22104097591E+02  0.00000000000E+00 0.  1.
</event>
<event>
 7    1  0.2974434E-011  0.5052887E+02  0.7816164E-02  0.1300439E+00
        -11   -1    0    0    0    0  0.00000000000E+00  0.00000000000E+00  0.45593999997E+02  0.45594000000E+02  0.51100000000E-03 0.  1.
         11   -1    0    0    0    0 -0.00000000000E+00 -0.00000000000E+00 -0.45593999997E+02  0.45594000000E+02  0.51100000000E-03 0. -1.
    9900012    2    1    2    0    0  0.89011836775E+01  0.39016600350E+02 -0.71860258223E+01  0.50528866452E+02  0.30000020069E+02 0.  0.
        -12    1    1    2    0    0 -0.89011836775E+01 -0.39016600350E+02  0.71860258223E+01  0.40659133548E+02  0.00000000000E+00 0.  1.
         11    1    3    3    0    0  0.55124583724E+00  0.10339062495E+02  0.38652390504E+01  0.11051703869E+02  0.51100000000E-03 0. -1.
        -11    1    3    3    0    0 -0.62435697011E+01  0.11981348499E+02  0.21342967879E+01  0.13678088226E+02  0.51100000000E-03 0.  1.
         12    1    3    3    0    0  0.14593507541E+02  0.16696189356E+02 -0.13185561661E+02  0.25799074357E+02  0.00000000000E+00 0. -1.
</event>
<event>
 7    1  0.2974434E-011  0.5052886E+02  0.7816164E-02  0.1300439E+00
        -11   -1    0    0    0    0  0.00000000000E+00  0.00000000000E+00  0.45593999997E+02  0.45594000000E+02  0.51100000000E-03 0. -1.
         11   -1    0    0    0    0 -0.00000000000E+00 -0.00000000000E+00 -0.45593999997E+02  0.45594000000E+02  0.51100000000E-03 0.  1.
    9900012    2    1    2    0    0 -0.26796832351E+02 -0.23470756512E+02  0.19601501621E+02  0.50528862022E+02  0.30000006602E+02 0.  0.
        -12    1    1    2    0    0  0.26796832351E+02  0.23470756512E+02 -0.19601501621E+02  0.40659137978E+02  0.00000000000E+00 0.  1.
         11    1    3    3    0    0 -0.11872801171E+02 -0.49181838296E+01  0.12484642948E+02  0.17916982158E+02  0.51100000000E-03 0. -1.
        -11    1    3    3    0    0 -0.37353047418E+01 -0.34074238278E+00 -0.63312963697E+01  0.73589347645E+01  0.51100000000E-03 0.  1.
         12    1    3    3    0    0 -0.11188726438E+02 -0.18211830299E+02  0.13448155043E+02  0.25252945100E+02  0.00000000000E+00 0. -1.
</event>
<event>
 7    1  0.2974434E-011  0.5052887E+02  0.7816164E-02  0.1300439E+00
        -11   -1    0    0    0    0  0.00000000000E+00  0.00000000000E+00  0.45593999997E+02  0.45594000000E+02  0.51100000000E-03 0. -1.
         11   -1    0    0    0    0 -0.00000000000E+00 -0.00000000000E+00 -0.45593999997E+02  0.45594000000E+02  0.51100000000E-03 0.  1.
    9900012    2    1    2    0    0  0.18135527078E+02  0.32640533744E+02 -0.16089229270E+02  0.50528867152E+02  0.30000022195E+02 0.  0.
        -12    1    1    2    0    0 -0.18135527078E+02 -0.32640533744E+02  0.16089229270E+02  0.40659132848E+02  0.00000000000E+00 0.  1.
         11    1    3    3    0    0  0.10255864349E+02  0.10648703648E+02  0.20623662254E+01  0.14927524833E+02  0.51100000000E-03 0. -1.
        -11    1    3    3    0    0 -0.49451228865E+01  0.72036355369E+01 -0.12455736978E+02  0.15214860802E+02  0.51100000000E-03 0.  1.
         12    1    3    3    0    0  0.12824785615E+02  0.14788194559E+02 -0.56958585172E+01  0.20386481517E+02  0.00000000000E+00 0. -1.
</event>
<event>
 7    1  0.2974434E-011  0.5052891E+02  0.7816164E-02  0.1300439E+00
        -11   -1    0    0    0    0  0.00000000000E+00  0.00000000000E+00  0.45593999997E+02  0.45594000000E+02  0.51100000000E-03 0. -1.
         11   -1    0    0    0    0 -0.00000000000E+00 -0.00000000000E+00 -0.45593999997E+02  0.45594000000E+02  0.51100000000E-03 0.  1.
    9900012    2    1    2    0    0  0.16207312047E+02  0.29408418547E+02  0.22926614282E+02  0.50528908918E+02  0.30000149145E+02 0.  0.
        -12    1    1    2    0    0 -0.16207312047E+02 -0.29408418547E+02 -0.22926614282E+02  0.40659091082E+02  0.00000000000E+00 0.  1.
         11    1    3    3    0    0  0.65474761281E+01  0.70559243637E+01  0.19134228300E+02  0.21419015037E+02  0.51100000000E-03 0. -1.
        -11    1    3    3    0    0 -0.11322989214E+00 -0.91567349252E+00  0.37610752524E+01  0.38725916734E+01  0.51100000000E-03 0.  1.
        -12    1    3    3    0    0  0.97730658115E+01  0.23268167676E+02  0.31310729809E-01  0.25237302207E+02  0.00000000000E+00 0.  1.
</event>
<event>
 7    1  0.2974434E-011  0.5052886E+02  0.7816164E-02  0.1300439E+00
        -11   -1    0    0    0    0  0.00000000000E+00  0.00000000000E+00  0.45593999997E+02  0.45594000000E+02  0.51100000000E-03 0. -1.
         11   -1    0    0    0    0 -0.00000000000E+00 -0.00000000000E+00 -0.45593999997E+02  0.45594000000E+02  0.51100000000E-03 0.  1.
    9900012    2    1    2    0    0  0.39173674601E+02 -0.33193967554E+01  0.10371609939E+02  0.50528862413E+02  0.30000007791E+02 0.  0.
        -12    1    1    2    0    0 -0.39173674601E+02  0.33193967554E+01 -0.10371609939E+02  0.40659137587E+02  0.00000000000E+00 0.  1.
         11    1    3    3    0    0  0.20991578542E+02 -0.13711283136E+02  0.45762486402E+01  0.25487010550E+02  0.51100000000E-03 0. -1.
        -11    1    3    3    0    0  0.19597564060E+01 -0.27423529680E+01 -0.32380764006E-01  0.33707853309E+01  0.51100000000E-03 0.  1.
         12    1    3    3    0    0  0.16222339654E+02  0.13134239348E+02  0.58277420628E+01  0.21671066532E+02  0.00000000000E+00 0. -1.
</event>
<event>
 7    1  0.2974434E-011  0.5052886E+02  0.7816164E-02  0.1300439E+00
        -11   -1    0    0    0    0  0.00000000000E+00  0.00000000000E+00  0.45593999997E+02  0.45594000000E+02  0.51100000000E-03 0. -1.
         11   -1    0    0    0    0 -0.00000000000E+00 -0.00000000000E+00 -0.45593999997E+02  0.45594000000E+02  0.51100000000E-03 0.  1.
    9900012    2    1    2    0    0 -0.62569268296E+01  0.30979192039E+02  0.25579407962E+02  0.50528860998E+02  0.30000003488E+02 0.  0.
        -12    1    1    2    0    0  0.62569268296E+01 -0.30979192039E+02 -0.25579407962E+02  0.40659139002E+02  0.00000000000E+00 0.  1.
         11    1    3    3    0    0 -0.17612398775E+01  0.10044107499E+02  0.39660889902E+01  0.10941477208E+02  0.51100000000E-03 0. -1.
        -11    1    3    3    0    0 -0.14478318052E+01  0.25975906030E+02  0.12820087418E+02  0.29003423120E+02  0.51100000000E-03 0.  1.
        -12    1    3    3    0    0 -0.30478551468E+01 -0.50408214902E+01  0.87932315537E+01  0.10583960669E+02  0.00000000000E+00 0.  1.
</event>
<event>
 7    1  0.2974434E-011  0.5052885E+02  0.7816164E-02  0.1300439E+00
        -11   -1    0    0    0    0  0.00000000000E+00  0.00000000000E+00  0.45593999997E+02  0.45594000000E+02  0.51100000000E-03 0.  1.
         11   -1    0    0    0    0 -0.00000000000E+00 -0.00000000000E+00 -0.45593999997E+02  0.45594000000E+02  0.51100000000E-03 0. -1.
    9900012    2    1    2    0    0 -0.29076209692E+02 -0.48752459225E+01 -0.27999508511E+02  0.50528850111E+02  0.29999970396E+02 0.  0.
        -12    1    1    2    0    0  0.29076209692E+02  0.48752459225E+01  0.27999508511E+02  0.40659149889E+02  0.00000000000E+00 0.  1.
         11    1    3    3    0    0 -0.76797924727E+01  0.31349782079E+00 -0.80448493742E+01  0.11126414293E+02  0.51100000000E-03 0. -1.
        -11    1    3    3    0    0 -0.19805292946E+02  0.25232608496E+01 -0.23440622076E+02  0.30790895368E+02  0.51100000000E-03 0.  1.
        -12    1    3    3    0    0 -0.15911242731E+01 -0.77120045929E+01  0.34859629391E+01  0.86115404491E+01  0.00000000000E+00 0.  1.
</event>
<event>
 7    1  0.2974434E-011  0.5052886E+02  0.7816164E-02  0.1300439E+00
        -11   -1    0    0    0    0  0.00000000000E+00  0.00000000000E+00  0.45593999997E+02  0.45594000000E+02  0.51100000000E-03 0.  1.
         11   -1    0    0    0    0 -0.00000000000E+00 -0.00000000000E+00 -0.45593999997E+02  0.45594000000E+02  0.51100000000E-03 0. -1.
    9900012    2    1    2    0    0 -0.81420476285E+01  0.28660750560E+02 -0.27666480250E+02  0.50528859678E+02  0.29999999478E+02 0.  0.
        -12    1    1    2    0    0  0.81420476285E+01 -0.28660750560E+02  0.27666480250E+02  0.40659140322E+02  0.00000000000E+00 0.  1.
         11    1    3    3    0    0  0.44522250801E+01  0.24040827724E+02 -0.16099612491E+02  0.29274241723E+02  0.51100000000E-03 0. -1.
        -11    1    3    3    0    0  0.20284343804E+01  0.11856018453E+01 -0.34702852155E+01  0.41908325556E+01  0.51100000000E-03 0.  1.
        -12    1    3    3    0    0 -0.14622707089E+02  0.34343209911E+01 -0.80965825438E+01  0.17063785400E+02  0.00000000000E+00 0.  1.
</event>
<event>
 7    1  0.2974434E-011  0.5052885E+02  0.7816164E-02  0.1300439E+00
        -11   -1    0    0    0    0  0.00000000000E+00  0.00000000000E+00  0.45593999997E+02  0.45594000000E+02  0.51100000000E-03 0. -1.
         11   -1    0    0    0    0 -0.00000000000E+00 -0.00000000000E+00 -0.45593999997E+02  0.45594000000E+02  0.51100000000E-03 0.  1.
    9900012    2    1    2    0    0 -0.25525376791E+02  0.31546157378E+02  0.25420128041E+01  0.50528846852E+02  0.29999960491E+02 0.  0.
        -12    1    1    2    0    0  0.25525376791E+02 -0.31546157378E+02 -0.25420128041E+01  0.40659153148E+02  0.00000000000E+00 0.  1.
         11    1    3    3    0    0 -0.15639934533E+02  0.16006346439E+02  0.81498621043E+01  0.23816610403E+02  0.51100000000E-03 0. -1.
        -11    1    3    3    0    0 -0.77298396631E+01 -0.22645741725E+01 -0.29701659554E+01  0.85849055594E+01  0.51100000000E-03 0.  1.
         12    1    3    3    0    0 -0.21556025947E+01  0.17804385111E+02 -0.26376833448E+01  0.18127330889E+02  0.00000000000E+00 0. -1.
</event>
<event>
 7    1  0.2974434E-011  0.5052885E+02  0.7816164E-02  0.1300439E+00
        -11   -1    0    0    0    0  0.00000000000E+00  0.00000000000E+00  0.45593999997E+02  0.45594000000E+02  0.51100000000E-03 0.  1.
         11   -1    0    0    0    0 -0.00000000000E+00 -0.00000000000E+00 -0.45593999997E+02  0.45594000000E+02  0.51100000000E-03 0. -1.
    9900012    2    1    2    0    0 -0.11291450464E+02  0.33773973260E+02  0.19621118127E+02  0.50528850969E+02  0.29999973005E+02 0.  0.
        -12    1    1    2    0    0  0.11291450464E+02 -0.33773973260E+02 -0.19621118127E+02  0.40659149031E+02  0.00000000000E+00 0.  1.
         11    1    3    3    0    0 -0.12213588672E+01  0.41688880323E+01  0.71601184267E+00  0.44027284868E+01  0.51100000000E-03 0. -1.
        -11    1    3    3    0    0 -0.18836493007E+01  0.11095543215E+02  0.22882093273E+02  0.25499988367E+02  0.51100000000E-03 0.  1.
         12    1    3    3    0    0 -0.81864422967E+01  0.18509542013E+02 -0.39769869888E+01  0.20626134115E+02  0.00000000000E+00 0. -1.
</event>
<event>
 7    1  0.2974434E-011  0.5052885E+02  0.7816164E-02  0.1300439E+00
        -11   -1    0    0    0    0  0.00000000000E+00  0.00000000000E+00  0.45593999997E+02  0.45594000000E+02  0.51100000000E-03 0.  1.
         11   -1    0    0    0    0 -0.00000000000E+00 -0.00000000000E+00 -0.45593999997E+02  0.45594000000E+02  0.51100000000E-03 0. -1.
    9900012    2    1    2    0    0  0.27431630869E+00  0.26742813263E+02 -0.30625371139E+02  0.50528847672E+02  0.29999962983E+02 0.  0.
        -12    1    1    2    0    0 -0.27431630869E+00 -0.26742813263E+02  0.30625371139E+02  0.40659152328E+02  0.00000000000E+00 0.  1.
         11    1    3    3    0    0 -0.25909277782E+01  0.13268924912E+02 -0.29019564874E+02  0.32014253401E+02  0.51100000000E-03 0. -1.
        -11    1    3    3    0    0 -0.40138921762E+01  0.23592014679E+01 -0.27263069679E+01  0.53953602208E+01  0.51100000000E-03 0.  1.
         12    1    3    3    0    0  0.68791362631E+01  0.11114686883E+02  0.11205007030E+01  0.13119234050E+02  0.00000000000E+00 0. -1.
</event>
<event>
 7    1  0.2974434E-011  0.5052886E+02  0.7816164E-02  0.1300439E+00
        -11   -1    0    0    0    0  0.00000000000E+00  0.00000000000E+00  0.45593999997E+02  0.45594000000E+02  0.51100000000E-03 0. -1.
         11   -1    0    0    0    0 -0.00000000000E+00 -0.00000000000E+00 -0.45593999997E+02  0.45594000000E+02  0.51100000000E-03 0.  1.
    9900012    2    1    2    0    0  0.29471764378E+02  0.24951640656E+02  0.12727767509E+02  0.50528864093E+02  0.30000012897E+02 0.  0.
        -12    1    1    2    0    0 -0.29471764378E+02 -0.24951640656E+02 -0.12727767509E+02  0.40659135907E+02  0.00000000000E+00 0.  1.
         11    1    3    3    0    0 -0.16439361009E+01  0.85657658897E+01 -0.27257476081E+01  0.91380835773E+01  0.51100000000E-03 0.  1.
        -11    1    3    3    0    0  0.92912249314E+01  0.11181753445E+02  0.73348864435E+00  0.14556664339E+02  0.51100000000E-03 0. -1.
         12    1    3    3    0    0  0.21824475547E+02  0.52041213211E+01  0.14720026473E+02  0.26834116177E+02  0.00000000000E+00 0. -1.
</event>
<event>
 7    1  0.2974434E-011  0.5052885E+02  0.7816164E-02  0.1300439E+00
        -11   -1    0    0    0    0  0.00000000000E+00  0.00000000000E+00  0.45593999997E+02  0.45594000000E+02  0.51100000000E-03 0. -1.
         11   -1    0    0    0    0 -0.00000000000E+00 -0.00000000000E+00 -0.45593999997E+02  0.45594000000E+02  0.51100000000E-03 0.  1.
    9900012    2    1    2    0    0  0.10101155374E+02  0.36226031545E+02  0.15453405046E+02  0.50528850613E+02  0.29999971922E+02 0.  0.
        -12    1    1    2    0    0 -0.10101155374E+02 -0.36226031545E+02 -0.15453405046E+02  0.40659149387E+02  0.00000000000E+00 0.  1.
         11    1    3    3    0    0 -0.31487122056E+01 -0.10010446357E+01 -0.21171269656E+01  0.39241184700E+01  0.51100000000E-03 0. -1.
        -11    1    3    3    0    0  0.10378551235E+02  0.63748999381E+01  0.49035509287E+01  0.13130060431E+02  0.51100000000E-03 0.  1.
         12    1    3    3    0    0  0.28713163451E+01  0.30852176242E+02  0.12666981083E+02  0.33474671712E+02  0.00000000000E+00 0. -1.
</event>
<event>
 7    1  0.2974434E-011  0.5052885E+02  0.7816164E-02  0.1300439E+00
        -11   -1    0    0    0    0  0.00000000000E+00  0.00000000000E+00  0.45593999997E+02  0.45594000000E+02  0.51100000000E-03 0.  1.
         11   -1    0    0    0    0 -0.00000000000E+00 -0.00000000000E+00 -0.45593999997E+02  0.45594000000E+02  0.51100000000E-03 0. -1.
    9900012    2    1    2    0    0 -0.59766945606E+01 -0.24287639539E+02 -0.32055515845E+02  0.50528850866E+02  0.29999972692E+02 0.  0.
        -12    1    1    2    0    0  0.59766945606E+01  0.24287639539E+02  0.32055515845E+02  0.40659149134E+02  0.00000000000E+00 0.  1.
         11    1    3    3    0    0  0.18085778142E+01 -0.47647163196E+01 -0.35809518959E+01  0.62286990663E+01  0.51100000000E-03 0. -1.
        -11    1    3    3    0    0 -0.13441293934E+02 -0.22540191749E+02 -0.17348625654E+02  0.31459552429E+02  0.51100000000E-03 0.  1.
        -12    1    3    3    0    0  0.56560215591E+01  0.30172685293E+01 -0.11125938295E+02  0.12840599371E+02  0.00000000000E+00 0.  1.
</event>
<event>
 7    1  0.2974434E-011  0.5052887E+02  0.7816164E-02  0.1300439E+00
        -11   -1    0    0    0    0  0.00000000000E+00  0.00000000000E+00  0.45593999997E+02  0.45594000000E+02  0.51100000000E-03 0. -1.
         11   -1    0    0    0    0 -0.00000000000E+00 -0.00000000000E+00 -0.45593999997E+02  0.45594000000E+02  0.51100000000E-03 0.  1.
    9900012    2    1    2    0    0 -0.28021529570E+02 -0.70939328253E+01  0.28594319230E+02  0.50528867021E+02  0.30000021798E+02 0.  0.
        -12    1    1    2    0    0  0.28021529570E+02  0.70939328253E+01 -0.28594319230E+02  0.40659132979E+02  0.00000000000E+00 0.  1.
         11    1    3    3    0    0 -0.12059433760E+01 -0.40220294545E+01  0.33239281408E+01  0.53553262183E+01  0.51100000000E-03 0. -1.
        -11    1    3    3    0    0 -0.23310400277E+02 -0.94685068101E+01  0.27761019681E+02  0.37466005876E+02  0.51100000000E-03 0.  1.
        -12    1    3    3    0    0 -0.35051859165E+01  0.63966034393E+01 -0.24906285920E+01  0.77075349271E+01  0.00000000000E+00 0.  1.
</event>
<event>
 7    1  0.2974434E-011  0.5052889E+02  0.7816164E-02  0.1300439E+00
        -11   -1    0    0    0    0  0.00000000000E+00  0.00000000000E+00  0.45593999997E+02  0.45594000000E+02  0.51100000000E-03 0.  1.
         11   -1    0    0    0    0 -0.00000000000E+00 -0.00000000000E+00 -0.45593999997E+02  0.45594000000E+02  0.51100000000E-03 0. -1.
    9900012    2    1    2    0    0  0.18283790282E+02 -0.13419188500E+02 -0.33745989239E+02  0.50528887899E+02  0.30000085258E+02 0.  0.
        -12    1    1    2    0    0 -0.18283790282E+02  0.13419188500E+02  0.33745989239E+02  0.40659112101E+02  0.00000000000E+00 0.  1.
         11    1    3    3    0    0  0.89242310022E+01 -0.14682775593E+01 -0.46733254541E+01  0.10180260755E+02  0.51100000000E-03 0. -1.
        -11    1    3    3    0    0 -0.19362812069E+01 -0.82045182704E+00  0.35213655247E+01  0.41015047888E+01  0.51100000000E-03 0.  1.
         12    1    3    3    0    0  0.11295840487E+02 -0.11130459114E+02 -0.32594029310E+02  0.36247122356E+02  0.00000000000E+00 0. -1.
</event>
<event>
 7    1  0.2974434E-011  0.5052886E+02  0.7816164E-02  0.1300439E+00
        -11   -1    0    0    0    0  0.00000000000E+00  0.00000000000E+00  0.45593999997E+02  0.45594000000E+02  0.51100000000E-03 0.  1.
         11   -1    0    0    0    0 -0.00000000000E+00 -0.00000000000E+00 -0.45593999997E+02  0.45594000000E+02  0.51100000000E-03 0. -1.
    9900012    2    1    2    0    0  0.13667850449E+02  0.45041614408E+01 -0.38027198903E+02  0.50528862496E+02  0.30000008042E+02 0.  0.
        -12    1    1    2    0    0 -0.13667850449E+02 -0.45041614408E+01  0.38027198903E+02  0.40659137504E+02  0.00000000000E+00 0.  1.
         11    1    3    3    0    0  0.32661568709E+01 -0.11601026419E+00  0.26535395307E+00  0.32789711905E+01  0.51100000000E-03 0. -1.
        -11    1    3    3    0    0  0.15142133642E+02  0.10786839924E+02 -0.19656759680E+02  0.27056022031E+02  0.51100000000E-03 0.  1.
        -12    1    3    3    0    0 -0.47404400646E+01 -0.61666682192E+01 -0.18635793176E+02  0.20193869274E+02  0.00000000000E+00 0.  1.
</event>
<event>
 7    1  0.2974434E-011  0.5052886E+02  0.7816164E-02  0.1300439E+00
        -11   -1    0    0    0    0  0.00000000000E+00  0.00000000000E+00  0.45593999997E+02  0.45594000000E+02  0.51100000000E-03 0. -1.
         11   -1    0    0    0    0 -0.00000000000E+00 -0.00000000000E+00 -0.45593999997E+02  0.45594000000E+02  0.51100000000E-03 0.  1.
    9900012    2    1    2    0    0 -0.36624004257E+02  0.16445724504E+02  0.64332047894E+01  0.50528859993E+02  0.30000000434E+02 0.  0.
        -12    1    1    2    0    0  0.36624004257E+02 -0.16445724504E+02 -0.64332047894E+01  0.40659140007E+02  0.00000000000E+00 0.  1.
         11    1    3    3    0    0 -0.30976750231E+02  0.76917425793E+01 -0.33404101691E+01  0.32091748147E+02  0.51100000000E-03 0. -1.
        -11    1    3    3    0    0 -0.65830259922E+01  0.27896116304E+01  0.10118884426E+02  0.12389914711E+02  0.51100000000E-03 0.  1.
        -12    1    3    3    0    0  0.93577196645E+00  0.59643702942E+01 -0.34526946734E+00  0.60471971346E+01  0.00000000000E+00 0.  1.
</event>
<event>
 7    1  0.2974434E-011  0.5052886E+02  0.7816164E-02  0.1300439E+00
        -11   -1    0    0    0    0  0.00000000000E+00  0.00000000000E+00  0.45593999997E+02  0.45594000000E+02  0.51100000000E-03 0.  1.
         11   -1    0    0    0    0 -0.00000000000E+00 -0.00000000000E+00 -0.45593999997E+02  0.45594000000E+02  0.51100000000E-03 0. -1.
    9900012    2    1    2    0    0  0.15775781023E+01  0.29661066411E+01 -0.40520105049E+02  0.50528862596E+02  0.30000008345E+02 0.  0.
        -12    1    1    2    0    0 -0.15775781023E+01 -0.29661066411E+01  0.40520105049E+02  0.40659137404E+02  0.00000000000E+00 0.  1.
         11    1    3    3    0    0 -0.21441171555E+01 -0.90831114573E+01 -0.17361510348E+02  0.19710966337E+02  0.51100000000E-03 0. -1.
        -11    1    3    3    0    0 -0.61974190880E+01  0.52257099744E+01 -0.73157586124E+01  0.10919540852E+02  0.51100000000E-03 0.  1.
         12    1    3    3    0    0  0.99191143458E+01  0.68235081240E+01 -0.15842836089E+02  0.19898355406E+02  0.00000000000E+00 0. -1.
</event>
<event>
 7    1  0.2974434E-011  0.5052883E+02  0.7816164E-02  0.1300439E+00
        -11   -1    0    0    0    0  0.00000000000E+00  0.00000000000E+00  0.45593999997E+02  0.45594000000E+02  0.51100000000E-03 0.  1.
         11   -1    0    0    0    0 -0.00000000000E+00 -0.00000000000E+00 -0.45593999997E+02  0.45594000000E+02  0.51100000000E-03 0. -1.
    9900012    2    1    2    0    0 -0.37207828200E+02  0.10973229877E+02  0.12179228099E+02  0.50528833132E+02  0.29999918788E+02 0.  0.
        -12    1    1    2    0    0  0.37207828200E+02 -0.10973229877E+02 -0.12179228099E+02  0.40659166868E+02  0.00000000000E+00 0.  1.
         11    1    3    3    0    0 -0.31626970117E+02  0.68893912855E+01 -0.11634066099E+01  0.32389542545E+02  0.51100000000E-03 0. -1.
        -11    1    3    3    0    0 -0.73476305072E+01  0.21978011764E+01  0.44240394665E+01  0.88538200537E+01  0.51100000000E-03 0.  1.
         12    1    3    3    0    0  0.17667724243E+01  0.18860374148E+01  0.89185952420E+01  0.92854705330E+01  0.00000000000E+00 0. -1.
</event>
<event>
 7    1  0.2974434E-011  0.5052886E+02  0.7816164E-02  0.1300439E+00
        -11   -1    0    0    0    0  0.00000000000E+00  0.00000000000E+00  0.45593999997E+02  0.45594000000E+02  0.51100000000E-03 0. -1.
         11   -1    0    0    0    0 -0.00000000000E+00 -0.00000000000E+00 -0.45593999997E+02  0.45594000000E+02  0.51100000000E-03 0.  1.
    9900012    2    1    2    0    0 -0.11486599064E+02  0.37122538142E+02  0.11964153811E+02  0.50528858684E+02  0.29999996455E+02 0.  0.
        -12    1    1    2    0    0  0.11486599064E+02 -0.37122538142E+02 -0.11964153811E+02  0.40659141316E+02  0.00000000000E+00 0.  1.
         11    1    3    3    0    0 -0.30764782920E+01  0.20000008377E+02 -0.74564273904E+01  0.21565327807E+02  0.51100000000E-03 0. -1.
        -11    1    3    3    0    0  0.88940216844E+00  0.14564088948E+01 -0.67845553804E+00  0.18364273098E+01  0.51100000000E-03 0.  1.
        -12    1    3    3    0    0 -0.92995229401E+01  0.15666120871E+02  0.20099036739E+02  0.27127103566E+02  0.00000000000E+00 0.  1.
</event>
<event>
 7    1  0.2974434E-011  0.5052885E+02  0.7816164E-02  0.1300439E+00
        -11   -1    0    0    0    0  0.00000000000E+00  0.00000000000E+00  0.45593999997E+02  0.45594000000E+02  0.51100000000E-03 0. -1.
         11   -1    0    0    0    0 -0.00000000000E+00 -0.00000000000E+00 -0.45593999997E+02  0.45594000000E+02  0.51100000000E-03 0.  1.
    9900012    2    1    2    0    0  0.28079992699E+02  0.23664487968E+02  0.17454871699E+02  0.50528849409E+02  0.29999968262E+02 0.  0.
        -12    1    1    2    0    0 -0.28079992699E+02 -0.23664487968E+02 -0.17454871699E+02  0.40659150591E+02  0.00000000000E+00 0.  1.
         11    1    3    3    0    0  0.51592840373E+01 -0.95701030070E-01 -0.48086342554E+01  0.70533916756E+01  0.51100000000E-03 0. -1.
        -11    1    3    3    0    0  0.72144791899E+01  0.22536206311E+01 -0.15896790175E+01  0.77236387519E+01  0.51100000000E-03 0.  1.
         12    1    3    3    0    0  0.15706229472E+02  0.21506568367E+02  0.23853184972E+02  0.35751818981E+02  0.00000000000E+00 0. -1.
</event>
<event>
 7    1  0.2974434E-011  0.5052884E+02  0.7816164E-02  0.1300439E+00
        -11   -1    0    0    0    0  0.00000000000E+00  0.00000000000E+00  0.45593999997E+02  0.45594000000E+02  0.51100000000E-03 0. -1.
         11   -1    0    0    0    0 -0.00000000000E+00 -0.00000000000E+00 -0.45593999997E+02  0.45594000000E+02  0.51100000000E-03 0.  1.
    9900012    2    1    2    0    0  0.37233418520E+02 -0.86251228552E+01  0.13872543924E+02  0.50528835303E+02  0.29999925387E+02 0.  0.
        -12    1    1    2    0    0 -0.37233418520E+02  0.86251228552E+01 -0.13872543924E+02  0.40659164697E+02  0.00000000000E+00 0.  1.
         11    1    3    3    0    0  0.25015669624E+02 -0.72087984808E+01  0.97338776515E+01  0.27793864011E+02  0.51100000000E-03 0. -1.
        -11    1    3    3    0    0 -0.34473159784E+01  0.17482578839E+01  0.54702680455E+01  0.66980762786E+01  0.51100000000E-03 0.  1.
         12    1    3    3    0    0  0.15665064874E+02 -0.31645822582E+01 -0.13316017725E+01  0.16036895013E+02  0.00000000000E+00 0. -1.
</event>
<event>
 7    1  0.2974434E-011  0.5052885E+02  0.7816164E-02  0.1300439E+00
        -11   -1    0    0    0    0  0.00000000000E+00  0.00000000000E+00  0.45593999997E+02  0.45594000000E+02  0.51100000000E-03 0.  1.
         11   -1    0    0    0    0 -0.00000000000E+00 -0.00000000000E+00 -0.45593999997E+02  0.45594000000E+02  0.51100000000E-03 0. -1.
    9900012    2    1    2    0    0 -0.14315462619E+02 -0.15286262660E+01 -0.38024951419E+02  0.50528854673E+02  0.29999984265E+02 0.  0.
        -12    1    1    2    0    0  0.14315462619E+02  0.15286262660E+01  0.38024951419E+02  0.40659145327E+02  0.00000000000E+00 0.  1.
         11    1    3    3    0    0 -0.37791571380E+01  0.96044823422E+00 -0.13176682273E+02  0.13741522677E+02  0.51100000000E-03 0. -1.
        -11    1    3    3    0    0 -0.97608156013E+01  0.91495371171E+01 -0.20204755565E+02  0.24232616416E+02  0.51100000000E-03 0.  1.
        -12    1    3    3    0    0 -0.77548987941E+00 -0.11638611617E+02 -0.46435135807E+01  0.12554715580E+02  0.00000000000E+00 0.  1.
</event>
<event>
 7    1  0.2974434E-011  0.5052886E+02  0.7816164E-02  0.1300439E+00
        -11   -1    0    0    0    0  0.00000000000E+00  0.00000000000E+00  0.45593999997E+02  0.45594000000E+02  0.51100000000E-03 0.  1.
         11   -1    0    0    0    0 -0.00000000000E+00 -0.00000000000E+00 -0.45593999997E+02  0.45594000000E+02  0.51100000000E-03 0. -1.
    9900012    2    1    2    0    0 -0.16410573601E+01  0.23334569091E+01 -0.40558935397E+02  0.50528864115E+02  0.30000012964E+02 0.  0.
        -12    1    1    2    0    0  0.16410573601E+01 -0.23334569091E+01  0.40558935397E+02  0.40659135885E+02  0.00000000000E+00 0.  1.
         11    1    3    3    0    0  0.38314039870E+01  0.11816938425E+01 -0.23375171164E+02  0.23716548738E+02  0.51100000000E-03 0. -1.
        -11    1    3    3    0    0 -0.57369540876E+01 -0.71711720366E+01 -0.15935207352E+02  0.18392095699E+02  0.51100000000E-03 0.  1.
        -12    1    3    3    0    0  0.26449274052E+00  0.83229351032E+01 -0.12485568807E+01  0.84202196780E+01  0.00000000000E+00 0.  1.
</event>
<event>
 7    1  0.2974434E-011  0.5052886E+02  0.7816164E-02  0.1300439E+00
        -11   -1    0    0    0    0  0.00000000000E+00  0.00000000000E+00  0.45593999997E+02  0.45594000000E+02  0.51100000000E-03 0.  1.
         11   -1    0    0    0    0 -0.00000000000E+00 -0.00000000000E+00 -0.45593999997E+02  0.45594000000E+02  0.51100000000E-03 0. -1.
    9900012    2    1    2    0    0 -0.20362920558E+02 -0.16188028618E+01 -0.35155318125E+02  0.50528862665E+02  0.30000008556E+02 0.  0.
        -12    1    1    2    0    0  0.20362920558E+02  0.16188028618E+01  0.35155318125E+02  0.40659137335E+02  0.00000000000E+00 0.  1.
         11    1    3    3    0    0 -0.20599966737E+01 -0.58120588916E+01 -0.20541884166E+00  0.61697497532E+01  0.51100000000E-03 0. -1.
        -11    1    3    3    0    0  0.12861918333E+01 -0.14366369600E+01 -0.17270512842E+02  0.17377825792E+02  0.51100000000E-03 0.  1.
         12    1    3    3    0    0 -0.19589115717E+02  0.56298929898E+01 -0.17679386442E+02  0.26981287119E+02  0.00000000000E+00 0. -1.
</event>
<event>
 7    1  0.2974434E-011  0.5052901E+02  0.7816164E-02  0.1300438E+00
        -11   -1    0    0    0    0  0.00000000000E+00  0.00000000000E+00  0.45593999997E+02  0.45594000000E+02  0.51100000000E-03 0.  1.
         11   -1    0    0    0    0 -0.00000000000E+00 -0.00000000000E+00 -0.45593999997E+02  0.45594000000E+02  0.51100000000E-03 0. -1.
    9900012    2    1    2    0    0 -0.11193123209E+00  0.18729027867E+02 -0.36088290116E+02  0.50529007182E+02  0.30000447827E+02 0.  0.
        -12    1    1    2    0    0  0.11193123209E+00 -0.18729027867E+02  0.36088290116E+02  0.40658992818E+02  0.00000000000E+00 0.  1.
         11    1    3    3    0    0 -0.22766290621E+01  0.24513393600E+01  0.32133616732E+01  0.46387280637E+01  0.51100000000E-03 0. -1.
        -11    1    3    3    0    0  0.36763874727E+01  0.14606630842E+00 -0.34114265028E+00  0.36950695237E+01  0.51100000000E-03 0.  1.
         12    1    3    3    0    0 -0.15116896427E+01  0.16131622199E+02 -0.38960509139E+02  0.42195209595E+02  0.00000000000E+00 0. -1.
</event>
<event>
 7    1  0.2974434E-011  0.5052886E+02  0.7816164E-02  0.1300439E+00
        -11   -1    0    0    0    0  0.00000000000E+00  0.00000000000E+00  0.45593999997E+02  0.45594000000E+02  0.51100000000E-03 0.  1.
         11   -1    0    0    0    0 -0.00000000000E+00 -0.00000000000E+00 -0.45593999997E+02  0.45594000000E+02  0.51100000000E-03 0. -1.
    9900012    2    1    2    0    0 -0.38106742367E+02  0.41192570483E+01 -0.13567373163E+02  0.50528859490E+02  0.29999998905E+02 0.  0.
        -12    1    1    2    0    0  0.38106742367E+02 -0.41192570483E+01  0.13567373163E+02  0.40659140510E+02  0.00000000000E+00 0.  1.
         11    1    3    3    0    0 -0.94301998776E+01 -0.39893239471E+00 -0.55868458856E+01  0.10968165936E+02  0.51100000000E-03 0. -1.
        -11    1    3    3    0    0 -0.15678713627E+02  0.15256863696E+02 -0.49633586877E+01  0.22432763552E+02  0.51100000000E-03 0.  1.
         12    1    3    3    0    0 -0.12997828862E+02 -0.10738674253E+02 -0.30171685893E+01  0.17127930002E+02  0.00000000000E+00 0. -1.
</event>
<event>
 7    1  0.2974434E-011  0.5052876E+02  0.7816164E-02  0.1300439E+00
        -11   -1    0    0    0    0  0.00000000000E+00  0.00000000000E+00  0.45593999997E+02  0.45594000000E+02  0.51100000000E-03 0.  1.
         11   -1    0    0    0    0 -0.00000000000E+00 -0.00000000000E+00 -0.45593999997E+02  0.45594000000E+02  0.51100000000E-03 0. -1.
    9900012    2    1    2    0    0  0.57442555369E+01  0.79828938365E+01 -0.39451882749E+02  0.50528756056E+02  0.29999684505E+02 0.  0.
        -12    1    1    2    0    0 -0.57442555369E+01 -0.79828938365E+01  0.39451882749E+02  0.40659243944E+02  0.00000000000E+00 0.  1.
         11    1    3    3    0    0  0.14276936656E+02  0.21555195223E+01 -0.79329708324E+01  0.16474501849E+02  0.51100000000E-03 0.  1.
        -11    1    3    3    0    0 -0.30399657120E+00  0.39943495290E+01 -0.14766212350E+02  0.15299943447E+02  0.51100000000E-03 0. -1.
        -12    1    3    3    0    0 -0.82286845480E+01  0.18330247853E+01 -0.16752699567E+02  0.18754310759E+02  0.00000000000E+00 0.  1.
</event>
<event>
 7    1  0.2974434E-011  0.5052886E+02  0.7816164E-02  0.1300439E+00
        -11   -1    0    0    0    0  0.00000000000E+00  0.00000000000E+00  0.45593999997E+02  0.45594000000E+02  0.51100000000E-03 0.  1.
         11   -1    0    0    0    0 -0.00000000000E+00 -0.00000000000E+00 -0.45593999997E+02  0.45594000000E+02  0.51100000000E-03 0. -1.
    9900012    2    1    2    0    0  0.31822585586E+02 -0.11650117502E+02 -0.22466942148E+02  0.50528859814E+02  0.29999999891E+02 0.  0.
        -12    1    1    2    0    0 -0.31822585586E+02  0.11650117502E+02  0.22466942148E+02  0.40659140186E+02  0.00000000000E+00 0.  1.
         11    1    3    3    0    0  0.12371286352E+02  0.60758826931E+01 -0.43183781269E+01  0.14443457564E+02  0.51100000000E-03 0. -1.
        -11    1    3    3    0    0  0.14182798974E+01  0.50781849140E+00  0.26622179325E+01  0.30588890253E+01  0.51100000000E-03 0.  1.
        -12    1    3    3    0    0  0.18033019337E+02 -0.18233818686E+02 -0.20810781953E+02  0.33026513225E+02  0.00000000000E+00 0.  1.
</event>
<event>
 7    1  0.2974434E-011  0.5052886E+02  0.7816164E-02  0.1300439E+00
        -11   -1    0    0    0    0  0.00000000000E+00  0.00000000000E+00  0.45593999997E+02  0.45594000000E+02  0.51100000000E-03 0.  1.
         11   -1    0    0    0    0 -0.00000000000E+00 -0.00000000000E+00 -0.45593999997E+02  0.45594000000E+02  0.51100000000E-03 0. -1.
    9900012    2    1    2    0    0 -0.37050262896E+02 -0.16133737433E+02 -0.44884102687E+01  0.50528864607E+02  0.30000014458E+02 0.  0.
        -12    1    1    2    0    0  0.37050262896E+02  0.16133737433E+02  0.44884102687E+01  0.40659135393E+02  0.00000000000E+00 0.  1.
         11    1    3    3    0    0 -0.93403612217E+01 -0.11416877377E+02  0.33539109091E+01  0.15127331405E+02  0.51100000000E-03 0. -1.
        -11    1    3    3    0    0  0.28087502189E+00 -0.23360780154E+01  0.42183011228E+01  0.48301362192E+01  0.51100000000E-03 0.  1.
         12    1    3    3    0    0 -0.27990776696E+02 -0.23807820402E+01 -0.12060622301E+02  0.30571396982E+02  0.00000000000E+00 0. -1.
</event>
<event>
 7    1  0.2974434E-011  0.5052886E+02  0.7816164E-02  0.1300439E+00
        -11   -1    0    0    0    0  0.00000000000E+00  0.00000000000E+00  0.45593999997E+02  0.45594000000E+02  0.51100000000E-03 0. -1.
         11   -1    0    0    0    0 -0.00000000000E+00 -0.00000000000E+00 -0.45593999997E+02  0.45594000000E+02  0.51100000000E-03 0.  1.
    9900012    2    1    2    0    0 -0.31645058839E+02 -0.19240610714E+02  0.16779600591E+02  0.50528857786E+02  0.29999993726E+02 0.  0.
        -12    1    1    2    0    0  0.31645058839E+02  0.19240610714E+02 -0.16779600591E+02  0.40659142214E+02  0.00000000000E+00 0.  1.
         11    1    3    3    0    0 -0.14216231526E+02 -0.21832868561E+02  0.15362654463E+02  0.30245438348E+02  0.51100000000E-03 0. -1.
        -11    1    3    3    0    0 -0.31099358339E+01 -0.30340578033E+01  0.22175735913E+01  0.48779955452E+01  0.51100000000E-03 0.  1.
        -12    1    3    3    0    0 -0.14318891479E+02  0.56263156501E+01 -0.80062746373E+00  0.15405423893E+02  0.00000000000E+00 0.  1.
</event>
<event>
 7    1  0.2974434E-011  0.5052887E+02  0.7816164E-02  0.1300439E+00
        -11   -1    0    0    0    0  0.00000000000E+00  0.00000000000E+00  0.45593999997E+02  0.45594000000E+02  0.51100000000E-03 0.  1.
         11   -1    0    0    0    0 -0.00000000000E+00 -0.00000000000E+00 -0.45593999997E+02  0.45594000000E+02  0.51100000000E-03 0. -1.
    9900012    2    1    2    0    0  0.22575186858E+02  0.22875350774E+02 -0.24904707777E+02  0.50528865674E+02  0.30000017702E+02 0.  0.
        -12    1    1    2    0    0 -0.22575186858E+02 -0.22875350774E+02  0.24904707777E+02  0.40659134326E+02  0.00000000000E+00 0.  1.
         11    1    3    3    0    0 -0.13520109256E+01 -0.89038762231E+00 -0.60201293699E+01  0.62339940289E+01  0.51100000000E-03 0. -1.
        -11    1    3    3    0    0  0.16161153784E+00  0.58893797106E+01 -0.12586220862E+02  0.13896901363E+02  0.51100000000E-03 0.  1.
         12    1    3    3    0    0  0.23765586246E+02  0.17876358686E+02 -0.62983575450E+01  0.30397970282E+02  0.00000000000E+00 0. -1.
</event>
<event>
 7    1  0.2974434E-011  0.5052886E+02  0.7816164E-02  0.1300439E+00
        -11   -1    0    0    0    0  0.00000000000E+00  0.00000000000E+00  0.45593999997E+02  0.45594000000E+02  0.51100000000E-03 0. -1.
         11   -1    0    0    0    0 -0.00000000000E+00 -0.00000000000E+00 -0.45593999997E+02  0.45594000000E+02  0.51100000000E-03 0.  1.
    9900012    2    1    2    0    0 -0.26753913502E+02  0.31367783181E+00  0.30615285517E+02  0.50528856025E+02  0.29999988375E+02 0.  0.
        -12    1    1    2    0    0  0.26753913502E+02 -0.31367783181E+00 -0.30615285517E+02  0.40659143975E+02  0.00000000000E+00 0.  1.
         11    1    3    3    0    0  0.18929682455E+01  0.58364019171E+01  0.14107914368E+01  0.62958120092E+01  0.51100000000E-03 0.  1.
        -11    1    3    3    0    0 -0.37313159703E+01  0.49178053010E+01  0.62253853639E+01  0.87671518203E+01  0.51100000000E-03 0. -1.
         12    1    3    3    0    0 -0.24915565777E+02 -0.10440529386E+02  0.22979108717E+02  0.35465892196E+02  0.00000000000E+00 0. -1.
</event>
<event>
 7    1  0.2974434E-011  0.5052879E+02  0.7816164E-02  0.1300439E+00
        -11   -1    0    0    0    0  0.00000000000E+00  0.00000000000E+00  0.45593999997E+02  0.45594000000E+02  0.51100000000E-03 0.  1.
         11   -1    0    0    0    0 -0.00000000000E+00 -0.00000000000E+00 -0.45593999997E+02  0.45594000000E+02  0.51100000000E-03 0. -1.
    9900012    2    1    2    0    0 -0.39825060193E+02  0.35549883920E+00  0.81859167528E+01  0.50528794008E+02  0.29999799867E+02 0.  0.
        -12    1    1    2    0    0  0.39825060193E+02 -0.35549883920E+00 -0.81859167528E+01  0.40659205992E+02  0.00000000000E+00 0.  1.
         11    1    3    3    0    0 -0.17379696729E+02 -0.42820310545E+01  0.12748112754E+02  0.21975077415E+02  0.51100000000E-03 0. -1.
        -11    1    3    3    0    0 -0.20215480891E+01 -0.50576135615E+01 -0.19939544150E+01  0.58001694875E+01  0.51100000000E-03 0.  1.
         12    1    3    3    0    0 -0.20423815374E+02  0.96951434552E+01 -0.25682415858E+01  0.22753547106E+02  0.00000000000E+00 0. -1.
</event>
<event>
 7    1  0.2974434E-011  0.5052886E+02  0.7816164E-02  0.1300439E+00
        -11   -1    0    0    0    0  0.00000000000E+00  0.00000000000E+00  0.45593999997E+02  0.45594000000E+02  0.51100000000E-03 0.  1.
         11   -1    0    0    0    0 -0.00000000000E+00 -0.00000000000E+00 -0.45593999997E+02  0.45594000000E+02  0.51100000000E-03 0. -1.
    9900012    2    1    2    0    0 -0.11974421313E+02 -0.24972044953E+02 -0.29768706407E+02  0.50528859871E+02  0.30000000063E+02 0.  0.
        -12    1    1    2    0    0  0.11974421313E+02  0.24972044953E+02  0.29768706407E+02  0.40659140129E+02  0.00000000000E+00 0.  1.
         11    1    3    3    0    0 -0.19609784831E+00 -0.12013387206E+02 -0.42893606208E+01  0.12757685578E+02  0.51100000000E-03 0. -1.
        -11    1    3    3    0    0  0.49583499941E+01  0.66385368958E+00 -0.10102673091E+02  0.11273417416E+02  0.51100000000E-03 0.  1.
        -12    1    3    3    0    0 -0.16736673459E+02 -0.13622511437E+02 -0.15376672695E+02  0.26497756876E+02  0.00000000000E+00 0.  1.
</event>
<event>
 7    1  0.2974434E-011  0.5052885E+02  0.7816164E-02  0.1300439E+00
        -11   -1    0    0    0    0  0.00000000000E+00  0.00000000000E+00  0.45593999997E+02  0.45594000000E+02  0.51100000000E-03 0. -1.
         11   -1    0    0    0    0 -0.00000000000E+00 -0.00000000000E+00 -0.45593999997E+02  0.45594000000E+02  0.51100000000E-03 0.  1.
    9900012    2    1    2    0    0  0.40521769468E+02 -0.13690515045E+01  0.30459816213E+01  0.50528854573E+02  0.29999983959E+02 0.  0.
        -12    1    1    2    0    0 -0.40521769468E+02  0.13690515045E+01 -0.30459816213E+01  0.40659145427E+02  0.00000000000E+00 0.  1.
         11    1    3    3    0    0  0.74016386416E+01  0.68478966542E+01  0.64341702767E+01  0.11961458547E+02  0.51100000000E-03 0. -1.
        -11    1    3    3    0    0 -0.20157410843E+01 -0.12941558335E+01  0.76829057432E+00  0.25156156519E+01  0.51100000000E-03 0.  1.
         12    1    3    3    0    0  0.35135871911E+02 -0.69227923252E+01 -0.41564792298E+01  0.36051780373E+02  0.00000000000E+00 0. -1.
</event>
<event>
 7    1  0.2974434E-011  0.5052887E+02  0.7816164E-02  0.1300439E+00
        -11   -1    0    0    0    0  0.00000000000E+00  0.00000000000E+00  0.45593999997E+02  0.45594000000E+02  0.51100000000E-03 0.  1.
         11   -1    0    0    0    0 -0.00000000000E+00 -0.00000000000E+00 -0.45593999997E+02  0.45594000000E+02  0.51100000000E-03 0. -1.
    9900012    2    1    2    0    0  0.36455380643E+02 -0.17973990150E+02  0.10514812004E+01  0.50528871720E+02  0.30000036081E+02 0.  0.
        -12    1    1    2    0    0 -0.36455380643E+02  0.17973990150E+02 -0.10514812004E+01  0.40659128280E+02  0.00000000000E+00 0.  1.
         11    1    3    3    0    0  0.58029106680E+01 -0.10471302399E+02 -0.94744004009E+01  0.15267161143E+02  0.51100000000E-03 0. -1.
        -11    1    3    3    0    0  0.46392406788E+01 -0.16131378178E+00 -0.24834420314E+01  0.52646045242E+01  0.51100000000E-03 0.  1.
        -12    1    3    3    0    0  0.26013229296E+02 -0.73413739690E+01  0.13009323633E+02  0.29997106053E+02  0.00000000000E+00 0.  1.
</event>
<event>
 7    1  0.2974434E-011  0.5052886E+02  0.7816164E-02  0.1300439E+00
        -11   -1    0    0    0    0  0.00000000000E+00  0.00000000000E+00  0.45593999997E+02  0.45594000000E+02  0.51100000000E-03 0. -1.
         11   -1    0    0    0    0 -0.00000000000E+00 -0.00000000000E+00 -0.45593999997E+02  0.45594000000E+02  0.51100000000E-03 0.  1.
    9900012    2    1    2    0    0  0.36047657900E+02 -0.14024027213E+02  0.12532314634E+02  0.50528857247E+02  0.29999992089E+02 0.  0.
        -12    1    1    2    0    0 -0.36047657900E+02  0.14024027213E+02 -0.12532314634E+02  0.40659142753E+02  0.00000000000E+00 0.  1.
         11    1    3    3    0    0  0.15248251762E+02  0.18141613415E+01  0.13082162887E+02  0.20172836916E+02  0.51100000000E-03 0. -1.
        -11    1    3    3    0    0  0.47593181459E+01  0.18091341684E+01  0.34841405553E+01  0.61695470923E+01  0.51100000000E-03 0.  1.
        -12    1    3    3    0    0  0.16040087992E+02 -0.17647322722E+02 -0.40339888082E+01  0.24186473239E+02  0.00000000000E+00 0.  1.
</event>
<event>
 7    1  0.2974434E-011  0.5052886E+02  0.7816164E-02  0.1300439E+00
        -11   -1    0    0    0    0  0.00000000000E+00  0.00000000000E+00  0.45593999997E+02  0.45594000000E+02  0.51100000000E-03 0. -1.
         11   -1    0    0    0    0 -0.00000000000E+00 -0.00000000000E+00 -0.45593999997E+02  0.45594000000E+02  0.51100000000E-03 0.  1.
    9900012    2    1    2    0    0 -0.33616980810E+02 -0.21778666992E+02  0.69823932803E+01  0.50528861413E+02  0.30000004751E+02 0.  0.
        -12    1    1    2    0    0  0.33616980810E+02  0.21778666992E+02 -0.69823932803E+01  0.40659138587E+02  0.00000000000E+00 0.  1.
         11    1    3    3    0    0 -0.12947768073E+02 -0.73718786467E+01  0.60788911188E+00  0.14911700852E+02  0.51100000000E-03 0. -1.
        -11    1    3    3    0    0 -0.17013754493E+02 -0.20004729036E+02  0.98919608854E+01  0.28062571446E+02  0.51100000000E-03 0.  1.
         12    1    3    3    0    0 -0.36554582442E+01  0.55979406907E+01 -0.35174567170E+01  0.75545891157E+01  0.00000000000E+00 0. -1.
</event>
<event>
 7    1  0.2974434E-011  0.5052886E+02  0.7816164E-02  0.1300439E+00
        -11   -1    0    0    0    0  0.00000000000E+00  0.00000000000E+00  0.45593999997E+02  0.45594000000E+02  0.51100000000E-03 0.  1.
         11   -1    0    0    0    0 -0.00000000000E+00 -0.00000000000E+00 -0.45593999997E+02  0.45594000000E+02  0.51100000000E-03 0. -1.
    9900012    2    1    2    0    0  0.17096383306E+02 -0.10155355706E+01 -0.36876117545E+02  0.50528859824E+02  0.29999999921E+02 0.  0.
        -12    1    1    2    0    0 -0.17096383306E+02  0.10155355706E+01  0.36876117545E+02  0.40659140176E+02  0.00000000000E+00 0.  1.
         11    1    3    3    0    0 -0.10844103483E+01  0.59741509296E+01 -0.11831858459E+02  0.13298845814E+02  0.51100000000E-03 0. -1.
        -11    1    3    3    0    0  0.41074310734E-01  0.40596402046E+01 -0.11106676409E+02  0.11825422902E+02  0.51100000000E-03 0.  1.
         12    1    3    3    0    0  0.18139719344E+02 -0.11049326705E+02 -0.13937582677E+02  0.25404591108E+02  0.00000000000E+00 0. -1.
</event>
<event>
 7    1  0.2974434E-011  0.5052886E+02  0.7816164E-02  0.1300439E+00
        -11   -1    0    0    0    0  0.00000000000E+00  0.00000000000E+00  0.45593999997E+02  0.45594000000E+02  0.51100000000E-03 0. -1.
         11   -1    0    0    0    0 -0.00000000000E+00 -0.00000000000E+00 -0.45593999997E+02  0.45594000000E+02  0.51100000000E-03 0.  1.
    9900012    2    1    2    0    0  0.11595671308E+02  0.26950164257E+02  0.28149508323E+02  0.50528858772E+02  0.29999996724E+02 0.  0.
        -12    1    1    2    0    0 -0.11595671308E+02 -0.26950164257E+02 -0.28149508323E+02  0.40659141228E+02  0.00000000000E+00 0.  1.
         11    1    3    3    0    0  0.19804355231E+01 -0.21397559098E+01  0.54598361780E+01  0.61895469597E+01  0.51100000000E-03 0. -1.
        -11    1    3    3    0    0  0.50053589121E+01  0.28343509107E+01  0.15787935378E+02  0.16803156450E+02  0.51100000000E-03 0.  1.
         12    1    3    3    0    0  0.46098768725E+01  0.26255569256E+02  0.69017367672E+01  0.27536155362E+02  0.00000000000E+00 0. -1.
</event>
<event>
 7    1  0.2974434E-011  0.5052886E+02  0.7816164E-02  0.1300439E+00
        -11   -1    0    0    0    0  0.00000000000E+00  0.00000000000E+00  0.45593999997E+02  0.45594000000E+02  0.51100000000E-03 0. -1.
         11   -1    0    0    0    0 -0.00000000000E+00 -0.00000000000E+00 -0.45593999997E+02  0.45594000000E+02  0.51100000000E-03 0.  1.
    9900012    2    1    2    0    0 -0.10636825006E+02 -0.30378241721E+02 -0.24843231076E+02  0.50528859003E+02  0.29999997426E+02 0.  0.
        -12    1    1    2    0    0  0.10636825006E+02  0.30378241721E+02  0.24843231076E+02  0.40659140997E+02  0.00000000000E+00 0.  1.
         11    1    3    3    0    0  0.40082932743E+01 -0.13550243962E+00  0.28384596245E+01  0.49134131910E+01  0.51100000000E-03 0. -1.
        -11    1    3    3    0    0 -0.11987702064E+01  0.14170717436E+01 -0.15466664867E+01  0.24160545971E+01  0.51100000000E-03 0.  1.
        -12    1    3    3    0    0 -0.13446348074E+02 -0.31659811025E+02 -0.26135024214E+02  0.43199391215E+02  0.00000000000E+00 0.  1.
</event>
<event>
 7    1  0.2974434E-011  0.5052885E+02  0.7816164E-02  0.1300439E+00
        -11   -1    0    0    0    0  0.00000000000E+00  0.00000000000E+00  0.45593999997E+02  0.45594000000E+02  0.51100000000E-03 0. -1.
         11   -1    0    0    0    0 -0.00000000000E+00 -0.00000000000E+00 -0.45593999997E+02  0.45594000000E+02  0.51100000000E-03 0.  1.
    9900012    2    1    2    0    0  0.55842767606E+01  0.37629977664E+02  0.14351541449E+02  0.50528854560E+02  0.29999983920E+02 0.  0.
        -12    1    1    2    0    0 -0.55842767606E+01 -0.37629977664E+02 -0.14351541449E+02  0.40659145440E+02  0.00000000000E+00 0.  1.
         11    1    3    3    0    0  0.99433806981E+01  0.27584418700E+02  0.16306734510E+02  0.33551163398E+02  0.51100000000E-03 0. -1.
        -11    1    3    3    0    0  0.17277618416E+01  0.88834600133E+00  0.40189629917E+01  0.44638977798E+01  0.51100000000E-03 0.  1.
         12    1    3    3    0    0 -0.60868657791E+01  0.91572129628E+01 -0.59741560528E+01  0.12513793382E+02  0.00000000000E+00 0. -1.
</event>
<event>
 7    1  0.2974434E-011  0.5052885E+02  0.7816164E-02  0.1300439E+00
        -11   -1    0    0    0    0  0.00000000000E+00  0.00000000000E+00  0.45593999997E+02  0.45594000000E+02  0.51100000000E-03 0. -1.
         11   -1    0    0    0    0 -0.00000000000E+00 -0.00000000000E+00 -0.45593999997E+02  0.45594000000E+02  0.51100000000E-03 0.  1.
    9900012    2    1    2    0    0 -0.31536444858E+02 -0.86330678504E+01  0.24167932888E+02  0.50528853491E+02  0.29999980670E+02 0.  0.
        -12    1    1    2    0    0  0.31536444858E+02  0.86330678504E+01 -0.24167932888E+02  0.40659146509E+02  0.00000000000E+00 0.  1.
         11    1    3    3    0    0 -0.12485816079E+02 -0.80802557659E+01  0.74465089119E+01  0.16632397050E+02  0.51100000000E-03 0. -1.
        -11    1    3    3    0    0 -0.67801779918E+01 -0.66656660679E+01 -0.29180290948E+01  0.99456931276E+01  0.51100000000E-03 0.  1.
         12    1    3    3    0    0 -0.12270450787E+02  0.61128539834E+01  0.19639453070E+02  0.23950763313E+02  0.00000000000E+00 0. -1.
</event>
<event>
 7    1  0.2974434E-011  0.5052886E+02  0.7816164E-02  0.1300439E+00
        -11   -1    0    0    0    0  0.00000000000E+00  0.00000000000E+00  0.45593999997E+02  0.45594000000E+02  0.51100000000E-03 0.  1.
         11   -1    0    0    0    0 -0.00000000000E+00 -0.00000000000E+00 -0.45593999997E+02  0.45594000000E+02  0.51100000000E-03 0. -1.
    9900012    2    1    2    0    0  0.14772442878E+02  0.34295796044E+02 -0.16085369138E+02  0.50528858406E+02  0.29999995610E+02 0.  0.
        -12    1    1    2    0    0 -0.14772442878E+02 -0.34295796044E+02  0.16085369138E+02  0.40659141594E+02  0.00000000000E+00 0.  1.
         11    1    3    3    0    0 -0.55009660223E+01  0.36575893873E+01 -0.21553286684E+01  0.69486710409E+01  0.51100000000E-03 0. -1.
        -11    1    3    3    0    0  0.95810720550E+01  0.17235305684E+02  0.24463141820E+01  0.19870509734E+02  0.51100000000E-03 0.  1.
         12    1    3    3    0    0  0.10692336845E+02  0.13402900973E+02 -0.16376354652E+02  0.23709677631E+02  0.00000000000E+00 0. -1.
</event>
<event>
 7    1  0.2974434E-011  0.5052886E+02  0.7816164E-02  0.1300439E+00
        -11   -1    0    0    0    0  0.00000000000E+00  0.00000000000E+00  0.45593999997E+02  0.45594000000E+02  0.51100000000E-03 0.  1.
         11   -1    0    0    0    0 -0.00000000000E+00 -0.00000000000E+00 -0.45593999997E+02  0.45594000000E+02  0.51100000000E-03 0. -1.
    9900012    2    1    2    0    0 -0.35142286893E+02 -0.17808123226E+02 -0.10052672941E+02  0.50528858173E+02  0.29999994901E+02 0.  0.
        -12    1    1    2    0    0  0.35142286893E+02  0.17808123226E+02  0.10052672941E+02  0.40659141827E+02  0.00000000000E+00 0.  1.
         11    1    3    3    0    0 -0.55357388551E+01  0.18017929335E+01  0.14664413475E+01  0.60034417573E+01  0.51100000000E-03 0. -1.
        -11    1    3    3    0    0 -0.15041681478E+02 -0.12251054805E+02  0.62679050786E+01  0.20386936009E+02  0.51100000000E-03 0.  1.
         12    1    3    3    0    0 -0.14564866560E+02 -0.73588613544E+01 -0.17787019367E+02  0.24138480406E+02  0.00000000000E+00 0. -1.
</event>
<event>
 7    1  0.2974434E-011  0.5052886E+02  0.7816164E-02  0.1300439E+00
        -11   -1    0    0    0    0  0.00000000000E+00  0.00000000000E+00  0.45593999997E+02  0.45594000000E+02  0.51100000000E-03 0. -1.
         11   -1    0    0    0    0 -0.00000000000E+00 -0.00000000000E+00 -0.45593999997E+02  0.45594000000E+02  0.51100000000E-03 0.  1.
    9900012    2    1    2    0    0 -0.34574935294E+02 -0.12074160783E+02  0.17662225598E+02  0.50528859302E+02  0.29999998335E+02 0.  0.
        -12    1    1    2    0    0  0.34574935294E+02  0.12074160783E+02 -0.17662225598E+02  0.40659140698E+02  0.00000000000E+00 0.  1.
         11    1    3    3    0    0  0.26566281804E+01 -0.11791688214E+01  0.12880565959E+01  0.31791826706E+01  0.51100000000E-03 0.  1.
        -11    1    3    3    0    0 -0.37729594225E+02 -0.51682858419E+01  0.16720422566E+02  0.41590936392E+02  0.51100000000E-03 0. -1.
         12    1    3    3    0    0  0.49803075050E+00 -0.57267061200E+01 -0.34625356432E+00  0.57587402394E+01  0.00000000000E+00 0. -1.
</event>
<event>
 7    1  0.3336425E-011  0.5052886E+02  0.7816164E-02  0.1300439E+00
        -11   -1    0    0    0    0  0.00000000000E+00  0.00000000000E+00  0.45593999997E+02  0.45594000000E+02  0.51100000000E-03 0.  1.
         11   -1    0    0    0    0 -0.00000000000E+00 -0.00000000000E+00 -0.45593999997E+02  0.45594000000E+02  0.51100000000E-03 0. -1.
    9900012    2    1    2    0    0 -0.16849539305E+02  0.31913030851E+02 -0.18730119458E+02  0.50528857266E+02  0.29999992147E+02 0.  0.
        -12    1    1    2    0    0  0.16849539305E+02 -0.31913030851E+02  0.18730119458E+02  0.40659142734E+02  0.00000000000E+00 0.  1.
         11    1    3    3    0    0 -0.17811117285E+02  0.17217402548E+02 -0.15096135451E+02  0.29009794126E+02  0.51100000000E-03 0. -1.
        -11    1    3    3    0    0  0.32309841317E+01  0.42386817281E+01 -0.82852847914E+01  0.98514783453E+01  0.51100000000E-03 0.  1.
        -12    1    3    3    0    0 -0.22694061523E+01  0.10456946575E+02  0.46513007841E+01  0.11667584795E+02  0.00000000000E+00 0.  1.
</event>
<event>
 7    1  0.2974434E-011  0.5052886E+02  0.7816164E-02  0.1300439E+00
        -11   -1    0    0    0    0  0.00000000000E+00  0.00000000000E+00  0.45593999997E+02  0.45594000000E+02  0.51100000000E-03 0. -1.
         11   -1    0    0    0    0 -0.00000000000E+00 -0.00000000000E+00 -0.45593999997E+02  0.45594000000E+02  0.51100000000E-03 0.  1.
    9900012    2    1    2    0    0 -0.93666482346E+01 -0.33271508652E+02  0.21411163060E+02  0.50528864609E+02  0.30000014467E+02 0.  0.
        -12    1    1    2    0    0  0.93666482346E+01  0.33271508652E+02 -0.21411163060E+02  0.40659135391E+02  0.00000000000E+00 0.  1.
         11    1    3    3    0    0  0.13330212210E+01 -0.15302479146E+02  0.20131711835E+02  0.25322492675E+02  0.51100000000E-03 0. -1.
        -11    1    3    3    0    0 -0.70458062820E+01 -0.11663346709E+01  0.33470861935E+01  0.78871229847E+01  0.51100000000E-03 0.  1.
         12    1    3    3    0    0 -0.36538631736E+01 -0.16802694836E+02 -0.20676349690E+01  0.17319248950E+02  0.00000000000E+00 0. -1.
</event>
<event>
 7    1  0.2974434E-011  0.5052886E+02  0.7816164E-02  0.1300439E+00
        -11   -1    0    0    0    0  0.00000000000E+00  0.00000000000E+00  0.45593999997E+02  0.45594000000E+02  0.51100000000E-03 0.  1.
         11   -1    0    0    0    0 -0.00000000000E+00 -0.00000000000E+00 -0.45593999997E+02  0.45594000000E+02  0.51100000000E-03 0. -1.
    9900012    2    1    2    0    0  0.17543006489E+02  0.26784487713E+02 -0.25059928410E+02  0.50528857478E+02  0.29999992790E+02 0.  0.
        -12    1    1    2    0    0 -0.17543006489E+02 -0.26784487713E+02  0.25059928410E+02  0.40659142522E+02  0.00000000000E+00 0.  1.
         11    1    3    3    0    0  0.24677656279E+01  0.99411206682E+01 -0.10896023629E+02  0.14954567146E+02  0.51100000000E-03 0. -1.
        -11    1    3    3    0    0 -0.56285904552E+01  0.34270177507E+01  0.92598522463E+00  0.66545420634E+01  0.51100000000E-03 0.  1.
        -12    1    3    3    0    0  0.20703831316E+02  0.13416349294E+02 -0.15089890006E+02  0.28919748269E+02  0.00000000000E+00 0.  1.
</event>
<event>
 7    1  0.2974434E-011  0.5052885E+02  0.7816164E-02  0.1300439E+00
        -11   -1    0    0    0    0  0.00000000000E+00  0.00000000000E+00  0.45593999997E+02  0.45594000000E+02  0.51100000000E-03 0.  1.
         11   -1    0    0    0    0 -0.00000000000E+00 -0.00000000000E+00 -0.45593999997E+02  0.45594000000E+02  0.51100000000E-03 0. -1.
    9900012    2    1    2    0    0  0.54937262307E+01 -0.37599826512E+02 -0.14465084306E+02  0.50528847948E+02  0.29999963822E+02 0.  0.
        -12    1    1    2    0    0 -0.54937262307E+01  0.37599826512E+02  0.14465084306E+02  0.40659152052E+02  0.00000000000E+00 0.  1.
         11    1    3    3    0    0  0.10706442830E+02 -0.25859933772E+02 -0.17875982472E+01  0.28045669907E+02  0.51100000000E-03 0. -1.
        -11    1    3    3    0    0  0.33578643640E+01 -0.44481716914E+00 -0.58185789059E+01  0.67326797151E+01  0.51100000000E-03 0.  1.
        -12    1    3    3    0    0 -0.85705809629E+01 -0.11295075570E+02 -0.68589071525E+01  0.15750498326E+02  0.00000000000E+00 0.  1.
</event>
<event>
 7    1  0.2974434E-011  0.5052886E+02  0.7816164E-02  0.1300439E+00
        -11   -1    0    0    0    0  0.00000000000E+00  0.00000000000E+00  0.45593999997E+02  0.45594000000E+02  0.51100000000E-03 0.  1.
         11   -1    0    0    0    0 -0.00000000000E+00 -0.00000000000E+00 -0.45593999997E+02  0.45594000000E+02  0.51100000000E-03 0. -1.
    9900012    2    1    2    0    0  0.74639996607E+01 -0.93797558197E+01 -0.38851954870E+02  0.50528861945E+02  0.30000006368E+02 0.  0.
        -12    1    1    2    0    0 -0.74639996607E+01  0.93797558197E+01  0.38851954870E+02  0.40659138055E+02  0.00000000000E+00 0.  1.
         11    1    3    3    0    0 -0.53829150288E+01 -0.39840374768E+00 -0.58006379159E+01  0.79235030287E+01  0.51100000000E-03 0. -1.
        -11    1    3    3    0    0 -0.23041044533E+01  0.11240601809E+01  0.19019278849E+01  0.31921369899E+01  0.51100000000E-03 0.  1.
         12    1    3    3    0    0  0.15151019143E+02 -0.10105412253E+02 -0.34953244839E+02  0.39413221926E+02  0.00000000000E+00 0. -1.
</event>
<event>
 7    1  0.2974434E-011  0.5052886E+02  0.7816164E-02  0.1300439E+00
        -11   -1    0    0    0    0  0.00000000000E+00  0.00000000000E+00  0.45593999997E+02  0.45594000000E+02  0.51100000000E-03 0.  1.
         11   -1    0    0    0    0 -0.00000000000E+00 -0.00000000000E+00 -0.45593999997E+02  0.45594000000E+02  0.51100000000E-03 0. -1.
    9900012    2    1    2    0    0  0.11175096489E+02 -0.83255070574E+01 -0.38196454973E+02  0.50528855619E+02  0.29999987140E+02 0.  0.
        -12    1    1    2    0    0 -0.11175096489E+02  0.83255070574E+01  0.38196454973E+02  0.40659144381E+02  0.00000000000E+00 0.  1.
         11    1    3    3    0    0  0.69429884681E+01 -0.13664565528E+02 -0.16185082757E+02  0.22290857857E+02  0.51100000000E-03 0.  1.
        -11    1    3    3    0    0  0.87328416280E+01  0.23562892137E+01 -0.48835741215E+01  0.10279295609E+02  0.51100000000E-03 0. -1.
        -12    1    3    3    0    0 -0.45007336067E+01  0.29827692564E+01 -0.17127798095E+02  0.17958702153E+02  0.00000000000E+00 0.  1.
</event>
<event>
 7    1  0.2974434E-011  0.5052886E+02  0.7816164E-02  0.1300439E+00
        -11   -1    0    0    0    0  0.00000000000E+00  0.00000000000E+00  0.45593999997E+02  0.45594000000E+02  0.51100000000E-03 0.  1.
         11   -1    0    0    0    0 -0.00000000000E+00 -0.00000000000E+00 -0.45593999997E+02  0.45594000000E+02  0.51100000000E-03 0. -1.
    9900012    2    1    2    0    0  0.29676520973E+02  0.84527793979E+01 -0.26476793553E+02  0.50528856214E+02  0.29999988947E+02 0.  0.
        -12    1    1    2    0    0 -0.29676520973E+02 -0.84527793979E+01  0.26476793553E+02  0.40659143786E+02  0.00000000000E+00 0.  1.
         11    1    3    3    0    0 -0.17475288080E+01  0.29144325673E+01 -0.77289674602E+01  0.84430274420E+01  0.51100000000E-03 0. -1.
        -11    1    3    3    0    0  0.49483937026E+01 -0.20359482990E+01 -0.12855569661E+02  0.13924703131E+02  0.51100000000E-03 0.  1.
        -12    1    3    3    0    0  0.26475656078E+02  0.75742951297E+01 -0.58922564313E+01  0.28161125640E+02  0.00000000000E+00 0.  1.
</event>
<event>
 7    1  0.2974434E-011  0.5052886E+02  0.7816164E-02  0.1300439E+00
        -11   -1    0    0    0    0  0.00000000000E+00  0.00000000000E+00  0.45593999997E+02  0.45594000000E+02  0.51100000000E-03 0. -1.
         11   -1    0    0    0    0 -0.00000000000E+00 -0.00000000000E+00 -0.45593999997E+02  0.45594000000E+02  0.51100000000E-03 0.  1.
    9900012    2    1    2    0    0  0.16154826459E+02 -0.31232980383E+02  0.20412938791E+02  0.50528861401E+02  0.30000004715E+02 0.  0.
        -12    1    1    2    0    0 -0.16154826459E+02  0.31232980383E+02 -0.20412938791E+02  0.40659138599E+02  0.00000000000E+00 0.  1.
         11    1    3    3    0    0 -0.49745353354E+01 -0.85459779322E+01  0.84081144696E+01  0.12979835508E+02  0.51100000000E-03 0. -1.
        -11    1    3    3    0    0  0.32325010802E+01 -0.13282121857E+02  0.10571670614E+02  0.17280742001E+02  0.51100000000E-03 0.  1.
        -12    1    3    3    0    0  0.17896860714E+02 -0.94048805934E+01  0.14331537077E+01  0.20268283893E+02  0.00000000000E+00 0.  1.
</event>
<event>
 7    1  0.2974434E-011  0.5052884E+02  0.7816164E-02  0.1300439E+00
        -11   -1    0    0    0    0  0.00000000000E+00  0.00000000000E+00  0.45593999997E+02  0.45594000000E+02  0.51100000000E-03 0. -1.
         11   -1    0    0    0    0 -0.00000000000E+00 -0.00000000000E+00 -0.45593999997E+02  0.45594000000E+02  0.51100000000E-03 0.  1.
    9900012    2    1    2    0    0  0.19377600746E+02 -0.35743252450E+02 -0.30892860586E+00  0.50528844287E+02  0.29999952695E+02 0.  0.
        -12    1    1    2    0    0 -0.19377600746E+02  0.35743252450E+02  0.30892860586E+00  0.40659155713E+02  0.00000000000E+00 0.  1.
         11    1    3    3    0    0  0.59162779123E+00 -0.59241099938E+01  0.46057172798E+01  0.75271332249E+01  0.51100000000E-03 0. -1.
        -11    1    3    3    0    0  0.77390313791E+01 -0.36215967142E-01 -0.79456496331E+01  0.11091765713E+02  0.51100000000E-03 0.  1.
         12    1    3    3    0    0  0.11046941576E+02 -0.29782926489E+02  0.30310037474E+01  0.31909945349E+02  0.00000000000E+00 0. -1.
</event>
<event>
 7    1  0.2974434E-011  0.5052887E+02  0.7816164E-02  0.1300439E+00
        -11   -1    0    0    0    0  0.00000000000E+00  0.00000000000E+00  0.45593999997E+02  0.45594000000E+02  0.51100000000E-03 0.  1.
         11   -1    0    0    0    0 -0.00000000000E+00 -0.00000000000E+00 -0.45593999997E+02  0.45594000000E+02  0.51100000000E-03 0. -1.
    9900012    2    1    2    0    0  0.12983942702E+02 -0.29865600726E+02 -0.24343952610E+02  0.50528869371E+02  0.30000028941E+02 0.  0.
        -12    1    1    2    0    0 -0.12983942702E+02  0.29865600726E+02  0.24343952610E+02  0.40659130629E+02  0.00000000000E+00 0.  1.
         11    1    3    3    0    0  0.16425112887E+02 -0.15317606263E+02 -0.16162676161E+02  0.27670299889E+02  0.51100000000E-03 0. -1.
        -11    1    3    3    0    0  0.22608550995E+00 -0.13818164206E+02  0.47490179589E-01  0.13820095234E+02  0.51100000000E-03 0.  1.
         12    1    3    3    0    0 -0.36672556945E+01 -0.72983025644E+00 -0.82287666282E+01  0.90384742492E+01  0.00000000000E+00 0. -1.
</event>
<event>
 7    1  0.2974434E-011  0.5052886E+02  0.7816164E-02  0.1300439E+00
        -11   -1    0    0    0    0  0.00000000000E+00  0.00000000000E+00  0.45593999997E+02  0.45594000000E+02  0.51100000000E-03 0.  1.
         11   -1    0    0    0    0 -0.00000000000E+00 -0.00000000000E+00 -0.45593999997E+02  0.45594000000E+02  0.51100000000E-03 0. -1.
    9900012    2    1    2    0    0  0.30749971287E+02  0.25487285817E+02  0.76159992228E+01  0.50528856912E+02  0.29999991069E+02 0.  0.
        -12    1    1    2    0    0 -0.30749971287E+02 -0.25487285817E+02 -0.76159992228E+01  0.40659143088E+02  0.00000000000E+00 0.  1.
         11    1    3    3    0    0  0.47197767112E+01  0.64950964148E+01 -0.49664647661E+01  0.94407808033E+01  0.51100000000E-03 0. -1.
        -11    1    3    3    0    0  0.74740740486E+01  0.80765194441E+01 -0.61014039785E+01  0.12582491009E+02  0.51100000000E-03 0.  1.
        -12    1    3    3    0    0  0.18556120528E+02  0.10915669958E+02  0.18683867967E+02  0.28505585100E+02  0.00000000000E+00 0.  1.
</event>
<event>
 7    1  0.2974434E-011  0.5052885E+02  0.7816164E-02  0.1300439E+00
        -11   -1    0    0    0    0  0.00000000000E+00  0.00000000000E+00  0.45593999997E+02  0.45594000000E+02  0.51100000000E-03 0.  1.
         11   -1    0    0    0    0 -0.00000000000E+00 -0.00000000000E+00 -0.45593999997E+02  0.45594000000E+02  0.51100000000E-03 0. -1.
    9900012    2    1    2    0    0 -0.48643875165E+01 -0.40357495830E+02 -0.88112994923E+00  0.50528854343E+02  0.29999983261E+02 0.  0.
        -12    1    1    2    0    0  0.48643875165E+01  0.40357495830E+02  0.88112994923E+00  0.40659145657E+02  0.00000000000E+00 0.  1.
         11    1    3    3    0    0  0.33112626249E+01  0.36134145813E+00 -0.35780309004E+01  0.48884898697E+01  0.51100000000E-03 0.  1.
        -11    1    3    3    0    0 -0.50097949685E+01 -0.12020253687E+02 -0.74906032621E+01  0.15023104932E+02  0.51100000000E-03 0. -1.
         12    1    3    3    0    0 -0.31658551729E+01 -0.28698583601E+02  0.10187504213E+02  0.30617259541E+02  0.00000000000E+00 0. -1.
</event>
<event>
 7    1  0.2974434E-011  0.5052886E+02  0.7816164E-02  0.1300439E+00
        -11   -1    0    0    0    0  0.00000000000E+00  0.00000000000E+00  0.45593999997E+02  0.45594000000E+02  0.51100000000E-03 0. -1.
         11   -1    0    0    0    0 -0.00000000000E+00 -0.00000000000E+00 -0.45593999997E+02  0.45594000000E+02  0.51100000000E-03 0.  1.
    9900012    2    1    2    0    0  0.44024188014E+01  0.33643122882E+02  0.22403671547E+02  0.50528861945E+02  0.30000006369E+02 0.  0.
        -12    1    1    2    0    0 -0.44024188014E+01 -0.33643122882E+02 -0.22403671547E+02  0.40659138055E+02  0.00000000000E+00 0.  1.
         11    1    3    3    0    0  0.56155539225E+01  0.89909041831E+01  0.20591201024E+02  0.23159627884E+02  0.51100000000E-03 0. -1.
        -11    1    3    3    0    0 -0.10622219759E+00  0.18971112208E+01 -0.34941372861E+01  0.39773495917E+01  0.51100000000E-03 0.  1.
        -12    1    3    3    0    0 -0.11069129236E+01  0.22755107479E+02  0.53066078091E+01  0.23391884469E+02  0.00000000000E+00 0.  1.
</event>
<event>
 7    1  0.2974434E-011  0.5052887E+02  0.7816164E-02  0.1300439E+00
        -11   -1    0    0    0    0  0.00000000000E+00  0.00000000000E+00  0.45593999997E+02  0.45594000000E+02  0.51100000000E-03 0.  1.
         11   -1    0    0    0    0 -0.00000000000E+00 -0.00000000000E+00 -0.45593999997E+02  0.45594000000E+02  0.51100000000E-03 0. -1.
    9900012    2    1    2    0    0 -0.29457904707E+02 -0.74037522641E+01 -0.27029272039E+02  0.50528865180E+02  0.30000016202E+02 0.  0.
        -12    1    1    2    0    0  0.29457904707E+02  0.74037522641E+01  0.27029272039E+02  0.40659134820E+02  0.00000000000E+00 0.  1.
         11    1    3    3    0    0 -0.76815689651E+01 -0.79094106610E+01 -0.17993282321E+02  0.21102689111E+02  0.51100000000E-03 0. -1.
        -11    1    3    3    0    0 -0.17110916592E+02  0.53615769836E+01 -0.12495451534E+02  0.21855577861E+02  0.51100000000E-03 0.  1.
        -12    1    3    3    0    0 -0.46654191504E+01 -0.48559185867E+01  0.34594618160E+01  0.75705982080E+01  0.00000000000E+00 0.  1.
</event>
<event>
 7    1  0.2974434E-011  0.5052888E+02  0.7816164E-02  0.1300439E+00
        -11   -1    0    0    0    0  0.00000000000E+00  0.00000000000E+00  0.45593999997E+02  0.45594000000E+02  0.51100000000E-03 0.  1.
         11   -1    0    0    0    0 -0.00000000000E+00 -0.00000000000E+00 -0.45593999997E+02  0.45594000000E+02  0.51100000000E-03 0. -1.
    9900012    2    1    2    0    0 -0.17378735626E+02  0.47195968355E+01 -0.36453654013E+02  0.50528881255E+02  0.30000065063E+02 0.  0.
        -12    1    1    2    0    0  0.17378735626E+02 -0.47195968355E+01  0.36453654013E+02  0.40659118745E+02  0.00000000000E+00 0.  1.
         11    1    3    3    0    0  0.83353730969E+00  0.91803399674E+01 -0.78063650527E+01  0.12079435498E+02  0.51100000000E-03 0. -1.
        -11    1    3    3    0    0 -0.48474207524E+01  0.50921205523E+01 -0.22942630305E+01  0.73953243867E+01  0.51100000000E-03 0.  1.
         12    1    3    3    0    0 -0.13364852183E+02 -0.95528636841E+01 -0.26353025929E+02  0.31054121370E+02  0.00000000000E+00 0. -1.
</event>
<event>
 7    1  0.2974434E-011  0.5052884E+02  0.7816164E-02  0.1300439E+00
        -11   -1    0    0    0    0  0.00000000000E+00  0.00000000000E+00  0.45593999997E+02  0.45594000000E+02  0.51100000000E-03 0.  1.
         11   -1    0    0    0    0 -0.00000000000E+00 -0.00000000000E+00 -0.45593999997E+02  0.45594000000E+02  0.51100000000E-03 0. -1.
    9900012    2    1    2    0    0  0.55866160809E+01 -0.16344938315E+02 -0.36807612506E+02  0.50528835890E+02  0.29999927171E+02 0.  0.
        -12    1    1    2    0    0 -0.55866160809E+01  0.16344938315E+02  0.36807612506E+02  0.40659164110E+02  0.00000000000E+00 0.  1.
         11    1    3    3    0    0 -0.23660944326E+01  0.38078034617E+01 -0.81256162004E+01  0.92802698756E+01  0.51100000000E-03 0. -1.
        -11    1    3    3    0    0 -0.38217741539E+01  0.13932294673E+01 -0.88999036803E+00  0.41640279957E+01  0.51100000000E-03 0.  1.
         12    1    3    3    0    0  0.11774484668E+02 -0.21545971244E+02 -0.27792005938E+02  0.37084538019E+02  0.00000000000E+00 0. -1.
</event>
<event>
 7    1  0.2974434E-011  0.5052886E+02  0.7816164E-02  0.1300439E+00
        -11   -1    0    0    0    0  0.00000000000E+00  0.00000000000E+00  0.45593999997E+02  0.45594000000E+02  0.51100000000E-03 0. -1.
         11   -1    0    0    0    0 -0.00000000000E+00 -0.00000000000E+00 -0.45593999997E+02  0.45594000000E+02  0.51100000000E-03 0.  1.
    9900012    2    1    2    0    0  0.14671030547E+02  0.12155386329E+02  0.35918976594E+02  0.50528862852E+02  0.30000009124E+02 0.  0.
        -12    1    1    2    0    0 -0.14671030547E+02 -0.12155386329E+02 -0.35918976594E+02  0.40659137148E+02  0.00000000000E+00 0.  1.
         11    1    3    3    0    0  0.19393061624E+01  0.22435607088E+01  0.92777096353E+01  0.97401421644E+01  0.51100000000E-03 0. -1.
        -11    1    3    3    0    0  0.49404333238E+01  0.12722507313E+02  0.29106017488E+02  0.32147011183E+02  0.51100000000E-03 0.  1.
        -12    1    3    3    0    0  0.77912910612E+01 -0.28106816929E+01 -0.24647505295E+01  0.86417095040E+01  0.00000000000E+00 0.  1.
</event>
<event>
 7    1  0.2974434E-011  0.5052887E+02  0.7816164E-02  0.1300439E+00
        -11   -1    0    0    0    0  0.00000000000E+00  0.00000000000E+00  0.45593999997E+02  0.45594000000E+02  0.51100000000E-03 0.  1.
         11   -1    0    0    0    0 -0.00000000000E+00 -0.00000000000E+00 -0.45593999997E+02  0.45594000000E+02  0.51100000000E-03 0. -1.
    9900012    2    1    2    0    0  0.78499118004E+01  0.99114703761E+01 -0.38643328151E+02  0.50528866083E+02  0.30000018945E+02 0.  0.
        -12    1    1    2    0    0 -0.78499118004E+01 -0.99114703761E+01  0.38643328151E+02  0.40659133917E+02  0.00000000000E+00 0.  1.
         11    1    3    3    0    0  0.57337676546E+01  0.29945824347E+01 -0.25384887570E+02  0.26196109114E+02  0.51100000000E-03 0. -1.
        -11    1    3    3    0    0  0.85265704889E+01 -0.11781066433E+01 -0.10629379753E+02  0.13677501737E+02  0.51100000000E-03 0.  1.
        -12    1    3    3    0    0 -0.64104263432E+01  0.80949945847E+01 -0.26290608277E+01  0.10655255232E+02  0.00000000000E+00 0.  1.
</event>
<event>
 7    1  0.2974434E-011  0.5052887E+02  0.7816164E-02  0.1300439E+00
        -11   -1    0    0    0    0  0.00000000000E+00  0.00000000000E+00  0.45593999997E+02  0.45594000000E+02  0.51100000000E-03 0. -1.
         11   -1    0    0    0    0 -0.00000000000E+00 -0.00000000000E+00 -0.45593999997E+02  0.45594000000E+02  0.51100000000E-03 0.  1.
    9900012    2    1    2    0    0  0.35650854391E+02 -0.18683973352E+02  0.57524681617E+01  0.50528866106E+02  0.30000019017E+02 0.  0.
        -12    1    1    2    0    0 -0.35650854391E+02  0.18683973352E+02 -0.57524681617E+01  0.40659133894E+02  0.00000000000E+00 0.  1.
         11    1    3    3    0    0  0.90740283079E+01 -0.77498819032E+01  0.59878300380E+01  0.13351133587E+02  0.51100000000E-03 0. -1.
        -11    1    3    3    0    0  0.27867939337E+01 -0.56481115438E+01 -0.92526120190E+01  0.11192775075E+02  0.51100000000E-03 0.  1.
         12    1    3    3    0    0  0.23790032150E+02 -0.52859799046E+01  0.90172501427E+01  0.25984957444E+02  0.00000000000E+00 0. -1.
</event>
<event>
 7    1  0.2974434E-011  0.5052886E+02  0.7816164E-02  0.1300439E+00
        -11   -1    0    0    0    0  0.00000000000E+00  0.00000000000E+00  0.45593999997E+02  0.45594000000E+02  0.51100000000E-03 0.  1.
         11   -1    0    0    0    0 -0.00000000000E+00 -0.00000000000E+00 -0.45593999997E+02  0.45594000000E+02  0.51100000000E-03 0. -1.
    9900012    2    1    2    0    0 -0.27299044468E+02  0.73790989691E+01 -0.29214330786E+02  0.50528855226E+02  0.29999985946E+02 0.  0.
        -12    1    1    2    0    0  0.27299044468E+02 -0.73790989691E+01  0.29214330786E+02  0.40659144774E+02  0.00000000000E+00 0.  1.
         11    1    3    3    0    0 -0.25888946967E+02  0.26077037094E+01 -0.21322609415E+02  0.33640620777E+02  0.51100000000E-03 0. -1.
        -11    1    3    3    0    0 -0.43426720302E+01 -0.11359203824E+01  0.20684797655E+01  0.49424411254E+01  0.51100000000E-03 0.  1.
        -12    1    3    3    0    0  0.29325745300E+01  0.59073156421E+01 -0.99602011362E+01  0.11945793324E+02  0.00000000000E+00 0.  1.
</event>
<event>
 7    1  0.2974434E-011  0.5052887E+02  0.7816164E-02  0.1300439E+00
        -11   -1    0    0    0    0  0.00000000000E+00  0.00000000000E+00  0.45593999997E+02  0.45594000000E+02  0.51100000000E-03 0.  1.
         11   -1    0    0    0    0 -0.00000000000E+00 -0.00000000000E+00 -0.45593999997E+02  0.45594000000E+02  0.51100000000E-03 0. -1.
    9900012    2    1    2    0    0 -0.65479624862E+00  0.18871788162E+02 -0.36008215872E+02  0.50528871175E+02  0.30000034422E+02 0.  0.
        -12    1    1    2    0    0  0.65479624862E+00 -0.18871788162E+02  0.36008215872E+02  0.40659128825E+02  0.00000000000E+00 0.  1.
         11    1    3    3    0    0  0.21682005952E+01  0.92956947209E+01 -0.16969740379E+02  0.19470057087E+02  0.51100000000E-03 0. -1.
        -11    1    3    3    0    0 -0.61091253985E+01  0.11345224195E+02 -0.22525881248E+02  0.25950931610E+02  0.51100000000E-03 0.  1.
        -12    1    3    3    0    0  0.32861285547E+01 -0.17691307541E+01  0.34874057553E+01  0.51078824776E+01  0.00000000000E+00 0.  1.
</event>
<event>
 7    1  0.2974434E-011  0.5052886E+02  0.7816164E-02  0.1300439E+00
        -11   -1    0    0    0    0  0.00000000000E+00  0.00000000000E+00  0.45593999997E+02  0.45594000000E+02  0.51100000000E-03 0.  1.
         11   -1    0    0    0    0 -0.00000000000E+00 -0.00000000000E+00 -0.45593999997E+02  0.45594000000E+02  0.51100000000E-03 0. -1.
    9900012    2    1    2    0    0 -0.26003746292E+02  0.11222714755E+02 -0.29172279861E+02  0.50528855149E+02  0.29999985712E+02 0.  0.
        -12    1    1    2    0    0  0.26003746292E+02 -0.11222714755E+02  0.29172279861E+02  0.40659144851E+02  0.00000000000E+00 0.  1.
         11    1    3    3    0    0 -0.18856040429E+02  0.75095905820E+01 -0.10393700545E+02  0.22802921362E+02  0.51100000000E-03 0. -1.
        -11    1    3    3    0    0 -0.10783308224E+02  0.45040779894E+01 -0.37944034412E+01  0.12286738889E+02  0.51100000000E-03 0.  1.
        -12    1    3    3    0    0  0.36356023607E+01 -0.79095381621E+00 -0.14984175874E+02  0.15439194898E+02  0.00000000000E+00 0.  1.
</event>
<event>
 7    1  0.2974434E-011  0.5052887E+02  0.7816164E-02  0.1300439E+00
        -11   -1    0    0    0    0  0.00000000000E+00  0.00000000000E+00  0.45593999997E+02  0.45594000000E+02  0.51100000000E-03 0.  1.
         11   -1    0    0    0    0 -0.00000000000E+00 -0.00000000000E+00 -0.45593999997E+02  0.45594000000E+02  0.51100000000E-03 0. -1.
    9900012    2    1    2    0    0  0.64025651956E+00 -0.40621094969E+02 -0.16376092076E+01  0.50528867584E+02  0.30000023509E+02 0.  0.
        -12    1    1    2    0    0 -0.64025651956E+00  0.40621094969E+02  0.16376092076E+01  0.40659132416E+02  0.00000000000E+00 0.  1.
         11    1    3    3    0    0  0.24259483052E+01 -0.42661494618E+02 -0.68332489525E+01  0.43273336360E+02  0.51100000000E-03 0. -1.
        -11    1    3    3    0    0 -0.15450331308E+01 -0.81651697577E+00  0.61684415894E+00  0.18531930079E+01  0.51100000000E-03 0.  1.
         12    1    3    3    0    0 -0.24065865486E+00  0.28569166245E+01  0.45787955860E+01  0.54023382165E+01  0.00000000000E+00 0. -1.
</event>
<event>
 7    1  0.2974434E-011  0.5052886E+02  0.7816164E-02  0.1300439E+00
        -11   -1    0    0    0    0  0.00000000000E+00  0.00000000000E+00  0.45593999997E+02  0.45594000000E+02  0.51100000000E-03 0. -1.
         11   -1    0    0    0    0 -0.00000000000E+00 -0.00000000000E+00 -0.45593999997E+02  0.45594000000E+02  0.51100000000E-03 0.  1.
    9900012    2    1    2    0    0 -0.24230978343E+02  0.32649817434E+02 -0.11992596564E+00  0.50528864838E+02  0.30000015161E+02 0.  0.
        -12    1    1    2    0    0  0.24230978343E+02 -0.32649817434E+02  0.11992596564E+00  0.40659135162E+02  0.00000000000E+00 0.  1.
         11    1    3    3    0    0 -0.12313184716E+01  0.16531405260E+00 -0.39081635674E+01  0.41008799843E+01  0.51100000000E-03 0. -1.
        -11    1    3    3    0    0  0.17305194655E+01  0.10780997728E+02 -0.55178489009E+01  0.12234020859E+02  0.51100000000E-03 0.  1.
         12    1    3    3    0    0 -0.24730179336E+02  0.21703505653E+02  0.93060865027E+01  0.34193963994E+02  0.00000000000E+00 0. -1.
</event>
<event>
 7    1  0.2974434E-011  0.5052885E+02  0.7816164E-02  0.1300439E+00
        -11   -1    0    0    0    0  0.00000000000E+00  0.00000000000E+00  0.45593999997E+02  0.45594000000E+02  0.51100000000E-03 0.  1.
         11   -1    0    0    0    0 -0.00000000000E+00 -0.00000000000E+00 -0.45593999997E+02  0.45594000000E+02  0.51100000000E-03 0. -1.
    9900012    2    1    2    0    0  0.10524933313E+02 -0.38236287910E+02 -0.89653903745E+01  0.50528853932E+02  0.29999982013E+02 0.  0.
        -12    1    1    2    0    0 -0.10524933313E+02  0.38236287910E+02  0.89653903745E+01  0.40659146068E+02  0.00000000000E+00 0.  1.
         11    1    3    3    0    0  0.51033299990E+01 -0.16063676804E+01 -0.93538498894E+01  0.10775848097E+02  0.51100000000E-03 0. -1.
        -11    1    3    3    0    0  0.50760239135E+01 -0.18131615393E+02 -0.66344666106E+01  0.19963407600E+02  0.51100000000E-03 0.  1.
        -12    1    3    3    0    0  0.34557940048E+00 -0.18498304836E+02  0.70229261255E+01  0.19789598235E+02  0.00000000000E+00 0.  1.
</event>
<event>
 7    1  0.2974434E-011  0.5052886E+02  0.7816164E-02  0.1300439E+00
        -11   -1    0    0    0    0  0.00000000000E+00  0.00000000000E+00  0.45593999997E+02  0.45594000000E+02  0.51100000000E-03 0.  1.
         11   -1    0    0    0    0 -0.00000000000E+00 -0.00000000000E+00 -0.45593999997E+02  0.45594000000E+02  0.51100000000E-03 0. -1.
    9900012    2    1    2    0    0  0.19828228682E+02  0.64209917130E+00 -0.35490770234E+02  0.50528859382E+02  0.29999998577E+02 0.  0.
        -12    1    1    2    0    0 -0.19828228682E+02 -0.64209917130E+00  0.35490770234E+02  0.40659140618E+02  0.00000000000E+00 0.  1.
         11    1    3    3    0    0  0.87447627161E+00 -0.39539652433E+00 -0.16113826124E+02  0.16142380239E+02  0.51100000000E-03 0. -1.
        -11    1    3    3    0    0  0.12384363473E+02 -0.34344287589E-01 -0.23495132307E+02  0.26559271085E+02  0.51100000000E-03 0.  1.
        -12    1    3    3    0    0  0.65693889368E+01  0.10718399832E+01  0.41181881975E+01  0.78272080579E+01  0.00000000000E+00 0.  1.
</event>
<event>
 7    1  0.2974434E-011  0.5052886E+02  0.7816164E-02  0.1300439E+00
        -11   -1    0    0    0    0  0.00000000000E+00  0.00000000000E+00  0.45593999997E+02  0.45594000000E+02  0.51100000000E-03 0.  1.
         11   -1    0    0    0    0 -0.00000000000E+00 -0.00000000000E+00 -0.45593999997E+02  0.45594000000E+02  0.51100000000E-03 0. -1.
    9900012    2    1    2    0    0  0.22912744445E+02  0.16027219812E+02 -0.29517794438E+02  0.50528858084E+02  0.29999994631E+02 0.  0.
        -12    1    1    2    0    0 -0.22912744445E+02 -0.16027219812E+02  0.29517794438E+02  0.40659141916E+02  0.00000000000E+00 0.  1.
         11    1    3    3    0    0  0.89793409878E+00 -0.68505994111E+00  0.28752350825E+01  0.30891050176E+01  0.51100000000E-03 0. -1.
        -11    1    3    3    0    0 -0.33285897940E+01  0.24595957581E+00 -0.29259921393E+00  0.33504657424E+01  0.51100000000E-03 0.  1.
         12    1    3    3    0    0  0.25343400140E+02  0.16466320177E+02 -0.32100430307E+02  0.44089287324E+02  0.00000000000E+00 0. -1.
</event>
<event>
 7    1  0.2974434E-011  0.5052885E+02  0.7816164E-02  0.1300439E+00
        -11   -1    0    0    0    0  0.00000000000E+00  0.00000000000E+00  0.45593999997E+02  0.45594000000E+02  0.51100000000E-03 0. -1.
         11   -1    0    0    0    0 -0.00000000000E+00 -0.00000000000E+00 -0.45593999997E+02  0.45594000000E+02  0.51100000000E-03 0.  1.
    9900012    2    1    2    0    0 -0.21702229564E+02 -0.13013388007E+02  0.31825008041E+02  0.50528853768E+02  0.29999981513E+02 0.  0.
        -12    1    1    2    0    0  0.21702229564E+02  0.13013388007E+02 -0.31825008041E+02  0.40659146232E+02  0.00000000000E+00 0.  1.
         11    1    3    3    0    0 -0.12821671594E+02 -0.74835196187E+01  0.23970189231E+02  0.28195182219E+02  0.51100000000E-03 0. -1.
        -11    1    3    3    0    0 -0.17283438063E+01 -0.80117714574E+01  0.11346140566E+02  0.13996805357E+02  0.51100000000E-03 0.  1.
        -12    1    3    3    0    0 -0.71522141643E+01  0.24819030690E+01 -0.34913217559E+01  0.83368661917E+01  0.00000000000E+00 0.  1.
</event>
<event>
 7    1  0.2974434E-011  0.5052886E+02  0.7816164E-02  0.1300439E+00
        -11   -1    0    0    0    0  0.00000000000E+00  0.00000000000E+00  0.45593999997E+02  0.45594000000E+02  0.51100000000E-03 0.  1.
         11   -1    0    0    0    0 -0.00000000000E+00 -0.00000000000E+00 -0.45593999997E+02  0.45594000000E+02  0.51100000000E-03 0. -1.
    9900012    2    1    2    0    0 -0.32533640885E+02  0.79420250059E+01 -0.23057583805E+02  0.50528859313E+02  0.29999998369E+02 0.  0.
        -12    1    1    2    0    0  0.32533640885E+02 -0.79420250059E+01  0.23057583805E+02  0.40659140687E+02  0.00000000000E+00 0.  1.
         11    1    3    3    0    0 -0.19508816001E+02 -0.53385327157E+01 -0.17661011604E+02  0.26851539331E+02  0.51100000000E-03 0.  1.
        -11    1    3    3    0    0 -0.11907268075E+02  0.12218995364E+02 -0.93349270197E+01  0.19448078142E+02  0.51100000000E-03 0. -1.
        -12    1    3    3    0    0 -0.11175568095E+01  0.10615623580E+01  0.39383548187E+01  0.42292418399E+01  0.00000000000E+00 0.  1.
</event>
<event>
 7    1  0.2974434E-011  0.5052886E+02  0.7816164E-02  0.1300439E+00
        -11   -1    0    0    0    0  0.00000000000E+00  0.00000000000E+00  0.45593999997E+02  0.45594000000E+02  0.51100000000E-03 0.  1.
         11   -1    0    0    0    0 -0.00000000000E+00 -0.00000000000E+00 -0.45593999997E+02  0.45594000000E+02  0.51100000000E-03 0. -1.
    9900012    2    1    2    0    0  0.22131182330E+02 -0.27026429614E+02  0.20807413274E+02  0.50528861099E+02  0.30000003797E+02 0.  0.
        -12    1    1    2    0    0 -0.22131182330E+02  0.27026429614E+02 -0.20807413274E+02  0.40659138901E+02  0.00000000000E+00 0.  1.
         11    1    3    3    0    0  0.16815845622E+02 -0.11127392492E+02  0.11269677871E+02  0.23099722232E+02  0.51100000000E-03 0. -1.
        -11    1    3    3    0    0  0.12015118435E+02 -0.14572477386E+02  0.70876021699E+01  0.20173107667E+02  0.51100000000E-03 0.  1.
        -12    1    3    3    0    0 -0.66997817262E+01 -0.13265597363E+01  0.24501332331E+01  0.72560311998E+01  0.00000000000E+00 0.  1.
</event>
<event>
 7    1  0.2974434E-011  0.5052887E+02  0.7816164E-02  0.1300439E+00
        -11   -1    0    0    0    0  0.00000000000E+00  0.00000000000E+00  0.45593999997E+02  0.45594000000E+02  0.51100000000E-03 0.  1.
         11   -1    0    0    0    0 -0.00000000000E+00 -0.00000000000E+00 -0.45593999997E+02  0.45594000000E+02  0.51100000000E-03 0. -1.
    9900012    2    1    2    0    0 -0.37154122918E+02  0.35323949804E+00 -0.16510947166E+02  0.50528868132E+02  0.30000025173E+02 0.  0.
        -12    1    1    2    0    0  0.37154122918E+02 -0.35323949804E+00  0.16510947166E+02  0.40659131868E+02  0.00000000000E+00 0.  1.
         11    1    3    3    0    0 -0.63953199879E+01  0.67205157169E+01 -0.33844886477E+01  0.98752322968E+01  0.51100000000E-03 0. -1.
        -11    1    3    3    0    0 -0.12245645709E+02 -0.17438268496E+01  0.59024386918E+01  0.13705311148E+02  0.51100000000E-03 0.  1.
         12    1    3    3    0    0 -0.18513157222E+02 -0.46234493693E+01 -0.19028897210E+02  0.26948324686E+02  0.00000000000E+00 0. -1.
</event>
<event>
 7    1  0.2974434E-011  0.5052886E+02  0.7816164E-02  0.1300439E+00
        -11   -1    0    0    0    0  0.00000000000E+00  0.00000000000E+00  0.45593999997E+02  0.45594000000E+02  0.51100000000E-03 0.  1.
         11   -1    0    0    0    0 -0.00000000000E+00 -0.00000000000E+00 -0.45593999997E+02  0.45594000000E+02  0.51100000000E-03 0. -1.
    9900012    2    1    2    0    0 -0.19422909734E+02  0.78271831510E+01 -0.34851846909E+02  0.50528862631E+02  0.30000008454E+02 0.  0.
        -12    1    1    2    0    0  0.19422909734E+02 -0.78271831510E+01  0.34851846909E+02  0.40659137369E+02  0.00000000000E+00 0.  1.
         11    1    3    3    0    0 -0.78424392550E+01  0.28949968023E+01 -0.34772799067E+01  0.90540784050E+01  0.51100000000E-03 0.  1.
        -11    1    3    3    0    0 -0.18112363012E+02  0.33902240737E+01 -0.14939343353E+02  0.23722042350E+02  0.51100000000E-03 0. -1.
         12    1    3    3    0    0  0.65318925338E+01  0.15419622750E+01 -0.16435223649E+02  0.17752741876E+02  0.00000000000E+00 0. -1.
</event>
<event>
 7    1  0.3507999E-011  0.5052886E+02  0.7816164E-02  0.1300439E+00
        -11   -1    0    0    0    0  0.00000000000E+00  0.00000000000E+00  0.45593999997E+02  0.45594000000E+02  0.51100000000E-03 0. -1.
         11   -1    0    0    0    0 -0.00000000000E+00 -0.00000000000E+00 -0.45593999997E+02  0.45594000000E+02  0.51100000000E-03 0.  1.
    9900012    2    1    2    0    0 -0.11743284669E+01  0.12637066298E+02  0.38627596196E+02  0.50528859824E+02  0.29999999921E+02 0.  0.
        -12    1    1    2    0    0  0.11743284669E+01 -0.12637066298E+02 -0.38627596196E+02  0.40659140176E+02  0.00000000000E+00 0.  1.
         11    1    3    3    0    0  0.60087050062E+01  0.92464847820E+01  0.28961006278E+02  0.30989383692E+02  0.51100000000E-03 0. -1.
        -11    1    3    3    0    0 -0.10352094868E+01 -0.41972926851E+01  0.87138355394E+01  0.97272737514E+01  0.51100000000E-03 0.  1.
        -12    1    3    3    0    0 -0.61478239863E+01  0.75878742012E+01  0.95275437830E+00  0.98122023809E+01  0.00000000000E+00 0.  1.
</event>
<event>
 7    1  0.2974434E-011  0.5052885E+02  0.7816164E-02  0.1300439E+00
        -11   -1    0    0    0    0  0.00000000000E+00  0.00000000000E+00  0.45593999997E+02  0.45594000000E+02  0.51100000000E-03 0. -1.
         11   -1    0    0    0    0 -0.00000000000E+00 -0.00000000000E+00 -0.45593999997E+02  0.45594000000E+02  0.51100000000E-03 0.  1.
    9900012    2    1    2    0    0  0.18947293711E+02  0.35489325692E+02 -0.58884571013E+01  0.50528854607E+02  0.29999984065E+02 0.  0.
        -12    1    1    2    0    0 -0.18947293711E+02 -0.35489325692E+02  0.58884571013E+01  0.40659145393E+02  0.00000000000E+00 0.  1.
         11    1    3    3    0    0  0.19007697822E+02  0.26642595782E+02 -0.34880533115E+01  0.32913325609E+02  0.51100000000E-03 0. -1.
        -11    1    3    3    0    0  0.52867597151E+01  0.15840490079E+01  0.37737339530E+01  0.66858139186E+01  0.51100000000E-03 0.  1.
        -12    1    3    3    0    0 -0.53471638257E+01  0.72626809020E+01 -0.61741377427E+01  0.10929715080E+02  0.00000000000E+00 0.  1.
</event>
<event>
 7    1  0.2974434E-011  0.5052886E+02  0.7816164E-02  0.1300439E+00
        -11   -1    0    0    0    0  0.00000000000E+00  0.00000000000E+00  0.45593999997E+02  0.45594000000E+02  0.51100000000E-03 0.  1.
         11   -1    0    0    0    0 -0.00000000000E+00 -0.00000000000E+00 -0.45593999997E+02  0.45594000000E+02  0.51100000000E-03 0. -1.
    9900012    2    1    2    0    0  0.10557611877E+02  0.61305352998E+01 -0.38782977585E+02  0.50528856109E+02  0.29999988628E+02 0.  0.
        -12    1    1    2    0    0 -0.10557611877E+02 -0.61305352998E+01  0.38782977585E+02  0.40659143891E+02  0.00000000000E+00 0.  1.
         11    1    3    3    0    0 -0.46006390014E+01 -0.87569152317E+00 -0.63933368883E+01  0.79251165097E+01  0.51100000000E-03 0. -1.
        -11    1    3    3    0    0  0.17526643303E+02 -0.26514019905E+01 -0.21196132782E+02  0.27631308386E+02  0.51100000000E-03 0.  1.
         12    1    3    3    0    0 -0.23683924245E+01  0.96576288134E+01 -0.11193507915E+02  0.14972431213E+02  0.00000000000E+00 0. -1.
</event>
<event>
 7    1  0.2974434E-011  0.5052882E+02  0.7816164E-02  0.1300439E+00
        -11   -1    0    0    0    0  0.00000000000E+00  0.00000000000E+00  0.45593999997E+02  0.45594000000E+02  0.51100000000E-03 0.  1.
         11   -1    0    0    0    0 -0.00000000000E+00 -0.00000000000E+00 -0.45593999997E+02  0.45594000000E+02  0.51100000000E-03 0. -1.
    9900012    2    1    2    0    0 -0.12599463215E+02 -0.36962795211E+02  0.11321396278E+02  0.50528822477E+02  0.29999886402E+02 0.  0.
        -12    1    1    2    0    0  0.12599463215E+02  0.36962795211E+02 -0.11321396278E+02  0.40659177523E+02  0.00000000000E+00 0.  1.
         11    1    3    3    0    0  0.43350406738E+01 -0.45162099557E+01  0.27365140315E+01  0.68320743053E+01  0.51100000000E-03 0. -1.
        -11    1    3    3    0    0 -0.20382856206E+01 -0.16618370584E+02 -0.57009192414E+01  0.17686868846E+02  0.51100000000E-03 0.  1.
         12    1    3    3    0    0 -0.14896218268E+02 -0.15828214672E+02  0.14285801488E+02  0.26009879326E+02  0.00000000000E+00 0. -1.
</event>
<event>
 7    1  0.2974434E-011  0.5052886E+02  0.7816164E-02  0.1300439E+00
        -11   -1    0    0    0    0  0.00000000000E+00  0.00000000000E+00  0.45593999997E+02  0.45594000000E+02  0.51100000000E-03 0. -1.
         11   -1    0    0    0    0 -0.00000000000E+00 -0.00000000000E+00 -0.45593999997E+02  0.45594000000E+02  0.51100000000E-03 0.  1.
    9900012    2    1    2    0    0  0.30974899229E+02  0.92989526004E+01  0.24642461795E+02  0.50528858039E+02  0.29999994496E+02 0.  0.
        -12    1    1    2    0    0 -0.30974899229E+02 -0.92989526004E+01 -0.24642461795E+02  0.40659141961E+02  0.00000000000E+00 0.  1.
         11    1    3    3    0    0  0.28605429193E+02  0.26706319740E+01  0.13615097183E+02  0.31792667802E+02  0.51100000000E-03 0. -1.
        -11    1    3    3    0    0  0.63239988132E+01 -0.17622169456E-01  0.15635133616E+01  0.65144336533E+01  0.51100000000E-03 0.  1.
        -12    1    3    3    0    0 -0.39545287775E+01  0.66459427959E+01  0.94638512502E+01  0.12221756583E+02  0.00000000000E+00 0.  1.
</event>
<event>
 7    1  0.2974434E-011  0.5052886E+02  0.7816164E-02  0.1300439E+00
        -11   -1    0    0    0    0  0.00000000000E+00  0.00000000000E+00  0.45593999997E+02  0.45594000000E+02  0.51100000000E-03 0.  1.
         11   -1    0    0    0    0 -0.00000000000E+00 -0.00000000000E+00 -0.45593999997E+02  0.45594000000E+02  0.51100000000E-03 0. -1.
    9900012    2    1    2    0    0 -0.72799862848E+01 -0.12152027663E+02 -0.38111621728E+02  0.50528859732E+02  0.29999999641E+02 0.  0.
        -12    1    1    2    0    0  0.72799862848E+01  0.12152027663E+02  0.38111621728E+02  0.40659140268E+02  0.00000000000E+00 0.  1.
         11    1    3    3    0    0 -0.11634120091E+02 -0.77829333330E+01 -0.15149806212E+02  0.20626280083E+02  0.51100000000E-03 0. -1.
        -11    1    3    3    0    0 -0.35395363871E+01 -0.44569232853E+01 -0.21014785998E+02  0.21771856003E+02  0.51100000000E-03 0.  1.
        -12    1    3    3    0    0  0.78936701937E+01  0.87828955737E-01 -0.19470295180E+01  0.81307236453E+01  0.00000000000E+00 0.  1.
</event>
<event>
 7    1  0.2974434E-011  0.5052886E+02  0.7816164E-02  0.1300439E+00
        -11   -1    0    0    0    0  0.00000000000E+00  0.00000000000E+00  0.45593999997E+02  0.45594000000E+02  0.51100000000E-03 0.  1.
         11   -1    0    0    0    0 -0.00000000000E+00 -0.00000000000E+00 -0.45593999997E+02  0.45594000000E+02  0.51100000000E-03 0. -1.
    9900012    2    1    2    0    0 -0.17994524508E+01  0.59951191371E+01 -0.40174445464E+02  0.50528861410E+02  0.30000004741E+02 0.  0.
        -12    1    1    2    0    0  0.17994524508E+01 -0.59951191371E+01  0.40174445464E+02  0.40659138590E+02  0.00000000000E+00 0.  1.
         11    1    3    3    0    0 -0.11970341281E+02  0.35626332544E+01 -0.23655295023E+02  0.26749848765E+02  0.51100000000E-03 0. -1.
        -11    1    3    3    0    0  0.59197435731E+01  0.77118939328E+01 -0.65455306137E+01  0.11720095703E+02  0.51100000000E-03 0.  1.
        -12    1    3    3    0    0  0.42511452569E+01 -0.52794080501E+01 -0.99736198271E+01  0.12058916942E+02  0.00000000000E+00 0.  1.
</event>
<event>
 7    1  0.2974434E-011  0.5052887E+02  0.7816164E-02  0.1300439E+00
        -11   -1    0    0    0    0  0.00000000000E+00  0.00000000000E+00  0.45593999997E+02  0.45594000000E+02  0.51100000000E-03 0.  1.
         11   -1    0    0    0    0 -0.00000000000E+00 -0.00000000000E+00 -0.45593999997E+02  0.45594000000E+02  0.51100000000E-03 0. -1.
    9900012    2    1    2    0    0  0.27069471402E+02 -0.19516169987E+02 -0.23227743672E+02  0.50528865122E+02  0.30000016024E+02 0.  0.
        -12    1    1    2    0    0 -0.27069471402E+02  0.19516169987E+02  0.23227743672E+02  0.40659134878E+02  0.00000000000E+00 0.  1.
         11    1    3    3    0    0 -0.30345019393E+01 -0.55515821745E+00 -0.13537967979E+01  0.33688527271E+01  0.51100000000E-03 0. -1.
        -11    1    3    3    0    0  0.50527938432E+01  0.24834405347E+01 -0.11138214322E+02  0.12480305327E+02  0.51100000000E-03 0.  1.
        -12    1    3    3    0    0  0.25051179498E+02 -0.21444452304E+02 -0.10735732553E+02  0.34679707068E+02  0.00000000000E+00 0.  1.
</event>
<event>
 7    1  0.2974434E-011  0.5052886E+02  0.7816164E-02  0.1300439E+00
        -11   -1    0    0    0    0  0.00000000000E+00  0.00000000000E+00  0.45593999997E+02  0.45594000000E+02  0.51100000000E-03 0.  1.
         11   -1    0    0    0    0 -0.00000000000E+00 -0.00000000000E+00 -0.45593999997E+02  0.45594000000E+02  0.51100000000E-03 0. -1.
    9900012    2    1    2    0    0  0.12587329416E+02  0.36462552850E+02 -0.12853304421E+02  0.50528855190E+02  0.29999985834E+02 0.  0.
        -12    1    1    2    0    0 -0.12587329416E+02 -0.36462552850E+02  0.12853304421E+02  0.40659144810E+02  0.00000000000E+00 0.  1.
         11    1    3    3    0    0  0.18179290254E+02  0.23870628609E+02 -0.15986093637E+02  0.33997774845E+02  0.51100000000E-03 0. -1.
        -11    1    3    3    0    0 -0.28193972269E+01  0.11424916898E+02 -0.54436543014E+00  0.11780240271E+02  0.51100000000E-03 0.  1.
        -12    1    3    3    0    0 -0.27725636119E+01  0.11670073433E+01  0.36771546461E+01  0.47508400744E+01  0.00000000000E+00 0.  1.
</event>
<event>
 7    1  0.2974434E-011  0.5052885E+02  0.7816164E-02  0.1300439E+00
        -11   -1    0    0    0    0  0.00000000000E+00  0.00000000000E+00  0.45593999997E+02  0.45594000000E+02  0.51100000000E-03 0.  1.
         11   -1    0    0    0    0 -0.00000000000E+00 -0.00000000000E+00 -0.45593999997E+02  0.45594000000E+02  0.51100000000E-03 0. -1.
    9900012    2    1    2    0    0 -0.12057730885E+02 -0.31489588100E+02 -0.22719671302E+02  0.50528849777E+02  0.29999969381E+02 0.  0.
        -12    1    1    2    0    0  0.12057730885E+02  0.31489588100E+02  0.22719671302E+02  0.40659150223E+02  0.00000000000E+00 0.  1.
         11    1    3    3    0    0 -0.81910100753E+01 -0.31911701617E+01  0.35945288013E+01  0.94972022522E+01  0.51100000000E-03 0. -1.
        -11    1    3    3    0    0  0.31364960502E+01 -0.22964299826E+01 -0.65937987632E+01  0.76543700282E+01  0.51100000000E-03 0.  1.
        -12    1    3    3    0    0 -0.70032168596E+01 -0.26001987956E+02 -0.19720401340E+02  0.33377277496E+02  0.00000000000E+00 0.  1.
</event>
<event>
 7    1  0.2974434E-011  0.5052885E+02  0.7816164E-02  0.1300439E+00
        -11   -1    0    0    0    0  0.00000000000E+00  0.00000000000E+00  0.45593999997E+02  0.45594000000E+02  0.51100000000E-03 0.  1.
         11   -1    0    0    0    0 -0.00000000000E+00 -0.00000000000E+00 -0.45593999997E+02  0.45594000000E+02  0.51100000000E-03 0. -1.
    9900012    2    1    2    0    0 -0.48947357228E+01 -0.32768303747E+01 -0.40230217670E+02  0.50528850121E+02  0.29999970427E+02 0.  0.
        -12    1    1    2    0    0  0.48947357228E+01  0.32768303747E+01  0.40230217670E+02  0.40659149879E+02  0.00000000000E+00 0.  1.
         11    1    3    3    0    0 -0.10016634168E+02  0.10676022054E+02 -0.21212506890E+02  0.25773646537E+02  0.51100000000E-03 0. -1.
        -11    1    3    3    0    0  0.41846298593E+00 -0.11903430107E+01 -0.52588763570E+01  0.54081243101E+01  0.51100000000E-03 0.  1.
        -12    1    3    3    0    0  0.47034354595E+01 -0.12762509418E+02 -0.13758834423E+02  0.19347079274E+02  0.00000000000E+00 0.  1.
</event>
<event>
 7    1  0.2974434E-011  0.5052886E+02  0.7816164E-02  0.1300439E+00
        -11   -1    0    0    0    0  0.00000000000E+00  0.00000000000E+00  0.45593999997E+02  0.45594000000E+02  0.51100000000E-03 0.  1.
         11   -1    0    0    0    0 -0.00000000000E+00 -0.00000000000E+00 -0.45593999997E+02  0.45594000000E+02  0.51100000000E-03 0. -1.
    9900012    2    1    2    0    0 -0.37600510941E+02 -0.15471392238E+02 -0.60220858586E-01  0.50528855550E+02  0.29999986931E+02 0.  0.
        -12    1    1    2    0    0  0.37600510941E+02  0.15471392238E+02  0.60220858586E-01  0.40659144450E+02  0.00000000000E+00 0.  1.
         11    1    3    3    0    0 -0.59241107107E+01  0.20349014673E+01  0.65275345281E+01  0.90468015879E+01  0.51100000000E-03 0. -1.
        -11    1    3    3    0    0 -0.47339133220E+01 -0.12630953884E+02 -0.91045732569E+00  0.13519610356E+02  0.51100000000E-03 0.  1.
         12    1    3    3    0    0 -0.26942486908E+02 -0.48753398213E+01 -0.56772980610E+01  0.27962443607E+02  0.00000000000E+00 0. -1.
</event>
<event>
 7    1  0.2974434E-011  0.5052885E+02  0.7816164E-02  0.1300439E+00
        -11   -1    0    0    0    0  0.00000000000E+00  0.00000000000E+00  0.45593999997E+02  0.45594000000E+02  0.51100000000E-03 0.  1.
         11   -1    0    0    0    0 -0.00000000000E+00 -0.00000000000E+00 -0.45593999997E+02  0.45594000000E+02  0.51100000000E-03 0. -1.
    9900012    2    1    2    0    0  0.10038909967E+02  0.19056436576E+02 -0.34485348728E+02  0.50528846477E+02  0.29999959353E+02 0.  0.
        -12    1    1    2    0    0 -0.10038909967E+02 -0.19056436576E+02  0.34485348728E+02  0.40659153523E+02  0.00000000000E+00 0.  1.
         11    1    3    3    0    0 -0.19602015011E+01  0.14991585014E+02 -0.54771100160E+01  0.16080694809E+02  0.51100000000E-03 0. -1.
        -11    1    3    3    0    0 -0.26904212624E+01  0.17995762656E+01 -0.26295885713E+01  0.41703210453E+01  0.51100000000E-03 0.  1.
        -12    1    3    3    0    0  0.14689532731E+02  0.22652752965E+01 -0.26378650140E+02  0.30277830623E+02  0.00000000000E+00 0.  1.
</event>
<event>
 7    1  0.2974434E-011  0.5052882E+02  0.7816164E-02  0.1300439E+00
        -11   -1    0    0    0    0  0.00000000000E+00  0.00000000000E+00  0.45593999997E+02  0.45594000000E+02  0.51100000000E-03 0. -1.
         11   -1    0    0    0    0 -0.00000000000E+00 -0.00000000000E+00 -0.45593999997E+02  0.45594000000E+02  0.51100000000E-03 0.  1.
    9900012    2    1    2    0    0 -0.21675483423E+02  0.34329185754E+02 -0.22020753714E+01  0.50528822536E+02  0.29999886579E+02 0.  0.
        -12    1    1    2    0    0  0.21675483423E+02 -0.34329185754E+02  0.22020753714E+01  0.40659177464E+02  0.00000000000E+00 0.  1.
         11    1    3    3    0    0  0.19475019761E+01  0.88309514943E+01 -0.84015079475E+01  0.12343573401E+02  0.51100000000E-03 0. -1.
        -11    1    3    3    0    0 -0.90092043472E+01  0.12108630557E+02 -0.43839285020E+01  0.15716345832E+02  0.51100000000E-03 0.  1.
         12    1    3    3    0    0 -0.14613781052E+02  0.13389603702E+02  0.10583361078E+02  0.22468903303E+02  0.00000000000E+00 0. -1.
</event>
<event>
 7    1  0.2974434E-011  0.5052886E+02  0.7816164E-02  0.1300439E+00
        -11   -1    0    0    0    0  0.00000000000E+00  0.00000000000E+00  0.45593999997E+02  0.45594000000E+02  0.51100000000E-03 0.  1.
         11   -1    0    0    0    0 -0.00000000000E+00 -0.00000000000E+00 -0.45593999997E+02  0.45594000000E+02  0.51100000000E-03 0. -1.
    9900012    2    1    2    0    0 -0.25270813449E+02  0.31389843485E+02  0.54064437356E+01  0.50528856867E+02  0.29999990934E+02 0.  0.
        -12    1    1    2    0    0  0.25270813449E+02 -0.31389843485E+02 -0.54064437356E+01  0.40659143133E+02  0.00000000000E+00 0.  1.
         11    1    3    3    0    0 -0.16139116411E+02  0.17182544274E+02  0.45782283824E+01  0.24013976798E+02  0.51100000000E-03 0. -1.
        -11    1    3    3    0    0  0.64338668381E+01  0.26637591506E+01  0.15047348312E+01  0.71242180256E+01  0.51100000000E-03 0.  1.
         12    1    3    3    0    0 -0.15565563876E+02  0.11543540061E+02 -0.67651947797E+00  0.19390662044E+02  0.00000000000E+00 0. -1.
</event>
<event>
 7    1  0.2974434E-011  0.5052887E+02  0.7816164E-02  0.1300439E+00
        -11   -1    0    0    0    0  0.00000000000E+00  0.00000000000E+00  0.45593999997E+02  0.45594000000E+02  0.51100000000E-03 0. -1.
         11   -1    0    0    0    0 -0.00000000000E+00 -0.00000000000E+00 -0.45593999997E+02  0.45594000000E+02  0.51100000000E-03 0.  1.
    9900012    2    1    2    0    0 -0.15470626651E+02  0.16165767773E+01  0.37566091601E+02  0.50528870058E+02  0.30000031028E+02 0.  0.
        -12    1    1    2    0    0  0.15470626651E+02 -0.16165767773E+01 -0.37566091601E+02  0.40659129942E+02  0.00000000000E+00 0.  1.
         11    1    3    3    0    0  0.16501693291E+01 -0.42370666871E+01  0.82350023594E+00  0.46210329825E+01  0.51100000000E-03 0.  1.
        -11    1    3    3    0    0 -0.81178734848E+01 -0.56848157267E+01  0.53289720808E+01  0.11252330579E+02  0.51100000000E-03 0. -1.
         12    1    3    3    0    0 -0.90029224957E+01  0.11538459191E+02  0.31413619284E+02  0.34655506496E+02  0.00000000000E+00 0. -1.
</event>
<event>
 7    1  0.2974434E-011  0.5052886E+02  0.7816164E-02  0.1300439E+00
        -11   -1    0    0    0    0  0.00000000000E+00  0.00000000000E+00  0.45593999997E+02  0.45594000000E+02  0.51100000000E-03 0.  1.
         11   -1    0    0    0    0 -0.00000000000E+00 -0.00000000000E+00 -0.45593999997E+02  0.45594000000E+02  0.51100000000E-03 0. -1.
    9900012    2    1    2    0    0 -0.80397076961E+01 -0.20525498883E+02 -0.34164789263E+02  0.50528857982E+02  0.29999994322E+02 0.  0.
        -12    1    1    2    0    0  0.80397076961E+01  0.20525498883E+02  0.34164789263E+02  0.40659142018E+02  0.00000000000E+00 0.  1.
         11    1    3    3    0    0 -0.49425403095E+01 -0.18712493220E+02 -0.25738216897E+02  0.32203135197E+02  0.51100000000E-03 0. -1.
        -11    1    3    3    0    0  0.12625185635E+01 -0.39086453518E+01 -0.11756352732E+02  0.12453244213E+02  0.51100000000E-03 0.  1.
         12    1    3    3    0    0 -0.43596859501E+01  0.20956396889E+01  0.33297803659E+01  0.58724785717E+01  0.00000000000E+00 0. -1.
</event>
<event>
 7    1  0.2974434E-011  0.5052886E+02  0.7816164E-02  0.1300439E+00
        -11   -1    0    0    0    0  0.00000000000E+00  0.00000000000E+00  0.45593999997E+02  0.45594000000E+02  0.51100000000E-03 0.  1.
         11   -1    0    0    0    0 -0.00000000000E+00 -0.00000000000E+00 -0.45593999997E+02  0.45594000000E+02  0.51100000000E-03 0. -1.
    9900012    2    1    2    0    0 -0.15465186639E+02  0.25982144999E+02 -0.27183115527E+02  0.50528860483E+02  0.30000001923E+02 0.  0.
        -12    1    1    2    0    0  0.15465186639E+02 -0.25982144999E+02  0.27183115527E+02  0.40659139517E+02  0.00000000000E+00 0.  1.
         11    1    3    3    0    0  0.11705084122E+01  0.21151749405E+02 -0.17701403026E+02  0.27606272153E+02  0.51100000000E-03 0.  1.
        -11    1    3    3    0    0 -0.95228717610E+01  0.73801257775E+01 -0.95380161557E+01  0.15366362469E+02  0.51100000000E-03 0. -1.
        -12    1    3    3    0    0 -0.71128232900E+01 -0.25497301834E+01  0.56303654472E-01  0.75562258611E+01  0.00000000000E+00 0.  1.
</event>
<event>
 7    1  0.2974434E-011  0.5052886E+02  0.7816164E-02  0.1300439E+00
        -11   -1    0    0    0    0  0.00000000000E+00  0.00000000000E+00  0.45593999997E+02  0.45594000000E+02  0.51100000000E-03 0. -1.
         11   -1    0    0    0    0 -0.00000000000E+00 -0.00000000000E+00 -0.45593999997E+02  0.45594000000E+02  0.51100000000E-03 0.  1.
    9900012    2    1    2    0    0 -0.40381631295E+01  0.20623919505E+01  0.40405514753E+02  0.50528857800E+02  0.29999993768E+02 0.  0.
        -12    1    1    2    0    0  0.40381631295E+01 -0.20623919505E+01 -0.40405514753E+02  0.40659142200E+02  0.00000000000E+00 0.  1.
         11    1    3    3    0    0 -0.30288391166E+01  0.46807510784E+01  0.70767039401E+01  0.90090530007E+01  0.51100000000E-03 0. -1.
        -11    1    3    3    0    0 -0.39842504888E+01  0.10514190293E+02  0.13839782560E+02  0.17831489872E+02  0.51100000000E-03 0.  1.
         12    1    3    3    0    0  0.29749264758E+01 -0.13132549421E+02  0.19489028253E+02  0.23688314927E+02  0.00000000000E+00 0. -1.
</event>
<event>
 7    1  0.2974434E-011  0.5052886E+02  0.7816164E-02  0.1300439E+00
        -11   -1    0    0    0    0  0.00000000000E+00  0.00000000000E+00  0.45593999997E+02  0.45594000000E+02  0.51100000000E-03 0.  1.
         11   -1    0    0    0    0 -0.00000000000E+00 -0.00000000000E+00 -0.45593999997E+02  0.45594000000E+02  0.51100000000E-03 0. -1.
    9900012    2    1    2    0    0  0.10720595754E+02  0.11161306829E+01 -0.39204443904E+02  0.50528863968E+02  0.30000012517E+02 0.  0.
        -12    1    1    2    0    0 -0.10720595754E+02 -0.11161306829E+01  0.39204443904E+02  0.40659136032E+02  0.00000000000E+00 0.  1.
         11    1    3    3    0    0 -0.99435287156E+00 -0.57392111763E+00 -0.15347282587E+02  0.15390165891E+02  0.51100000000E-03 0. -1.
        -11    1    3    3    0    0 -0.16934242154E+01  0.73291050510E+01 -0.17907146015E+02  0.19422907741E+02  0.51100000000E-03 0.  1.
         12    1    3    3    0    0  0.13408372841E+02 -0.56390532505E+01 -0.59500153015E+01  0.15715790336E+02  0.00000000000E+00 0. -1.
</event>
<event>
 7    1  0.2974434E-011  0.5052885E+02  0.7816164E-02  0.1300439E+00
        -11   -1    0    0    0    0  0.00000000000E+00  0.00000000000E+00  0.45593999997E+02  0.45594000000E+02  0.51100000000E-03 0. -1.
         11   -1    0    0    0    0 -0.00000000000E+00 -0.00000000000E+00 -0.45593999997E+02  0.45594000000E+02  0.51100000000E-03 0.  1.
    9900012    2    1    2    0    0  0.25049525795E+02  0.31433269147E+01 -0.31871725168E+02  0.50528854512E+02  0.29999983776E+02 0.  0.
        -12    1    1    2    0    0 -0.25049525795E+02 -0.31433269147E+01  0.31871725168E+02  0.40659145488E+02  0.00000000000E+00 0.  1.
         11    1    3    3    0    0  0.18718908712E+02 -0.41501219537E+01 -0.12489555117E+02  0.22882527021E+02  0.51100000000E-03 0. -1.
        -11    1    3    3    0    0 -0.19862077569E+00 -0.53817547252E+01 -0.63901680526E+01  0.83568524060E+01  0.51100000000E-03 0.  1.
        -12    1    3    3    0    0  0.65292378585E+01  0.12675203594E+02 -0.12992001998E+02  0.19289475085E+02  0.00000000000E+00 0.  1.
</event>
<event>
 7    1  0.2974434E-011  0.5052887E+02  0.7816164E-02  0.1300439E+00
        -11   -1    0    0    0    0  0.00000000000E+00  0.00000000000E+00  0.45593999997E+02  0.45594000000E+02  0.51100000000E-03 0. -1.
         11   -1    0    0    0    0 -0.00000000000E+00 -0.00000000000E+00 -0.45593999997E+02  0.45594000000E+02  0.51100000000E-03 0.  1.
    9900012    2    1    2    0    0 -0.61485823286E+01  0.98063464916E+01  0.38976858617E+02  0.50528868138E+02  0.30000025191E+02 0.  0.
        -12    1    1    2    0    0  0.61485823286E+01 -0.98063464916E+01 -0.38976858617E+02  0.40659131862E+02  0.00000000000E+00 0.  1.
         11    1    3    3    0    0  0.27986764779E+01  0.19698115834E+01  0.15480881791E+00  0.34258887508E+01  0.51100000000E-03 0. -1.
        -11    1    3    3    0    0  0.18884020553E+01 -0.37664253628E+01 -0.91536061622E+00  0.43116015185E+01  0.51100000000E-03 0.  1.
         12    1    3    3    0    0 -0.10835660862E+02  0.11602960271E+02  0.39737410415E+02  0.42791377868E+02  0.00000000000E+00 0. -1.
</event>
<event>
 7    1  0.2974434E-011  0.5052886E+02  0.7816164E-02  0.1300439E+00
        -11   -1    0    0    0    0  0.00000000000E+00  0.00000000000E+00  0.45593999997E+02  0.45594000000E+02  0.51100000000E-03 0. -1.
         11   -1    0    0    0    0 -0.00000000000E+00 -0.00000000000E+00 -0.45593999997E+02  0.45594000000E+02  0.51100000000E-03 0.  1.
    9900012    2    1    2    0    0  0.31688738607E+02  0.19029557815E+02  0.16937103152E+02  0.50528859719E+02  0.29999999603E+02 0.  0.
        -12    1    1    2    0    0 -0.31688738607E+02 -0.19029557815E+02 -0.16937103152E+02  0.40659140281E+02  0.00000000000E+00 0.  1.
         11    1    3    3    0    0 -0.46905302440E+01  0.29793126822E+01  0.64948431863E+01  0.85475356860E+01  0.51100000000E-03 0.  1.
        -11    1    3    3    0    0  0.81280977455E+01  0.17884302498E+01  0.54368178100E+01  0.99409981330E+01  0.51100000000E-03 0. -1.
        -12    1    3    3    0    0  0.28251171106E+02  0.14261814883E+02  0.50054421557E+01  0.32040325900E+02  0.00000000000E+00 0.  1.
</event>
<event>
 7    1  0.2974434E-011  0.5052886E+02  0.7816164E-02  0.1300439E+00
        -11   -1    0    0    0    0  0.00000000000E+00  0.00000000000E+00  0.45593999997E+02  0.45594000000E+02  0.51100000000E-03 0.  1.
         11   -1    0    0    0    0 -0.00000000000E+00 -0.00000000000E+00 -0.45593999997E+02  0.45594000000E+02  0.51100000000E-03 0. -1.
    9900012    2    1    2    0    0  0.48502220598E+01 -0.94855267160E+01 -0.39238573318E+02  0.50528861948E+02  0.30000006378E+02 0.  0.
        -12    1    1    2    0    0 -0.48502220598E+01  0.94855267160E+01  0.39238573318E+02  0.40659138052E+02  0.00000000000E+00 0.  1.
         11    1    3    3    0    0  0.22195342014E+01 -0.15180012694E+01 -0.21259265412E+00  0.26973794362E+01  0.51100000000E-03 0.  1.
        -11    1    3    3    0    0  0.12472485618E+02 -0.10198203810E+02 -0.31003604919E+02  0.34939802184E+02  0.51100000000E-03 0. -1.
        -12    1    3    3    0    0 -0.98417977593E+01  0.22306783633E+01 -0.80223757446E+01  0.12891680328E+02  0.00000000000E+00 0.  1.
</event>
<event>
 7    1  0.2974434E-011  0.5052887E+02  0.7816164E-02  0.1300439E+00
        -11   -1    0    0    0    0  0.00000000000E+00  0.00000000000E+00  0.45593999997E+02  0.45594000000E+02  0.51100000000E-03 0.  1.
         11   -1    0    0    0    0 -0.00000000000E+00 -0.00000000000E+00 -0.45593999997E+02  0.45594000000E+02  0.51100000000E-03 0. -1.
    9900012    2    1    2    0    0 -0.23868875454E+01 -0.40567332827E+02 -0.13263969985E+01  0.50528867523E+02  0.30000023322E+02 0.  0.
        -12    1    1    2    0    0  0.23868875454E+01  0.40567332827E+02  0.13263969985E+01  0.40659132477E+02  0.00000000000E+00 0.  1.
         11    1    3    3    0    0 -0.24350783333E+00 -0.72713090955E+01 -0.89701248861E+01  0.11549648166E+02  0.51100000000E-03 0. -1.
        -11    1    3    3    0    0  0.33509047407E+01 -0.29161521001E+02  0.92864361786E+00  0.29368099171E+02  0.51100000000E-03 0.  1.
         12    1    3    3    0    0 -0.54942844528E+01 -0.41345027300E+01  0.67150842697E+01  0.96111201856E+01  0.00000000000E+00 0. -1.
</event>
<event>
 7    1  0.2974434E-011  0.5052884E+02  0.7816164E-02  0.1300439E+00
        -11   -1    0    0    0    0  0.00000000000E+00  0.00000000000E+00  0.45593999997E+02  0.45594000000E+02  0.51100000000E-03 0.  1.
         11   -1    0    0    0    0 -0.00000000000E+00 -0.00000000000E+00 -0.45593999997E+02  0.45594000000E+02  0.51100000000E-03 0. -1.
    9900012    2    1    2    0    0  0.36366891089E+02  0.17924673912E+02 -0.30532694994E+01  0.50528841659E+02  0.29999944707E+02 0.  0.
        -12    1    1    2    0    0 -0.36366891089E+02 -0.17924673912E+02  0.30532694994E+01  0.40659158341E+02  0.00000000000E+00 0.  1.
         11    1    3    3    0    0  0.10224172096E+02  0.97903325309E+01 -0.62589393593E+01  0.15477681618E+02  0.51100000000E-03 0. -1.
        -11    1    3    3    0    0  0.11777622083E+02  0.31136993461E+01 -0.93227195774E+01  0.15340163172E+02  0.51100000000E-03 0.  1.
        -12    1    3    3    0    0  0.14365096910E+02  0.50206420348E+01  0.12528389437E+02  0.19710996869E+02  0.00000000000E+00 0.  1.
</event>
<event>
 7    1  0.2974434E-011  0.5052887E+02  0.7816164E-02  0.1300439E+00
        -11   -1    0    0    0    0  0.00000000000E+00  0.00000000000E+00  0.45593999997E+02  0.45594000000E+02  0.51100000000E-03 0. -1.
         11   -1    0    0    0    0 -0.00000000000E+00 -0.00000000000E+00 -0.45593999997E+02  0.45594000000E+02  0.51100000000E-03 0.  1.
    9900012    2    1    2    0    0 -0.38282197415E+02 -0.12236246742E+02 -0.61573392017E+01  0.50528865734E+02  0.30000017884E+02 0.  0.
        -12    1    1    2    0    0  0.38282197415E+02  0.12236246742E+02  0.61573392017E+01  0.40659134266E+02  0.00000000000E+00 0.  1.
         11    1    3    3    0    0 -0.76687800729E+01 -0.14078435497E+02  0.32301081344E+01  0.16353780378E+02  0.51100000000E-03 0. -1.
        -11    1    3    3    0    0 -0.73446129737E+01 -0.46591923942E+01 -0.22912056343E+01  0.89945003763E+01  0.51100000000E-03 0.  1.
         12    1    3    3    0    0 -0.23268804369E+02  0.65013811493E+01 -0.70962417018E+01  0.25180584979E+02  0.00000000000E+00 0. -1.
</event>
<event>
 7    1  0.2974434E-011  0.5052884E+02  0.7816164E-02  0.1300439E+00
        -11   -1    0    0    0    0  0.00000000000E+00  0.00000000000E+00  0.45593999997E+02  0.45594000000E+02  0.51100000000E-03 0. -1.
         11   -1    0    0    0    0 -0.00000000000E+00 -0.00000000000E+00 -0.45593999997E+02  0.45594000000E+02  0.51100000000E-03 0.  1.
    9900012    2    1    2    0    0  0.39707361284E+02  0.65685585643E+01  0.57746727870E+01  0.50528839316E+02  0.29999937585E+02 0.  0.
        -12    1    1    2    0    0 -0.39707361284E+02 -0.65685585643E+01 -0.57746727870E+01  0.40659160684E+02  0.00000000000E+00 0.  1.
         11    1    3    3    0    0  0.80537441983E+01 -0.51639680501E+01 -0.11577745184E+01  0.96368980347E+01  0.51100000000E-03 0. -1.
        -11    1    3    3    0    0  0.33308142511E+02  0.79077746599E+01  0.18007503828E+01  0.34281306274E+02  0.51100000000E-03 0.  1.
        -12    1    3    3    0    0 -0.16545254259E+01  0.38247519544E+01  0.51316969226E+01  0.66106350075E+01  0.00000000000E+00 0.  1.
</event>
<event>
 7    1  0.2974434E-011  0.5052887E+02  0.7816164E-02  0.1300439E+00
        -11   -1    0    0    0    0  0.00000000000E+00  0.00000000000E+00  0.45593999997E+02  0.45594000000E+02  0.51100000000E-03 0.  1.
         11   -1    0    0    0    0 -0.00000000000E+00 -0.00000000000E+00 -0.45593999997E+02  0.45594000000E+02  0.51100000000E-03 0. -1.
    9900012    2    1    2    0    0 -0.12539012208E+02  0.30326624892E+01 -0.38558276783E+02  0.50528873381E+02  0.30000041129E+02 0.  0.
        -12    1    1    2    0    0  0.12539012208E+02 -0.30326624892E+01  0.38558276783E+02  0.40659126619E+02  0.00000000000E+00 0.  1.
         11    1    3    3    0    0 -0.62128017040E+00 -0.94148445663E-01  0.15145188927E+01  0.16397014111E+01  0.51100000000E-03 0. -1.
        -11    1    3    3    0    0  0.34907805937E+01 -0.24677828434E+01  0.12331540099E+01  0.44492887509E+01  0.51100000000E-03 0.  1.
         12    1    3    3    0    0 -0.15408512631E+02  0.55945937783E+01 -0.41305949686E+02  0.44439883219E+02  0.00000000000E+00 0. -1.
</event>
<event>
 7    1  0.2974434E-011  0.5052889E+02  0.7816164E-02  0.1300439E+00
        -11   -1    0    0    0    0  0.00000000000E+00  0.00000000000E+00  0.45593999997E+02  0.45594000000E+02  0.51100000000E-03 0.  1.
         11   -1    0    0    0    0 -0.00000000000E+00 -0.00000000000E+00 -0.45593999997E+02  0.45594000000E+02  0.51100000000E-03 0. -1.
    9900012    2    1    2    0    0 -0.13404657938E+02 -0.25769497895E+02 -0.28450157012E+02  0.50528888965E+02  0.30000088497E+02 0.  0.
        -12    1    1    2    0    0  0.13404657938E+02  0.25769497895E+02  0.28450157012E+02  0.40659111035E+02  0.00000000000E+00 0.  1.
         11    1    3    3    0    0  0.32322879789E+01 -0.10808122260E+01 -0.22405207351E+01  0.40786975951E+01  0.51100000000E-03 0. -1.
        -11    1    3    3    0    0 -0.62103415978E+01  0.32292313573E+01 -0.37512473348E+00  0.70097786518E+01  0.51100000000E-03 0.  1.
         12    1    3    3    0    0 -0.10426604319E+02 -0.27917917026E+02 -0.25834511543E+02  0.39440412718E+02  0.00000000000E+00 0. -1.
</event>
<event>
 7    1  0.2974434E-011  0.5052885E+02  0.7816164E-02  0.1300439E+00
        -11   -1    0    0    0    0  0.00000000000E+00  0.00000000000E+00  0.45593999997E+02  0.45594000000E+02  0.51100000000E-03 0.  1.
         11   -1    0    0    0    0 -0.00000000000E+00 -0.00000000000E+00 -0.45593999997E+02  0.45594000000E+02  0.51100000000E-03 0. -1.
    9900012    2    1    2    0    0 -0.10013735886E+02  0.39152414814E+02 -0.44698890666E+01  0.50528850963E+02  0.29999972986E+02 0.  0.
        -12    1    1    2    0    0  0.10013735886E+02 -0.39152414814E+02  0.44698890666E+01  0.40659149037E+02  0.00000000000E+00 0.  1.
         11    1    3    3    0    0 -0.77420880354E+00  0.93331789734E+01 -0.12043318726E+02  0.15256118616E+02  0.51100000000E-03 0. -1.
        -11    1    3    3    0    0 -0.41911057324E+01  0.36403319110E+01 -0.33239521887E+01  0.64703973678E+01  0.51100000000E-03 0.  1.
        -12    1    3    3    0    0 -0.50484213498E+01  0.26178903930E+02  0.10897381848E+02  0.28802334979E+02  0.00000000000E+00 0.  1.
</event>
<event>
 7    1  0.2974434E-011  0.5052885E+02  0.7816164E-02  0.1300439E+00
        -11   -1    0    0    0    0  0.00000000000E+00  0.00000000000E+00  0.45593999997E+02  0.45594000000E+02  0.51100000000E-03 0. -1.
         11   -1    0    0    0    0 -0.00000000000E+00 -0.00000000000E+00 -0.45593999997E+02  0.45594000000E+02  0.51100000000E-03 0.  1.
    9900012    2    1    2    0    0 -0.19206734364E+02 -0.30067365759E+01  0.35710320844E+02  0.50528854355E+02  0.29999983299E+02 0.  0.
        -12    1    1    2    0    0  0.19206734364E+02  0.30067365759E+01 -0.35710320844E+02  0.40659145645E+02  0.00000000000E+00 0.  1.
         11    1    3    3    0    0 -0.78985472813E-01 -0.52818233017E+01  0.19195107729E+01  0.56203574587E+01  0.51100000000E-03 0. -1.
        -11    1    3    3    0    0  0.38646818125E+01 -0.41418851820E+01  0.55507453354E+01  0.79310625021E+01  0.51100000000E-03 0.  1.
        -12    1    3    3    0    0 -0.22992430704E+02  0.64169719077E+01  0.28240064736E+02  0.36977434395E+02  0.00000000000E+00 0.  1.
</event>
<event>
 7    1  0.2974434E-011  0.5052886E+02  0.7816164E-02  0.1300439E+00
        -11   -1    0    0    0    0  0.00000000000E+00  0.00000000000E+00  0.45593999997E+02  0.45594000000E+02  0.51100000000E-03 0. -1.
         11   -1    0    0    0    0 -0.00000000000E+00 -0.00000000000E+00 -0.45593999997E+02  0.45594000000E+02  0.51100000000E-03 0.  1.
    9900012    2    1    2    0    0 -0.31185241026E+02  0.14540585975E+02 -0.21661437305E+02  0.50528858783E+02  0.29999996758E+02 0.  0.
        -12    1    1    2    0    0  0.31185241026E+02 -0.14540585975E+02  0.21661437305E+02  0.40659141217E+02  0.00000000000E+00 0.  1.
         11    1    3    3    0    0 -0.23629625546E+01 -0.33373841860E+01 -0.54019713815E+01  0.67751767732E+01  0.51100000000E-03 0. -1.
        -11    1    3    3    0    0 -0.97938652711E+01 -0.22672234089E+01 -0.12101437028E+02  0.15732287734E+02  0.51100000000E-03 0.  1.
         12    1    3    3    0    0 -0.19028413200E+02  0.20145193570E+02 -0.41580288956E+01  0.28021394277E+02  0.00000000000E+00 0. -1.
</event>
<event>
 7    1  0.2974434E-011  0.5052886E+02  0.7816164E-02  0.1300439E+00
        -11   -1    0    0    0    0  0.00000000000E+00  0.00000000000E+00  0.45593999997E+02  0.45594000000E+02  0.51100000000E-03 0.  1.
         11   -1    0    0    0    0 -0.00000000000E+00 -0.00000000000E+00 -0.45593999997E+02  0.45594000000E+02  0.51100000000E-03 0. -1.
    9900012    2    1    2    0    0 -0.21452021160E+02 -0.32821781971E+02 -0.10756727081E+02  0.50528858825E+02  0.29999996883E+02 0.  0.
        -12    1    1    2    0    0  0.21452021160E+02  0.32821781971E+02  0.10756727081E+02  0.40659141175E+02  0.00000000000E+00 0.  1.
         11    1    3    3    0    0 -0.63029720263E+01 -0.12556191075E+02  0.94071502761E+00  0.14080849963E+02  0.51100000000E-03 0.  1.
        -11    1    3    3    0    0 -0.16694996356E+02 -0.24463370265E+02 -0.12019066373E+02  0.31963062194E+02  0.51100000000E-03 0. -1.
         12    1    3    3    0    0  0.15459472222E+01  0.41977793687E+01  0.32162426441E+00  0.44849466674E+01  0.00000000000E+00 0. -1.
</event>
<event>
 7    1  0.2974434E-011  0.5052890E+02  0.7816164E-02  0.1300439E+00
        -11   -1    0    0    0    0  0.00000000000E+00  0.00000000000E+00  0.45593999997E+02  0.45594000000E+02  0.51100000000E-03 0.  1.
         11   -1    0    0    0    0 -0.00000000000E+00 -0.00000000000E+00 -0.45593999997E+02  0.45594000000E+02  0.51100000000E-03 0. -1.
    9900012    2    1    2    0    0 -0.23898523949E+01 -0.39503612424E+02 -0.93228501777E+01  0.50528901086E+02  0.30000125342E+02 0.  0.
        -12    1    1    2    0    0  0.23898523949E+01  0.39503612424E+02  0.93228501777E+01  0.40659098914E+02  0.00000000000E+00 0.  1.
         11    1    3    3    0    0 -0.19659765897E+00  0.23282394514E+01 -0.40310730670E+01  0.46592810514E+01  0.51100000000E-03 0. -1.
        -11    1    3    3    0    0  0.63246886374E+01 -0.62661457839E+01  0.94089048664E-01  0.89036578076E+01  0.51100000000E-03 0.  1.
         12    1    3    3    0    0 -0.85179433734E+01 -0.35565706092E+02 -0.53858661594E+01  0.36965962227E+02  0.00000000000E+00 0. -1.
</event>
<event>
 7    1  0.2974434E-011  0.5052892E+02  0.7816164E-02  0.1300439E+00
        -11   -1    0    0    0    0  0.00000000000E+00  0.00000000000E+00  0.45593999997E+02  0.45594000000E+02  0.51100000000E-03 0.  1.
         11   -1    0    0    0    0 -0.00000000000E+00 -0.00000000000E+00 -0.45593999997E+02  0.45594000000E+02  0.51100000000E-03 0. -1.
    9900012    2    1    2    0    0  0.59297687890E+01 -0.38735974390E+02 -0.10840816226E+02  0.50528915329E+02  0.30000168634E+02 0.  0.
        -12    1    1    2    0    0 -0.59297687890E+01  0.38735974390E+02  0.10840816226E+02  0.40659084671E+02  0.00000000000E+00 0.  1.
         11    1    3    3    0    0  0.32812044893E+01 -0.65218016220E+01  0.48034760169E+01  0.87391979840E+01  0.51100000000E-03 0. -1.
        -11    1    3    3    0    0 -0.64275595862E+01 -0.11949570993E+02  0.16180107321E+01  0.13664689098E+02  0.51100000000E-03 0.  1.
         12    1    3    3    0    0  0.90761238860E+01 -0.20264601775E+02 -0.17262302975E+02  0.28125028247E+02  0.00000000000E+00 0. -1.
</event>
<event>
 7    1  0.2974434E-011  0.5052886E+02  0.7816164E-02  0.1300439E+00
        -11   -1    0    0    0    0  0.00000000000E+00  0.00000000000E+00  0.45593999997E+02  0.45594000000E+02  0.51100000000E-03 0. -1.
         11   -1    0    0    0    0 -0.00000000000E+00 -0.00000000000E+00 -0.45593999997E+02  0.45594000000E+02  0.51100000000E-03 0.  1.
    9900012    2    1    2    0    0 -0.28971863870E+02 -0.23166231898E+02 -0.16646985753E+02  0.50528864113E+02  0.30000012958E+02 0.  0.
        -12    1    1    2    0    0  0.28971863870E+02  0.23166231898E+02  0.16646985753E+02  0.40659135887E+02  0.00000000000E+00 0.  1.
         11    1    3    3    0    0 -0.21429878428E+02 -0.80356418783E+01  0.91721272469E+00  0.22905294351E+02  0.51100000000E-03 0. -1.
        -11    1    3    3    0    0 -0.76308511349E+01 -0.60446803900E+01 -0.25323221453E+01  0.10058862051E+02  0.51100000000E-03 0.  1.
        -12    1    3    3    0    0  0.88865693645E-01 -0.90859096293E+01 -0.15031876332E+02  0.17564707711E+02  0.00000000000E+00 0.  1.
</event>
<event>
 7    1  0.2974434E-011  0.5052881E+02  0.7816164E-02  0.1300439E+00
        -11   -1    0    0    0    0  0.00000000000E+00  0.00000000000E+00  0.45593999997E+02  0.45594000000E+02  0.51100000000E-03 0.  1.
         11   -1    0    0    0    0 -0.00000000000E+00 -0.00000000000E+00 -0.45593999997E+02  0.45594000000E+02  0.51100000000E-03 0. -1.
    9900012    2    1    2    0    0 -0.32708383329E+02 -0.16404529100E+02 -0.17726334250E+02  0.50528808653E+02  0.29999844382E+02 0.  0.
        -12    1    1    2    0    0  0.32708383329E+02  0.16404529100E+02  0.17726334250E+02  0.40659191347E+02  0.00000000000E+00 0.  1.
         11    1    3    3    0    0 -0.14496062771E+01  0.30222844377E+01  0.31725715614E+01  0.46152759565E+01  0.51100000000E-03 0. -1.
        -11    1    3    3    0    0 -0.61278352369E+00  0.93575512453E+00  0.22011456714E+01  0.24690451247E+01  0.51100000000E-03 0.  1.
         12    1    3    3    0    0 -0.30645993529E+02 -0.20362568662E+02 -0.23100051483E+02  0.43444487572E+02  0.00000000000E+00 0. -1.
</event>
<event>
 7    1  0.2974434E-011  0.5052883E+02  0.7816164E-02  0.1300439E+00
        -11   -1    0    0    0    0  0.00000000000E+00  0.00000000000E+00  0.45593999997E+02  0.45594000000E+02  0.51100000000E-03 0.  1.
         11   -1    0    0    0    0 -0.00000000000E+00 -0.00000000000E+00 -0.45593999997E+02  0.45594000000E+02  0.51100000000E-03 0. -1.
    9900012    2    1    2    0    0 -0.27203603744E+02  0.28831187452E+02  0.90495869399E+01  0.50528825754E+02  0.29999896362E+02 0.  0.
        -12    1    1    2    0    0  0.27203603744E+02 -0.28831187452E+02 -0.90495869399E+01  0.40659174246E+02  0.00000000000E+00 0.  1.
         11    1    3    3    0    0 -0.15173849941E+02  0.67721876063E+01 -0.22256807577E+01  0.16764900898E+02  0.51100000000E-03 0. -1.
        -11    1    3    3    0    0 -0.10096536704E+02  0.10545778138E+02 -0.34207960702E+01  0.14995177090E+02  0.51100000000E-03 0.  1.
        -12    1    3    3    0    0 -0.19332170989E+01  0.11513221708E+02  0.14696063768E+02  0.18768747766E+02  0.00000000000E+00 0.  1.
</event>
<event>
 7    1  0.2974434E-011  0.5052887E+02  0.7816164E-02  0.1300439E+00
        -11   -1    0    0    0    0  0.00000000000E+00  0.00000000000E+00  0.45593999997E+02  0.45594000000E+02  0.51100000000E-03 0.  1.
         11   -1    0    0    0    0 -0.00000000000E+00 -0.00000000000E+00 -0.45593999997E+02  0.45594000000E+02  0.51100000000E-03 0. -1.
    9900012    2    1    2    0    0 -0.29760912462E+02  0.22037879565E+02 -0.16786441305E+02  0.50528872390E+02  0.30000038117E+02 0.  0.
        -12    1    1    2    0    0  0.29760912462E+02 -0.22037879565E+02  0.16786441305E+02  0.40659127610E+02  0.00000000000E+00 0.  1.
         11    1    3    3    0    0  0.27015788716E+01  0.26467506987E+01 -0.66467866045E+01  0.76474564456E+01  0.51100000000E-03 0. -1.
        -11    1    3    3    0    0  0.13890609471E+01  0.29726493877E+01  0.13425752197E+01  0.35452282266E+01  0.51100000000E-03 0.  1.
         12    1    3    3    0    0 -0.33851552281E+02  0.16418479479E+02 -0.11482229920E+02  0.39336187718E+02  0.00000000000E+00 0. -1.
</event>
<event>
 7    1  0.2974434E-011  0.5052886E+02  0.7816164E-02  0.1300439E+00
        -11   -1    0    0    0    0  0.00000000000E+00  0.00000000000E+00  0.45593999997E+02  0.45594000000E+02  0.51100000000E-03 0.  1.
         11   -1    0    0    0    0 -0.00000000000E+00 -0.00000000000E+00 -0.45593999997E+02  0.45594000000E+02  0.51100000000E-03 0. -1.
    9900012    2    1    2    0    0  0.19187961785E+02  0.32933347090E+02 -0.14155655392E+02  0.50528858253E+02  0.29999995147E+02 0.  0.
        -12    1    1    2    0    0 -0.19187961785E+02 -0.32933347090E+02  0.14155655392E+02  0.40659141747E+02  0.00000000000E+00 0.  1.
         11    1    3    3    0    0 -0.89600391043E+00  0.11359672350E+02 -0.74106971408E+01  0.13592770552E+02  0.51100000000E-03 0. -1.
        -11    1    3    3    0    0  0.14632909913E+02  0.25378925096E+02 -0.33933126983E+01  0.29491125154E+02  0.51100000000E-03 0.  1.
        -12    1    3    3    0    0  0.54510557822E+01 -0.38052503558E+01 -0.33516455532E+01  0.74449625469E+01  0.00000000000E+00 0.  1.
</event>
<event>
 7    1  0.2974434E-011  0.5052887E+02  0.7816164E-02  0.1300439E+00
        -11   -1    0    0    0    0  0.00000000000E+00  0.00000000000E+00  0.45593999997E+02  0.45594000000E+02  0.51100000000E-03 0. -1.
         11   -1    0    0    0    0 -0.00000000000E+00 -0.00000000000E+00 -0.45593999997E+02  0.45594000000E+02  0.51100000000E-03 0.  1.
    9900012    2    1    2    0    0  0.66992726364E+01  0.32744618737E+02  0.23153286050E+02  0.50528868615E+02  0.30000026643E+02 0.  0.
        -12    1    1    2    0    0 -0.66992726364E+01 -0.32744618737E+02 -0.23153286050E+02  0.40659131385E+02  0.00000000000E+00 0.  1.
         11    1    3    3    0    0  0.28357045918E+01  0.10351056499E+02 -0.41401864260E+01  0.11503335824E+02  0.51100000000E-03 0.  1.
        -11    1    3    3    0    0  0.88438678773E+01  0.20264570763E+02  0.24234456904E+02  0.32805117420E+02  0.51100000000E-03 0. -1.
         12    1    3    3    0    0 -0.49802998327E+01  0.21289914743E+01  0.30590155718E+01  0.62204153712E+01  0.00000000000E+00 0. -1.
</event>
<event>
 7    1  0.2974434E-011  0.5052886E+02  0.7816164E-02  0.1300439E+00
        -11   -1    0    0    0    0  0.00000000000E+00  0.00000000000E+00  0.45593999997E+02  0.45594000000E+02  0.51100000000E-03 0.  1.
         11   -1    0    0    0    0 -0.00000000000E+00 -0.00000000000E+00 -0.45593999997E+02  0.45594000000E+02  0.51100000000E-03 0. -1.
    9900012    2    1    2    0    0  0.34889051785E+02 -0.25770253263E+01  0.20719042411E+02  0.50528859423E+02  0.29999998704E+02 0.  0.
        -12    1    1    2    0    0 -0.34889051785E+02  0.25770253263E+01 -0.20719042411E+02  0.40659140577E+02  0.00000000000E+00 0.  1.
         11    1    3    3    0    0  0.57903658375E+01 -0.81609042438E+00  0.13533495064E+02  0.14742789051E+02  0.51100000000E-03 0. -1.
        -11    1    3    3    0    0  0.35043817448E+01  0.64627251668E+01  0.48379140233E+01  0.88007340804E+01  0.51100000000E-03 0.  1.
         12    1    3    3    0    0  0.25594304203E+02 -0.82236600688E+01  0.23476333239E+01  0.26985336292E+02  0.00000000000E+00 0. -1.
</event>
<event>
 7    1  0.2974434E-011  0.5052886E+02  0.7816164E-02  0.1300439E+00
        -11   -1    0    0    0    0  0.00000000000E+00  0.00000000000E+00  0.45593999997E+02  0.45594000000E+02  0.51100000000E-03 0.  1.
         11   -1    0    0    0    0 -0.00000000000E+00 -0.00000000000E+00 -0.45593999997E+02  0.45594000000E+02  0.51100000000E-03 0. -1.
    9900012    2    1    2    0    0  0.30425862796E+02  0.18149827753E+02 -0.19950351416E+02  0.50528857166E+02  0.29999991842E+02 0.  0.
        -12    1    1    2    0    0 -0.30425862796E+02 -0.18149827753E+02  0.19950351416E+02  0.40659142834E+02  0.00000000000E+00 0.  1.
         11    1    3    3    0    0  0.13822177245E+02  0.14933083930E+01 -0.10863816831E+02  0.17643839439E+02  0.51100000000E-03 0. -1.
        -11    1    3    3    0    0  0.19393790682E+02  0.11661868711E+02 -0.58485167387E+00  0.22637587120E+02  0.51100000000E-03 0.  1.
        -12    1    3    3    0    0 -0.27901051305E+01  0.49946506490E+01 -0.85016829108E+01  0.10247430608E+02  0.00000000000E+00 0.  1.
</event>
<event>
 7    1  0.2974434E-011  0.5052886E+02  0.7816164E-02  0.1300439E+00
        -11   -1    0    0    0    0  0.00000000000E+00  0.00000000000E+00  0.45593999997E+02  0.45594000000E+02  0.51100000000E-03 0. -1.
         11   -1    0    0    0    0 -0.00000000000E+00 -0.00000000000E+00 -0.45593999997E+02  0.45594000000E+02  0.51100000000E-03 0.  1.
    9900012    2    1    2    0    0 -0.35768285765E+02 -0.92410467662E+01  0.16982287716E+02  0.50528864397E+02  0.30000013822E+02 0.  0.
        -12    1    1    2    0    0  0.35768285765E+02  0.92410467662E+01 -0.16982287716E+02  0.40659135603E+02  0.00000000000E+00 0.  1.
         11    1    3    3    0    0  0.96608517836E+00  0.33040543726E-01  0.37734982550E+01  0.38953435780E+01  0.51100000000E-03 0. -1.
        -11    1    3    3    0    0  0.15430400820E+01 -0.31361662670E+01  0.63737154367E+01  0.72691650331E+01  0.51100000000E-03 0.  1.
        -12    1    3    3    0    0 -0.38277411025E+02 -0.61379210429E+01  0.68350740242E+01  0.39364355786E+02  0.00000000000E+00 0.  1.
</event>
<event>
 7    1  0.2974434E-011  0.5052887E+02  0.7816164E-02  0.1300439E+00
        -11   -1    0    0    0    0  0.00000000000E+00  0.00000000000E+00  0.45593999997E+02  0.45594000000E+02  0.51100000000E-03 0. -1.
         11   -1    0    0    0    0 -0.00000000000E+00 -0.00000000000E+00 -0.45593999997E+02  0.45594000000E+02  0.51100000000E-03 0.  1.
    9900012    2    1    2    0    0 -0.27511779696E+02  0.99119384230E+00  0.29921298738E+02  0.50528873037E+02  0.30000040082E+02 0.  0.
        -12    1    1    2    0    0  0.27511779696E+02 -0.99119384230E+00 -0.29921298738E+02  0.40659126963E+02  0.00000000000E+00 0.  1.
         11    1    3    3    0    0 -0.11207686534E+02 -0.27582997709E+01  0.20808005718E+02  0.23794822069E+02  0.51100000000E-03 0. -1.
        -11    1    3    3    0    0 -0.15984419051E+02  0.82529402724E+01  0.17200276625E+01  0.18071280280E+02  0.51100000000E-03 0.  1.
         12    1    3    3    0    0 -0.31967411064E+00 -0.45034466591E+01  0.73932653576E+01  0.86627706882E+01  0.00000000000E+00 0. -1.
</event>
<event>
 7    1  0.2974434E-011  0.5052886E+02  0.7816164E-02  0.1300439E+00
        -11   -1    0    0    0    0  0.00000000000E+00  0.00000000000E+00  0.45593999997E+02  0.45594000000E+02  0.51100000000E-03 0.  1.
         11   -1    0    0    0    0 -0.00000000000E+00 -0.00000000000E+00 -0.45593999997E+02  0.45594000000E+02  0.51100000000E-03 0. -1.
    9900012    2    1    2    0    0  0.13781338088E+02  0.46022652324E+01 -0.37974459273E+02  0.50528859800E+02  0.29999999848E+02 0.  0.
        -12    1    1    2    0    0 -0.13781338088E+02 -0.46022652324E+01  0.37974459273E+02  0.40659140200E+02  0.00000000000E+00 0.  1.
         11    1    3    3    0    0 -0.92411077874E+00  0.62329091585E+01  0.21983275991E+00  0.63048762092E+01  0.51100000000E-03 0.  1.
        -11    1    3    3    0    0 -0.22490727275E+01  0.36198202311E+01 -0.10480869745E+02  0.11314152974E+02  0.51100000000E-03 0. -1.
         12    1    3    3    0    0  0.16954521594E+02 -0.52504641572E+01 -0.27713422288E+02  0.32909830617E+02  0.00000000000E+00 0. -1.
</event>
<event>
 7    1  0.2974434E-011  0.5052885E+02  0.7816164E-02  0.1300439E+00
        -11   -1    0    0    0    0  0.00000000000E+00  0.00000000000E+00  0.45593999997E+02  0.45594000000E+02  0.51100000000E-03 0.  1.
         11   -1    0    0    0    0 -0.00000000000E+00 -0.00000000000E+00 -0.45593999997E+02  0.45594000000E+02  0.51100000000E-03 0. -1.
    9900012    2    1    2    0    0 -0.12064854782E+02  0.13520303156E+02 -0.36397899499E+02  0.50528850890E+02  0.29999972767E+02 0.  0.
        -12    1    1    2    0    0  0.12064854782E+02 -0.13520303156E+02  0.36397899499E+02  0.40659149110E+02  0.00000000000E+00 0.  1.
         11    1    3    3    0    0 -0.72708166295E+01  0.92422729046E+00 -0.21047756795E+02  0.22287373935E+02  0.51100000000E-03 0. -1.
        -11    1    3    3    0    0 -0.10107464548E+02  0.40382992081E+01 -0.14502696234E+02  0.18132757606E+02  0.51100000000E-03 0.  1.
        -12    1    3    3    0    0  0.53134263949E+01  0.85577766572E+01 -0.84744647013E+00  0.10108719350E+02  0.00000000000E+00 0.  1.
</event>
<event>
 7    1  0.2974434E-011  0.5052888E+02  0.7816164E-02  0.1300439E+00
        -11   -1    0    0    0    0  0.00000000000E+00  0.00000000000E+00  0.45593999997E+02  0.45594000000E+02  0.51100000000E-03 0. -1.
         11   -1    0    0    0    0 -0.00000000000E+00 -0.00000000000E+00 -0.45593999997E+02  0.45594000000E+02  0.51100000000E-03 0.  1.
    9900012    2    1    2    0    0  0.27202570559E+01 -0.86933181001E+01  0.39625627780E+02  0.50528881036E+02  0.30000064396E+02 0.  0.
        -12    1    1    2    0    0 -0.27202570559E+01  0.86933181001E+01 -0.39625627780E+02  0.40659118964E+02  0.00000000000E+00 0.  1.
         11    1    3    3    0    0 -0.35842692544E+01 -0.11994759109E+02  0.12964564846E+02  0.18022241095E+02  0.51100000000E-03 0. -1.
        -11    1    3    3    0    0 -0.55181018698E+01 -0.16211389927E+01  0.73014303063E+01  0.92945373558E+01  0.51100000000E-03 0.  1.
         12    1    3    3    0    0  0.11822628180E+02  0.49225800015E+01  0.19359632627E+02  0.23212102585E+02  0.00000000000E+00 0. -1.
</event>
<event>
 7    1  0.2974434E-011  0.5052886E+02  0.7816164E-02  0.1300439E+00
        -11   -1    0    0    0    0  0.00000000000E+00  0.00000000000E+00  0.45593999997E+02  0.45594000000E+02  0.51100000000E-03 0.  1.
         11   -1    0    0    0    0 -0.00000000000E+00 -0.00000000000E+00 -0.45593999997E+02  0.45594000000E+02  0.51100000000E-03 0. -1.
    9900012    2    1    2    0    0  0.23227984270E+02 -0.79518254870E+01 -0.32409798942E+02  0.50528857740E+02  0.29999993587E+02 0.  0.
        -12    1    1    2    0    0 -0.23227984270E+02  0.79518254870E+01  0.32409798942E+02  0.40659142260E+02  0.00000000000E+00 0.  1.
         11    1    3    3    0    0  0.15034591637E+02  0.94453955823E+00 -0.83800971300E+01  0.17238246107E+02  0.51100000000E-03 0. -1.
        -11    1    3    3    0    0  0.63712501818E+01  0.27720333587E+00 -0.23015860935E+02  0.23883038446E+02  0.51100000000E-03 0.  1.
        -12    1    3    3    0    0  0.18221424513E+01 -0.91735683811E+01 -0.10138408778E+01  0.94075731876E+01  0.00000000000E+00 0.  1.
</event>
<event>
 7    1  0.2974434E-011  0.5052886E+02  0.7816164E-02  0.1300439E+00
        -11   -1    0    0    0    0  0.00000000000E+00  0.00000000000E+00  0.45593999997E+02  0.45594000000E+02  0.51100000000E-03 0.  1.
         11   -1    0    0    0    0 -0.00000000000E+00 -0.00000000000E+00 -0.45593999997E+02  0.45594000000E+02  0.51100000000E-03 0. -1.
    9900012    2    1    2    0    0  0.94405814134E+01  0.38972502446E+02  0.67219747915E+01  0.50528862411E+02  0.30000007786E+02 0.  0.
        -12    1    1    2    0    0 -0.94405814134E+01 -0.38972502446E+02 -0.67219747915E+01  0.40659137589E+02  0.00000000000E+00 0.  1.
         11    1    3    3    0    0  0.11640488357E+02  0.11934100153E+02  0.18524958885E+00  0.16672073456E+02  0.51100000000E-03 0. -1.
        -11    1    3    3    0    0  0.63933397422E+01  0.21776251734E+02  0.19300933986E+01  0.22777295568E+02  0.51100000000E-03 0.  1.
        -12    1    3    3    0    0 -0.85932466863E+01  0.52621505598E+01  0.46066318040E+01  0.11079493387E+02  0.00000000000E+00 0.  1.
</event>
<event>
 7    1  0.2974434E-011  0.5052886E+02  0.7816164E-02  0.1300439E+00
        -11   -1    0    0    0    0  0.00000000000E+00  0.00000000000E+00  0.45593999997E+02  0.45594000000E+02  0.51100000000E-03 0.  1.
         11   -1    0    0    0    0 -0.00000000000E+00 -0.00000000000E+00 -0.45593999997E+02  0.45594000000E+02  0.51100000000E-03 0. -1.
    9900012    2    1    2    0    0  0.30957182624E+02  0.26306196076E+02 -0.16741974257E+01  0.50528855333E+02  0.29999986270E+02 0.  0.
        -12    1    1    2    0    0 -0.30957182624E+02 -0.26306196076E+02  0.16741974257E+01  0.40659144667E+02  0.00000000000E+00 0.  1.
         11    1    3    3    0    0  0.12484956198E+02  0.88258748175E+01  0.41371803341E+00  0.15295141726E+02  0.51100000000E-03 0. -1.
        -11    1    3    3    0    0  0.12596894974E+02  0.23297040153E+02 -0.38989488101E+01  0.26770051269E+02  0.51100000000E-03 0.  1.
        -12    1    3    3    0    0  0.58753314523E+01 -0.58167188941E+01  0.18110333509E+01  0.84636623376E+01  0.00000000000E+00 0.  1.
</event>
<event>
 7    1  0.2974434E-011  0.5052888E+02  0.7816164E-02  0.1300439E+00
        -11   -1    0    0    0    0  0.00000000000E+00  0.00000000000E+00  0.45593999997E+02  0.45594000000E+02  0.51100000000E-03 0.  1.
         11   -1    0    0    0    0 -0.00000000000E+00 -0.00000000000E+00 -0.45593999997E+02  0.45594000000E+02  0.51100000000E-03 0. -1.
    9900012    2    1    2    0    0 -0.24961905440E+02 -0.31850291761E+02 -0.39530509932E+01  0.50528875309E+02  0.30000046990E+02 0.  0.
        -12    1    1    2    0    0  0.24961905440E+02  0.31850291761E+02  0.39530509932E+01  0.40659124691E+02  0.00000000000E+00 0.  1.
         11    1    3    3    0    0  0.33355183272E+00 -0.17851504515E+01  0.56640228481E+01  0.59480395127E+01  0.51100000000E-03 0. -1.
        -11    1    3    3    0    0 -0.17793573300E+02 -0.68348967195E+01 -0.53648374957E+01  0.19801730873E+02  0.51100000000E-03 0.  1.
         12    1    3    3    0    0 -0.75018839725E+01 -0.23230244590E+02 -0.42522363455E+01  0.24779104923E+02  0.00000000000E+00 0. -1.
</event>
<event>
 7    1  0.2974434E-011  0.5052886E+02  0.7816164E-02  0.1300439E+00
        -11   -1    0    0    0    0  0.00000000000E+00  0.00000000000E+00  0.45593999997E+02  0.45594000000E+02  0.51100000000E-03 0.  1.
         11   -1    0    0    0    0 -0.00000000000E+00 -0.00000000000E+00 -0.45593999997E+02  0.45594000000E+02  0.51100000000E-03 0. -1.
    9900012    2    1    2    0    0 -0.17208931485E+02 -0.18970349636E+02 -0.31577587608E+02  0.50528861700E+02  0.30000005624E+02 0.  0.
        -12    1    1    2    0    0  0.17208931485E+02  0.18970349636E+02  0.31577587608E+02  0.40659138300E+02  0.00000000000E+00 0.  1.
         11    1    3    3    0    0  0.15218680772E+01 -0.75884920876E+01 -0.43428083199E+01  0.88747551500E+01  0.51100000000E-03 0. -1.
        -11    1    3    3    0    0 -0.30681109052E+01  0.60608235169E+01 -0.11706767679E+02  0.13534965681E+02  0.51100000000E-03 0.  1.
         12    1    3    3    0    0 -0.15662688657E+02 -0.17442681065E+02 -0.15528011609E+02  0.28119140869E+02  0.00000000000E+00 0. -1.
</event>
<event>
 7    1  0.2974434E-011  0.5052886E+02  0.7816164E-02  0.1300439E+00
        -11   -1    0    0    0    0  0.00000000000E+00  0.00000000000E+00  0.45593999997E+02  0.45594000000E+02  0.51100000000E-03 0. -1.
         11   -1    0    0    0    0 -0.00000000000E+00 -0.00000000000E+00 -0.45593999997E+02  0.45594000000E+02  0.51100000000E-03 0.  1.
    9900012    2    1    2    0    0  0.52034890483E+01 -0.16992890608E+02  0.36569537276E+02  0.50528859748E+02  0.29999999690E+02 0.  0.
        -12    1    1    2    0    0 -0.52034890483E+01  0.16992890608E+02 -0.36569537276E+02  0.40659140252E+02  0.00000000000E+00 0.  1.
         11    1    3    3    0    0  0.37747480166E+01  0.15278543622E+01  0.42192630682E+01  0.58638931300E+01  0.51100000000E-03 0. -1.
        -11    1    3    3    0    0  0.12921703628E+01  0.43700017687E+01  0.15729147854E+02  0.16375979732E+02  0.51100000000E-03 0.  1.
        -12    1    3    3    0    0  0.13657066901E+00 -0.22890746738E+02  0.16621126353E+02  0.28288986886E+02  0.00000000000E+00 0.  1.
</event>
<event>
 7    1  0.2974434E-011  0.5052886E+02  0.7816164E-02  0.1300439E+00
        -11   -1    0    0    0    0  0.00000000000E+00  0.00000000000E+00  0.45593999997E+02  0.45594000000E+02  0.51100000000E-03 0.  1.
         11   -1    0    0    0    0 -0.00000000000E+00 -0.00000000000E+00 -0.45593999997E+02  0.45594000000E+02  0.51100000000E-03 0. -1.
    9900012    2    1    2    0    0  0.31481475264E+01  0.21194872076E+02 -0.34554768542E+02  0.50528862477E+02  0.30000007985E+02 0.  0.
        -12    1    1    2    0    0 -0.31481475264E+01 -0.21194872076E+02  0.34554768542E+02  0.40659137523E+02  0.00000000000E+00 0.  1.
         11    1    3    3    0    0  0.27557368023E+01  0.64307187572E+01 -0.72746035636E+01  0.10092972126E+02  0.51100000000E-03 0. -1.
        -11    1    3    3    0    0  0.10865832068E+02  0.34967036224E+01 -0.20835028759E+02  0.23756928808E+02  0.51100000000E-03 0.  1.
         12    1    3    3    0    0 -0.10473421344E+02  0.11267449696E+02 -0.64451362195E+01  0.16678961544E+02  0.00000000000E+00 0. -1.
</event>
<event>
 7    1  0.2974434E-011  0.5052886E+02  0.7816164E-02  0.1300439E+00
        -11   -1    0    0    0    0  0.00000000000E+00  0.00000000000E+00  0.45593999997E+02  0.45594000000E+02  0.51100000000E-03 0. -1.
         11   -1    0    0    0    0 -0.00000000000E+00 -0.00000000000E+00 -0.45593999997E+02  0.45594000000E+02  0.51100000000E-03 0.  1.
    9900012    2    1    2    0    0 -0.25356204036E+02 -0.10787678647E+02  0.29897397571E+02  0.50528862340E+02  0.30000007569E+02 0.  0.
        -12    1    1    2    0    0  0.25356204036E+02  0.10787678647E+02 -0.29897397571E+02  0.40659137660E+02  0.00000000000E+00 0.  1.
         11    1    3    3    0    0 -0.12922804760E+02  0.18925837509E+01  0.14754541939E+01  0.13143733163E+02  0.51100000000E-03 0. -1.
        -11    1    3    3    0    0  0.38649791122E+01 -0.38691549937E+01  0.42321667891E+01  0.69151760567E+01  0.51100000000E-03 0.  1.
         12    1    3    3    0    0 -0.16298378388E+02 -0.88111074045E+01  0.24189776588E+02  0.30469953121E+02  0.00000000000E+00 0. -1.
</event>
<event>
 7    1  0.2974434E-011  0.5052886E+02  0.7816164E-02  0.1300439E+00
        -11   -1    0    0    0    0  0.00000000000E+00  0.00000000000E+00  0.45593999997E+02  0.45594000000E+02  0.51100000000E-03 0. -1.
         11   -1    0    0    0    0 -0.00000000000E+00 -0.00000000000E+00 -0.45593999997E+02  0.45594000000E+02  0.51100000000E-03 0.  1.
    9900012    2    1    2    0    0 -0.36313403726E+01  0.35483754855E+02 -0.19516201053E+02  0.50528860867E+02  0.30000003091E+02 0.  0.
        -12    1    1    2    0    0  0.36313403726E+01 -0.35483754855E+02  0.19516201053E+02  0.40659139133E+02  0.00000000000E+00 0.  1.
         11    1    3    3    0    0 -0.47696182568E+01  0.21879180541E+02 -0.17939696441E+02  0.28692865108E+02  0.51100000000E-03 0. -1.
        -11    1    3    3    0    0  0.80042969805E+00 -0.27857343500E+01 -0.43320252361E+01  0.52122400633E+01  0.51100000000E-03 0.  1.
         12    1    3    3    0    0  0.33784818614E+00  0.16390308664E+02  0.27555206243E+01  0.16623755695E+02  0.00000000000E+00 0. -1.
</event>
<event>
 7    1  0.2974434E-011  0.5052885E+02  0.7816164E-02  0.1300439E+00
        -11   -1    0    0    0    0  0.00000000000E+00  0.00000000000E+00  0.45593999997E+02  0.45594000000E+02  0.51100000000E-03 0. -1.
         11   -1    0    0    0    0 -0.00000000000E+00 -0.00000000000E+00 -0.45593999997E+02  0.45594000000E+02  0.51100000000E-03 0.  1.
    9900012    2    1    2    0    0  0.38822525910E+02 -0.63346562493E+01  0.10288334462E+02  0.50528853257E+02  0.29999979961E+02 0.  0.
        -12    1    1    2    0    0 -0.38822525910E+02  0.63346562493E+01 -0.10288334462E+02  0.40659146743E+02  0.00000000000E+00 0.  1.
         11    1    3    3    0    0  0.43923347494E+01  0.39063829482E+01 -0.30572202249E+01  0.66256341623E+01  0.51100000000E-03 0. -1.
        -11    1    3    3    0    0  0.14514282229E+02 -0.14675098564E+02  0.24853823041E+01  0.20789421155E+02  0.51100000000E-03 0.  1.
         12    1    3    3    0    0  0.19915908932E+02  0.44340593668E+01  0.10860172383E+02  0.23113797940E+02  0.00000000000E+00 0. -1.
</event>
<event>
 7    1  0.2974434E-011  0.5052886E+02  0.7816164E-02  0.1300439E+00
        -11   -1    0    0    0    0  0.00000000000E+00  0.00000000000E+00  0.45593999997E+02  0.45594000000E+02  0.51100000000E-03 0.  1.
         11   -1    0    0    0    0 -0.00000000000E+00 -0.00000000000E+00 -0.45593999997E+02  0.45594000000E+02  0.51100000000E-03 0. -1.
    9900012    2    1    2    0    0  0.37552166567E+02 -0.15351737782E+02  0.27063796430E+01  0.50528861328E+02  0.30000004492E+02 0.  0.
        -12    1    1    2    0    0 -0.37552166567E+02  0.15351737782E+02 -0.27063796430E+01  0.40659138672E+02  0.00000000000E+00 0.  1.
         11    1    3    3    0    0  0.20205534086E+02 -0.70392341694E+01 -0.33912182557E+01  0.21663674364E+02  0.51100000000E-03 0. -1.
        -11    1    3    3    0    0  0.16603555156E+02 -0.66703263587E+01 -0.42258472404E+01  0.18385567239E+02  0.51100000000E-03 0.  1.
        -12    1    3    3    0    0  0.74307732436E+00 -0.16421772537E+01  0.10323445139E+02  0.10479619725E+02  0.00000000000E+00 0.  1.
</event>
<event>
 7    1  0.2974434E-011  0.5052884E+02  0.7816164E-02  0.1300439E+00
        -11   -1    0    0    0    0  0.00000000000E+00  0.00000000000E+00  0.45593999997E+02  0.45594000000E+02  0.51100000000E-03 0.  1.
         11   -1    0    0    0    0 -0.00000000000E+00 -0.00000000000E+00 -0.45593999997E+02  0.45594000000E+02  0.51100000000E-03 0. -1.
    9900012    2    1    2    0    0  0.36583413353E+01 -0.21786293942E+02 -0.34134163907E+02  0.50528840999E+02  0.29999942701E+02 0.  0.
        -12    1    1    2    0    0 -0.36583413353E+01  0.21786293942E+02  0.34134163907E+02  0.40659159001E+02  0.00000000000E+00 0.  1.
         11    1    3    3    0    0 -0.41333089558E+01 -0.48000541749E+01 -0.22719810277E+02  0.23586321084E+02  0.51100000000E-03 0. -1.
        -11    1    3    3    0    0  0.32807995386E+00 -0.16910894958E+02 -0.85001640809E+01  0.18929838732E+02  0.51100000000E-03 0.  1.
        -12    1    3    3    0    0  0.74635703372E+01 -0.75344808465E-01 -0.29141895493E+01  0.80126811835E+01  0.00000000000E+00 0.  1.
</event>
<event>
 7    1  0.2974434E-011  0.5052886E+02  0.7816164E-02  0.1300439E+00
        -11   -1    0    0    0    0  0.00000000000E+00  0.00000000000E+00  0.45593999997E+02  0.45594000000E+02  0.51100000000E-03 0. -1.
         11   -1    0    0    0    0 -0.00000000000E+00 -0.00000000000E+00 -0.45593999997E+02  0.45594000000E+02  0.51100000000E-03 0.  1.
    9900012    2    1    2    0    0 -0.18464557020E+02  0.32821558640E+02  0.15328761244E+02  0.50528862051E+02  0.30000006689E+02 0.  0.
        -12    1    1    2    0    0  0.18464557020E+02 -0.32821558640E+02 -0.15328761244E+02  0.40659137949E+02  0.00000000000E+00 0.  1.
         11    1    3    3    0    0 -0.70171806686E+01  0.18433125922E+02  0.18619637466E+02  0.27124008837E+02  0.51100000000E-03 0. -1.
        -11    1    3    3    0    0 -0.37017374316E+01  0.15574702787E+01  0.48916725243E+01  0.63290626500E+01  0.51100000000E-03 0.  1.
         12    1    3    3    0    0 -0.77456389195E+01  0.12830962439E+02 -0.81825487454E+01  0.17075790563E+02  0.00000000000E+00 0. -1.
</event>
<event>
 7    1  0.2974434E-011  0.5052886E+02  0.7816164E-02  0.1300439E+00
        -11   -1    0    0    0    0  0.00000000000E+00  0.00000000000E+00  0.45593999997E+02  0.45594000000E+02  0.51100000000E-03 0. -1.
         11   -1    0    0    0    0 -0.00000000000E+00 -0.00000000000E+00 -0.45593999997E+02  0.45594000000E+02  0.51100000000E-03 0.  1.
    9900012    2    1    2    0    0 -0.22360434753E+01  0.30838728300E+02  0.26403386618E+02  0.50528857381E+02  0.29999992496E+02 0.  0.
        -12    1    1    2    0    0  0.22360434753E+01 -0.30838728300E+02 -0.26403386618E+02  0.40659142619E+02  0.00000000000E+00 0.  1.
         11    1    3    3    0    0  0.28159602049E+01  0.13997242287E+01  0.10961790243E+02  0.11403933768E+02  0.51100000000E-03 0.  1.
        -11    1    3    3    0    0  0.58199587747E+01  0.12030235432E+02  0.12667270104E+02  0.18413533524E+02  0.51100000000E-03 0. -1.
         12    1    3    3    0    0 -0.10871962455E+02  0.17408768640E+02  0.27743262708E+01  0.20711390090E+02  0.00000000000E+00 0. -1.
</event>
<event>
 7    1  0.2974434E-011  0.5052886E+02  0.7816164E-02  0.1300439E+00
        -11   -1    0    0    0    0  0.00000000000E+00  0.00000000000E+00  0.45593999997E+02  0.45594000000E+02  0.51100000000E-03 0.  1.
         11   -1    0    0    0    0 -0.00000000000E+00 -0.00000000000E+00 -0.45593999997E+02  0.45594000000E+02  0.51100000000E-03 0. -1.
    9900012    2    1    2    0    0  0.16190743094E+01 -0.17675291108E+02 -0.36580441177E+02  0.50528855960E+02  0.29999988175E+02 0.  0.
        -12    1    1    2    0    0 -0.16190743094E+01  0.17675291108E+02  0.36580441177E+02  0.40659144040E+02  0.00000000000E+00 0.  1.
         11    1    3    3    0    0  0.45363635976E+00 -0.34043234872E+01 -0.29628548767E+02  0.29826935925E+02  0.51100000000E-03 0. -1.
        -11    1    3    3    0    0 -0.41426868455E+01 -0.23365913419E+01 -0.59280965938E+01  0.76002528172E+01  0.51100000000E-03 0.  1.
        -12    1    3    3    0    0  0.53081247951E+01 -0.11934376279E+02 -0.10237958164E+01  0.13101667218E+02  0.00000000000E+00 0.  1.
</event>
<event>
 7    1  0.2974434E-011  0.5052886E+02  0.7816164E-02  0.1300439E+00
        -11   -1    0    0    0    0  0.00000000000E+00  0.00000000000E+00  0.45593999997E+02  0.45594000000E+02  0.51100000000E-03 0. -1.
         11   -1    0    0    0    0 -0.00000000000E+00 -0.00000000000E+00 -0.45593999997E+02  0.45594000000E+02  0.51100000000E-03 0.  1.
    9900012    2    1    2    0    0  0.43963237257E+01  0.40398617556E+02 -0.13376849285E+01  0.50528863712E+02  0.30000011739E+02 0.  0.
        -12    1    1    2    0    0 -0.43963237257E+01 -0.40398617556E+02  0.13376849285E+01  0.40659136288E+02  0.00000000000E+00 0.  1.
         11    1    3    3    0    0  0.95942018692E+01  0.15417892006E+02 -0.28708568333E+01  0.18384828600E+02  0.51100000000E-03 0. -1.
        -11    1    3    3    0    0 -0.92869745728E+01  0.22750892958E+02  0.64148885264E+01  0.25396886072E+02  0.51100000000E-03 0.  1.
         12    1    3    3    0    0  0.40890964293E+01  0.22298325913E+01 -0.48817166217E+01  0.67471490400E+01  0.00000000000E+00 0. -1.
</event>
<event>
 7    1  0.2974434E-011  0.5052886E+02  0.7816164E-02  0.1300439E+00
        -11   -1    0    0    0    0  0.00000000000E+00  0.00000000000E+00  0.45593999997E+02  0.45594000000E+02  0.51100000000E-03 0.  1.
         11   -1    0    0    0    0 -0.00000000000E+00 -0.00000000000E+00 -0.45593999997E+02  0.45594000000E+02  0.51100000000E-03 0. -1.
    9900012    2    1    2    0    0  0.20118287255E+01 -0.14283160197E+02 -0.38014597068E+02  0.50528859450E+02  0.29999998785E+02 0.  0.
        -12    1    1    2    0    0 -0.20118287255E+01  0.14283160197E+02  0.38014597068E+02  0.40659140550E+02  0.00000000000E+00 0.  1.
         11    1    3    3    0    0  0.27167816631E+00 -0.34288331551E+01 -0.28704596037E+00  0.34515361038E+01  0.51100000000E-03 0. -1.
        -11    1    3    3    0    0 -0.93573726923E+01 -0.48046682899E+01 -0.31048157008E+02  0.32781600249E+02  0.51100000000E-03 0.  1.
         12    1    3    3    0    0  0.11097523251E+02 -0.60496587516E+01 -0.66793940997E+01  0.14295723097E+02  0.00000000000E+00 0. -1.
</event>
<event>
 7    1  0.2974434E-011  0.5052886E+02  0.7816164E-02  0.1300439E+00
        -11   -1    0    0    0    0  0.00000000000E+00  0.00000000000E+00  0.45593999997E+02  0.45594000000E+02  0.51100000000E-03 0.  1.
         11   -1    0    0    0    0 -0.00000000000E+00 -0.00000000000E+00 -0.45593999997E+02  0.45594000000E+02  0.51100000000E-03 0. -1.
    9900012    2    1    2    0    0 -0.15476945121E+02  0.27798489440E+02 -0.25315490366E+02  0.50528857142E+02  0.29999991770E+02 0.  0.
        -12    1    1    2    0    0  0.15476945121E+02 -0.27798489440E+02  0.25315490366E+02  0.40659142858E+02  0.00000000000E+00 0.  1.
         11    1    3    3    0    0 -0.10110670773E+01  0.51524837229E+01  0.32054227681E+01  0.61518355418E+01  0.51100000000E-03 0. -1.
        -11    1    3    3    0    0  0.37704978769E+01 -0.46670270025E+00 -0.68535493963E+00  0.38605928696E+01  0.51100000000E-03 0.  1.
         12    1    3    3    0    0 -0.18236375921E+02  0.23112708417E+02 -0.27835558195E+02  0.40516428731E+02  0.00000000000E+00 0. -1.
</event>
<event>
 7    1  0.2974434E-011  0.5052886E+02  0.7816164E-02  0.1300439E+00
        -11   -1    0    0    0    0  0.00000000000E+00  0.00000000000E+00  0.45593999997E+02  0.45594000000E+02  0.51100000000E-03 0.  1.
         11   -1    0    0    0    0 -0.00000000000E+00 -0.00000000000E+00 -0.45593999997E+02  0.45594000000E+02  0.51100000000E-03 0. -1.
    9900012    2    1    2    0    0  0.86133755325E+01  0.54547971785E+01 -0.39360136383E+02  0.50528863432E+02  0.30000010888E+02 0.  0.
        -12    1    1    2    0    0 -0.86133755325E+01 -0.54547971785E+01  0.39360136383E+02  0.40659136568E+02  0.00000000000E+00 0.  1.
         11    1    3    3    0    0  0.62782516836E+01  0.64682504850E+01 -0.41581456398E+01  0.99269775844E+01  0.51100000000E-03 0.  1.
        -11    1    3    3    0    0  0.21808190531E-02 -0.16916059405E+01  0.23918697314E+01  0.29296034693E+01  0.51100000000E-03 0. -1.
         12    1    3    3    0    0  0.23329430299E+01  0.67815263391E+00 -0.37593860475E+02  0.37672282378E+02  0.00000000000E+00 0. -1.
</event>
<event>
 7    1  0.2974434E-011  0.5052886E+02  0.7816164E-02  0.1300439E+00
        -11   -1    0    0    0    0  0.00000000000E+00  0.00000000000E+00  0.45593999997E+02  0.45594000000E+02  0.51100000000E-03 0.  1.
         11   -1    0    0    0    0 -0.00000000000E+00 -0.00000000000E+00 -0.45593999997E+02  0.45594000000E+02  0.51100000000E-03 0. -1.
    9900012    2    1    2    0    0  0.16686271645E+02 -0.29265538714E+02 -0.22765378239E+02  0.50528857559E+02  0.29999993038E+02 0.  0.
        -12    1    1    2    0    0 -0.16686271645E+02  0.29265538714E+02  0.22765378239E+02  0.40659142441E+02  0.00000000000E+00 0.  1.
         11    1    3    3    0    0  0.63690297886E+01 -0.12963686902E+02 -0.18188678400E+02  0.23226057365E+02  0.51100000000E-03 0. -1.
        -11    1    3    3    0    0  0.13107714042E+02 -0.16832914422E+02 -0.80617017755E+01  0.22806801861E+02  0.51100000000E-03 0.  1.
        -12    1    3    3    0    0 -0.27904721856E+01  0.53106261021E+00  0.34850019362E+01  0.44959983330E+01  0.00000000000E+00 0.  1.
</event>
<event>
 7    1  0.2974434E-011  0.5052886E+02  0.7816164E-02  0.1300439E+00
        -11   -1    0    0    0    0  0.00000000000E+00  0.00000000000E+00  0.45593999997E+02  0.45594000000E+02  0.51100000000E-03 0.  1.
         11   -1    0    0    0    0 -0.00000000000E+00 -0.00000000000E+00 -0.45593999997E+02  0.45594000000E+02  0.51100000000E-03 0. -1.
    9900012    2    1    2    0    0  0.40659104615E+01 -0.13575944547E+02 -0.38109419189E+02  0.50528859217E+02  0.29999998077E+02 0.  0.
        -12    1    1    2    0    0 -0.40659104615E+01  0.13575944547E+02  0.38109419189E+02  0.40659140783E+02  0.00000000000E+00 0.  1.
         11    1    3    3    0    0  0.62328317432E+01 -0.82404990681E+01 -0.74625382149E+01  0.12745332216E+02  0.51100000000E-03 0. -1.
        -11    1    3    3    0    0  0.44726696164E+01  0.10684030112E+01  0.10961198105E+01  0.47273393565E+01  0.51100000000E-03 0.  1.
        -12    1    3    3    0    0 -0.66395908981E+01 -0.64038484901E+01 -0.31743000785E+02  0.33056187645E+02  0.00000000000E+00 0.  1.
</event>
<event>
 7    1  0.2974434E-011  0.5052886E+02  0.7816164E-02  0.1300439E+00
        -11   -1    0    0    0    0  0.00000000000E+00  0.00000000000E+00  0.45593999997E+02  0.45594000000E+02  0.51100000000E-03 0.  1.
         11   -1    0    0    0    0 -0.00000000000E+00 -0.00000000000E+00 -0.45593999997E+02  0.45594000000E+02  0.51100000000E-03 0. -1.
    9900012    2    1    2    0    0 -0.38082686591E+01  0.22635439937E+02 -0.33560389741E+02  0.50528858212E+02  0.29999995021E+02 0.  0.
        -12    1    1    2    0    0  0.38082686591E+01 -0.22635439937E+02  0.33560389741E+02  0.40659141788E+02  0.00000000000E+00 0.  1.
         11    1    3    3    0    0 -0.23656151847E+01  0.18102517252E+02 -0.22117982586E+02  0.28679302990E+02  0.51100000000E-03 0. -1.
        -11    1    3    3    0    0 -0.15128041207E+01  0.11265831745E+02 -0.46377394211E+01  0.12276651352E+02  0.51100000000E-03 0.  1.
         12    1    3    3    0    0  0.70150646306E-01 -0.67329090603E+01 -0.68046677345E+01  0.95729038700E+01  0.00000000000E+00 0. -1.
</event>
<event>
 7    1  0.2974434E-011  0.5052886E+02  0.7816164E-02  0.1300439E+00
        -11   -1    0    0    0    0  0.00000000000E+00  0.00000000000E+00  0.45593999997E+02  0.45594000000E+02  0.51100000000E-03 0.  1.
         11   -1    0    0    0    0 -0.00000000000E+00 -0.00000000000E+00 -0.45593999997E+02  0.45594000000E+02  0.51100000000E-03 0. -1.
    9900012    2    1    2    0    0 -0.22070978615E+02  0.30986937250E+02 -0.14347387040E+02  0.50528857214E+02  0.29999991989E+02 0.  0.
        -12    1    1    2    0    0  0.22070978615E+02 -0.30986937250E+02  0.14347387040E+02  0.40659142786E+02  0.00000000000E+00 0.  1.
         11    1    3    3    0    0 -0.86670261452E+01  0.18701507836E+02 -0.10066640826E+02  0.22939071370E+02  0.51100000000E-03 0. -1.
        -11    1    3    3    0    0 -0.78166310582E+00  0.11118987484E+02 -0.87271628702E+01  0.14156491511E+02  0.51100000000E-03 0.  1.
        -12    1    3    3    0    0 -0.12622289364E+02  0.11664419307E+01  0.44464166564E+01  0.13433294333E+02  0.00000000000E+00 0.  1.
</event>
<event>
 7    1  0.2974434E-011  0.5052886E+02  0.7816164E-02  0.1300439E+00
        -11   -1    0    0    0    0  0.00000000000E+00  0.00000000000E+00  0.45593999997E+02  0.45594000000E+02  0.51100000000E-03 0.  1.
         11   -1    0    0    0    0 -0.00000000000E+00 -0.00000000000E+00 -0.45593999997E+02  0.45594000000E+02  0.51100000000E-03 0. -1.
    9900012    2    1    2    0    0  0.17297967457E+02  0.26245388220E+02 -0.25790033533E+02  0.50528856987E+02  0.29999991297E+02 0.  0.
        -12    1    1    2    0    0 -0.17297967457E+02 -0.26245388220E+02  0.25790033533E+02  0.40659143013E+02  0.00000000000E+00 0.  1.
         11    1    3    3    0    0  0.12595377615E+00 -0.63423472111E-01 -0.12038916624E+02  0.12039742548E+02  0.51100000000E-03 0.  1.
        -11    1    3    3    0    0  0.14078019895E+02  0.98647055352E+01 -0.13326927133E+02  0.21751092996E+02  0.51100000000E-03 0. -1.
         12    1    3    3    0    0  0.30939937857E+01  0.16444106157E+02 -0.42418977601E+00  0.16738021442E+02  0.00000000000E+00 0. -1.
</event>
<event>
 7    1  0.2974434E-011  0.5052886E+02  0.7816164E-02  0.1300439E+00
        -11   -1    0    0    0    0  0.00000000000E+00  0.00000000000E+00  0.45593999997E+02  0.45594000000E+02  0.51100000000E-03 0. -1.
         11   -1    0    0    0    0 -0.00000000000E+00 -0.00000000000E+00 -0.45593999997E+02  0.45594000000E+02  0.51100000000E-03 0.  1.
    9900012    2    1    2    0    0  0.38876914326E+02 -0.37037185682E+00  0.11900154284E+02  0.50528864313E+02  0.30000013565E+02 0.  0.
        -12    1    1    2    0    0 -0.38876914326E+02  0.37037185682E+00 -0.11900154284E+02  0.40659135687E+02  0.00000000000E+00 0.  1.
         11    1    3    3    0    0  0.22128325900E+02 -0.25577181492E+01 -0.19398655462E+01  0.22359959925E+02  0.51100000000E-03 0.  1.
        -11    1    3    3    0    0  0.84173071791E+01 -0.26619559681E+01 -0.25193299124E+01  0.91806368619E+01  0.51100000000E-03 0. -1.
        -12    1    3    3    0    0  0.83312812478E+01  0.48493022604E+01  0.16359349742E+02  0.18988267526E+02  0.00000000000E+00 0.  1.
</event>
<event>
 7    1  0.2974434E-011  0.5052886E+02  0.7816164E-02  0.1300439E+00
        -11   -1    0    0    0    0  0.00000000000E+00  0.00000000000E+00  0.45593999997E+02  0.45594000000E+02  0.51100000000E-03 0.  1.
         11   -1    0    0    0    0 -0.00000000000E+00 -0.00000000000E+00 -0.45593999997E+02  0.45594000000E+02  0.51100000000E-03 0. -1.
    9900012    2    1    2    0    0 -0.36772157950E+02  0.11331748412E+02 -0.13136409853E+02  0.50528863435E+02  0.30000010896E+02 0.  0.
        -12    1    1    2    0    0  0.36772157950E+02 -0.11331748412E+02  0.13136409853E+02  0.40659136565E+02  0.00000000000E+00 0.  1.
         11    1    3    3    0    0 -0.14396458147E+02  0.11832532193E+02 -0.13677755653E+01  0.18685225060E+02  0.51100000000E-03 0. -1.
        -11    1    3    3    0    0 -0.29523180582E+01 -0.56750695548E-01  0.52447304252E+01  0.60188537159E+01  0.51100000000E-03 0.  1.
        -12    1    3    3    0    0 -0.19423381745E+02 -0.44403308597E+00 -0.17013364713E+02  0.25824784658E+02  0.00000000000E+00 0.  1.
</event>
<event>
 7    1  0.2974434E-011  0.5052886E+02  0.7816164E-02  0.1300439E+00
        -11   -1    0    0    0    0  0.00000000000E+00  0.00000000000E+00  0.45593999997E+02  0.45594000000E+02  0.51100000000E-03 0.  1.
         11   -1    0    0    0    0 -0.00000000000E+00 -0.00000000000E+00 -0.45593999997E+02  0.45594000000E+02  0.51100000000E-03 0. -1.
    9900012    2    1    2    0    0 -0.41299277092E+01 -0.36673651325E+02 -0.17063207566E+02  0.50528855188E+02  0.29999985830E+02 0.  0.
        -12    1    1    2    0    0  0.41299277092E+01  0.36673651325E+02  0.17063207566E+02  0.40659144812E+02  0.00000000000E+00 0.  1.
         11    1    3    3    0    0 -0.23432060676E+01 -0.60772704093E+01 -0.65003278017E+01  0.92020699896E+01  0.51100000000E-03 0. -1.
        -11    1    3    3    0    0 -0.52168397248E+01 -0.13330455309E+01  0.55602882502E+01  0.77401054766E+01  0.51100000000E-03 0.  1.
         12    1    3    3    0    0  0.34301180831E+01 -0.29263335385E+02 -0.16123168015E+02  0.33586679722E+02  0.00000000000E+00 0. -1.
</event>
<event>
 7    1  0.2974434E-011  0.5052885E+02  0.7816164E-02  0.1300439E+00
        -11   -1    0    0    0    0  0.00000000000E+00  0.00000000000E+00  0.45593999997E+02  0.45594000000E+02  0.51100000000E-03 0. -1.
         11   -1    0    0    0    0 -0.00000000000E+00 -0.00000000000E+00 -0.45593999997E+02  0.45594000000E+02  0.51100000000E-03 0.  1.
    9900012    2    1    2    0    0 -0.68517829700E+01  0.23146024861E+02  0.32718209975E+02  0.50528847762E+02  0.29999963258E+02 0.  0.
        -12    1    1    2    0    0  0.68517829700E+01 -0.23146024861E+02 -0.32718209975E+02  0.40659152238E+02  0.00000000000E+00 0.  1.
         11    1    3    3    0    0 -0.60792155929E+01  0.11174974358E+02  0.51093408134E+01  0.13709204132E+02  0.51100000000E-03 0. -1.
        -11    1    3    3    0    0  0.10012218872E+01 -0.60806530009E+01  0.59157946727E+01  0.85424477203E+01  0.51100000000E-03 0.  1.
         12    1    3    3    0    0 -0.17737892642E+01  0.18051703504E+02  0.21693074489E+02  0.28277195910E+02  0.00000000000E+00 0. -1.
</event>
<event>
 7    1  0.2974434E-011  0.5052886E+02  0.7816164E-02  0.1300439E+00
        -11   -1    0    0    0    0  0.00000000000E+00  0.00000000000E+00  0.45593999997E+02  0.45594000000E+02  0.51100000000E-03 0.  1.
         11   -1    0    0    0    0 -0.00000000000E+00 -0.00000000000E+00 -0.45593999997E+02  0.45594000000E+02  0.51100000000E-03 0. -1.
    9900012    2    1    2    0    0  0.19897777394E+02  0.35337027007E+02 -0.29220421032E+01  0.50528863844E+02  0.30000012140E+02 0.  0.
        -12    1    1    2    0    0 -0.19897777394E+02 -0.35337027007E+02  0.29220421032E+01  0.40659136156E+02  0.00000000000E+00 0.  1.
         11    1    3    3    0    0  0.28984719654E+01  0.61852143369E+01  0.15821883873E+00  0.68324995126E+01  0.51100000000E-03 0. -1.
        -11    1    3    3    0    0  0.12344120483E+02  0.14195387305E+02 -0.14961454396E+02  0.24036044790E+02  0.51100000000E-03 0.  1.
        -12    1    3    3    0    0  0.46551849463E+01  0.14956425365E+02  0.11881193454E+02  0.19660319542E+02  0.00000000000E+00 0.  1.
</event>
<event>
 7    1  0.2974434E-011  0.5052886E+02  0.7816164E-02  0.1300439E+00
        -11   -1    0    0    0    0  0.00000000000E+00  0.00000000000E+00  0.45593999997E+02  0.45594000000E+02  0.51100000000E-03 0.  1.
         11   -1    0    0    0    0 -0.00000000000E+00 -0.00000000000E+00 -0.45593999997E+02  0.45594000000E+02  0.51100000000E-03 0. -1.
    9900012    2    1    2    0    0  0.31330964685E+02  0.21757770150E+02  0.14076073592E+02  0.50528858866E+02  0.29999997010E+02 0.  0.
        -12    1    1    2    0    0 -0.31330964685E+02 -0.21757770150E+02 -0.14076073592E+02  0.40659141134E+02  0.00000000000E+00 0.  1.
         11    1    3    3    0    0 -0.13055672436E+01 -0.16501894018E+01 -0.50037411982E+00  0.21628697164E+01  0.51100000000E-03 0. -1.
        -11    1    3    3    0    0  0.18236945765E+01  0.85399796396E+01  0.10885124671E+02  0.13955036851E+02  0.51100000000E-03 0.  1.
         12    1    3    3    0    0  0.30812837352E+02  0.14867979912E+02  0.36913230416E+01  0.34410952299E+02  0.00000000000E+00 0. -1.
</event>
<event>
 7    1  0.2974434E-011  0.5052886E+02  0.7816164E-02  0.1300439E+00
        -11   -1    0    0    0    0  0.00000000000E+00  0.00000000000E+00  0.45593999997E+02  0.45594000000E+02  0.51100000000E-03 0.  1.
         11   -1    0    0    0    0 -0.00000000000E+00 -0.00000000000E+00 -0.45593999997E+02  0.45594000000E+02  0.51100000000E-03 0. -1.
    9900012    2    1    2    0    0 -0.44054238648E+01 -0.40226935937E+02 -0.39435040051E+01  0.50528863781E+02  0.30000011947E+02 0.  0.
        -12    1    1    2    0    0  0.44054238648E+01  0.40226935937E+02  0.39435040051E+01  0.40659136219E+02  0.00000000000E+00 0.  1.
         11    1    3    3    0    0 -0.75538152354E+01 -0.17020284546E+02 -0.49874618052E+01  0.19277577290E+02  0.51100000000E-03 0. -1.
        -11    1    3    3    0    0  0.16555013505E+01 -0.25156741977E+02 -0.41082372352E+01  0.25543687382E+02  0.51100000000E-03 0.  1.
         12    1    3    3    0    0  0.14928900202E+01  0.19500905865E+01  0.51521950353E+01  0.57075991090E+01  0.00000000000E+00 0. -1.
</event>
<event>
 7    1  0.2974434E-011  0.5052885E+02  0.7816164E-02  0.1300439E+00
        -11   -1    0    0    0    0  0.00000000000E+00  0.00000000000E+00  0.45593999997E+02  0.45594000000E+02  0.51100000000E-03 0.  1.
         11   -1    0    0    0    0 -0.00000000000E+00 -0.00000000000E+00 -0.45593999997E+02  0.45594000000E+02  0.51100000000E-03 0. -1.
    9900012    2    1    2    0    0 -0.83863859630E+01 -0.87092622365E+01 -0.38819885808E+02  0.50528852783E+02  0.29999978520E+02 0.  0.
        -12    1    1    2    0    0  0.83863859630E+01  0.87092622365E+01  0.38819885808E+02  0.40659147217E+02  0.00000000000E+00 0.  1.
         11    1    3    3    0    0 -0.58948330340E+01  0.62276399533E+01 -0.17965847962E+02  0.19907391821E+02  0.51100000000E-03 0. -1.
        -11    1    3    3    0    0 -0.87684189025E+01 -0.38807484990E+01 -0.74131030416E+01  0.12120209401E+02  0.51100000000E-03 0.  1.
         12    1    3    3    0    0  0.62768659735E+01 -0.11056153691E+02 -0.13440934805E+02  0.18501251561E+02  0.00000000000E+00 0. -1.
</event>
<event>
 7    1  0.2974434E-011  0.5052889E+02  0.7816164E-02  0.1300439E+00
        -11   -1    0    0    0    0  0.00000000000E+00  0.00000000000E+00  0.45593999997E+02  0.45594000000E+02  0.51100000000E-03 0.  1.
         11   -1    0    0    0    0 -0.00000000000E+00 -0.00000000000E+00 -0.45593999997E+02  0.45594000000E+02  0.51100000000E-03 0. -1.
    9900012    2    1    2    0    0 -0.27894594997E+02 -0.14250774766E+01 -0.29546978859E+02  0.50528889882E+02  0.30000091287E+02 0.  0.
        -12    1    1    2    0    0  0.27894594997E+02  0.14250774766E+01  0.29546978859E+02  0.40659110118E+02  0.00000000000E+00 0.  1.
         11    1    3    3    0    0 -0.17429880229E+02 -0.81188252962E+01 -0.32346657822E+02  0.37630072037E+02  0.51100000000E-03 0. -1.
        -11    1    3    3    0    0 -0.86706390371E+00  0.11456625306E+01 -0.99228883909E-01  0.14402045270E+01  0.51100000000E-03 0.  1.
         12    1    3    3    0    0 -0.95976508638E+01  0.55480852890E+01  0.28989078467E+01  0.11458613318E+02  0.00000000000E+00 0. -1.
</event>
<event>
 7    1  0.2974434E-011  0.5052887E+02  0.7816164E-02  0.1300439E+00
        -11   -1    0    0    0    0  0.00000000000E+00  0.00000000000E+00  0.45593999997E+02  0.45594000000E+02  0.51100000000E-03 0. -1.
         11   -1    0    0    0    0 -0.00000000000E+00 -0.00000000000E+00 -0.45593999997E+02  0.45594000000E+02  0.51100000000E-03 0.  1.
    9900012    2    1    2    0    0 -0.19880981840E+02  0.33237031927E+02  0.12377835831E+02  0.50528873716E+02  0.30000042148E+02 0.  0.
        -12    1    1    2    0    0  0.19880981840E+02 -0.33237031927E+02 -0.12377835831E+02  0.40659126284E+02  0.00000000000E+00 0.  1.
         11    1    3    3    0    0 -0.22690925543E+02  0.15431000153E+02  0.14361249132E+02  0.30971589313E+02  0.51100000000E-03 0. -1.
        -11    1    3    3    0    0  0.30426471226E+00 -0.70315507810E+00  0.56269359447E-01  0.76822560548E+00  0.51100000000E-03 0.  1.
         12    1    3    3    0    0  0.25056789900E+01  0.18509186853E+02 -0.20396826601E+01  0.18789058798E+02  0.00000000000E+00 0. -1.
</event>
<event>
 7    1  0.2974434E-011  0.5052885E+02  0.7816164E-02  0.1300439E+00
        -11   -1    0    0    0    0  0.00000000000E+00  0.00000000000E+00  0.45593999997E+02  0.45594000000E+02  0.51100000000E-03 0. -1.
         11   -1    0    0    0    0 -0.00000000000E+00 -0.00000000000E+00 -0.45593999997E+02  0.45594000000E+02  0.51100000000E-03 0.  1.
    9900012    2    1    2    0    0 -0.30644125134E+02 -0.26544225219E+02 -0.30835258249E+01  0.50528850609E+02  0.29999971912E+02 0.  0.
        -12    1    1    2    0    0  0.30644125134E+02  0.26544225219E+02  0.30835258249E+01  0.40659149391E+02  0.00000000000E+00 0.  1.
         11    1    3    3    0    0  0.81600547698E-01  0.94522418083E+00 -0.41289203018E+01  0.42365186794E+01  0.51100000000E-03 0. -1.
        -11    1    3    3    0    0 -0.88938455489E+01  0.17776122683E+00 -0.54824418947E+01  0.10449366349E+02  0.51100000000E-03 0.  1.
         12    1    3    3    0    0 -0.21831880132E+02 -0.27667210626E+02  0.65278363716E+01  0.35842965581E+02  0.00000000000E+00 0. -1.
</event>
<event>
 7    1  0.2974434E-011  0.5052886E+02  0.7816164E-02  0.1300439E+00
        -11   -1    0    0    0    0  0.00000000000E+00  0.00000000000E+00  0.45593999997E+02  0.45594000000E+02  0.51100000000E-03 0.  1.
         11   -1    0    0    0    0 -0.00000000000E+00 -0.00000000000E+00 -0.45593999997E+02  0.45594000000E+02  0.51100000000E-03 0. -1.
    9900012    2    1    2    0    0  0.22553211218E+02 -0.29811523711E+02  0.15993486256E+02  0.50528857303E+02  0.29999992260E+02 0.  0.
        -12    1    1    2    0    0 -0.22553211218E+02  0.29811523711E+02 -0.15993486256E+02  0.40659142697E+02  0.00000000000E+00 0.  1.
         11    1    3    3    0    0  0.16552228381E+02 -0.77836136739E+01  0.20926503852E+01  0.18410325693E+02  0.51100000000E-03 0. -1.
        -11    1    3    3    0    0  0.15748958396E+01  0.12935556708E+01 -0.25301280300E+01  0.32488661543E+01  0.51100000000E-03 0.  1.
         12    1    3    3    0    0  0.44260869964E+01 -0.23321465708E+02  0.16430963901E+02  0.28869665456E+02  0.00000000000E+00 0. -1.
</event>
<event>
 7    1  0.2974434E-011  0.5052877E+02  0.7816164E-02  0.1300439E+00
        -11   -1    0    0    0    0  0.00000000000E+00  0.00000000000E+00  0.45593999997E+02  0.45594000000E+02  0.51100000000E-03 0. -1.
         11   -1    0    0    0    0 -0.00000000000E+00 -0.00000000000E+00 -0.45593999997E+02  0.45594000000E+02  0.51100000000E-03 0.  1.
    9900012    2    1    2    0    0 -0.18524484365E+02  0.23188249199E+02  0.27790669667E+02  0.50528772973E+02  0.29999735927E+02 0.  0.
        -12    1    1    2    0    0  0.18524484365E+02 -0.23188249199E+02 -0.27790669667E+02  0.40659227027E+02  0.00000000000E+00 0.  1.
         11    1    3    3    0    0 -0.73914425462E+01  0.17218413981E+02  0.13533900578E+02  0.23114360645E+02  0.51100000000E-03 0. -1.
        -11    1    3    3    0    0  0.55315516814E+01  0.32977670168E+01  0.50871167933E+01  0.82068318388E+01  0.51100000000E-03 0.  1.
        -12    1    3    3    0    0 -0.16664593500E+02  0.26720682014E+01  0.91696522957E+01  0.19207580489E+02  0.00000000000E+00 0.  1.
</event>
<event>
 7    1  0.2974434E-011  0.5052886E+02  0.7816164E-02  0.1300439E+00
        -11   -1    0    0    0    0  0.00000000000E+00  0.00000000000E+00  0.45593999997E+02  0.45594000000E+02  0.51100000000E-03 0.  1.
         11   -1    0    0    0    0 -0.00000000000E+00 -0.00000000000E+00 -0.45593999997E+02  0.45594000000E+02  0.51100000000E-03 0. -1.
    9900012    2    1    2    0    0  0.20472794501E+02 -0.33946073035E+02 -0.90385014227E+01  0.50528859611E+02  0.29999999273E+02 0.  0.
        -12    1    1    2    0    0 -0.20472794501E+02  0.33946073035E+02  0.90385014227E+01  0.40659140389E+02  0.00000000000E+00 0.  1.
         11    1    3    3    0    0  0.10078105415E+01 -0.11072718759E+02 -0.10691003415E+02  0.15424601683E+02  0.51100000000E-03 0.  1.
        -11    1    3    3    0    0  0.21156904761E+02 -0.15941748916E+02 -0.28870081677E+01  0.26647491327E+02  0.51100000000E-03 0. -1.
         12    1    3    3    0    0 -0.16919208013E+01 -0.69316053598E+01  0.45395101595E+01  0.84567666014E+01  0.00000000000E+00 0. -1.
</event>
<event>
 7    1  0.2974434E-011  0.5052886E+02  0.7816164E-02  0.1300439E+00
        -11   -1    0    0    0    0  0.00000000000E+00  0.00000000000E+00  0.45593999997E+02  0.45594000000E+02  0.51100000000E-03 0. -1.
         11   -1    0    0    0    0 -0.00000000000E+00 -0.00000000000E+00 -0.45593999997E+02  0.45594000000E+02  0.51100000000E-03 0.  1.
    9900012    2    1    2    0    0 -0.27416762156E+02 -0.11636583078E+02  0.27678095699E+02  0.50528857186E+02  0.29999991903E+02 0.  0.
        -12    1    1    2    0    0  0.27416762156E+02  0.11636583078E+02 -0.27678095699E+02  0.40659142814E+02  0.00000000000E+00 0.  1.
         11    1    3    3    0    0  0.46932150271E+00 -0.61196003838E+00 -0.56818631078E+00  0.95791111611E+00  0.51100000000E-03 0. -1.
        -11    1    3    3    0    0  0.16802864744E+01 -0.39714170405E+01 -0.35482956391E+01  0.55844353474E+01  0.51100000000E-03 0.  1.
         12    1    3    3    0    0 -0.29566370133E+02 -0.70532059989E+01  0.31794577649E+02  0.43986510723E+02  0.00000000000E+00 0. -1.
</event>
<event>
 7    1  0.2974434E-011  0.5052886E+02  0.7816164E-02  0.1300439E+00
        -11   -1    0    0    0    0  0.00000000000E+00  0.00000000000E+00  0.45593999997E+02  0.45594000000E+02  0.51100000000E-03 0.  1.
         11   -1    0    0    0    0 -0.00000000000E+00 -0.00000000000E+00 -0.45593999997E+02  0.45594000000E+02  0.51100000000E-03 0. -1.
    9900012    2    1    2    0    0 -0.20959971508E+02 -0.18894103746E+02 -0.29272137071E+02  0.50528861167E+02  0.30000004003E+02 0.  0.
        -12    1    1    2    0    0  0.20959971508E+02  0.18894103746E+02  0.29272137071E+02  0.40659138833E+02  0.00000000000E+00 0.  1.
         11    1    3    3    0    0  0.33643050413E+01 -0.64819803211E+01 -0.68760201792E+01  0.10030666531E+02  0.51100000000E-03 0. -1.
        -11    1    3    3    0    0 -0.98204414632E+00 -0.56457109196E+00 -0.12440786476E+02  0.12492250383E+02  0.51100000000E-03 0.  1.
        -12    1    3    3    0    0 -0.23342232403E+02 -0.11847552333E+02 -0.99553304158E+01  0.28005944253E+02  0.00000000000E+00 0.  1.
</event>
<event>
 7    1  0.2974434E-011  0.5052886E+02  0.7816164E-02  0.1300439E+00
        -11   -1    0    0    0    0  0.00000000000E+00  0.00000000000E+00  0.45593999997E+02  0.45594000000E+02  0.51100000000E-03 0.  1.
         11   -1    0    0    0    0 -0.00000000000E+00 -0.00000000000E+00 -0.45593999997E+02  0.45594000000E+02  0.51100000000E-03 0. -1.
    9900012    2    1    2    0    0  0.24845888726E+02 -0.12040915025E+02 -0.29847343727E+02  0.50528858976E+02  0.29999997344E+02 0.  0.
        -12    1    1    2    0    0 -0.24845888726E+02  0.12040915025E+02  0.29847343727E+02  0.40659141024E+02  0.00000000000E+00 0.  1.
         11    1    3    3    0    0  0.13806179226E+02  0.60294900078E+01 -0.65452319889E+01  0.16425754066E+02  0.51100000000E-03 0. -1.
        -11    1    3    3    0    0 -0.69346686567E+00  0.15840900831E+01 -0.51520758765E+00  0.18043494131E+01  0.51100000000E-03 0.  1.
         12    1    3    3    0    0  0.11733176365E+02 -0.19654495116E+02 -0.22786904151E+02  0.32298755497E+02  0.00000000000E+00 0. -1.
</event>
<event>
 7    1  0.2974434E-011  0.5052886E+02  0.7816164E-02  0.1300439E+00
        -11   -1    0    0    0    0  0.00000000000E+00  0.00000000000E+00  0.45593999997E+02  0.45594000000E+02  0.51100000000E-03 0.  1.
         11   -1    0    0    0    0 -0.00000000000E+00 -0.00000000000E+00 -0.45593999997E+02  0.45594000000E+02  0.51100000000E-03 0. -1.
    9900012    2    1    2    0    0  0.36343753075E+02 -0.10318817169E+02 -0.15027279626E+02  0.50528861934E+02  0.30000006334E+02 0.  0.
        -12    1    1    2    0    0 -0.36343753075E+02  0.10318817169E+02  0.15027279626E+02  0.40659138066E+02  0.00000000000E+00 0.  1.
         11    1    3    3    0    0  0.76670726325E+01 -0.43196195108E+01 -0.12371306026E+02  0.15181973802E+02  0.51100000000E-03 0. -1.
        -11    1    3    3    0    0  0.33078133007E+01  0.19931427755E+01 -0.73830029188E+01  0.83320453261E+01  0.51100000000E-03 0.  1.
         12    1    3    3    0    0  0.25368867142E+02 -0.79923404334E+01  0.47270293182E+01  0.27014842806E+02  0.00000000000E+00 0. -1.
</event>
<event>
 7    1  0.2974434E-011  0.5052884E+02  0.7816164E-02  0.1300439E+00
        -11   -1    0    0    0    0  0.00000000000E+00  0.00000000000E+00  0.45593999997E+02  0.45594000000E+02  0.51100000000E-03 0.  1.
         11   -1    0    0    0    0 -0.00000000000E+00 -0.00000000000E+00 -0.45593999997E+02  0.45594000000E+02  0.51100000000E-03 0. -1.
    9900012    2    1    2    0    0  0.36948492622E+02  0.15490013067E+02 -0.69307812745E+01  0.50528839398E+02  0.29999937833E+02 0.  0.
        -12    1    1    2    0    0 -0.36948492622E+02 -0.15490013067E+02  0.69307812745E+01  0.40659160602E+02  0.00000000000E+00 0.  1.
         11    1    3    3    0    0  0.26433343458E+01  0.19111049558E+01  0.18463347239E+01  0.37481316399E+01  0.51100000000E-03 0. -1.
        -11    1    3    3    0    0  0.29979164591E+02  0.41836698194E+01  0.37882245851E+01  0.30505803521E+02  0.51100000000E-03 0.  1.
        -12    1    3    3    0    0  0.43259936851E+01  0.93952382916E+01 -0.12565340583E+02  0.16274904236E+02  0.00000000000E+00 0.  1.
</event>
<event>
 7    1  0.2974434E-011  0.5052886E+02  0.7816164E-02  0.1300439E+00
        -11   -1    0    0    0    0  0.00000000000E+00  0.00000000000E+00  0.45593999997E+02  0.45594000000E+02  0.51100000000E-03 0.  1.
         11   -1    0    0    0    0 -0.00000000000E+00 -0.00000000000E+00 -0.45593999997E+02  0.45594000000E+02  0.51100000000E-03 0. -1.
    9900012    2    1    2    0    0 -0.12983460158E+02  0.21379194987E+02 -0.32055041778E+02  0.50528856878E+02  0.29999990967E+02 0.  0.
        -12    1    1    2    0    0  0.12983460158E+02 -0.21379194987E+02  0.32055041778E+02  0.40659143122E+02  0.00000000000E+00 0.  1.
         11    1    3    3    0    0  0.61353162977E+00  0.11881224444E+02 -0.28366877858E+02  0.30760683917E+02  0.51100000000E-03 0. -1.
        -11    1    3    3    0    0 -0.41739322506E+01  0.17807666507E+01 -0.58439817382E+01  0.73989839245E+01  0.51100000000E-03 0.  1.
        -12    1    3    3    0    0 -0.94230595374E+01  0.77172038923E+01  0.21558178181E+01  0.12369189037E+02  0.00000000000E+00 0.  1.
</event>
<event>
 7    1  0.2974434E-011  0.5052886E+02  0.7816164E-02  0.1300439E+00
        -11   -1    0    0    0    0  0.00000000000E+00  0.00000000000E+00  0.45593999997E+02  0.45594000000E+02  0.51100000000E-03 0. -1.
         11   -1    0    0    0    0 -0.00000000000E+00 -0.00000000000E+00 -0.45593999997E+02  0.45594000000E+02  0.51100000000E-03 0.  1.
    9900012    2    1    2    0    0  0.23671611109E+00 -0.55814130154E+01  0.40273536134E+02  0.50528856889E+02  0.29999991001E+02 0.  0.
        -12    1    1    2    0    0 -0.23671611109E+00  0.55814130154E+01 -0.40273536134E+02  0.40659143111E+02  0.00000000000E+00 0.  1.
         11    1    3    3    0    0 -0.64704867030E+01 -0.27748358545E+01  0.78182274161E+01  0.10521007194E+02  0.51100000000E-03 0.  1.
        -11    1    3    3    0    0  0.13647637993E+01  0.92654541203E+01  0.18862142784E+02  0.21059241461E+02  0.51100000000E-03 0. -1.
         12    1    3    3    0    0  0.53424390148E+01 -0.12072031281E+02  0.13593165934E+02  0.18948608234E+02  0.00000000000E+00 0. -1.
</event>
<event>
 7    1  0.2974434E-011  0.5052895E+02  0.7816164E-02  0.1300438E+00
        -11   -1    0    0    0    0  0.00000000000E+00  0.00000000000E+00  0.45593999997E+02  0.45594000000E+02  0.51100000000E-03 0. -1.
         11   -1    0    0    0    0 -0.00000000000E+00 -0.00000000000E+00 -0.45593999997E+02  0.45594000000E+02  0.51100000000E-03 0.  1.
    9900012    2    1    2    0    0  0.21913832524E+02 -0.23478499060E+02 -0.24933964289E+02  0.50528947512E+02  0.30000266458E+02 0.  0.
        -12    1    1    2    0    0 -0.21913832524E+02  0.23478499060E+02  0.24933964289E+02  0.40659052488E+02  0.00000000000E+00 0.  1.
         11    1    3    3    0    0  0.51050156008E+01 -0.15439368673E+02 -0.15565152475E+02  0.22510203490E+02  0.51100000000E-03 0. -1.
        -11    1    3    3    0    0 -0.21978181005E+01 -0.49263603417E+01 -0.66580439796E+01  0.85690711582E+01  0.51100000000E-03 0.  1.
         12    1    3    3    0    0  0.19006635024E+02 -0.31127700458E+01 -0.27107678338E+01  0.19449672865E+02  0.00000000000E+00 0. -1.
</event>
<event>
 7    1  0.2974434E-011  0.5052886E+02  0.7816164E-02  0.1300439E+00
        -11   -1    0    0    0    0  0.00000000000E+00  0.00000000000E+00  0.45593999997E+02  0.45594000000E+02  0.51100000000E-03 0.  1.
         11   -1    0    0    0    0 -0.00000000000E+00 -0.00000000000E+00 -0.45593999997E+02  0.45594000000E+02  0.51100000000E-03 0. -1.
    9900012    2    1    2    0    0  0.27622407275E+02  0.29832702855E+02  0.42204442881E+00  0.50528860010E+02  0.30000000485E+02 0.  0.
        -12    1    1    2    0    0 -0.27622407275E+02 -0.29832702855E+02 -0.42204442881E+00  0.40659139990E+02  0.00000000000E+00 0.  1.
         11    1    3    3    0    0 -0.50334258214E+01  0.47529612295E+01  0.27931166507E+01  0.74650865255E+01  0.51100000000E-03 0. -1.
        -11    1    3    3    0    0  0.49530382929E+01  0.82332470921E+01  0.32786127529E+01  0.10152253339E+02  0.51100000000E-03 0.  1.
         12    1    3    3    0    0  0.27702794803E+02  0.16846494533E+02 -0.56496849748E+01  0.32911520145E+02  0.00000000000E+00 0. -1.
</event>
<event>
 7    1  0.2974434E-011  0.5052886E+02  0.7816164E-02  0.1300439E+00
        -11   -1    0    0    0    0  0.00000000000E+00  0.00000000000E+00  0.45593999997E+02  0.45594000000E+02  0.51100000000E-03 0.  1.
         11   -1    0    0    0    0 -0.00000000000E+00 -0.00000000000E+00 -0.45593999997E+02  0.45594000000E+02  0.51100000000E-03 0. -1.
    9900012    2    1    2    0    0  0.13408804258E+02 -0.37960924525E+01 -0.38196327994E+02  0.50528858079E+02  0.29999994618E+02 0.  0.
        -12    1    1    2    0    0 -0.13408804258E+02  0.37960924525E+01  0.38196327994E+02  0.40659141921E+02  0.00000000000E+00 0.  1.
         11    1    3    3    0    0  0.10153641378E+01  0.90044451859E+01 -0.62195863645E+01  0.10990643850E+02  0.51100000000E-03 0. -1.
        -11    1    3    3    0    0  0.47803233376E+00 -0.29504563775E+01 -0.19344029942E+02  0.19573584302E+02  0.51100000000E-03 0.  1.
        -12    1    3    3    0    0  0.11915407786E+02 -0.98500812609E+01 -0.12632711687E+02  0.19964629927E+02  0.00000000000E+00 0.  1.
</event>
<event>
 7    1  0.2974434E-011  0.5052887E+02  0.7816164E-02  0.1300439E+00
        -11   -1    0    0    0    0  0.00000000000E+00  0.00000000000E+00  0.45593999997E+02  0.45594000000E+02  0.51100000000E-03 0.  1.
         11   -1    0    0    0    0 -0.00000000000E+00 -0.00000000000E+00 -0.45593999997E+02  0.45594000000E+02  0.51100000000E-03 0. -1.
    9900012    2    1    2    0    0 -0.29406307386E+01  0.94287324872E+01 -0.39441303083E+02  0.50528871943E+02  0.30000036758E+02 0.  0.
        -12    1    1    2    0    0  0.29406307386E+01 -0.94287324872E+01  0.39441303083E+02  0.40659128057E+02  0.00000000000E+00 0.  1.
         11    1    3    3    0    0  0.48106632994E+01 -0.13662643991E+01 -0.32369745755E+01  0.59571104113E+01  0.51100000000E-03 0. -1.
        -11    1    3    3    0    0  0.88572333081E+00 -0.48020759287E+01 -0.19632294653E+02  0.20230458043E+02  0.51100000000E-03 0.  1.
         12    1    3    3    0    0 -0.86370173688E+01  0.15597072815E+02 -0.16572033855E+02  0.24341303488E+02  0.00000000000E+00 0. -1.
</event>
<event>
 7    1  0.2974434E-011  0.5052886E+02  0.7816164E-02  0.1300439E+00
        -11   -1    0    0    0    0  0.00000000000E+00  0.00000000000E+00  0.45593999997E+02  0.45594000000E+02  0.51100000000E-03 0.  1.
         11   -1    0    0    0    0 -0.00000000000E+00 -0.00000000000E+00 -0.45593999997E+02  0.45594000000E+02  0.51100000000E-03 0. -1.
    9900012    2    1    2    0    0 -0.75440467478E+01  0.52609671381E+01 -0.39605246778E+02  0.50528856023E+02  0.29999988368E+02 0.  0.
        -12    1    1    2    0    0  0.75440467478E+01 -0.52609671381E+01  0.39605246778E+02  0.40659143977E+02  0.00000000000E+00 0.  1.
         11    1    3    3    0    0 -0.32465892561E+00 -0.34039705838E+01  0.23024128177E+01  0.41223202444E+01  0.51100000000E-03 0. -1.
        -11    1    3    3    0    0  0.57116718655E-01 -0.46763686065E+01 -0.84076732812E+01  0.96208448656E+01  0.51100000000E-03 0.  1.
         12    1    3    3    0    0 -0.72765045408E+01  0.13341306328E+02 -0.33499986315E+02  0.36785690913E+02  0.00000000000E+00 0. -1.
</event>
<event>
 7    1  0.2974434E-011  0.5052886E+02  0.7816164E-02  0.1300439E+00
        -11   -1    0    0    0    0  0.00000000000E+00  0.00000000000E+00  0.45593999997E+02  0.45594000000E+02  0.51100000000E-03 0. -1.
         11   -1    0    0    0    0 -0.00000000000E+00 -0.00000000000E+00 -0.45593999997E+02  0.45594000000E+02  0.51100000000E-03 0.  1.
    9900012    2    1    2    0    0  0.12733235430E+02  0.24684236297E+01  0.38534887178E+02  0.50528856754E+02  0.29999990588E+02 0.  0.
        -12    1    1    2    0    0 -0.12733235430E+02 -0.24684236297E+01 -0.38534887178E+02  0.40659143246E+02  0.00000000000E+00 0.  1.
         11    1    3    3    0    0 -0.20901972505E+00  0.18446203786E+01  0.90654032895E+00  0.20659451144E+01  0.51100000000E-03 0. -1.
        -11    1    3    3    0    0 -0.59630817689E+01 -0.62200604038E+01  0.45264326384E+01  0.97332465447E+01  0.51100000000E-03 0.  1.
         12    1    3    3    0    0  0.18905336924E+02  0.68438636549E+01  0.33101914211E+02  0.38729665094E+02  0.00000000000E+00 0. -1.
</event>
<event>
 7    1  0.2974434E-011  0.5052886E+02  0.7816164E-02  0.1300439E+00
        -11   -1    0    0    0    0  0.00000000000E+00  0.00000000000E+00  0.45593999997E+02  0.45594000000E+02  0.51100000000E-03 0. -1.
         11   -1    0    0    0    0 -0.00000000000E+00 -0.00000000000E+00 -0.45593999997E+02  0.45594000000E+02  0.51100000000E-03 0.  1.
    9900012    2    1    2    0    0 -0.16889065229E+02  0.31756139382E+02 -0.18959766105E+02  0.50528860271E+02  0.30000001279E+02 0.  0.
        -12    1    1    2    0    0  0.16889065229E+02 -0.31756139382E+02  0.18959766105E+02  0.40659139729E+02  0.00000000000E+00 0.  1.
         11    1    3    3    0    0  0.46154820781E+01  0.40223771208E+01 -0.43493362172E+01  0.75099213249E+01  0.51100000000E-03 0. -1.
        -11    1    3    3    0    0 -0.11283609175E+01 -0.29304624975E+01  0.57661087382E+00  0.31926930906E+01  0.51100000000E-03 0.  1.
         12    1    3    3    0    0 -0.20376186389E+02  0.30664224759E+02 -0.15187040762E+02  0.39826245855E+02  0.00000000000E+00 0. -1.
</event>
<event>
 7    1  0.2974434E-011  0.5052888E+02  0.7816164E-02  0.1300439E+00
        -11   -1    0    0    0    0  0.00000000000E+00  0.00000000000E+00  0.45593999997E+02  0.45594000000E+02  0.51100000000E-03 0.  1.
         11   -1    0    0    0    0 -0.00000000000E+00 -0.00000000000E+00 -0.45593999997E+02  0.45594000000E+02  0.51100000000E-03 0. -1.
    9900012    2    1    2    0    0  0.38456634606E+02  0.54104450256E+01  0.12040709817E+02  0.50528876135E+02  0.30000049500E+02 0.  0.
        -12    1    1    2    0    0 -0.38456634606E+02 -0.54104450256E+01 -0.12040709817E+02  0.40659123865E+02  0.00000000000E+00 0.  1.
         11    1    3    3    0    0  0.26211510727E+02 -0.53105234457E+01  0.14770109651E+02  0.30551613594E+02  0.51100000000E-03 0. -1.
        -11    1    3    3    0    0  0.56707019903E+01 -0.95534457370E+00  0.14684464320E+01  0.59351393835E+01  0.51100000000E-03 0.  1.
         12    1    3    3    0    0  0.65744218884E+01  0.11676313045E+02 -0.41978462652E+01  0.14042123157E+02  0.00000000000E+00 0. -1.
</event>
<event>
 7    1  0.2974434E-011  0.5052886E+02  0.7816164E-02  0.1300439E+00
        -11   -1    0    0    0    0  0.00000000000E+00  0.00000000000E+00  0.45593999997E+02  0.45594000000E+02  0.51100000000E-03 0.  1.
         11   -1    0    0    0    0 -0.00000000000E+00 -0.00000000000E+00 -0.45593999997E+02  0.45594000000E+02  0.51100000000E-03 0. -1.
    9900012    2    1    2    0    0 -0.30863943665E+02 -0.16836341350E+02 -0.20423529009E+02  0.50528856554E+02  0.29999989980E+02 0.  0.
        -12    1    1    2    0    0  0.30863943665E+02  0.16836341350E+02  0.20423529009E+02  0.40659143446E+02  0.00000000000E+00 0.  1.
         11    1    3    3    0    0 -0.25409825541E+01  0.13651019834E+00  0.44699704346E+00  0.25836087150E+01  0.51100000000E-03 0. -1.
        -11    1    3    3    0    0 -0.11872756165E+02  0.47981082093E+01  0.11834265423E+01  0.12860197510E+02  0.51100000000E-03 0.  1.
        -12    1    3    3    0    0 -0.16450204946E+02 -0.21770959758E+02 -0.22053952595E+02  0.35085050329E+02  0.00000000000E+00 0.  1.
</event>
<event>
 7    1  0.2974434E-011  0.5052886E+02  0.7816164E-02  0.1300439E+00
        -11   -1    0    0    0    0  0.00000000000E+00  0.00000000000E+00  0.45593999997E+02  0.45594000000E+02  0.51100000000E-03 0.  1.
         11   -1    0    0    0    0 -0.00000000000E+00 -0.00000000000E+00 -0.45593999997E+02  0.45594000000E+02  0.51100000000E-03 0. -1.
    9900012    2    1    2    0    0  0.27651986124E+02  0.27067373573E+02 -0.12485629164E+02  0.50528856080E+02  0.29999988540E+02 0.  0.
        -12    1    1    2    0    0 -0.27651986124E+02 -0.27067373573E+02  0.12485629164E+02  0.40659143920E+02  0.00000000000E+00 0.  1.
         11    1    3    3    0    0  0.19373152391E+02  0.17231304528E+02  0.85335940752E+00  0.25941571113E+02  0.51100000000E-03 0. -1.
        -11    1    3    3    0    0  0.42681524956E+01  0.32725652482E+01  0.32624391564E+01  0.62904943001E+01  0.51100000000E-03 0.  1.
        -12    1    3    3    0    0  0.40106812372E+01  0.65635037966E+01 -0.16601427728E+02  0.18296790666E+02  0.00000000000E+00 0.  1.
</event>
<event>
 7    1  0.2974434E-011  0.5052885E+02  0.7816164E-02  0.1300439E+00
        -11   -1    0    0    0    0  0.00000000000E+00  0.00000000000E+00  0.45593999997E+02  0.45594000000E+02  0.51100000000E-03 0. -1.
         11   -1    0    0    0    0 -0.00000000000E+00 -0.00000000000E+00 -0.45593999997E+02  0.45594000000E+02  0.51100000000E-03 0.  1.
    9900012    2    1    2    0    0 -0.35562995048E+02 -0.15897505352E+02 -0.11649417771E+02  0.50528853088E+02  0.29999979446E+02 0.  0.
        -12    1    1    2    0    0  0.35562995048E+02  0.15897505352E+02  0.11649417771E+02  0.40659146912E+02  0.00000000000E+00 0.  1.
         11    1    3    3    0    0 -0.10884114025E-01  0.50629826006E+01 -0.35203740515E+01  0.61665991439E+01  0.51100000000E-03 0. -1.
        -11    1    3    3    0    0 -0.30316713199E+01 -0.36374215549E+01 -0.57361465517E+01  0.74380941164E+01  0.51100000000E-03 0.  1.
         12    1    3    3    0    0 -0.32520439614E+02 -0.17323066398E+02 -0.23928971678E+01  0.36924159828E+02  0.00000000000E+00 0. -1.
</event>
<event>
 7    1  0.2974434E-011  0.5052886E+02  0.7816164E-02  0.1300439E+00
        -11   -1    0    0    0    0  0.00000000000E+00  0.00000000000E+00  0.45593999997E+02  0.45594000000E+02  0.51100000000E-03 0. -1.
         11   -1    0    0    0    0 -0.00000000000E+00 -0.00000000000E+00 -0.45593999997E+02  0.45594000000E+02  0.51100000000E-03 0.  1.
    9900012    2    1    2    0    0 -0.23295720399E+00 -0.30514018975E+02  0.26870166140E+02  0.50528862633E+02  0.30000008458E+02 0.  0.
        -12    1    1    2    0    0  0.23295720399E+00  0.30514018975E+02 -0.26870166140E+02  0.40659137367E+02  0.00000000000E+00 0.  1.
         11    1    3    3    0    0 -0.37516069551E+01  0.59377547496E+00 -0.41949864220E-01  0.37985371017E+01  0.51100000000E-03 0. -1.
        -11    1    3    3    0    0 -0.80779897958E+01 -0.85618820194E+01  0.13958892670E+02  0.18259529777E+02  0.51100000000E-03 0.  1.
         12    1    3    3    0    0  0.11596639547E+02 -0.22545912431E+02  0.12953223334E+02  0.28470795754E+02  0.00000000000E+00 0. -1.
</event>
<event>
 7    1  0.2974434E-011  0.5052884E+02  0.7816164E-02  0.1300439E+00
        -11   -1    0    0    0    0  0.00000000000E+00  0.00000000000E+00  0.45593999997E+02  0.45594000000E+02  0.51100000000E-03 0.  1.
         11   -1    0    0    0    0 -0.00000000000E+00 -0.00000000000E+00 -0.45593999997E+02  0.45594000000E+02  0.51100000000E-03 0. -1.
    9900012    2    1    2    0    0  0.24621598568E+02  0.28470744704E+02  0.15374019488E+02  0.50528844878E+02  0.29999954490E+02 0.  0.
        -12    1    1    2    0    0 -0.24621598568E+02 -0.28470744704E+02 -0.15374019488E+02  0.40659155122E+02  0.00000000000E+00 0.  1.
         11    1    3    3    0    0  0.11794366490E+02  0.20609348004E+02 -0.17580467412E+01  0.23810565610E+02  0.51100000000E-03 0. -1.
        -11    1    3    3    0    0  0.56648529426E+01  0.12923030667E+01 -0.12333974322E+01  0.59398548437E+01  0.51100000000E-03 0.  1.
        -12    1    3    3    0    0  0.71623791355E+01  0.65690936334E+01  0.18365463662E+02  0.20778424424E+02  0.00000000000E+00 0.  1.
</event>
<event>
 7    1  0.2974434E-011  0.5052881E+02  0.7816164E-02  0.1300439E+00
        -11   -1    0    0    0    0  0.00000000000E+00  0.00000000000E+00  0.45593999997E+02  0.45594000000E+02  0.51100000000E-03 0.  1.
         11   -1    0    0    0    0 -0.00000000000E+00 -0.00000000000E+00 -0.45593999997E+02  0.45594000000E+02  0.51100000000E-03 0. -1.
    9900012    2    1    2    0    0  0.45557620550E+00 -0.34520449853E+02 -0.21477903784E+02  0.50528814584E+02  0.29999862408E+02 0.  0.
        -12    1    1    2    0    0 -0.45557620550E+00  0.34520449853E+02  0.21477903784E+02  0.40659185416E+02  0.00000000000E+00 0.  1.
         11    1    3    3    0    0  0.31183105582E+01 -0.39399948475E+02 -0.18000109279E+02  0.43429065554E+02  0.51100000000E-03 0. -1.
        -11    1    3    3    0    0 -0.70970715997E+00  0.88775597285E-01 -0.13056666533E+01  0.14887347078E+01  0.51100000000E-03 0.  1.
        -12    1    3    3    0    0 -0.19530271927E+01  0.47907230246E+01 -0.21721278519E+01  0.56110143217E+01  0.00000000000E+00 0.  1.
</event>
<event>
 7    1  0.2974434E-011  0.5052887E+02  0.7816164E-02  0.1300439E+00
        -11   -1    0    0    0    0  0.00000000000E+00  0.00000000000E+00  0.45593999997E+02  0.45594000000E+02  0.51100000000E-03 0.  1.
         11   -1    0    0    0    0 -0.00000000000E+00 -0.00000000000E+00 -0.45593999997E+02  0.45594000000E+02  0.51100000000E-03 0. -1.
    9900012    2    1    2    0    0  0.95526729637E+01  0.12300820740E+02 -0.37557975142E+02  0.50528865130E+02  0.30000016048E+02 0.  0.
        -12    1    1    2    0    0 -0.95526729637E+01 -0.12300820740E+02  0.37557975142E+02  0.40659134870E+02  0.00000000000E+00 0.  1.
         11    1    3    3    0    0 -0.35123329348E+01  0.11363347298E+02 -0.17347144356E+02  0.21032963701E+02  0.51100000000E-03 0. -1.
        -11    1    3    3    0    0  0.47966049451E+01 -0.65811414038E+01 -0.15208832933E+02  0.17251882234E+02  0.51100000000E-03 0.  1.
         12    1    3    3    0    0  0.82684009534E+01  0.75186148458E+01 -0.50019978535E+01  0.12244019195E+02  0.00000000000E+00 0. -1.
</event>
<event>
 7    1  0.2974434E-011  0.5052887E+02  0.7816164E-02  0.1300439E+00
        -11   -1    0    0    0    0  0.00000000000E+00  0.00000000000E+00  0.45593999997E+02  0.45594000000E+02  0.51100000000E-03 0. -1.
         11   -1    0    0    0    0 -0.00000000000E+00 -0.00000000000E+00 -0.45593999997E+02  0.45594000000E+02  0.51100000000E-03 0.  1.
    9900012    2    1    2    0    0  0.23921544155E+01  0.35582290065E+02  0.19528014308E+02  0.50528866809E+02  0.30000021152E+02 0.  0.
        -12    1    1    2    0    0 -0.23921544155E+01 -0.35582290065E+02 -0.19528014308E+02  0.40659133191E+02  0.00000000000E+00 0.  1.
         11    1    3    3    0    0  0.49965065715E+01  0.18223601634E+02  0.20527131456E+00  0.18897271523E+02  0.51100000000E-03 0. -1.
        -11    1    3    3    0    0  0.82152665886E+00  0.30096005479E+01 -0.33526885933E+01  0.45796421884E+01  0.51100000000E-03 0.  1.
         12    1    3    3    0    0 -0.34258788148E+01  0.14349087884E+02  0.22675431587E+02  0.27051953098E+02  0.00000000000E+00 0. -1.
</event>
<event>
 7    1  0.2974434E-011  0.5052885E+02  0.7816164E-02  0.1300439E+00
        -11   -1    0    0    0    0  0.00000000000E+00  0.00000000000E+00  0.45593999997E+02  0.45594000000E+02  0.51100000000E-03 0. -1.
         11   -1    0    0    0    0 -0.00000000000E+00 -0.00000000000E+00 -0.45593999997E+02  0.45594000000E+02  0.51100000000E-03 0.  1.
    9900012    2    1    2    0    0 -0.27840093366E+02 -0.20161907372E+02  0.21716188999E+02  0.50528853770E+02  0.29999981519E+02 0.  0.
        -12    1    1    2    0    0  0.27840093366E+02  0.20161907372E+02 -0.21716188999E+02  0.40659146230E+02  0.00000000000E+00 0.  1.
         11    1    3    3    0    0 -0.12469680618E+02 -0.14071922680E+01  0.12194165535E+02  0.17497736943E+02  0.51100000000E-03 0. -1.
        -11    1    3    3    0    0  0.46933723672E+01 -0.28159379639E+01  0.41022577754E+01  0.68400124203E+01  0.51100000000E-03 0.  1.
         12    1    3    3    0    0 -0.20063785116E+02 -0.15938777140E+02  0.54197656890E+01  0.26191104406E+02  0.00000000000E+00 0. -1.
</event>
<event>
 7    1  0.2974434E-011  0.5052885E+02  0.7816164E-02  0.1300439E+00
        -11   -1    0    0    0    0  0.00000000000E+00  0.00000000000E+00  0.45593999997E+02  0.45594000000E+02  0.51100000000E-03 0.  1.
         11   -1    0    0    0    0 -0.00000000000E+00 -0.00000000000E+00 -0.45593999997E+02  0.45594000000E+02  0.51100000000E-03 0. -1.
    9900012    2    1    2    0    0  0.11023702339E+02 -0.15644745657E+02 -0.35873193413E+02  0.50528854835E+02  0.29999984755E+02 0.  0.
        -12    1    1    2    0    0 -0.11023702339E+02  0.15644745657E+02  0.35873193413E+02  0.40659145165E+02  0.00000000000E+00 0.  1.
         11    1    3    3    0    0  0.88515285162E+01 -0.17334211235E+01 -0.32484419399E+02  0.33713377313E+02  0.51100000000E-03 0. -1.
        -11    1    3    3    0    0  0.23116230052E+01  0.12622990263E+00 -0.12001038445E+01  0.26076396234E+01  0.51100000000E-03 0.  1.
         12    1    3    3    0    0 -0.13944918205E+00 -0.14037554437E+02 -0.21886701688E+01  0.14207837898E+02  0.00000000000E+00 0. -1.
</event>
<event>
 7    1  0.2974434E-011  0.5052887E+02  0.7816164E-02  0.1300439E+00
        -11   -1    0    0    0    0  0.00000000000E+00  0.00000000000E+00  0.45593999997E+02  0.45594000000E+02  0.51100000000E-03 0.  1.
         11   -1    0    0    0    0 -0.00000000000E+00 -0.00000000000E+00 -0.45593999997E+02  0.45594000000E+02  0.51100000000E-03 0. -1.
    9900012    2    1    2    0    0 -0.21489867217E+02  0.34449769739E+02  0.21363569229E+01  0.50528867582E+02  0.30000023502E+02 0.  0.
        -12    1    1    2    0    0  0.21489867217E+02 -0.34449769739E+02 -0.21363569229E+01  0.40659132418E+02  0.00000000000E+00 0.  1.
         11    1    3    3    0    0 -0.77813733551E+01  0.20810202738E+01  0.38463214666E-01  0.80549299409E+01  0.51100000000E-03 0. -1.
        -11    1    3    3    0    0 -0.13085454389E+02  0.78901115172E+01 -0.63837343737E+01  0.16560043512E+02  0.51100000000E-03 0.  1.
        -12    1    3    3    0    0 -0.62303947257E+00  0.24478637948E+02  0.84816280819E+01  0.25913894129E+02  0.00000000000E+00 0.  1.
</event>
<event>
 7    1  0.2974434E-011  0.5052886E+02  0.7816164E-02  0.1300439E+00
        -11   -1    0    0    0    0  0.00000000000E+00  0.00000000000E+00  0.45593999997E+02  0.45594000000E+02  0.51100000000E-03 0.  1.
         11   -1    0    0    0    0 -0.00000000000E+00 -0.00000000000E+00 -0.45593999997E+02  0.45594000000E+02  0.51100000000E-03 0. -1.
    9900012    2    1    2    0    0 -0.13451145424E+02 -0.23174754478E+02 -0.30580438145E+02  0.50528858894E+02  0.29999997095E+02 0.  0.
        -12    1    1    2    0    0  0.13451145424E+02  0.23174754478E+02  0.30580438145E+02  0.40659141106E+02  0.00000000000E+00 0.  1.
         11    1    3    3    0    0  0.21479683940E+01  0.25638484892E+01 -0.94263783305E+01  0.10002184561E+02  0.51100000000E-03 0. -1.
        -11    1    3    3    0    0 -0.54422779778E+01 -0.19786267958E+02 -0.20070613011E+02  0.28704429905E+02  0.51100000000E-03 0.  1.
         12    1    3    3    0    0 -0.10156835841E+02 -0.59523350090E+01 -0.10834468039E+01  0.11822244429E+02  0.00000000000E+00 0. -1.
</event>
<event>
 7    1  0.2974434E-011  0.5052886E+02  0.7816164E-02  0.1300439E+00
        -11   -1    0    0    0    0  0.00000000000E+00  0.00000000000E+00  0.45593999997E+02  0.45594000000E+02  0.51100000000E-03 0. -1.
         11   -1    0    0    0    0 -0.00000000000E+00 -0.00000000000E+00 -0.45593999997E+02  0.45594000000E+02  0.51100000000E-03 0.  1.
    9900012    2    1    2    0    0  0.31761371919E+00 -0.28963401125E+02  0.28533942938E+02  0.50528863476E+02  0.30000011023E+02 0.  0.
        -12    1    1    2    0    0 -0.31761371919E+00  0.28963401125E+02 -0.28533942938E+02  0.40659136524E+02  0.00000000000E+00 0.  1.
         11    1    3    3    0    0 -0.43646827851E+01 -0.18683451284E+02  0.22734732258E+02  0.29748779114E+02  0.51100000000E-03 0. -1.
        -11    1    3    3    0    0  0.79018705307E+01  0.10090078668E+01  0.39660689676E+01  0.88987278909E+01  0.51100000000E-03 0.  1.
         12    1    3    3    0    0 -0.32195740264E+01 -0.11288957708E+02  0.18331417127E+01  0.11881356471E+02  0.00000000000E+00 0. -1.
</event>
<event>
 7    1  0.2974434E-011  0.5052886E+02  0.7816164E-02  0.1300439E+00
        -11   -1    0    0    0    0  0.00000000000E+00  0.00000000000E+00  0.45593999997E+02  0.45594000000E+02  0.51100000000E-03 0.  1.
         11   -1    0    0    0    0 -0.00000000000E+00 -0.00000000000E+00 -0.45593999997E+02  0.45594000000E+02  0.51100000000E-03 0. -1.
    9900012    2    1    2    0    0  0.29028289111E+02 -0.69756094407E+01 -0.27601897415E+02  0.50528862814E+02  0.30000009010E+02 0.  0.
        -12    1    1    2    0    0 -0.29028289111E+02  0.69756094407E+01  0.27601897415E+02  0.40659137186E+02  0.00000000000E+00 0.  1.
         11    1    3    3    0    0  0.25039113242E+01 -0.79191563438E+00 -0.81054759139E+01  0.85202959070E+01  0.51100000000E-03 0. -1.
        -11    1    3    3    0    0  0.30704522316E+02 -0.55571742546E+01 -0.20898503569E+02  0.37555256996E+02  0.51100000000E-03 0.  1.
        -12    1    3    3    0    0 -0.41801445293E+01 -0.62651955179E+00  0.14020820681E+01  0.44533099106E+01  0.00000000000E+00 0.  1.
</event>
<event>
 7    1  0.2974434E-011  0.5052886E+02  0.7816164E-02  0.1300439E+00
        -11   -1    0    0    0    0  0.00000000000E+00  0.00000000000E+00  0.45593999997E+02  0.45594000000E+02  0.51100000000E-03 0.  1.
         11   -1    0    0    0    0 -0.00000000000E+00 -0.00000000000E+00 -0.45593999997E+02  0.45594000000E+02  0.51100000000E-03 0. -1.
    9900012    2    1    2    0    0  0.55406425559E+01 -0.13982425173E+02 -0.37775102449E+02  0.50528864511E+02  0.30000014169E+02 0.  0.
        -12    1    1    2    0    0 -0.55406425559E+01  0.13982425173E+02  0.37775102449E+02  0.40659135489E+02  0.00000000000E+00 0.  1.
         11    1    3    3    0    0  0.10572439805E+02 -0.11095142481E+02 -0.85364440700E+01  0.17542791902E+02  0.51100000000E-03 0. -1.
        -11    1    3    3    0    0 -0.30106604656E+01 -0.74324546854E+01 -0.25590154212E+02  0.26817185758E+02  0.51100000000E-03 0.  1.
        -12    1    3    3    0    0 -0.20211367832E+01  0.45451719926E+01 -0.36485041664E+01  0.61688868519E+01  0.00000000000E+00 0.  1.
</event>
<event>
 7    1  0.3866686E-011  0.5052885E+02  0.7816164E-02  0.1300439E+00
        -11   -1    0    0    0    0  0.00000000000E+00  0.00000000000E+00  0.45593999997E+02  0.45594000000E+02  0.51100000000E-03 0. -1.
         11   -1    0    0    0    0 -0.00000000000E+00 -0.00000000000E+00 -0.45593999997E+02  0.45594000000E+02  0.51100000000E-03 0.  1.
    9900012    2    1    2    0    0 -0.26915368939E+02 -0.22940388213E+02  0.20061600004E+02  0.50528852305E+02  0.29999977068E+02 0.  0.
        -12    1    1    2    0    0  0.26915368939E+02  0.22940388213E+02 -0.20061600004E+02  0.40659147695E+02  0.00000000000E+00 0.  1.
         11    1    3    3    0    0 -0.18963607952E+02 -0.12813361760E+02  0.16877410561E+02  0.28436730713E+02  0.51100000000E-03 0. -1.
        -11    1    3    3    0    0 -0.12879640610E+02 -0.46126908628E+01  0.48435968700E+01  0.14512838804E+02  0.51100000000E-03 0.  1.
        -12    1    3    3    0    0  0.49278796231E+01 -0.55143355905E+01 -0.16594074264E+01  0.75792827886E+01  0.00000000000E+00 0.  1.
</event>
<event>
 7    1  0.2974434E-011  0.5052886E+02  0.7816164E-02  0.1300439E+00
        -11   -1    0    0    0    0  0.00000000000E+00  0.00000000000E+00  0.45593999997E+02  0.45594000000E+02  0.51100000000E-03 0. -1.
         11   -1    0    0    0    0 -0.00000000000E+00 -0.00000000000E+00 -0.45593999997E+02  0.45594000000E+02  0.51100000000E-03 0.  1.
    9900012    2    1    2    0    0  0.32324861610E+02  0.21387318912E+02  0.12282167477E+02  0.50528859253E+02  0.29999998185E+02 0.  0.
        -12    1    1    2    0    0 -0.32324861610E+02 -0.21387318912E+02 -0.12282167477E+02  0.40659140747E+02  0.00000000000E+00 0.  1.
         11    1    3    3    0    0  0.15646955383E+02  0.68740165445E+01  0.15438045659E+02  0.23030687576E+02  0.51100000000E-03 0. -1.
        -11    1    3    3    0    0  0.16328450987E+02  0.40952261771E+01 -0.10741572174E+01  0.16868402505E+02  0.51100000000E-03 0.  1.
        -12    1    3    3    0    0  0.34945524043E+00  0.10418076191E+02 -0.20817209643E+01  0.10629769172E+02  0.00000000000E+00 0.  1.
</event>
<event>
 7    1  0.2974434E-011  0.5052886E+02  0.7816164E-02  0.1300439E+00
        -11   -1    0    0    0    0  0.00000000000E+00  0.00000000000E+00  0.45593999997E+02  0.45594000000E+02  0.51100000000E-03 0.  1.
         11   -1    0    0    0    0 -0.00000000000E+00 -0.00000000000E+00 -0.45593999997E+02  0.45594000000E+02  0.51100000000E-03 0. -1.
    9900012    2    1    2    0    0 -0.25528354081E+02  0.16694187461E+02 -0.26884441145E+02  0.50528856714E+02  0.29999990467E+02 0.  0.
        -12    1    1    2    0    0  0.25528354081E+02 -0.16694187461E+02  0.26884441145E+02  0.40659143286E+02  0.00000000000E+00 0.  1.
         11    1    3    3    0    0 -0.12644617240E+02  0.56313530625E+01 -0.47788324465E+01  0.14643623946E+02  0.51100000000E-03 0. -1.
        -11    1    3    3    0    0 -0.15700402273E+02  0.48787668886E+01 -0.45478647385E+01  0.17058372485E+02  0.51100000000E-03 0.  1.
        -12    1    3    3    0    0  0.28166654322E+01  0.61840675097E+01 -0.17557743960E+02  0.18826860282E+02  0.00000000000E+00 0.  1.
</event>
<event>
 7    1  0.2974434E-011  0.5052888E+02  0.7816164E-02  0.1300439E+00
        -11   -1    0    0    0    0  0.00000000000E+00  0.00000000000E+00  0.45593999997E+02  0.45594000000E+02  0.51100000000E-03 0.  1.
         11   -1    0    0    0    0 -0.00000000000E+00 -0.00000000000E+00 -0.45593999997E+02  0.45594000000E+02  0.51100000000E-03 0. -1.
    9900012    2    1    2    0    0 -0.76760445097E+01 -0.37894707475E+02 -0.12579101457E+02  0.50528876701E+02  0.30000051221E+02 0.  0.
        -12    1    1    2    0    0  0.76760445097E+01  0.37894707475E+02  0.12579101457E+02  0.40659123299E+02  0.00000000000E+00 0.  1.
         11    1    3    3    0    0  0.38635830245E+01 -0.20576064843E+02 -0.40853465221E+01  0.21330536203E+02  0.51100000000E-03 0. -1.
        -11    1    3    3    0    0  0.23278770096E+01 -0.11439528372E+02  0.44672258488E+00  0.11682524644E+02  0.51100000000E-03 0.  1.
         12    1    3    3    0    0 -0.13867504544E+02 -0.58791142601E+01 -0.89404775200E+01  0.17515815854E+02  0.00000000000E+00 0. -1.
</event>
<event>
 7    1  0.2974434E-011  0.5052886E+02  0.7816164E-02  0.1300439E+00
        -11   -1    0    0    0    0  0.00000000000E+00  0.00000000000E+00  0.45593999997E+02  0.45594000000E+02  0.51100000000E-03 0.  1.
         11   -1    0    0    0    0 -0.00000000000E+00 -0.00000000000E+00 -0.45593999997E+02  0.45594000000E+02  0.51100000000E-03 0. -1.
    9900012    2    1    2    0    0  0.77308025412E+01 -0.49130103156E+01 -0.39613923166E+02  0.50528857278E+02  0.29999992182E+02 0.  0.
        -12    1    1    2    0    0 -0.77308025412E+01  0.49130103156E+01  0.39613923166E+02  0.40659142722E+02  0.00000000000E+00 0.  1.
         11    1    3    3    0    0 -0.67437158663E+01  0.26302527481E+01 -0.36086921869E+01  0.80881761087E+01  0.51100000000E-03 0. -1.
        -11    1    3    3    0    0  0.58018586331E+01 -0.29532722761E+01 -0.16562326011E+01  0.67176251329E+01  0.51100000000E-03 0.  1.
         12    1    3    3    0    0  0.86726597744E+01 -0.45899907876E+01 -0.34348998378E+02  0.35723056036E+02  0.00000000000E+00 0. -1.
</event>
<event>
 7    1  0.2974434E-011  0.5052886E+02  0.7816164E-02  0.1300439E+00
        -11   -1    0    0    0    0  0.00000000000E+00  0.00000000000E+00  0.45593999997E+02  0.45594000000E+02  0.51100000000E-03 0.  1.
         11   -1    0    0    0    0 -0.00000000000E+00 -0.00000000000E+00 -0.45593999997E+02  0.45594000000E+02  0.51100000000E-03 0. -1.
    9900012    2    1    2    0    0 -0.69940377933E+01 -0.10224692972E+02 -0.38726022655E+02  0.50528859064E+02  0.29999997611E+02 0.  0.
        -12    1    1    2    0    0  0.69940377933E+01  0.10224692972E+02  0.38726022655E+02  0.40659140936E+02  0.00000000000E+00 0.  1.
         11    1    3    3    0    0  0.48892347188E+00 -0.89447858395E+01 -0.19358394710E+02  0.21330627883E+02  0.51100000000E-03 0. -1.
        -11    1    3    3    0    0 -0.64329059736E+00 -0.10307383275E+02 -0.11198507118E+02  0.15233598876E+02  0.51100000000E-03 0.  1.
        -12    1    3    3    0    0 -0.68396706678E+01  0.90274761426E+01 -0.81691208269E+01  0.13964632306E+02  0.00000000000E+00 0.  1.
</event>
<event>
 7    1  0.2974434E-011  0.5052884E+02  0.7816164E-02  0.1300439E+00
        -11   -1    0    0    0    0  0.00000000000E+00  0.00000000000E+00  0.45593999997E+02  0.45594000000E+02  0.51100000000E-03 0.  1.
         11   -1    0    0    0    0 -0.00000000000E+00 -0.00000000000E+00 -0.45593999997E+02  0.45594000000E+02  0.51100000000E-03 0. -1.
    9900012    2    1    2    0    0  0.24142721228E+02  0.32573958198E+02 -0.30386418504E+01  0.50528842541E+02  0.29999947388E+02 0.  0.
        -12    1    1    2    0    0 -0.24142721228E+02 -0.32573958198E+02  0.30386418504E+01  0.40659157459E+02  0.00000000000E+00 0.  1.
         11    1    3    3    0    0  0.63832602430E+01  0.11473647273E+02 -0.10951176485E+02  0.17097334872E+02  0.51100000000E-03 0. -1.
        -11    1    3    3    0    0 -0.27941021369E+01  0.42153589464E+01  0.41998966359E+01  0.65738413285E+01  0.51100000000E-03 0.  1.
        -12    1    3    3    0    0  0.20553563121E+02  0.16884951979E+02  0.37126379988E+01  0.26857666340E+02  0.00000000000E+00 0.  1.
</event>
<event>
 7    1  0.2974434E-011  0.5052886E+02  0.7816164E-02  0.1300439E+00
        -11   -1    0    0    0    0  0.00000000000E+00  0.00000000000E+00  0.45593999997E+02  0.45594000000E+02  0.51100000000E-03 0. -1.
         11   -1    0    0    0    0 -0.00000000000E+00 -0.00000000000E+00 -0.45593999997E+02  0.45594000000E+02  0.51100000000E-03 0.  1.
    9900012    2    1    2    0    0 -0.29631217975E+01 -0.25800518980E+02  0.31284475806E+02  0.50528864534E+02  0.30000014237E+02 0.  0.
        -12    1    1    2    0    0  0.29631217975E+01  0.25800518980E+02 -0.31284475806E+02  0.40659135466E+02  0.00000000000E+00 0.  1.
         11    1    3    3    0    0  0.39812093474E+01  0.79014077749E+00  0.97326544242E+01  0.10545089507E+02  0.51100000000E-03 0. -1.
        -11    1    3    3    0    0  0.66237542706E+01 -0.76718500587E+01  0.43138157877E+01  0.11015462354E+02  0.51100000000E-03 0.  1.
        -12    1    3    3    0    0 -0.13568085416E+02 -0.18918809698E+02  0.17238005594E+02  0.28968312673E+02  0.00000000000E+00 0.  1.
</event>
<event>
 7    1  0.2974434E-011  0.5052886E+02  0.7816164E-02  0.1300439E+00
        -11   -1    0    0    0    0  0.00000000000E+00  0.00000000000E+00  0.45593999997E+02  0.45594000000E+02  0.51100000000E-03 0. -1.
         11   -1    0    0    0    0 -0.00000000000E+00 -0.00000000000E+00 -0.45593999997E+02  0.45594000000E+02  0.51100000000E-03 0.  1.
    9900012    2    1    2    0    0  0.36553392682E+02  0.17738748137E+02  0.15337036745E+01  0.50528856514E+02  0.29999989861E+02 0.  0.
        -12    1    1    2    0    0 -0.36553392682E+02 -0.17738748137E+02 -0.15337036745E+01  0.40659143486E+02  0.00000000000E+00 0.  1.
         11    1    3    3    0    0  0.15424960224E+02  0.33872518058E+01  0.17027533937E+01  0.15884024745E+02  0.51100000000E-03 0. -1.
        -11    1    3    3    0    0  0.13450464012E+02  0.80604230085E+01  0.11410655193E+02  0.19393000114E+02  0.51100000000E-03 0.  1.
        -12    1    3    3    0    0  0.76779684463E+01  0.62910733225E+01 -0.11579704912E+02  0.15251831656E+02  0.00000000000E+00 0.  1.
</event>
<event>
 7    1  0.2974434E-011  0.5052888E+02  0.7816164E-02  0.1300439E+00
        -11   -1    0    0    0    0  0.00000000000E+00  0.00000000000E+00  0.45593999997E+02  0.45594000000E+02  0.51100000000E-03 0. -1.
         11   -1    0    0    0    0 -0.00000000000E+00 -0.00000000000E+00 -0.45593999997E+02  0.45594000000E+02  0.51100000000E-03 0.  1.
    9900012    2    1    2    0    0  0.22739987115E+02 -0.67361504961E+01  0.33025460857E+02  0.50528882913E+02  0.30000070101E+02 0.  0.
        -12    1    1    2    0    0 -0.22739987115E+02  0.67361504961E+01 -0.33025460857E+02  0.40659117087E+02  0.00000000000E+00 0.  1.
         11    1    3    3    0    0  0.19910066520E+02 -0.16537983359E+00  0.21674848743E+02  0.29431907305E+02  0.51100000000E-03 0. -1.
        -11    1    3    3    0    0  0.24315086892E+01  0.51213944137E+01  0.16644324534E+01  0.59085743542E+01  0.51100000000E-03 0.  1.
         12    1    3    3    0    0  0.39841190569E+00 -0.11692165076E+02  0.96861796608E+01  0.15188401253E+02  0.00000000000E+00 0. -1.
</event>
<event>
 7    1  0.2974434E-011  0.5052886E+02  0.7816164E-02  0.1300439E+00
        -11   -1    0    0    0    0  0.00000000000E+00  0.00000000000E+00  0.45593999997E+02  0.45594000000E+02  0.51100000000E-03 0.  1.
         11   -1    0    0    0    0 -0.00000000000E+00 -0.00000000000E+00 -0.45593999997E+02  0.45594000000E+02  0.51100000000E-03 0. -1.
    9900012    2    1    2    0    0  0.41744971075E+01 -0.12381881746E+02 -0.38502313412E+02  0.50528861301E+02  0.30000004411E+02 0.  0.
        -12    1    1    2    0    0 -0.41744971075E+01  0.12381881746E+02  0.38502313412E+02  0.40659138699E+02  0.00000000000E+00 0.  1.
         11    1    3    3    0    0  0.95995430340E+00 -0.60465444874E+01 -0.31503249383E+02  0.32092630532E+02  0.51100000000E-03 0. -1.
        -11    1    3    3    0    0 -0.34328714233E+01  0.31243522314E+01 -0.47810130408E+01  0.66636528295E+01  0.51100000000E-03 0.  1.
        -12    1    3    3    0    0  0.66474142274E+01 -0.94596894903E+01 -0.22180509878E+01  0.11772577940E+02  0.00000000000E+00 0.  1.
</event>
<event>
 7    1  0.2974434E-011  0.5052886E+02  0.7816164E-02  0.1300439E+00
        -11   -1    0    0    0    0  0.00000000000E+00  0.00000000000E+00  0.45593999997E+02  0.45594000000E+02  0.51100000000E-03 0.  1.
         11   -1    0    0    0    0 -0.00000000000E+00 -0.00000000000E+00 -0.45593999997E+02  0.45594000000E+02  0.51100000000E-03 0. -1.
    9900012    2    1    2    0    0 -0.22755898784E+02 -0.18277951307E+02 -0.28306375517E+02  0.50528864146E+02  0.30000013059E+02 0.  0.
        -12    1    1    2    0    0  0.22755898784E+02  0.18277951307E+02  0.28306375517E+02  0.40659135854E+02  0.00000000000E+00 0.  1.
         11    1    3    3    0    0 -0.31013029917E+01  0.10423898219E+01 -0.50660456926E+00  0.33107861964E+01  0.51100000000E-03 0. -1.
        -11    1    3    3    0    0 -0.14466039304E+02  0.14224574815E+01 -0.36980060923E+01  0.14998830879E+02  0.51100000000E-03 0.  1.
         12    1    3    3    0    0 -0.51885564885E+01 -0.20742798610E+02 -0.24101764856E+02  0.32219247071E+02  0.00000000000E+00 0. -1.
</event>
<event>
 7    1  0.2974434E-011  0.5052886E+02  0.7816164E-02  0.1300439E+00
        -11   -1    0    0    0    0  0.00000000000E+00  0.00000000000E+00  0.45593999997E+02  0.45594000000E+02  0.51100000000E-03 0.  1.
         11   -1    0    0    0    0 -0.00000000000E+00 -0.00000000000E+00 -0.45593999997E+02  0.45594000000E+02  0.51100000000E-03 0. -1.
    9900012    2    1    2    0    0  0.21876599137E+02 -0.28314227136E+02 -0.19310223629E+02  0.50528858534E+02  0.29999996001E+02 0.  0.
        -12    1    1    2    0    0 -0.21876599137E+02  0.28314227136E+02  0.19310223629E+02  0.40659141466E+02  0.00000000000E+00 0.  1.
         11    1    3    3    0    0  0.30891918376E+01 -0.48961111855E+01 -0.39085818284E+01  0.69851287119E+01  0.51100000000E-03 0.  1.
        -11    1    3    3    0    0 -0.63320869788E+01 -0.10241781840E+02 -0.71427788154E+01  0.14000311077E+02  0.51100000000E-03 0. -1.
        -12    1    3    3    0    0  0.25119494279E+02 -0.13176334110E+02 -0.82588629855E+01  0.29543418746E+02  0.00000000000E+00 0.  1.
</event>
<event>
 7    1  0.2974434E-011  0.5052886E+02  0.7816164E-02  0.1300439E+00
        -11   -1    0    0    0    0  0.00000000000E+00  0.00000000000E+00  0.45593999997E+02  0.45594000000E+02  0.51100000000E-03 0.  1.
         11   -1    0    0    0    0 -0.00000000000E+00 -0.00000000000E+00 -0.45593999997E+02  0.45594000000E+02  0.51100000000E-03 0. -1.
    9900012    2    1    2    0    0 -0.18580960891E+02 -0.36982162211E+01 -0.35975501100E+02  0.50528860926E+02  0.30000003270E+02 0.  0.
        -12    1    1    2    0    0  0.18580960891E+02  0.36982162211E+01  0.35975501100E+02  0.40659139074E+02  0.00000000000E+00 0.  1.
         11    1    3    3    0    0 -0.28617494643E+01  0.14208239198E+01 -0.51677463563E+01  0.60756854158E+01  0.51100000000E-03 0. -1.
        -11    1    3    3    0    0 -0.14979725405E+02  0.87103273432E+01 -0.22141730371E+02  0.28116155494E+02  0.51100000000E-03 0.  1.
        -12    1    3    3    0    0 -0.73948602082E+00 -0.13829367484E+02 -0.86660243730E+01  0.16337020016E+02  0.00000000000E+00 0.  1.
</event>
<event>
 7    1  0.2974434E-011  0.5052887E+02  0.7816164E-02  0.1300439E+00
        -11   -1    0    0    0    0  0.00000000000E+00  0.00000000000E+00  0.45593999997E+02  0.45594000000E+02  0.51100000000E-03 0. -1.
         11   -1    0    0    0    0 -0.00000000000E+00 -0.00000000000E+00 -0.45593999997E+02  0.45594000000E+02  0.51100000000E-03 0.  1.
    9900012    2    1    2    0    0  0.32654487567E+02 -0.24156008050E+02 -0.18265825729E+01  0.50528872032E+02  0.30000037029E+02 0.  0.
        -12    1    1    2    0    0 -0.32654487567E+02  0.24156008050E+02  0.18265825729E+01  0.40659127968E+02  0.00000000000E+00 0.  1.
         11    1    3    3    0    0  0.12156707414E+02 -0.15656588551E+02 -0.65005769774E+01  0.20860771833E+02  0.51100000000E-03 0. -1.
        -11    1    3    3    0    0  0.93334790108E-01 -0.79191280614E+01 -0.20424879957E+01  0.81788176474E+01  0.51100000000E-03 0.  1.
         12    1    3    3    0    0  0.20404445363E+02 -0.58029143820E+00  0.67164824002E+01  0.21489282551E+02  0.00000000000E+00 0. -1.
</event>
<event>
 7    1  0.2974434E-011  0.5052872E+02  0.7816164E-02  0.1300439E+00
        -11   -1    0    0    0    0  0.00000000000E+00  0.00000000000E+00  0.45593999997E+02  0.45594000000E+02  0.51100000000E-03 0. -1.
         11   -1    0    0    0    0 -0.00000000000E+00 -0.00000000000E+00 -0.45593999997E+02  0.45594000000E+02  0.51100000000E-03 0.  1.
    9900012    2    1    2    0    0  0.19327510969E+02  0.33009627137E+02  0.13783643848E+02  0.50528720595E+02  0.29999576717E+02 0.  0.
        -12    1    1    2    0    0 -0.19327510969E+02 -0.33009627137E+02 -0.13783643848E+02  0.40659279405E+02  0.00000000000E+00 0.  1.
         11    1    3    3    0    0  0.37660712747E+01  0.27341062275E+02  0.92501653539E+01  0.29108118086E+02  0.51100000000E-03 0. -1.
        -11    1    3    3    0    0  0.57793404827E+00  0.45498032872E+01 -0.20409595851E+01  0.50199834666E+01  0.51100000000E-03 0.  1.
        -12    1    3    3    0    0  0.14983505646E+02  0.11187615752E+01  0.65744380795E+01  0.16400619042E+02  0.00000000000E+00 0.  1.
</event>
<event>
 7    1  0.2974434E-011  0.5052897E+02  0.7816164E-02  0.1300438E+00
        -11   -1    0    0    0    0  0.00000000000E+00  0.00000000000E+00  0.45593999997E+02  0.45594000000E+02  0.51100000000E-03 0.  1.
         11   -1    0    0    0    0 -0.00000000000E+00 -0.00000000000E+00 -0.45593999997E+02  0.45594000000E+02  0.51100000000E-03 0. -1.
    9900012    2    1    2    0    0  0.42694941665E+01  0.37379955206E+02  0.15416459891E+02  0.50528968196E+02  0.30000329328E+02 0.  0.
        -12    1    1    2    0    0 -0.42694941665E+01 -0.37379955206E+02 -0.15416459891E+02  0.40659031804E+02  0.00000000000E+00 0.  1.
         11    1    3    3    0    0 -0.16683939694E+01  0.19435552291E+00  0.45389094079E+00  0.17399223413E+01  0.51100000000E-03 0. -1.
        -11    1    3    3    0    0 -0.10929523557E+02  0.15337135218E+02  0.57900954737E+01  0.19702979666E+02  0.51100000000E-03 0.  1.
         12    1    3    3    0    0  0.16867411692E+02  0.21848464465E+02  0.91724734760E+01  0.29086066189E+02  0.00000000000E+00 0. -1.
</event>
<event>
 7    1  0.2974434E-011  0.5052886E+02  0.7816164E-02  0.1300439E+00
        -11   -1    0    0    0    0  0.00000000000E+00  0.00000000000E+00  0.45593999997E+02  0.45594000000E+02  0.51100000000E-03 0. -1.
         11   -1    0    0    0    0 -0.00000000000E+00 -0.00000000000E+00 -0.45593999997E+02  0.45594000000E+02  0.51100000000E-03 0.  1.
    9900012    2    1    2    0    0  0.21740576629E+02 -0.34035244572E+02  0.47026730664E+01  0.50528859832E+02  0.29999999945E+02 0.  0.
        -12    1    1    2    0    0 -0.21740576629E+02  0.34035244572E+02 -0.47026730664E+01  0.40659140168E+02  0.00000000000E+00 0.  1.
         11    1    3    3    0    0  0.11389715763E+02 -0.73697171732E+01 -0.34456813343E+01  0.13996823800E+02  0.51100000000E-03 0. -1.
        -11    1    3    3    0    0  0.41558836446E+01 -0.75652070362E+01 -0.72142784919E+01  0.11249424020E+02  0.51100000000E-03 0.  1.
         12    1    3    3    0    0  0.61949772219E+01 -0.19100320363E+02  0.15362632893E+02  0.25282612012E+02  0.00000000000E+00 0. -1.
</event>
<event>
 7    1  0.2974434E-011  0.5052886E+02  0.7816164E-02  0.1300439E+00
        -11   -1    0    0    0    0  0.00000000000E+00  0.00000000000E+00  0.45593999997E+02  0.45594000000E+02  0.51100000000E-03 0.  1.
         11   -1    0    0    0    0 -0.00000000000E+00 -0.00000000000E+00 -0.45593999997E+02  0.45594000000E+02  0.51100000000E-03 0. -1.
    9900012    2    1    2    0    0 -0.34108241599E+02 -0.10127681257E+02 -0.19677995403E+02  0.50528861105E+02  0.30000003815E+02 0.  0.
        -12    1    1    2    0    0  0.34108241599E+02  0.10127681257E+02  0.19677995403E+02  0.40659138895E+02  0.00000000000E+00 0.  1.
         11    1    3    3    0    0 -0.23191732708E+02 -0.17055436417E+01 -0.73122011404E+01  0.24376907738E+02  0.51100000000E-03 0. -1.
        -11    1    3    3    0    0 -0.42736056131E+01  0.47738701237E+01 -0.89182888487E+01  0.10981321284E+02  0.51100000000E-03 0.  1.
        -12    1    3    3    0    0 -0.66429032782E+01 -0.13196007739E+02 -0.34475054136E+01  0.15170632083E+02  0.00000000000E+00 0.  1.
</event>
<event>
 7    1  0.2974434E-011  0.5052885E+02  0.7816164E-02  0.1300439E+00
        -11   -1    0    0    0    0  0.00000000000E+00  0.00000000000E+00  0.45593999997E+02  0.45594000000E+02  0.51100000000E-03 0. -1.
         11   -1    0    0    0    0 -0.00000000000E+00 -0.00000000000E+00 -0.45593999997E+02  0.45594000000E+02  0.51100000000E-03 0.  1.
    9900012    2    1    2    0    0 -0.24449548656E+02 -0.24727335854E+02  0.21069996620E+02  0.50528851885E+02  0.29999975789E+02 0.  0.
        -12    1    1    2    0    0  0.24449548656E+02  0.24727335854E+02 -0.21069996620E+02  0.40659148115E+02  0.00000000000E+00 0.  1.
         11    1    3    3    0    0 -0.34233348302E+01 -0.53504628304E+01 -0.12194525836E+01  0.64679006427E+01  0.51100000000E-03 0. -1.
        -11    1    3    3    0    0 -0.17775972434E+02 -0.25147119384E+02  0.15141546876E+02  0.34316603144E+02  0.51100000000E-03 0.  1.
        -12    1    3    3    0    0 -0.32502413918E+01  0.57702463608E+01  0.71479023275E+01  0.97443480978E+01  0.00000000000E+00 0.  1.
</event>
<event>
 7    1  0.2974434E-011  0.5052876E+02  0.7816164E-02  0.1300439E+00
        -11   -1    0    0    0    0  0.00000000000E+00  0.00000000000E+00  0.45593999997E+02  0.45594000000E+02  0.51100000000E-03 0.  1.
         11   -1    0    0    0    0 -0.00000000000E+00 -0.00000000000E+00 -0.45593999997E+02  0.45594000000E+02  0.51100000000E-03 0. -1.
    9900012    2    1    2    0    0 -0.38066366120E+02  0.93401998755E+01  0.10811405733E+02  0.50528756804E+02  0.29999686781E+02 0.  0.
        -12    1    1    2    0    0  0.38066366120E+02 -0.93401998755E+01 -0.10811405733E+02  0.40659243196E+02  0.00000000000E+00 0.  1.
         11    1    3    3    0    0 -0.11845026881E+02 -0.46796399643E+01  0.52090216698E+01  0.13759999964E+02  0.51100000000E-03 0. -1.
        -11    1    3    3    0    0 -0.23101708493E+01  0.39790381911E+01 -0.66498180352E+01  0.80863906931E+01  0.51100000000E-03 0.  1.
        -12    1    3    3    0    0 -0.23911168390E+02  0.10040801649E+02  0.12252202098E+02  0.28682366147E+02  0.00000000000E+00 0.  1.
</event>
<event>
 7    1  0.4880323E-011  0.5052886E+02  0.7816164E-02  0.1300439E+00
        -11   -1    0    0    0    0  0.00000000000E+00  0.00000000000E+00  0.45593999997E+02  0.45594000000E+02  0.51100000000E-03 0. -1.
         11   -1    0    0    0    0 -0.00000000000E+00 -0.00000000000E+00 -0.45593999997E+02  0.45594000000E+02  0.51100000000E-03 0.  1.
    9900012    2    1    2    0    0  0.19885341337E+02  0.20006992518E+02  0.29282402676E+02  0.50528860115E+02  0.30000000806E+02 0.  0.
        -12    1    1    2    0    0 -0.19885341337E+02 -0.20006992518E+02 -0.29282402676E+02  0.40659139885E+02  0.00000000000E+00 0.  1.
         11    1    3    3    0    0  0.18824161671E+02  0.13470112536E+02  0.25995058575E+02  0.34807126639E+02  0.51100000000E-03 0. -1.
        -11    1    3    3    0    0  0.71791598187E+01  0.55913946682E+01  0.27584243120E+01  0.95085716584E+01  0.51100000000E-03 0.  1.
        -12    1    3    3    0    0 -0.61179801523E+01  0.94548531434E+00  0.52891978887E+00  0.62131618172E+01  0.00000000000E+00 0.  1.
</event>
<event>
 7    1  0.2974434E-011  0.5052886E+02  0.7816164E-02  0.1300439E+00
        -11   -1    0    0    0    0  0.00000000000E+00  0.00000000000E+00  0.45593999997E+02  0.45594000000E+02  0.51100000000E-03 0.  1.
         11   -1    0    0    0    0 -0.00000000000E+00 -0.00000000000E+00 -0.45593999997E+02  0.45594000000E+02  0.51100000000E-03 0. -1.
    9900012    2    1    2    0    0  0.23182129010E+02 -0.27852140863E+02 -0.18439437135E+02  0.50528859601E+02  0.29999999245E+02 0.  0.
        -12    1    1    2    0    0 -0.23182129010E+02  0.27852140863E+02  0.18439437135E+02  0.40659140399E+02  0.00000000000E+00 0.  1.
         11    1    3    3    0    0  0.23364980300E+01  0.20487126502E+01 -0.18568441412E+01  0.36199885349E+01  0.51100000000E-03 0. -1.
        -11    1    3    3    0    0  0.78916622396E+01 -0.37532028541E+01 -0.15397258265E+02  0.17704248837E+02  0.51100000000E-03 0.  1.
         12    1    3    3    0    0  0.12953968740E+02 -0.26147650659E+02 -0.11853347290E+01  0.29204622229E+02  0.00000000000E+00 0. -1.
</event>
<event>
 7    1  0.2974434E-011  0.5052886E+02  0.7816164E-02  0.1300439E+00
        -11   -1    0    0    0    0  0.00000000000E+00  0.00000000000E+00  0.45593999997E+02  0.45594000000E+02  0.51100000000E-03 0. -1.
         11   -1    0    0    0    0 -0.00000000000E+00 -0.00000000000E+00 -0.45593999997E+02  0.45594000000E+02  0.51100000000E-03 0.  1.
    9900012    2    1    2    0    0  0.32350830407E+02 -0.21502291052E+02  0.12010022154E+02  0.50528863503E+02  0.30000011105E+02 0.  0.
        -12    1    1    2    0    0 -0.32350830407E+02  0.21502291052E+02 -0.12010022154E+02  0.40659136497E+02  0.00000000000E+00 0.  1.
         11    1    3    3    0    0  0.23933232763E+02 -0.62903953481E+01  0.16837248904E+01  0.24803298851E+02  0.51100000000E-03 0. -1.
        -11    1    3    3    0    0  0.49004077950E+01  0.24782621307E+01  0.30050214044E+01  0.62598669034E+01  0.51100000000E-03 0.  1.
         12    1    3    3    0    0  0.35171898492E+01 -0.17690157835E+02  0.73212758591E+01  0.19465697749E+02  0.00000000000E+00 0. -1.
</event>
<event>
 7    1  0.2974434E-011  0.5052886E+02  0.7816164E-02  0.1300439E+00
        -11   -1    0    0    0    0  0.00000000000E+00  0.00000000000E+00  0.45593999997E+02  0.45594000000E+02  0.51100000000E-03 0. -1.
         11   -1    0    0    0    0 -0.00000000000E+00 -0.00000000000E+00 -0.45593999997E+02  0.45594000000E+02  0.51100000000E-03 0.  1.
    9900012    2    1    2    0    0 -0.16161416394E+02  0.31372756975E+02 -0.20192190657E+02  0.50528858057E+02  0.29999994549E+02 0.  0.
        -12    1    1    2    0    0  0.16161416394E+02 -0.31372756975E+02  0.20192190657E+02  0.40659141943E+02  0.00000000000E+00 0.  1.
         11    1    3    3    0    0 -0.13026276263E+02  0.95418523853E+01 -0.67937159211E+01  0.17518144779E+02  0.51100000000E-03 0. -1.
        -11    1    3    3    0    0 -0.33274949198E+01  0.25428248060E+02 -0.86798723668E+01  0.27074124297E+02  0.51100000000E-03 0.  1.
        -12    1    3    3    0    0  0.19235478885E+00 -0.35973434710E+01 -0.47186023689E+01  0.59365889810E+01  0.00000000000E+00 0.  1.
</event>
<event>
 7    1  0.2974434E-011  0.5052884E+02  0.7816164E-02  0.1300439E+00
        -11   -1    0    0    0    0  0.00000000000E+00  0.00000000000E+00  0.45593999997E+02  0.45594000000E+02  0.51100000000E-03 0.  1.
         11   -1    0    0    0    0 -0.00000000000E+00 -0.00000000000E+00 -0.45593999997E+02  0.45594000000E+02  0.51100000000E-03 0. -1.
    9900012    2    1    2    0    0  0.11584015144E+02 -0.37401596323E+02  0.10958939530E+02  0.50528841499E+02  0.29999944221E+02 0.  0.
        -12    1    1    2    0    0 -0.11584015144E+02  0.37401596323E+02 -0.10958939530E+02  0.40659158501E+02  0.00000000000E+00 0.  1.
         11    1    3    3    0    0  0.69031516384E+01 -0.14809397310E+02 -0.32470407067E+01  0.16658782213E+02  0.51100000000E-03 0. -1.
        -11    1    3    3    0    0  0.71187342320E+01  0.63894397685E+00  0.51847715003E+01  0.88298630931E+01  0.51100000000E-03 0.  1.
         12    1    3    3    0    0 -0.24378707259E+01 -0.23231142990E+02  0.90212087360E+01  0.25040196193E+02  0.00000000000E+00 0. -1.
</event>
<event>
 7    1  0.2974434E-011  0.5052888E+02  0.7816164E-02  0.1300439E+00
        -11   -1    0    0    0    0  0.00000000000E+00  0.00000000000E+00  0.45593999997E+02  0.45594000000E+02  0.51100000000E-03 0.  1.
         11   -1    0    0    0    0 -0.00000000000E+00 -0.00000000000E+00 -0.45593999997E+02  0.45594000000E+02  0.51100000000E-03 0. -1.
    9900012    2    1    2    0    0  0.33498342491E+02  0.17179327520E+02 -0.15358906466E+02  0.50528877389E+02  0.30000053312E+02 0.  0.
        -12    1    1    2    0    0 -0.33498342491E+02 -0.17179327520E+02  0.15358906466E+02  0.40659122611E+02  0.00000000000E+00 0.  1.
         11    1    3    3    0    0  0.21054673065E+02  0.23436009516E+02 -0.12901182655E+02  0.34043888057E+02  0.51100000000E-03 0. -1.
        -11    1    3    3    0    0  0.86137469146E+01  0.37272849113E+00 -0.17360499893E+01  0.87948526004E+01  0.51100000000E-03 0.  1.
        -12    1    3    3    0    0  0.38299225112E+01 -0.66294104871E+01 -0.72167382178E+00  0.76901367317E+01  0.00000000000E+00 0.  1.
</event>
<event>
 7    1  0.2974434E-011  0.5052886E+02  0.7816164E-02  0.1300439E+00
        -11   -1    0    0    0    0  0.00000000000E+00  0.00000000000E+00  0.45593999997E+02  0.45594000000E+02  0.51100000000E-03 0.  1.
         11   -1    0    0    0    0 -0.00000000000E+00 -0.00000000000E+00 -0.45593999997E+02  0.45594000000E+02  0.51100000000E-03 0. -1.
    9900012    2    1    2    0    0  0.30666889272E+02 -0.15481196913E+02 -0.21749484621E+02  0.50528860354E+02  0.30000001533E+02 0.  0.
        -12    1    1    2    0    0 -0.30666889272E+02  0.15481196913E+02  0.21749484621E+02  0.40659139646E+02  0.00000000000E+00 0.  1.
         11    1    3    3    0    0  0.12747392744E+02 -0.13082294086E+02 -0.19881161924E+01  0.18373759729E+02  0.51100000000E-03 0. -1.
        -11    1    3    3    0    0  0.20723605167E+02 -0.52010335457E+01 -0.17269126106E+02  0.27472554992E+02  0.51100000000E-03 0.  1.
         12    1    3    3    0    0 -0.28041086386E+01  0.28021307184E+01 -0.24922423225E+01  0.46825456340E+01  0.00000000000E+00 0. -1.
</event>
<event>
 7    1  0.2974434E-011  0.5052886E+02  0.7816164E-02  0.1300439E+00
        -11   -1    0    0    0    0  0.00000000000E+00  0.00000000000E+00  0.45593999997E+02  0.45594000000E+02  0.51100000000E-03 0.  1.
         11   -1    0    0    0    0 -0.00000000000E+00 -0.00000000000E+00 -0.45593999997E+02  0.45594000000E+02  0.51100000000E-03 0. -1.
    9900012    2    1    2    0    0 -0.20362062076E+02  0.20586048094E+02 -0.28544115623E+02  0.50528862222E+02  0.30000007211E+02 0.  0.
        -12    1    1    2    0    0  0.20362062076E+02 -0.20586048094E+02  0.28544115623E+02  0.40659137778E+02  0.00000000000E+00 0.  1.
         11    1    3    3    0    0 -0.53425889455E+01  0.16457265007E+02 -0.60605014214E+01  0.18333425918E+02  0.51100000000E-03 0. -1.
        -11    1    3    3    0    0  0.35146524901E+01  0.88144164354E+00 -0.67778781950E+01  0.76856590208E+01  0.51100000000E-03 0.  1.
        -12    1    3    3    0    0 -0.18534125621E+02  0.32473414438E+01 -0.15705736007E+02  0.24509777283E+02  0.00000000000E+00 0.  1.
</event>
<event>
 7    1  0.2974434E-011  0.5052886E+02  0.7816164E-02  0.1300439E+00
        -11   -1    0    0    0    0  0.00000000000E+00  0.00000000000E+00  0.45593999997E+02  0.45594000000E+02  0.51100000000E-03 0.  1.
         11   -1    0    0    0    0 -0.00000000000E+00 -0.00000000000E+00 -0.45593999997E+02  0.45594000000E+02  0.51100000000E-03 0. -1.
    9900012    2    1    2    0    0  0.15538239162E+02  0.39804819272E+01 -0.37361538226E+02  0.50528860176E+02  0.30000000992E+02 0.  0.
        -12    1    1    2    0    0 -0.15538239162E+02 -0.39804819272E+01  0.37361538226E+02  0.40659139824E+02  0.00000000000E+00 0.  1.
         11    1    3    3    0    0  0.62749348425E+01 -0.95165544642E+00 -0.48030377100E+01  0.79592478835E+01  0.51100000000E-03 0. -1.
        -11    1    3    3    0    0  0.15138524548E+02  0.12126239869E+00 -0.85450217605E+01  0.17384102715E+02  0.51100000000E-03 0.  1.
         12    1    3    3    0    0 -0.58752202287E+01  0.48108749749E+01 -0.24013478755E+02  0.25185509577E+02  0.00000000000E+00 0. -1.
</event>
<event>
 7    1  0.2974434E-011  0.5052889E+02  0.7816164E-02  0.1300439E+00
        -11   -1    0    0    0    0  0.00000000000E+00  0.00000000000E+00  0.45593999997E+02  0.45594000000E+02  0.51100000000E-03 0.  1.
         11   -1    0    0    0    0 -0.00000000000E+00 -0.00000000000E+00 -0.45593999997E+02  0.45594000000E+02  0.51100000000E-03 0. -1.
    9900012    2    1    2    0    0  0.11716060884E+02 -0.21881260597E+02  0.32204157600E+02  0.50528887680E+02  0.30000084592E+02 0.  0.
        -12    1    1    2    0    0 -0.11716060884E+02  0.21881260597E+02 -0.32204157600E+02  0.40659112320E+02  0.00000000000E+00 0.  1.
         11    1    3    3    0    0  0.64531614634E+01 -0.74612109202E+01  0.52574786062E+01  0.11178284431E+02  0.51100000000E-03 0. -1.
        -11    1    3    3    0    0  0.10149685181E+02 -0.19195851794E+02  0.22031049340E+02  0.30933217917E+02  0.51100000000E-03 0.  1.
         12    1    3    3    0    0 -0.48867857605E+01  0.47758021181E+01  0.49156296533E+01  0.84173853321E+01  0.00000000000E+00 0. -1.
</event>
<event>
 7    1  0.2974434E-011  0.5052886E+02  0.7816164E-02  0.1300439E+00
        -11   -1    0    0    0    0  0.00000000000E+00  0.00000000000E+00  0.45593999997E+02  0.45594000000E+02  0.51100000000E-03 0.  1.
         11   -1    0    0    0    0 -0.00000000000E+00 -0.00000000000E+00 -0.45593999997E+02  0.45594000000E+02  0.51100000000E-03 0. -1.
    9900012    2    1    2    0    0  0.14766451109E+02 -0.28106696582E+02 -0.25399434911E+02  0.50528858778E+02  0.29999996741E+02 0.  0.
        -12    1    1    2    0    0 -0.14766451109E+02  0.28106696582E+02  0.25399434911E+02  0.40659141222E+02  0.00000000000E+00 0.  1.
         11    1    3    3    0    0 -0.12284818297E+00 -0.11900480285E+02 -0.12622978641E+01  0.11967870272E+02  0.51100000000E-03 0. -1.
        -11    1    3    3    0    0  0.59093354291E+01 -0.11645024978E+02 -0.73012716683E+00  0.13078988413E+02  0.51100000000E-03 0.  1.
         12    1    3    3    0    0  0.89799638632E+01 -0.45611913190E+01 -0.23407009880E+02  0.25482000093E+02  0.00000000000E+00 0. -1.
</event>
<event>
 7    1  0.2974434E-011  0.5052886E+02  0.7816164E-02  0.1300439E+00
        -11   -1    0    0    0    0  0.00000000000E+00  0.00000000000E+00  0.45593999997E+02  0.45594000000E+02  0.51100000000E-03 0.  1.
         11   -1    0    0    0    0 -0.00000000000E+00 -0.00000000000E+00 -0.45593999997E+02  0.45594000000E+02  0.51100000000E-03 0. -1.
    9900012    2    1    2    0    0  0.25445357810E+02 -0.26149623802E+02  0.17941476778E+02  0.50528860215E+02  0.30000001110E+02 0.  0.
        -12    1    1    2    0    0 -0.25445357810E+02  0.26149623802E+02 -0.17941476778E+02  0.40659139785E+02  0.00000000000E+00 0.  1.
         11    1    3    3    0    0  0.11238111501E+02 -0.56605358190E+01  0.13551778091E+02  0.18492904195E+02  0.51100000000E-03 0. -1.
        -11    1    3    3    0    0  0.10993697216E+02 -0.51855492434E+00 -0.11440656149E+01  0.11065223182E+02  0.51100000000E-03 0.  1.
         12    1    3    3    0    0  0.32135490931E+01 -0.19970533059E+02  0.55337643023E+01  0.20970732838E+02  0.00000000000E+00 0. -1.
</event>
<event>
 7    1  0.2974434E-011  0.5052895E+02  0.7816164E-02  0.1300438E+00
        -11   -1    0    0    0    0  0.00000000000E+00  0.00000000000E+00  0.45593999997E+02  0.45594000000E+02  0.51100000000E-03 0.  1.
         11   -1    0    0    0    0 -0.00000000000E+00 -0.00000000000E+00 -0.45593999997E+02  0.45594000000E+02  0.51100000000E-03 0. -1.
    9900012    2    1    2    0    0 -0.38163761257E+02  0.75601387775E+01 -0.11812294902E+02  0.50528945873E+02  0.30000261476E+02 0.  0.
        -12    1    1    2    0    0  0.38163761257E+02 -0.75601387775E+01  0.11812294902E+02  0.40659054127E+02  0.00000000000E+00 0.  1.
         11    1    3    3    0    0 -0.11875744255E+02  0.46375989050E+01 -0.47682422933E+01  0.13611640608E+02  0.51100000000E-03 0. -1.
        -11    1    3    3    0    0 -0.30468360450E+02  0.33945629428E+00 -0.31215503875E+01  0.30629728961E+02  0.51100000000E-03 0.  1.
        -12    1    3    3    0    0  0.41803434482E+01  0.25830835783E+01 -0.39225022213E+01  0.62875763051E+01  0.00000000000E+00 0.  1.
</event>
<event>
 7    1  0.2974434E-011  0.5052886E+02  0.7816164E-02  0.1300439E+00
        -11   -1    0    0    0    0  0.00000000000E+00  0.00000000000E+00  0.45593999997E+02  0.45594000000E+02  0.51100000000E-03 0.  1.
         11   -1    0    0    0    0 -0.00000000000E+00 -0.00000000000E+00 -0.45593999997E+02  0.45594000000E+02  0.51100000000E-03 0. -1.
    9900012    2    1    2    0    0 -0.38563210132E+02 -0.62993978711E+01 -0.11241087573E+02  0.50528860326E+02  0.30000001447E+02 0.  0.
        -12    1    1    2    0    0  0.38563210132E+02  0.62993978711E+01  0.11241087573E+02  0.40659139674E+02  0.00000000000E+00 0.  1.
         11    1    3    3    0    0 -0.20613937116E+02 -0.12999942666E+02 -0.15743950113E+02  0.29013873891E+02  0.51100000000E-03 0. -1.
        -11    1    3    3    0    0 -0.42952161524E+01  0.58695294244E+01  0.24938556166E+01  0.76889253837E+01  0.51100000000E-03 0.  1.
        -12    1    3    3    0    0 -0.13654056864E+02  0.83101537029E+00  0.20090069233E+01  0.13826061052E+02  0.00000000000E+00 0.  1.
</event>
<event>
 7    1  0.2974434E-011  0.5052885E+02  0.7816164E-02  0.1300439E+00
        -11   -1    0    0    0    0  0.00000000000E+00  0.00000000000E+00  0.45593999997E+02  0.45594000000E+02  0.51100000000E-03 0. -1.
         11   -1    0    0    0    0 -0.00000000000E+00 -0.00000000000E+00 -0.45593999997E+02  0.45594000000E+02  0.51100000000E-03 0.  1.
    9900012    2    1    2    0    0 -0.24986119094E+02 -0.22322025077E+02  0.23034490035E+02  0.50528847499E+02  0.29999962458E+02 0.  0.
        -12    1    1    2    0    0  0.24986119094E+02  0.22322025077E+02 -0.23034490035E+02  0.40659152501E+02  0.00000000000E+00 0.  1.
         11    1    3    3    0    0 -0.88273007158E+01 -0.21578815118E+01  0.12673423221E+02  0.15594657641E+02  0.51100000000E-03 0. -1.
        -11    1    3    3    0    0  0.21177431330E+01 -0.61970251062E+01 -0.41349816234E+01  0.77450648436E+01  0.51100000000E-03 0.  1.
         12    1    3    3    0    0 -0.18276561512E+02 -0.13967118459E+02  0.14496048437E+02  0.27189125014E+02  0.00000000000E+00 0. -1.
</event>
<event>
 7    1  0.2974434E-011  0.5052887E+02  0.7816164E-02  0.1300439E+00
        -11   -1    0    0    0    0  0.00000000000E+00  0.00000000000E+00  0.45593999997E+02  0.45594000000E+02  0.51100000000E-03 0.  1.
         11   -1    0    0    0    0 -0.00000000000E+00 -0.00000000000E+00 -0.45593999997E+02  0.45594000000E+02  0.51100000000E-03 0. -1.
    9900012    2    1    2    0    0 -0.20968914847E+02  0.72013357003E+01 -0.34082408126E+02  0.50528866101E+02  0.30000019002E+02 0.  0.
        -12    1    1    2    0    0  0.20968914847E+02 -0.72013357003E+01  0.34082408126E+02  0.40659133899E+02  0.00000000000E+00 0.  1.
         11    1    3    3    0    0 -0.14586877212E+02  0.35476180681E+01 -0.18446815358E+02  0.23783346650E+02  0.51100000000E-03 0. -1.
        -11    1    3    3    0    0  0.24023082682E+01  0.86039229190E+01 -0.13886805680E+02  0.16511872906E+02  0.51100000000E-03 0.  1.
        -12    1    3    3    0    0 -0.87843459033E+01 -0.49502052868E+01 -0.17487870870E+01  0.10233646545E+02  0.00000000000E+00 0.  1.
</event>
<event>
 7    1  0.2974434E-011  0.5052886E+02  0.7816164E-02  0.1300439E+00
        -11   -1    0    0    0    0  0.00000000000E+00  0.00000000000E+00  0.45593999997E+02  0.45594000000E+02  0.51100000000E-03 0.  1.
         11   -1    0    0    0    0 -0.00000000000E+00 -0.00000000000E+00 -0.45593999997E+02  0.45594000000E+02  0.51100000000E-03 0. -1.
    9900012    2    1    2    0    0  0.32008156796E+02 -0.21374630556E+02 -0.13106068834E+02  0.50528856218E+02  0.29999988959E+02 0.  0.
        -12    1    1    2    0    0 -0.32008156796E+02  0.21374630556E+02  0.13106068834E+02  0.40659143782E+02  0.00000000000E+00 0.  1.
         11    1    3    3    0    0  0.88943330395E+01  0.45514844742E+01 -0.11895233386E+01  0.10061815799E+02  0.51100000000E-03 0.  1.
        -11    1    3    3    0    0  0.57284001111E+01 -0.81890402505E+01 -0.12017870423E+02  0.15630232174E+02  0.51100000000E-03 0. -1.
         12    1    3    3    0    0  0.17385423645E+02 -0.17737074779E+02  0.10132492727E+00  0.24836808245E+02  0.00000000000E+00 0. -1.
</event>
<event>
 7    1  0.2974434E-011  0.5052887E+02  0.7816164E-02  0.1300439E+00
        -11   -1    0    0    0    0  0.00000000000E+00  0.00000000000E+00  0.45593999997E+02  0.45594000000E+02  0.51100000000E-03 0. -1.
         11   -1    0    0    0    0 -0.00000000000E+00 -0.00000000000E+00 -0.45593999997E+02  0.45594000000E+02  0.51100000000E-03 0.  1.
    9900012    2    1    2    0    0 -0.31083525259E+02  0.24134586829E+02  0.10222555578E+02  0.50528874745E+02  0.30000045276E+02 0.  0.
        -12    1    1    2    0    0  0.31083525259E+02 -0.24134586829E+02 -0.10222555578E+02  0.40659125255E+02  0.00000000000E+00 0.  1.
         11    1    3    3    0    0  0.13066506946E+00 -0.68595313216E+00  0.28460136096E+00  0.75405785964E+00  0.51100000000E-03 0.  1.
        -11    1    3    3    0    0 -0.11020614715E+02  0.22565062968E+02  0.14432744755E+02  0.28964463345E+02  0.51100000000E-03 0. -1.
         12    1    3    3    0    0 -0.20193575613E+02  0.22554769937E+01 -0.44947905379E+01  0.20810353541E+02  0.00000000000E+00 0. -1.
</event>
<event>
 7    1  0.2974434E-011  0.5052886E+02  0.7816164E-02  0.1300439E+00
        -11   -1    0    0    0    0  0.00000000000E+00  0.00000000000E+00  0.45593999997E+02  0.45594000000E+02  0.51100000000E-03 0.  1.
         11   -1    0    0    0    0 -0.00000000000E+00 -0.00000000000E+00 -0.45593999997E+02  0.45594000000E+02  0.51100000000E-03 0. -1.
    9900012    2    1    2    0    0 -0.38572565496E+01  0.28361137598E+02 -0.28877893201E+02  0.50528864868E+02  0.30000015254E+02 0.  0.
        -12    1    1    2    0    0  0.38572565496E+01 -0.28361137598E+02  0.28877893201E+02  0.40659135132E+02  0.00000000000E+00 0.  1.
         11    1    3    3    0    0 -0.25193128391E+01  0.13946233762E+02 -0.13850595235E+02  0.19816239854E+02  0.51100000000E-03 0. -1.
        -11    1    3    3    0    0 -0.10080241501E+02  0.14182650631E+02 -0.13040828218E+02  0.21744471678E+02  0.51100000000E-03 0.  1.
        -12    1    3    3    0    0  0.87422977910E+01  0.23225320451E+00 -0.19864697477E+01  0.89681533370E+01  0.00000000000E+00 0.  1.
</event>
<event>
 7    1  0.2974434E-011  0.5052886E+02  0.7816164E-02  0.1300439E+00
        -11   -1    0    0    0    0  0.00000000000E+00  0.00000000000E+00  0.45593999997E+02  0.45594000000E+02  0.51100000000E-03 0.  1.
         11   -1    0    0    0    0 -0.00000000000E+00 -0.00000000000E+00 -0.45593999997E+02  0.45594000000E+02  0.51100000000E-03 0. -1.
    9900012    2    1    2    0    0  0.28708506402E+02 -0.74694131085E+01 -0.27806391614E+02  0.50528857281E+02  0.29999992192E+02 0.  0.
        -12    1    1    2    0    0 -0.28708506402E+02  0.74694131085E+01  0.27806391614E+02  0.40659142719E+02  0.00000000000E+00 0.  1.
         11    1    3    3    0    0  0.79432863176E+01  0.74144190399E+01 -0.17733354454E+02  0.20797626491E+02  0.51100000000E-03 0. -1.
        -11    1    3    3    0    0  0.17401588559E+02 -0.69458134513E+01 -0.97079907026E+01  0.21102243781E+02  0.51100000000E-03 0.  1.
        -12    1    3    3    0    0  0.33636315258E+01 -0.79380186971E+01 -0.36504645785E+00  0.86289870085E+01  0.00000000000E+00 0.  1.
</event>
<event>
 7    1  0.2974434E-011  0.5052886E+02  0.7816164E-02  0.1300439E+00
        -11   -1    0    0    0    0  0.00000000000E+00  0.00000000000E+00  0.45593999997E+02  0.45594000000E+02  0.51100000000E-03 0.  1.
         11   -1    0    0    0    0 -0.00000000000E+00 -0.00000000000E+00 -0.45593999997E+02  0.45594000000E+02  0.51100000000E-03 0. -1.
    9900012    2    1    2    0    0 -0.36159541460E+02 -0.16252435267E+02 -0.90283626683E+01  0.50528862980E+02  0.30000009514E+02 0.  0.
        -12    1    1    2    0    0  0.36159541460E+02  0.16252435267E+02  0.90283626683E+01  0.40659137020E+02  0.00000000000E+00 0.  1.
         11    1    3    3    0    0 -0.16062616731E+02 -0.13395683828E+02  0.39539349639E+01  0.21285807559E+02  0.51100000000E-03 0. -1.
        -11    1    3    3    0    0 -0.44670013910E+01 -0.81670761429E+01 -0.71418701885E+01  0.11732925645E+02  0.51100000000E-03 0.  1.
         12    1    3    3    0    0 -0.15629923338E+02  0.53103247041E+01 -0.58404274436E+01  0.17510129775E+02  0.00000000000E+00 0. -1.
</event>
<event>
 7    1  0.2974434E-011  0.5052887E+02  0.7816164E-02  0.1300439E+00
        -11   -1    0    0    0    0  0.00000000000E+00  0.00000000000E+00  0.45593999997E+02  0.45594000000E+02  0.51100000000E-03 0. -1.
         11   -1    0    0    0    0 -0.00000000000E+00 -0.00000000000E+00 -0.45593999997E+02  0.45594000000E+02  0.51100000000E-03 0.  1.
    9900012    2    1    2    0    0 -0.12159630950E+02  0.35696236509E+02  0.15201548116E+02  0.50528868297E+02  0.30000025674E+02 0.  0.
        -12    1    1    2    0    0  0.12159630950E+02 -0.35696236509E+02 -0.15201548116E+02  0.40659131703E+02  0.00000000000E+00 0.  1.
         11    1    3    3    0    0 -0.89747138729E+01  0.19905929599E+02  0.11338052776E+02  0.24603718486E+02  0.51100000000E-03 0. -1.
        -11    1    3    3    0    0 -0.47491242251E+01  0.18528085479E+02  0.79925741761E+01  0.20729818490E+02  0.51100000000E-03 0.  1.
        -12    1    3    3    0    0  0.15642071484E+01 -0.27377785683E+01 -0.41290788368E+01  0.51953313208E+01  0.00000000000E+00 0.  1.
</event>
<event>
 7    1  0.2974434E-011  0.5052886E+02  0.7816164E-02  0.1300439E+00
        -11   -1    0    0    0    0  0.00000000000E+00  0.00000000000E+00  0.45593999997E+02  0.45594000000E+02  0.51100000000E-03 0.  1.
         11   -1    0    0    0    0 -0.00000000000E+00 -0.00000000000E+00 -0.45593999997E+02  0.45594000000E+02  0.51100000000E-03 0. -1.
    9900012    2    1    2    0    0 -0.21930483350E+02  0.33318606372E+02  0.78797346077E+01  0.50528857756E+02  0.29999993635E+02 0.  0.
        -12    1    1    2    0    0  0.21930483350E+02 -0.33318606372E+02 -0.78797346077E+01  0.40659142244E+02  0.00000000000E+00 0.  1.
         11    1    3    3    0    0 -0.64232239403E+00 -0.58919479984E-01 -0.14011255788E+01  0.15424664378E+01  0.51100000000E-03 0. -1.
        -11    1    3    3    0    0  0.85337317048E+00 -0.42428347390E+01  0.18470013842E+01  0.47054550009E+01  0.51100000000E-03 0.  1.
         12    1    3    3    0    0 -0.22141534127E+02  0.37620360591E+02  0.74338588023E+01  0.44280936317E+02  0.00000000000E+00 0. -1.
</event>
<event>
 7    1  0.2974434E-011  0.5052881E+02  0.7816164E-02  0.1300439E+00
        -11   -1    0    0    0    0  0.00000000000E+00  0.00000000000E+00  0.45593999997E+02  0.45594000000E+02  0.51100000000E-03 0.  1.
         11   -1    0    0    0    0 -0.00000000000E+00 -0.00000000000E+00 -0.45593999997E+02  0.45594000000E+02  0.51100000000E-03 0. -1.
    9900012    2    1    2    0    0  0.95102588292E+01  0.21168249881E+02 -0.33386077367E+02  0.50528806846E+02  0.29999838888E+02 0.  0.
        -12    1    1    2    0    0 -0.95102588292E+01 -0.21168249881E+02  0.33386077367E+02  0.40659193154E+02  0.00000000000E+00 0.  1.
         11    1    3    3    0    0  0.44239150833E+01  0.13233020535E+02 -0.10143107902E+02  0.17250115806E+02  0.51100000000E-03 0. -1.
        -11    1    3    3    0    0  0.12415498551E+02  0.77013650190E+01 -0.87333310173E+01  0.17021360061E+02  0.51100000000E-03 0.  1.
        -12    1    3    3    0    0 -0.73291548049E+01  0.23386432687E+00 -0.14509638447E+02  0.16257330979E+02  0.00000000000E+00 0.  1.
</event>
<event>
 7    1  0.2974434E-011  0.5052886E+02  0.7816164E-02  0.1300439E+00
        -11   -1    0    0    0    0  0.00000000000E+00  0.00000000000E+00  0.45593999997E+02  0.45594000000E+02  0.51100000000E-03 0. -1.
         11   -1    0    0    0    0 -0.00000000000E+00 -0.00000000000E+00 -0.45593999997E+02  0.45594000000E+02  0.51100000000E-03 0.  1.
    9900012    2    1    2    0    0 -0.20525749517E+02  0.26845064653E+02  0.22609767230E+02  0.50528862482E+02  0.30000008001E+02 0.  0.
        -12    1    1    2    0    0  0.20525749517E+02 -0.26845064653E+02 -0.22609767230E+02  0.40659137518E+02  0.00000000000E+00 0.  1.
         11    1    3    3    0    0 -0.40575791849E+01  0.10806756769E+02  0.20130925470E+02  0.23205691139E+02  0.51100000000E-03 0. -1.
        -11    1    3    3    0    0 -0.82716177310E+01 -0.63885274252E+00  0.27454057741E+01  0.87387096210E+01  0.51100000000E-03 0.  1.
        -12    1    3    3    0    0 -0.81965526013E+01  0.16677160627E+02 -0.26656401449E+00  0.18584461722E+02  0.00000000000E+00 0.  1.
</event>
<event>
 7    1  0.2974434E-011  0.5052886E+02  0.7816164E-02  0.1300439E+00
        -11   -1    0    0    0    0  0.00000000000E+00  0.00000000000E+00  0.45593999997E+02  0.45594000000E+02  0.51100000000E-03 0. -1.
         11   -1    0    0    0    0 -0.00000000000E+00 -0.00000000000E+00 -0.45593999997E+02  0.45594000000E+02  0.51100000000E-03 0.  1.
    9900012    2    1    2    0    0  0.37680493935E+02 -0.12442206971E+02  0.88621322065E+01  0.50528861731E+02  0.30000005719E+02 0.  0.
        -12    1    1    2    0    0 -0.37680493935E+02  0.12442206971E+02 -0.88621322065E+01  0.40659138269E+02  0.00000000000E+00 0.  1.
         11    1    3    3    0    0 -0.19960901240E+01 -0.58600878190E+01 -0.39677097498E+01  0.73530759516E+01  0.51100000000E-03 0. -1.
        -11    1    3    3    0    0  0.11662768314E+02 -0.59232383483E+01  0.56516509622E+01  0.14249423713E+02  0.51100000000E-03 0.  1.
        -12    1    3    3    0    0  0.28013815745E+02 -0.65888080411E+00  0.71781909941E+01  0.28926362067E+02  0.00000000000E+00 0.  1.
</event>
<event>
 7    1  0.2974434E-011  0.5052882E+02  0.7816164E-02  0.1300439E+00
        -11   -1    0    0    0    0  0.00000000000E+00  0.00000000000E+00  0.45593999997E+02  0.45594000000E+02  0.51100000000E-03 0. -1.
         11   -1    0    0    0    0 -0.00000000000E+00 -0.00000000000E+00 -0.45593999997E+02  0.45594000000E+02  0.51100000000E-03 0.  1.
    9900012    2    1    2    0    0 -0.36878691954E+02 -0.43247598049E+01  0.16565860087E+02  0.50528816683E+02  0.29999868789E+02 0.  0.
        -12    1    1    2    0    0  0.36878691954E+02  0.43247598049E+01 -0.16565860087E+02  0.40659183317E+02  0.00000000000E+00 0.  1.
         11    1    3    3    0    0 -0.20507085747E+02  0.75672811501E+00  0.19711270017E+02  0.28454303176E+02  0.51100000000E-03 0. -1.
        -11    1    3    3    0    0 -0.97229306241E+00  0.20467896282E+01  0.32314419712E+01  0.39467605774E+01  0.51100000000E-03 0.  1.
         12    1    3    3    0    0 -0.15399313144E+02 -0.71282775482E+01 -0.63768519012E+01  0.18127752930E+02  0.00000000000E+00 0. -1.
</event>
<event>
 7    1  0.2974434E-011  0.5052886E+02  0.7816164E-02  0.1300439E+00
        -11   -1    0    0    0    0  0.00000000000E+00  0.00000000000E+00  0.45593999997E+02  0.45594000000E+02  0.51100000000E-03 0.  1.
         11   -1    0    0    0    0 -0.00000000000E+00 -0.00000000000E+00 -0.45593999997E+02  0.45594000000E+02  0.51100000000E-03 0. -1.
    9900012    2    1    2    0    0 -0.46211866425E+01  0.23719263185E+02 -0.32698727751E+02  0.50528860701E+02  0.30000002587E+02 0.  0.
        -12    1    1    2    0    0  0.46211866425E+01 -0.23719263185E+02  0.32698727751E+02  0.40659139299E+02  0.00000000000E+00 0.  1.
         11    1    3    3    0    0 -0.52727893043E-01  0.17706960312E+02 -0.29680261020E+02  0.34560918944E+02  0.51100000000E-03 0. -1.
        -11    1    3    3    0    0 -0.80053226934E+01  0.81822087041E+01 -0.32420484024E+01  0.11897252154E+02  0.51100000000E-03 0.  1.
         12    1    3    3    0    0  0.34368639439E+01 -0.21699058316E+01  0.22358167205E+00  0.40706896039E+01  0.00000000000E+00 0. -1.
</event>
<event>
 7    1  0.2974434E-011  0.5052887E+02  0.7816164E-02  0.1300439E+00
        -11   -1    0    0    0    0  0.00000000000E+00  0.00000000000E+00  0.45593999997E+02  0.45594000000E+02  0.51100000000E-03 0.  1.
         11   -1    0    0    0    0 -0.00000000000E+00 -0.00000000000E+00 -0.45593999997E+02  0.45594000000E+02  0.51100000000E-03 0. -1.
    9900012    2    1    2    0    0 -0.28393262708E+02 -0.25480192926E+02 -0.14062250116E+02  0.50528874615E+02  0.30000044880E+02 0.  0.
        -12    1    1    2    0    0  0.28393262708E+02  0.25480192926E+02  0.14062250116E+02  0.40659125385E+02  0.00000000000E+00 0.  1.
         11    1    3    3    0    0  0.78778085569E+00  0.85960000054E+00  0.69637152569E+00  0.13581032363E+01  0.51100000000E-03 0.  1.
        -11    1    3    3    0    0  0.82868818058E+00  0.27063841846E+01 -0.58037421016E+01  0.64571403963E+01  0.51100000000E-03 0. -1.
         12    1    3    3    0    0 -0.30009731745E+02 -0.29046177111E+02 -0.89548795403E+01  0.42713630982E+02  0.00000000000E+00 0. -1.
</event>
<event>
 7    1  0.2974434E-011  0.5052871E+02  0.7816164E-02  0.1300439E+00
        -11   -1    0    0    0    0  0.00000000000E+00  0.00000000000E+00  0.45593999997E+02  0.45594000000E+02  0.51100000000E-03 0.  1.
         11   -1    0    0    0    0 -0.00000000000E+00 -0.00000000000E+00 -0.45593999997E+02  0.45594000000E+02  0.51100000000E-03 0. -1.
    9900012    2    1    2    0    0 -0.13431791049E+02  0.55368061871E+01 -0.37975100842E+02  0.50528714252E+02  0.29999557438E+02 0.  0.
        -12    1    1    2    0    0  0.13431791049E+02 -0.55368061871E+01  0.37975100842E+02  0.40659285748E+02  0.00000000000E+00 0.  1.
         11    1    3    3    0    0 -0.26690011025E+01 -0.42247951408E+01 -0.24893562889E+02  0.25390193667E+02  0.51100000000E-03 0. -1.
        -11    1    3    3    0    0  0.38036701084E+01  0.24790071889E+01 -0.51712119136E+00  0.45695511294E+01  0.51100000000E-03 0.  1.
         12    1    3    3    0    0 -0.14566460055E+02  0.72825941389E+01 -0.12564416761E+02  0.20568969456E+02  0.00000000000E+00 0. -1.
</event>
<event>
 7    1  0.2974434E-011  0.5052886E+02  0.7816164E-02  0.1300439E+00
        -11   -1    0    0    0    0  0.00000000000E+00  0.00000000000E+00  0.45593999997E+02  0.45594000000E+02  0.51100000000E-03 0.  1.
         11   -1    0    0    0    0 -0.00000000000E+00 -0.00000000000E+00 -0.45593999997E+02  0.45594000000E+02  0.51100000000E-03 0. -1.
    9900012    2    1    2    0    0 -0.40048474495E+02  0.67924395778E+01  0.17742512848E+01  0.50528861883E+02  0.30000006179E+02 0.  0.
        -12    1    1    2    0    0  0.40048474495E+02 -0.67924395778E+01 -0.17742512848E+01  0.40659138117E+02  0.00000000000E+00 0.  1.
         11    1    3    3    0    0 -0.50865843830E+01 -0.32283771345E+01  0.10373794595E+01  0.61132573979E+01  0.51100000000E-03 0. -1.
        -11    1    3    3    0    0 -0.99062725806E+01 -0.82294623422E+01  0.33523721646E+01  0.13307767892E+02  0.51100000000E-03 0.  1.
        -12    1    3    3    0    0 -0.25055617532E+02  0.18250279055E+02 -0.26155003392E+01  0.31107836593E+02  0.00000000000E+00 0.  1.
</event>
<event>
 7    1  0.2974434E-011  0.5052885E+02  0.7816164E-02  0.1300439E+00
        -11   -1    0    0    0    0  0.00000000000E+00  0.00000000000E+00  0.45593999997E+02  0.45594000000E+02  0.51100000000E-03 0.  1.
         11   -1    0    0    0    0 -0.00000000000E+00 -0.00000000000E+00 -0.45593999997E+02  0.45594000000E+02  0.51100000000E-03 0. -1.
    9900012    2    1    2    0    0 -0.10157838827E+02 -0.88556500163E+01 -0.38360944044E+02  0.50528852754E+02  0.29999978432E+02 0.  0.
        -12    1    1    2    0    0  0.10157838827E+02  0.88556500163E+01  0.38360944044E+02  0.40659147246E+02  0.00000000000E+00 0.  1.
         11    1    3    3    0    0 -0.87235156274E+00 -0.14854968298E+01  0.22394958849E+01  0.28254274296E+01  0.51100000000E-03 0. -1.
        -11    1    3    3    0    0 -0.79004747523E+00  0.48389606701E+01 -0.49416803524E+00  0.49278715170E+01  0.51100000000E-03 0.  1.
         12    1    3    3    0    0 -0.84954397888E+01 -0.12209113857E+02 -0.40106271893E+02  0.42775553808E+02  0.00000000000E+00 0. -1.
</event>
<event>
 7    1  0.2974434E-011  0.5052885E+02  0.7816164E-02  0.1300439E+00
        -11   -1    0    0    0    0  0.00000000000E+00  0.00000000000E+00  0.45593999997E+02  0.45594000000E+02  0.51100000000E-03 0.  1.
         11   -1    0    0    0    0 -0.00000000000E+00 -0.00000000000E+00 -0.45593999997E+02  0.45594000000E+02  0.51100000000E-03 0. -1.
    9900012    2    1    2    0    0 -0.11122597001E+02 -0.31148820864E+02 -0.23647517742E+02  0.50528852190E+02  0.29999976717E+02 0.  0.
        -12    1    1    2    0    0  0.11122597001E+02  0.31148820864E+02  0.23647517742E+02  0.40659147810E+02  0.00000000000E+00 0.  1.
         11    1    3    3    0    0 -0.75210920235E+01 -0.13094381802E+02 -0.17444610082E+02  0.23072582889E+02  0.51100000000E-03 0. -1.
        -11    1    3    3    0    0 -0.84780854162E+01 -0.26345713172E+01 -0.69373057301E+01  0.11266992030E+02  0.51100000000E-03 0.  1.
        -12    1    3    3    0    0  0.48765804389E+01 -0.15419867745E+02  0.73439806979E+00  0.16189277271E+02  0.00000000000E+00 0.  1.
</event>
<event>
 7    1  0.2974434E-011  0.5052886E+02  0.7816164E-02  0.1300439E+00
        -11   -1    0    0    0    0  0.00000000000E+00  0.00000000000E+00  0.45593999997E+02  0.45594000000E+02  0.51100000000E-03 0. -1.
         11   -1    0    0    0    0 -0.00000000000E+00 -0.00000000000E+00 -0.45593999997E+02  0.45594000000E+02  0.51100000000E-03 0.  1.
    9900012    2    1    2    0    0  0.18358576914E+02  0.34162620737E+02  0.12208335996E+02  0.50528862408E+02  0.30000007776E+02 0.  0.
        -12    1    1    2    0    0 -0.18358576914E+02 -0.34162620737E+02 -0.12208335996E+02  0.40659137592E+02  0.00000000000E+00 0.  1.
         11    1    3    3    0    0 -0.36584973599E+01  0.21167271801E+01  0.52328478104E+01  0.67266509762E+01  0.51100000000E-03 0. -1.
        -11    1    3    3    0    0  0.11325323875E+02  0.43222727509E+01 -0.29474390885E+01  0.12475271542E+02  0.51100000000E-03 0.  1.
        -12    1    3    3    0    0  0.10691750399E+02  0.27723620806E+02  0.99229272743E+01  0.31326939890E+02  0.00000000000E+00 0.  1.
</event>
<event>
 7    1  0.2974434E-011  0.5052886E+02  0.7816164E-02  0.1300439E+00
        -11   -1    0    0    0    0  0.00000000000E+00  0.00000000000E+00  0.45593999997E+02  0.45594000000E+02  0.51100000000E-03 0.  1.
         11   -1    0    0    0    0 -0.00000000000E+00 -0.00000000000E+00 -0.45593999997E+02  0.45594000000E+02  0.51100000000E-03 0. -1.
    9900012    2    1    2    0    0 -0.39305757362E+01  0.40468172133E+02 -0.20755188320E+00  0.50528862537E+02  0.30000008168E+02 0.  0.
        -12    1    1    2    0    0  0.39305757362E+01 -0.40468172133E+02  0.20755188320E+00  0.40659137463E+02  0.00000000000E+00 0.  1.
         11    1    3    3    0    0 -0.43172022894E+01  0.16853746254E+02 -0.80447296913E+01  0.19167803069E+02  0.51100000000E-03 0. -1.
        -11    1    3    3    0    0 -0.44035775033E+01  0.22612132229E+02  0.11384236758E+01  0.23065039074E+02  0.51100000000E-03 0.  1.
        -12    1    3    3    0    0  0.47902040566E+01  0.10022936503E+01  0.66987541323E+01  0.82960203947E+01  0.00000000000E+00 0.  1.
</event>
<event>
 7    1  0.2974434E-011  0.5052886E+02  0.7816164E-02  0.1300439E+00
        -11   -1    0    0    0    0  0.00000000000E+00  0.00000000000E+00  0.45593999997E+02  0.45594000000E+02  0.51100000000E-03 0. -1.
         11   -1    0    0    0    0 -0.00000000000E+00 -0.00000000000E+00 -0.45593999997E+02  0.45594000000E+02  0.51100000000E-03 0.  1.
    9900012    2    1    2    0    0  0.17187249438E+01  0.38640157138E+02  0.12535951132E+02  0.50528857979E+02  0.29999994313E+02 0.  0.
        -12    1    1    2    0    0 -0.17187249438E+01 -0.38640157138E+02 -0.12535951132E+02  0.40659142021E+02  0.00000000000E+00 0.  1.
         11    1    3    3    0    0 -0.58499986552E+01  0.23532237655E+02  0.62483578086E+01  0.25040580443E+02  0.51100000000E-03 0. -1.
        -11    1    3    3    0    0  0.12312490899E+00  0.15598530336E+02  0.84218682861E+01  0.17727300248E+02  0.51100000000E-03 0.  1.
        -12    1    3    3    0    0  0.74455986900E+01 -0.49061085292E+00 -0.21342749623E+01  0.77609772887E+01  0.00000000000E+00 0.  1.
</event>
<event>
 7    1  0.2974434E-011  0.5052884E+02  0.7816164E-02  0.1300439E+00
        -11   -1    0    0    0    0  0.00000000000E+00  0.00000000000E+00  0.45593999997E+02  0.45594000000E+02  0.51100000000E-03 0. -1.
         11   -1    0    0    0    0 -0.00000000000E+00 -0.00000000000E+00 -0.45593999997E+02  0.45594000000E+02  0.51100000000E-03 0.  1.
    9900012    2    1    2    0    0  0.32243112767E+02  0.14625310795E+02  0.19991222282E+02  0.50528843528E+02  0.29999950386E+02 0.  0.
        -12    1    1    2    0    0 -0.32243112767E+02 -0.14625310795E+02 -0.19991222282E+02  0.40659156472E+02  0.00000000000E+00 0.  1.
         11    1    3    3    0    0  0.76654519470E+01  0.32672932129E+01 -0.60913436556E+01  0.10321764688E+02  0.51100000000E-03 0. -1.
        -11    1    3    3    0    0  0.13557024564E+02 -0.10275438376E+01  0.84666469366E+01  0.16016643593E+02  0.51100000000E-03 0.  1.
         12    1    3    3    0    0  0.11020636255E+02  0.12385561419E+02  0.17615919001E+02  0.24190435246E+02  0.00000000000E+00 0. -1.
</event>
<event>
 7    1  0.2974434E-011  0.5052888E+02  0.7816164E-02  0.1300439E+00
        -11   -1    0    0    0    0  0.00000000000E+00  0.00000000000E+00  0.45593999997E+02  0.45594000000E+02  0.51100000000E-03 0. -1.
         11   -1    0    0    0    0 -0.00000000000E+00 -0.00000000000E+00 -0.45593999997E+02  0.45594000000E+02  0.51100000000E-03 0.  1.
    9900012    2    1    2    0    0  0.13701691498E+02 -0.37941323110E+02  0.50876016122E+01  0.50528879998E+02  0.30000061240E+02 0.  0.
        -12    1    1    2    0    0 -0.13701691498E+02  0.37941323110E+02 -0.50876016122E+01  0.40659120002E+02  0.00000000000E+00 0.  1.
         11    1    3    3    0    0 -0.60072974375E+01 -0.10222264138E+02 -0.27430203322E+01  0.12169900058E+02  0.51100000000E-03 0. -1.
        -11    1    3    3    0    0  0.80177721248E+01 -0.23916935714E+02  0.60079117211E+01  0.25930666927E+02  0.51100000000E-03 0.  1.
        -12    1    3    3    0    0  0.11691216811E+02 -0.38021232577E+01  0.18227102234E+01  0.12428313013E+02  0.00000000000E+00 0.  1.
</event>
<event>
 7    1  0.2974434E-011  0.5052888E+02  0.7816164E-02  0.1300439E+00
        -11   -1    0    0    0    0  0.00000000000E+00  0.00000000000E+00  0.45593999997E+02  0.45594000000E+02  0.51100000000E-03 0. -1.
         11   -1    0    0    0    0 -0.00000000000E+00 -0.00000000000E+00 -0.45593999997E+02  0.45594000000E+02  0.51100000000E-03 0.  1.
    9900012    2    1    2    0    0 -0.31996292702E+02 -0.97165255861E+01  0.23129852083E+02  0.50528884496E+02  0.30000074914E+02 0.  0.
        -12    1    1    2    0    0  0.31996292702E+02  0.97165255861E+01 -0.23129852083E+02  0.40659115504E+02  0.00000000000E+00 0.  1.
         11    1    3    3    0    0 -0.25607376982E+00 -0.27387623696E+00  0.89516959647E+00  0.97052090978E+00  0.51100000000E-03 0. -1.
        -11    1    3    3    0    0 -0.16648861777E+02 -0.19547103617E+01  0.27239024300E+02  0.31983901203E+02  0.51100000000E-03 0.  1.
         12    1    3    3    0    0 -0.15091357155E+02 -0.74879389875E+01 -0.50043418136E+01  0.17574462383E+02  0.00000000000E+00 0. -1.
</event>
<event>
 7    1  0.2974434E-011  0.5052885E+02  0.7816164E-02  0.1300439E+00
        -11   -1    0    0    0    0  0.00000000000E+00  0.00000000000E+00  0.45593999997E+02  0.45594000000E+02  0.51100000000E-03 0. -1.
         11   -1    0    0    0    0 -0.00000000000E+00 -0.00000000000E+00 -0.45593999997E+02  0.45594000000E+02  0.51100000000E-03 0.  1.
    9900012    2    1    2    0    0 -0.35883119741E+02 -0.19115254309E+02 -0.41828835469E+00  0.50528853492E+02  0.29999980673E+02 0.  0.
        -12    1    1    2    0    0  0.35883119741E+02  0.19115254309E+02  0.41828835469E+00  0.40659146508E+02  0.00000000000E+00 0.  1.
         11    1    3    3    0    0 -0.49235112659E+01 -0.37129851139E+01 -0.23511973679E+01  0.65996477910E+01  0.51100000000E-03 0. -1.
        -11    1    3    3    0    0 -0.28971111250E+02 -0.13055722481E+02 -0.86296571114E+01  0.32927923692E+02  0.51100000000E-03 0.  1.
        -12    1    3    3    0    0 -0.19884972251E+01 -0.23465467147E+01  0.10562566125E+02  0.11001282009E+02  0.00000000000E+00 0.  1.
</event>
<event>
 7    1  0.2974434E-011  0.5052887E+02  0.7816164E-02  0.1300439E+00
        -11   -1    0    0    0    0  0.00000000000E+00  0.00000000000E+00  0.45593999997E+02  0.45594000000E+02  0.51100000000E-03 0. -1.
         11   -1    0    0    0    0 -0.00000000000E+00 -0.00000000000E+00 -0.45593999997E+02  0.45594000000E+02  0.51100000000E-03 0.  1.
    9900012    2    1    2    0    0  0.58135620363E+01  0.21930793685E+02  0.33740295701E+02  0.50528871022E+02  0.30000033959E+02 0.  0.
        -12    1    1    2    0    0 -0.58135620363E+01 -0.21930793685E+02 -0.33740295701E+02  0.40659128978E+02  0.00000000000E+00 0.  1.
         11    1    3    3    0    0 -0.11994432947E+01 -0.33908689387E+01  0.57594113945E+01  0.67902486147E+01  0.51100000000E-03 0. -1.
        -11    1    3    3    0    0  0.53225509060E+01  0.15074226231E+02  0.24459598898E+01  0.16172339492E+02  0.51100000000E-03 0.  1.
         12    1    3    3    0    0  0.16904544250E+01  0.10247436394E+02  0.25534924417E+02  0.27566282916E+02  0.00000000000E+00 0. -1.
</event>
<event>
 7    1  0.2974434E-011  0.5052886E+02  0.7816164E-02  0.1300439E+00
        -11   -1    0    0    0    0  0.00000000000E+00  0.00000000000E+00  0.45593999997E+02  0.45594000000E+02  0.51100000000E-03 0.  1.
         11   -1    0    0    0    0 -0.00000000000E+00 -0.00000000000E+00 -0.45593999997E+02  0.45594000000E+02  0.51100000000E-03 0. -1.
    9900012    2    1    2    0    0 -0.36065568666E+01 -0.40429201767E+02  0.23744486697E+01  0.50528860629E+02  0.30000002368E+02 0.  0.
        -12    1    1    2    0    0  0.36065568666E+01  0.40429201767E+02 -0.23744486697E+01  0.40659139371E+02  0.00000000000E+00 0.  1.
         11    1    3    3    0    0  0.33888650565E+01 -0.60870305465E+00  0.57373672768E+00  0.34905730008E+01  0.51100000000E-03 0. -1.
        -11    1    3    3    0    0 -0.50108267798E+01 -0.49658021967E+01 -0.81087418623E+01  0.10747989176E+02  0.51100000000E-03 0.  1.
         12    1    3    3    0    0 -0.19845951433E+01 -0.34854696515E+02  0.99094538043E+01  0.36290298452E+02  0.00000000000E+00 0. -1.
</event>
<event>
 7    1  0.2974434E-011  0.5052886E+02  0.7816164E-02  0.1300439E+00
        -11   -1    0    0    0    0  0.00000000000E+00  0.00000000000E+00  0.45593999997E+02  0.45594000000E+02  0.51100000000E-03 0.  1.
         11   -1    0    0    0    0 -0.00000000000E+00 -0.00000000000E+00 -0.45593999997E+02  0.45594000000E+02  0.51100000000E-03 0. -1.
    9900012    2    1    2    0    0  0.16419130819E+02 -0.27355601426E+02 -0.25204149211E+02  0.50528856825E+02  0.29999990805E+02 0.  0.
        -12    1    1    2    0    0 -0.16419130819E+02  0.27355601426E+02  0.25204149211E+02  0.40659143175E+02  0.00000000000E+00 0.  1.
         11    1    3    3    0    0  0.55461473708E+01  0.39230453404E+00 -0.37664067280E+01  0.67156141497E+01  0.51100000000E-03 0.  1.
        -11    1    3    3    0    0  0.15885034375E+02 -0.11217028814E+02 -0.17352586609E+02  0.26062776421E+02  0.51100000000E-03 0. -1.
         12    1    3    3    0    0 -0.50120509266E+01 -0.16530877146E+02 -0.40851558747E+01  0.17750466254E+02  0.00000000000E+00 0. -1.
</event>
<event>
 7    1  0.2974434E-011  0.5052885E+02  0.7816164E-02  0.1300439E+00
        -11   -1    0    0    0    0  0.00000000000E+00  0.00000000000E+00  0.45593999997E+02  0.45594000000E+02  0.51100000000E-03 0. -1.
         11   -1    0    0    0    0 -0.00000000000E+00 -0.00000000000E+00 -0.45593999997E+02  0.45594000000E+02  0.51100000000E-03 0.  1.
    9900012    2    1    2    0    0  0.41180855334E+01  0.21670300345E+02  0.34155608847E+02  0.50528853905E+02  0.29999981929E+02 0.  0.
        -12    1    1    2    0    0 -0.41180855334E+01 -0.21670300345E+02 -0.34155608847E+02  0.40659146095E+02  0.00000000000E+00 0.  1.
         11    1    3    3    0    0 -0.30027807240E+01  0.14975990558E+02  0.11603998441E+02  0.19182016717E+02  0.51100000000E-03 0. -1.
        -11    1    3    3    0    0  0.13327425454E+02  0.26856349670E+01  0.10366700307E+02  0.17096823679E+02  0.51100000000E-03 0.  1.
         12    1    3    3    0    0 -0.62065591962E+01  0.40086748197E+01  0.12184910099E+02  0.14250013508E+02  0.00000000000E+00 0. -1.
</event>
<event>
 7    1  0.2974434E-011  0.5052886E+02  0.7816164E-02  0.1300439E+00
        -11   -1    0    0    0    0  0.00000000000E+00  0.00000000000E+00  0.45593999997E+02  0.45594000000E+02  0.51100000000E-03 0.  1.
         11   -1    0    0    0    0 -0.00000000000E+00 -0.00000000000E+00 -0.45593999997E+02  0.45594000000E+02  0.51100000000E-03 0. -1.
    9900012    2    1    2    0    0  0.28393765118E+02 -0.33857052200E+01 -0.28904956242E+02  0.50528863354E+02  0.30000010651E+02 0.  0.
        -12    1    1    2    0    0 -0.28393765118E+02  0.33857052200E+01  0.28904956242E+02  0.40659136646E+02  0.00000000000E+00 0.  1.
         11    1    3    3    0    0  0.17044710371E+02 -0.77233365147E+00 -0.21320471828E+02  0.27307163348E+02  0.51100000000E-03 0. -1.
        -11    1    3    3    0    0  0.10779288823E+02  0.27129343876E+01 -0.11943415554E+02  0.16315583222E+02  0.51100000000E-03 0.  1.
        -12    1    3    3    0    0  0.56976592452E+00 -0.53263059561E+01  0.43589311401E+01  0.69061167838E+01  0.00000000000E+00 0.  1.
</event>
<event>
 7    1  0.2974434E-011  0.5052886E+02  0.7816164E-02  0.1300439E+00
        -11   -1    0    0    0    0  0.00000000000E+00  0.00000000000E+00  0.45593999997E+02  0.45594000000E+02  0.51100000000E-03 0.  1.
         11   -1    0    0    0    0 -0.00000000000E+00 -0.00000000000E+00 -0.45593999997E+02  0.45594000000E+02  0.51100000000E-03 0. -1.
    9900012    2    1    2    0    0  0.23579946992E+02  0.32617224981E+02  0.57678740364E+01  0.50528860357E+02  0.30000001541E+02 0.  0.
        -12    1    1    2    0    0 -0.23579946992E+02 -0.32617224981E+02 -0.57678740364E+01  0.40659139643E+02  0.00000000000E+00 0.  1.
         11    1    3    3    0    0  0.81533690807E+01  0.19303856506E+02  0.45592676643E+00  0.20960061375E+02  0.51100000000E-03 0. -1.
        -11    1    3    3    0    0  0.78015287592E+01  0.14786864632E+02 -0.42499420766E+01  0.17250426793E+02  0.51100000000E-03 0.  1.
        -12    1    3    3    0    0  0.76250491518E+01 -0.14734961572E+01  0.95618893466E+01  0.12318372188E+02  0.00000000000E+00 0.  1.
</event>
<event>
 7    1  0.2974434E-011  0.5052881E+02  0.7816164E-02  0.1300439E+00
        -11   -1    0    0    0    0  0.00000000000E+00  0.00000000000E+00  0.45593999997E+02  0.45594000000E+02  0.51100000000E-03 0.  1.
         11   -1    0    0    0    0 -0.00000000000E+00 -0.00000000000E+00 -0.45593999997E+02  0.45594000000E+02  0.51100000000E-03 0. -1.
    9900012    2    1    2    0    0  0.80448492764E+01 -0.36590045022E+02 -0.15799328663E+02  0.50528809393E+02  0.29999846631E+02 0.  0.
        -12    1    1    2    0    0 -0.80448492764E+01  0.36590045022E+02  0.15799328663E+02  0.40659190607E+02  0.00000000000E+00 0.  1.
         11    1    3    3    0    0  0.13021073621E+02 -0.24856063549E+02 -0.29804676498E+01  0.28217998530E+02  0.51100000000E-03 0. -1.
        -11    1    3    3    0    0  0.34274104398E+01  0.44456831425E+00 -0.21734105964E+01  0.40827070910E+01  0.51100000000E-03 0.  1.
        -12    1    3    3    0    0 -0.84036347849E+01 -0.12178549788E+02 -0.10645450417E+02  0.18228103772E+02  0.00000000000E+00 0.  1.
</event>
<event>
 7    1  0.2974434E-011  0.5052885E+02  0.7816164E-02  0.1300439E+00
        -11   -1    0    0    0    0  0.00000000000E+00  0.00000000000E+00  0.45593999997E+02  0.45594000000E+02  0.51100000000E-03 0. -1.
         11   -1    0    0    0    0 -0.00000000000E+00 -0.00000000000E+00 -0.45593999997E+02  0.45594000000E+02  0.51100000000E-03 0.  1.
    9900012    2    1    2    0    0 -0.12985769637E+02 -0.33479190391E+02  0.19070398760E+02  0.50528849601E+02  0.29999968848E+02 0.  0.
        -12    1    1    2    0    0  0.12985769637E+02  0.33479190391E+02 -0.19070398760E+02  0.40659150399E+02  0.00000000000E+00 0.  1.
         11    1    3    3    0    0 -0.34575509564E+00  0.18370228425E+01  0.26059752023E+01  0.32070713316E+01  0.51100000000E-03 0. -1.
        -11    1    3    3    0    0  0.31958157242E+01  0.15595050930E+01 -0.78162239108E+00  0.36409103396E+01  0.51100000000E-03 0.  1.
         12    1    3    3    0    0 -0.15835830265E+02 -0.36875718326E+02  0.17246045949E+02  0.43680867930E+02  0.00000000000E+00 0. -1.
</event>
<event>
 7    1  0.2974434E-011  0.5052886E+02  0.7816164E-02  0.1300439E+00
        -11   -1    0    0    0    0  0.00000000000E+00  0.00000000000E+00  0.45593999997E+02  0.45594000000E+02  0.51100000000E-03 0. -1.
         11   -1    0    0    0    0 -0.00000000000E+00 -0.00000000000E+00 -0.45593999997E+02  0.45594000000E+02  0.51100000000E-03 0.  1.
    9900012    2    1    2    0    0 -0.27223590780E+02 -0.26615626362E+02  0.14270609646E+02  0.50528858823E+02  0.29999996878E+02 0.  0.
        -12    1    1    2    0    0  0.27223590780E+02  0.26615626362E+02 -0.14270609646E+02  0.40659141177E+02  0.00000000000E+00 0.  1.
         11    1    3    3    0    0 -0.56130319848E+00 -0.20209195216E+02  0.38083975259E+01  0.20572567281E+02  0.51100000000E-03 0. -1.
        -11    1    3    3    0    0 -0.23379920351E+01  0.62461542372E+00  0.23376120503E+01  0.33646369110E+01  0.51100000000E-03 0.  1.
         12    1    3    3    0    0 -0.24324295546E+02 -0.70310465694E+01  0.81246000698E+01  0.26591654630E+02  0.00000000000E+00 0. -1.
</event>
<event>
 7    1  0.2974434E-011  0.5052886E+02  0.7816164E-02  0.1300439E+00
        -11   -1    0    0    0    0  0.00000000000E+00  0.00000000000E+00  0.45593999997E+02  0.45594000000E+02  0.51100000000E-03 0. -1.
         11   -1    0    0    0    0 -0.00000000000E+00 -0.00000000000E+00 -0.45593999997E+02  0.45594000000E+02  0.51100000000E-03 0.  1.
    9900012    2    1    2    0    0 -0.40012747174E+02 -0.70157580533E+01  0.17101738778E+01  0.50528862132E+02  0.30000006937E+02 0.  0.
        -12    1    1    2    0    0  0.40012747174E+02  0.70157580533E+01 -0.17101738778E+01  0.40659137868E+02  0.00000000000E+00 0.  1.
         11    1    3    3    0    0 -0.16636191390E+02 -0.51534436196E+01 -0.13562876085E+01  0.17468839728E+02  0.51100000000E-03 0. -1.
        -11    1    3    3    0    0 -0.27255560282E+02  0.31379800510E+00  0.57613302037E+01  0.27859593705E+02  0.51100000000E-03 0.  1.
        -12    1    3    3    0    0  0.38790044981E+01 -0.21761124388E+01 -0.26948687174E+01  0.52004286984E+01  0.00000000000E+00 0.  1.
</event>
<event>
 7    1  0.2974434E-011  0.5052887E+02  0.7816164E-02  0.1300439E+00
        -11   -1    0    0    0    0  0.00000000000E+00  0.00000000000E+00  0.45593999997E+02  0.45594000000E+02  0.51100000000E-03 0. -1.
         11   -1    0    0    0    0 -0.00000000000E+00 -0.00000000000E+00 -0.45593999997E+02  0.45594000000E+02  0.51100000000E-03 0.  1.
    9900012    2    1    2    0    0 -0.28899043321E+02 -0.40865345434E+01  0.28307429477E+02  0.50528867779E+02  0.30000024100E+02 0.  0.
        -12    1    1    2    0    0  0.28899043321E+02  0.40865345434E+01 -0.28307429477E+02  0.40659132221E+02  0.00000000000E+00 0.  1.
         11    1    3    3    0    0  0.16406214978E+01  0.35955929266E+01  0.97602530931E+01  0.10530074458E+02  0.51100000000E-03 0. -1.
        -11    1    3    3    0    0  0.17238932528E+01  0.92467418438E+00  0.17288014363E+01  0.26106675318E+01  0.51100000000E-03 0.  1.
        -12    1    3    3    0    0 -0.32263558071E+02 -0.86068016543E+01  0.16818374947E+02  0.37388125789E+02  0.00000000000E+00 0.  1.
</event>
<event>
 7    1  0.2974434E-011  0.5052886E+02  0.7816164E-02  0.1300439E+00
        -11   -1    0    0    0    0  0.00000000000E+00  0.00000000000E+00  0.45593999997E+02  0.45594000000E+02  0.51100000000E-03 0.  1.
         11   -1    0    0    0    0 -0.00000000000E+00 -0.00000000000E+00 -0.45593999997E+02  0.45594000000E+02  0.51100000000E-03 0. -1.
    9900012    2    1    2    0    0 -0.21922502739E+02  0.15191391817E+02 -0.30688621179E+02  0.50528856114E+02  0.29999988644E+02 0.  0.
        -12    1    1    2    0    0  0.21922502739E+02 -0.15191391817E+02  0.30688621179E+02  0.40659143886E+02  0.00000000000E+00 0.  1.
         11    1    3    3    0    0 -0.99057499971E+01 -0.39160358095E+00 -0.12055146337E+02  0.15607811821E+02  0.51100000000E-03 0. -1.
        -11    1    3    3    0    0 -0.14045264994E+02  0.98492011912E+01 -0.22056286555E+02  0.27942011554E+02  0.51100000000E-03 0.  1.
        -12    1    3    3    0    0  0.20285122517E+01  0.57337942066E+01  0.34228117123E+01  0.69790327393E+01  0.00000000000E+00 0.  1.
</event>
<event>
 7    1  0.2974434E-011  0.5052886E+02  0.7816164E-02  0.1300439E+00
        -11   -1    0    0    0    0  0.00000000000E+00  0.00000000000E+00  0.45593999997E+02  0.45594000000E+02  0.51100000000E-03 0.  1.
         11   -1    0    0    0    0 -0.00000000000E+00 -0.00000000000E+00 -0.45593999997E+02  0.45594000000E+02  0.51100000000E-03 0. -1.
    9900012    2    1    2    0    0  0.10098495226E+02 -0.26597234493E+02 -0.29047773254E+02  0.50528860566E+02  0.30000002176E+02 0.  0.
        -12    1    1    2    0    0 -0.10098495226E+02  0.26597234493E+02  0.29047773254E+02  0.40659139434E+02  0.00000000000E+00 0.  1.
         11    1    3    3    0    0  0.39054138179E+01  0.10387319752E+01 -0.97877358419E+01  0.10589192338E+02  0.51100000000E-03 0. -1.
        -11    1    3    3    0    0  0.69854999622E+01 -0.44279280872E+01 -0.13793979342E+02  0.16083458062E+02  0.51100000000E-03 0.  1.
        -12    1    3    3    0    0 -0.79241855394E+00 -0.23208038381E+02 -0.54660580696E+01  0.23856210166E+02  0.00000000000E+00 0.  1.
</event>
<event>
 7    1  0.2974434E-011  0.5052886E+02  0.7816164E-02  0.1300439E+00
        -11   -1    0    0    0    0  0.00000000000E+00  0.00000000000E+00  0.45593999997E+02  0.45594000000E+02  0.51100000000E-03 0.  1.
         11   -1    0    0    0    0 -0.00000000000E+00 -0.00000000000E+00 -0.45593999997E+02  0.45594000000E+02  0.51100000000E-03 0. -1.
    9900012    2    1    2    0    0 -0.57425689251E+01  0.27303744351E+02 -0.29575222371E+02  0.50528864105E+02  0.30000012935E+02 0.  0.
        -12    1    1    2    0    0  0.57425689251E+01 -0.27303744351E+02  0.29575222371E+02  0.40659135895E+02  0.00000000000E+00 0.  1.
         11    1    3    3    0    0 -0.31280138687E+01 -0.14461324735E+01 -0.17917747887E+02  0.18246135468E+02  0.51100000000E-03 0. -1.
        -11    1    3    3    0    0 -0.15822092449E+00  0.13205092054E+01 -0.32139733397E+01  0.34782759109E+01  0.51100000000E-03 0.  1.
        -12    1    3    3    0    0 -0.24563341320E+01  0.27429367619E+02 -0.84435011437E+01  0.28804452727E+02  0.00000000000E+00 0.  1.
</event>
<event>
 7    1  0.2974434E-011  0.5052898E+02  0.7816164E-02  0.1300438E+00
        -11   -1    0    0    0    0  0.00000000000E+00  0.00000000000E+00  0.45593999997E+02  0.45594000000E+02  0.51100000000E-03 0. -1.
         11   -1    0    0    0    0 -0.00000000000E+00 -0.00000000000E+00 -0.45593999997E+02  0.45594000000E+02  0.51100000000E-03 0.  1.
    9900012    2    1    2    0    0  0.12265081946E+02 -0.15983662304E+02  0.35316373132E+02  0.50528980005E+02  0.30000365221E+02 0.  0.
        -12    1    1    2    0    0 -0.12265081946E+02  0.15983662304E+02 -0.35316373132E+02  0.40659019995E+02  0.00000000000E+00 0.  1.
         11    1    3    3    0    0 -0.66959464141E+01 -0.53196516488E+01  0.62639384300E+01  0.10600533805E+02  0.51100000000E-03 0. -1.
        -11    1    3    3    0    0 -0.31070985381E+01 -0.16808547732E+01  0.44177868146E+01  0.56565161270E+01  0.51100000000E-03 0.  1.
         12    1    3    3    0    0  0.22068126898E+02 -0.89831558822E+01  0.24634647887E+02  0.34271930073E+02  0.00000000000E+00 0. -1.
</event>
<event>
 7    1  0.2974434E-011  0.5052886E+02  0.7816164E-02  0.1300439E+00
        -11   -1    0    0    0    0  0.00000000000E+00  0.00000000000E+00  0.45593999997E+02  0.45594000000E+02  0.51100000000E-03 0.  1.
         11   -1    0    0    0    0 -0.00000000000E+00 -0.00000000000E+00 -0.45593999997E+02  0.45594000000E+02  0.51100000000E-03 0. -1.
    9900012    2    1    2    0    0  0.35804674211E+02 -0.86546234421E+01 -0.17213036456E+02  0.50528858023E+02  0.29999994447E+02 0.  0.
        -12    1    1    2    0    0 -0.35804674211E+02  0.86546234421E+01  0.17213036456E+02  0.40659141977E+02  0.00000000000E+00 0.  1.
         11    1    3    3    0    0  0.20962014372E+01  0.76016936268E+00  0.56367987063E+01  0.60617998847E+01  0.51100000000E-03 0.  1.
        -11    1    3    3    0    0  0.67593562732E+01 -0.22232185733E+01  0.16931332972E+01  0.73142531181E+01  0.51100000000E-03 0. -1.
         12    1    3    3    0    0  0.26949116500E+02 -0.71915742314E+01 -0.24542968460E+02  0.37152805020E+02  0.00000000000E+00 0. -1.
</event>
<event>
 7    1  0.2974434E-011  0.5052886E+02  0.7816164E-02  0.1300439E+00
        -11   -1    0    0    0    0  0.00000000000E+00  0.00000000000E+00  0.45593999997E+02  0.45594000000E+02  0.51100000000E-03 0.  1.
         11   -1    0    0    0    0 -0.00000000000E+00 -0.00000000000E+00 -0.45593999997E+02  0.45594000000E+02  0.51100000000E-03 0. -1.
    9900012    2    1    2    0    0 -0.21431597263E+02  0.18019067432E+02 -0.29481617794E+02  0.50528856624E+02  0.29999990193E+02 0.  0.
        -12    1    1    2    0    0  0.21431597263E+02 -0.18019067432E+02  0.29481617794E+02  0.40659143376E+02  0.00000000000E+00 0.  1.
         11    1    3    3    0    0 -0.95843318020E+01  0.13730497313E+01 -0.98479401701E+00  0.97321375438E+01  0.51100000000E-03 0. -1.
        -11    1    3    3    0    0 -0.80860938323E+01  0.90440625199E+00 -0.21822174621E+02  0.23289700934E+02  0.51100000000E-03 0.  1.
         12    1    3    3    0    0 -0.37611716290E+01  0.15741611448E+02 -0.66746491558E+01  0.17507018146E+02  0.00000000000E+00 0. -1.
</event>
<event>
 7    1  0.2974434E-011  0.5052875E+02  0.7816164E-02  0.1300439E+00
        -11   -1    0    0    0    0  0.00000000000E+00  0.00000000000E+00  0.45593999997E+02  0.45594000000E+02  0.51100000000E-03 0.  1.
         11   -1    0    0    0    0 -0.00000000000E+00 -0.00000000000E+00 -0.45593999997E+02  0.45594000000E+02  0.51100000000E-03 0. -1.
    9900012    2    1    2    0    0  0.21555495897E+02 -0.24383472445E+02 -0.24371741074E+02  0.50528746505E+02  0.29999655474E+02 0.  0.
        -12    1    1    2    0    0 -0.21555495897E+02  0.24383472445E+02  0.24371741074E+02  0.40659253495E+02  0.00000000000E+00 0.  1.
         11    1    3    3    0    0 -0.14181246119E+01 -0.20383455777E+01 -0.29119876022E+01  0.38269572986E+01  0.51100000000E-03 0. -1.
        -11    1    3    3    0    0  0.10255359038E+02 -0.55853834616E+01 -0.22803651257E+02  0.25619824518E+02  0.51100000000E-03 0.  1.
         12    1    3    3    0    0  0.12718261471E+02 -0.16759743406E+02  0.13438977855E+01  0.21081964688E+02  0.00000000000E+00 0. -1.
</event>
<event>
 7    1  0.2974434E-011  0.5052886E+02  0.7816164E-02  0.1300439E+00
        -11   -1    0    0    0    0  0.00000000000E+00  0.00000000000E+00  0.45593999997E+02  0.45594000000E+02  0.51100000000E-03 0. -1.
         11   -1    0    0    0    0 -0.00000000000E+00 -0.00000000000E+00 -0.45593999997E+02  0.45594000000E+02  0.51100000000E-03 0.  1.
    9900012    2    1    2    0    0 -0.29832074598E+02 -0.27589013661E+02 -0.14351198861E+01  0.50528856887E+02  0.29999990993E+02 0.  0.
        -12    1    1    2    0    0  0.29832074598E+02  0.27589013661E+02  0.14351198861E+01  0.40659143113E+02  0.00000000000E+00 0.  1.
         11    1    3    3    0    0 -0.65144178543E+01 -0.16079255506E+02 -0.35304871375E+01  0.17704362098E+02  0.51100000000E-03 0. -1.
        -11    1    3    3    0    0  0.81956558502E+00 -0.59131780014E+01 -0.41518217344E+01  0.72715188097E+01  0.51100000000E-03 0.  1.
        -12    1    3    3    0    0 -0.24137222328E+02 -0.55965801538E+01  0.62471889859E+01  0.25552975979E+02  0.00000000000E+00 0.  1.
</event>
<event>
 7    1  0.2974434E-011  0.5052890E+02  0.7816164E-02  0.1300439E+00
        -11   -1    0    0    0    0  0.00000000000E+00  0.00000000000E+00  0.45593999997E+02  0.45594000000E+02  0.51100000000E-03 0. -1.
         11   -1    0    0    0    0 -0.00000000000E+00 -0.00000000000E+00 -0.45593999997E+02  0.45594000000E+02  0.51100000000E-03 0.  1.
    9900012    2    1    2    0    0  0.11598267473E+02  0.16894411657E+02  0.35117251298E+02  0.50528901482E+02  0.30000126544E+02 0.  0.
        -12    1    1    2    0    0 -0.11598267473E+02 -0.16894411657E+02 -0.35117251298E+02  0.40659098518E+02  0.00000000000E+00 0.  1.
         11    1    3    3    0    0  0.75630762491E+01  0.13971247468E+02  0.16159908070E+02  0.22661388026E+02  0.51100000000E-03 0. -1.
        -11    1    3    3    0    0 -0.20852262113E+01  0.10366113505E+02  0.11927566775E+02  0.15939615021E+02  0.51100000000E-03 0.  1.
         12    1    3    3    0    0  0.61204174349E+01 -0.74429493171E+01  0.70297764521E+01  0.11927898435E+02  0.00000000000E+00 0. -1.
</event>
<event>
 7    1  0.3326883E-011  0.5052889E+02  0.7816164E-02  0.1300439E+00
        -11   -1    0    0    0    0  0.00000000000E+00  0.00000000000E+00  0.45593999997E+02  0.45594000000E+02  0.51100000000E-03 0.  1.
         11   -1    0    0    0    0 -0.00000000000E+00 -0.00000000000E+00 -0.45593999997E+02  0.45594000000E+02  0.51100000000E-03 0. -1.
    9900012    2    1    2    0    0 -0.26308347443E+02 -0.25032030697E+02 -0.18287468464E+02  0.50528890211E+02  0.30000092285E+02 0.  0.
        -12    1    1    2    0    0  0.26308347443E+02  0.25032030697E+02  0.18287468464E+02  0.40659109789E+02  0.00000000000E+00 0.  1.
         11    1    3    3    0    0 -0.12303779422E+02 -0.10465672667E+02 -0.42629877399E+01  0.16705877922E+02  0.51100000000E-03 0. -1.
        -11    1    3    3    0    0 -0.11590140730E+02 -0.20736420112E+02 -0.13114342871E+02  0.27135151932E+02  0.51100000000E-03 0.  1.
        -12    1    3    3    0    0 -0.24144272917E+01  0.61700620813E+01 -0.91013785299E+00  0.66878603563E+01  0.00000000000E+00 0.  1.
</event>
<event>
 7    1  0.2974434E-011  0.5052885E+02  0.7816164E-02  0.1300439E+00
        -11   -1    0    0    0    0  0.00000000000E+00  0.00000000000E+00  0.45593999997E+02  0.45594000000E+02  0.51100000000E-03 0.  1.
         11   -1    0    0    0    0 -0.00000000000E+00 -0.00000000000E+00 -0.45593999997E+02  0.45594000000E+02  0.51100000000E-03 0. -1.
    9900012    2    1    2    0    0 -0.23870613903E+01 -0.27139571796E+00 -0.40588106702E+02  0.50528854370E+02  0.29999983343E+02 0.  0.
        -12    1    1    2    0    0  0.23870613903E+01  0.27139571796E+00  0.40588106702E+02  0.40659145630E+02  0.00000000000E+00 0.  1.
         11    1    3    3    0    0  0.56209051915E+01 -0.31213406868E+01 -0.20586837983E+02  0.21567457923E+02  0.51100000000E-03 0. -1.
        -11    1    3    3    0    0  0.59587212349E+01 -0.82318826794E+00 -0.32247140767E+01  0.68251577870E+01  0.51100000000E-03 0.  1.
        -12    1    3    3    0    0 -0.13966687817E+02  0.36731332367E+01 -0.16776554642E+02  0.22136238660E+02  0.00000000000E+00 0.  1.
</event>
<event>
 7    1  0.2974434E-011  0.5052885E+02  0.7816164E-02  0.1300439E+00
        -11   -1    0    0    0    0  0.00000000000E+00  0.00000000000E+00  0.45593999997E+02  0.45594000000E+02  0.51100000000E-03 0. -1.
         11   -1    0    0    0    0 -0.00000000000E+00 -0.00000000000E+00 -0.45593999997E+02  0.45594000000E+02  0.51100000000E-03 0.  1.
    9900012    2    1    2    0    0 -0.14756726074E+02 -0.29198288161E+02  0.24142607885E+02  0.50528849598E+02  0.29999968837E+02 0.  0.
        -12    1    1    2    0    0  0.14756726074E+02  0.29198288161E+02 -0.24142607885E+02  0.40659150402E+02  0.00000000000E+00 0.  1.
         11    1    3    3    0    0 -0.11021406175E+02 -0.20129952342E+02  0.15204486731E+02  0.27529307881E+02  0.51100000000E-03 0. -1.
        -11    1    3    3    0    0  0.29818053026E+01 -0.11921194493E+02  0.97089610493E+01  0.15661097213E+02  0.51100000000E-03 0.  1.
        -12    1    3    3    0    0 -0.67171252019E+01  0.28528586740E+01 -0.77083989572E+00  0.73384445039E+01  0.00000000000E+00 0.  1.
</event>
<event>
 7    1  0.2974434E-011  0.5052886E+02  0.7816164E-02  0.1300439E+00
        -11   -1    0    0    0    0  0.00000000000E+00  0.00000000000E+00  0.45593999997E+02  0.45594000000E+02  0.51100000000E-03 0.  1.
         11   -1    0    0    0    0 -0.00000000000E+00 -0.00000000000E+00 -0.45593999997E+02  0.45594000000E+02  0.51100000000E-03 0. -1.
    9900012    2    1    2    0    0  0.30876579121E+02  0.14404814149E+01 -0.26414526739E+02  0.50528863908E+02  0.30000012333E+02 0.  0.
        -12    1    1    2    0    0 -0.30876579121E+02 -0.14404814149E+01  0.26414526739E+02  0.40659136092E+02  0.00000000000E+00 0.  1.
         11    1    3    3    0    0  0.93839524969E+01 -0.28239127789E+01 -0.12344250651E+02  0.15761141210E+02  0.51100000000E-03 0. -1.
        -11    1    3    3    0    0  0.23611618798E+02  0.38419898080E+01 -0.18232477440E+02  0.30078109346E+02  0.51100000000E-03 0.  1.
        -12    1    3    3    0    0 -0.21189921732E+01  0.42240438576E+00  0.41622013523E+01  0.46896133521E+01  0.00000000000E+00 0.  1.
</event>
<event>
 7    1  0.2974434E-011  0.5052886E+02  0.7816164E-02  0.1300439E+00
        -11   -1    0    0    0    0  0.00000000000E+00  0.00000000000E+00  0.45593999997E+02  0.45594000000E+02  0.51100000000E-03 0. -1.
         11   -1    0    0    0    0 -0.00000000000E+00 -0.00000000000E+00 -0.45593999997E+02  0.45594000000E+02  0.51100000000E-03 0.  1.
    9900012    2    1    2    0    0  0.12784411225E+02 -0.34870114731E+02  0.16546898658E+02  0.50528856786E+02  0.29999990686E+02 0.  0.
        -12    1    1    2    0    0 -0.12784411225E+02  0.34870114731E+02 -0.16546898658E+02  0.40659143214E+02  0.00000000000E+00 0.  1.
         11    1    3    3    0    0  0.11686743803E+02 -0.53637911084E+01 -0.20915805809E+01  0.13027852676E+02  0.51100000000E-03 0. -1.
        -11    1    3    3    0    0 -0.15436732431E+01  0.10477569316E+01  0.88488021575E+00  0.20648813347E+01  0.51100000000E-03 0.  1.
        -12    1    3    3    0    0  0.26413406653E+01 -0.30554080554E+02  0.17753599023E+02  0.35436122774E+02  0.00000000000E+00 0.  1.
</event>
<event>
 7    1  0.2974434E-011  0.5052886E+02  0.7816164E-02  0.1300439E+00
        -11   -1    0    0    0    0  0.00000000000E+00  0.00000000000E+00  0.45593999997E+02  0.45594000000E+02  0.51100000000E-03 0. -1.
         11   -1    0    0    0    0 -0.00000000000E+00 -0.00000000000E+00 -0.45593999997E+02  0.45594000000E+02  0.51100000000E-03 0.  1.
    9900012    2    1    2    0    0 -0.39104924281E+02 -0.15724459980E+01  0.11022607698E+02  0.50528861176E+02  0.30000004031E+02 0.  0.
        -12    1    1    2    0    0  0.39104924281E+02  0.15724459980E+01 -0.11022607698E+02  0.40659138824E+02  0.00000000000E+00 0.  1.
         11    1    3    3    0    0 -0.12681002521E+02  0.55447786489E+01  0.11376285864E+02  0.17915699136E+02  0.51100000000E-03 0. -1.
        -11    1    3    3    0    0 -0.70079782841E+01  0.56067955334E+01 -0.24547311705E+01  0.93044946754E+01  0.51100000000E-03 0.  1.
        -12    1    3    3    0    0 -0.19415943476E+02 -0.12724020180E+02  0.21010530044E+01  0.23308667365E+02  0.00000000000E+00 0.  1.
</event>
<event>
 7    1  0.2974434E-011  0.5052885E+02  0.7816164E-02  0.1300439E+00
        -11   -1    0    0    0    0  0.00000000000E+00  0.00000000000E+00  0.45593999997E+02  0.45594000000E+02  0.51100000000E-03 0.  1.
         11   -1    0    0    0    0 -0.00000000000E+00 -0.00000000000E+00 -0.45593999997E+02  0.45594000000E+02  0.51100000000E-03 0. -1.
    9900012    2    1    2    0    0 -0.22091427327E+02 -0.21958537185E+02 -0.26133458801E+02  0.50528853605E+02  0.29999981019E+02 0.  0.
        -12    1    1    2    0    0  0.22091427327E+02  0.21958537185E+02  0.26133458801E+02  0.40659146395E+02  0.00000000000E+00 0.  1.
         11    1    3    3    0    0  0.17609552108E+01 -0.81171657407E+01 -0.17850166596E+01  0.84956240296E+01  0.51100000000E-03 0. -1.
        -11    1    3    3    0    0 -0.49851220193E+01 -0.11000744863E+02 -0.13533143810E+01  0.12153159637E+02  0.51100000000E-03 0.  1.
         12    1    3    3    0    0 -0.18867260518E+02 -0.28406265815E+01 -0.22995127760E+02  0.29880069939E+02  0.00000000000E+00 0. -1.
</event>
<event>
 7    1  0.2974434E-011  0.5052886E+02  0.7816164E-02  0.1300439E+00
        -11   -1    0    0    0    0  0.00000000000E+00  0.00000000000E+00  0.45593999997E+02  0.45594000000E+02  0.51100000000E-03 0.  1.
         11   -1    0    0    0    0 -0.00000000000E+00 -0.00000000000E+00 -0.45593999997E+02  0.45594000000E+02  0.51100000000E-03 0. -1.
    9900012    2    1    2    0    0  0.29957651301E+02 -0.90457130743E+01 -0.25959188772E+02  0.50528864764E+02  0.30000014935E+02 0.  0.
        -12    1    1    2    0    0 -0.29957651301E+02  0.90457130743E+01  0.25959188772E+02  0.40659135236E+02  0.00000000000E+00 0.  1.
         11    1    3    3    0    0  0.82599927522E+01 -0.29613017145E+00 -0.98902667332E+01  0.12889241625E+02  0.51100000000E-03 0. -1.
        -11    1    3    3    0    0  0.10521171230E+02  0.83721530915E+01 -0.80856683288E+01  0.15689678901E+02  0.51100000000E-03 0.  1.
        -12    1    3    3    0    0  0.11176487319E+02 -0.17121735994E+02 -0.79832537099E+01  0.21949944238E+02  0.00000000000E+00 0.  1.
</event>
<event>
 7    1  0.2974434E-011  0.5052886E+02  0.7816164E-02  0.1300439E+00
        -11   -1    0    0    0    0  0.00000000000E+00  0.00000000000E+00  0.45593999997E+02  0.45594000000E+02  0.51100000000E-03 0. -1.
         11   -1    0    0    0    0 -0.00000000000E+00 -0.00000000000E+00 -0.45593999997E+02  0.45594000000E+02  0.51100000000E-03 0.  1.
    9900012    2    1    2    0    0 -0.95118738708E+01  0.36860590411E+02  0.14282387845E+02  0.50528862373E+02  0.30000007669E+02 0.  0.
        -12    1    1    2    0    0  0.95118738708E+01 -0.36860590411E+02 -0.14282387845E+02  0.40659137627E+02  0.00000000000E+00 0.  1.
         11    1    3    3    0    0 -0.53745183197E+01  0.17083444843E+02  0.33465492432E+01  0.18218916734E+02  0.51100000000E-03 0. -1.
        -11    1    3    3    0    0 -0.13548858960E+02  0.12015981729E+02  0.52787357207E+01  0.18863203522E+02  0.51100000000E-03 0.  1.
        -12    1    3    3    0    0  0.94115034088E+01  0.77611638395E+01  0.56571028812E+01  0.13446742117E+02  0.00000000000E+00 0.  1.
</event>
<event>
 7    1  0.2974434E-011  0.5052886E+02  0.7816164E-02  0.1300439E+00
        -11   -1    0    0    0    0  0.00000000000E+00  0.00000000000E+00  0.45593999997E+02  0.45594000000E+02  0.51100000000E-03 0.  1.
         11   -1    0    0    0    0 -0.00000000000E+00 -0.00000000000E+00 -0.45593999997E+02  0.45594000000E+02  0.51100000000E-03 0. -1.
    9900012    2    1    2    0    0 -0.19867255815E+02  0.12633819566E+02 -0.33148821801E+02  0.50528860348E+02  0.30000001514E+02 0.  0.
        -12    1    1    2    0    0  0.19867255815E+02 -0.12633819566E+02  0.33148821801E+02  0.40659139652E+02  0.00000000000E+00 0.  1.
         11    1    3    3    0    0 -0.65617699787E+01  0.16844435610E+01 -0.21665347903E+02  0.22699812232E+02  0.51100000000E-03 0. -1.
        -11    1    3    3    0    0 -0.12132401003E+02  0.59900367664E+01 -0.16045725811E+02  0.20989068860E+02  0.51100000000E-03 0.  1.
        -12    1    3    3    0    0 -0.11730848335E+01  0.49593392384E+01  0.45622519125E+01  0.68399792559E+01  0.00000000000E+00 0.  1.
</event>
<event>
 7    1  0.2974434E-011  0.5052886E+02  0.7816164E-02  0.1300439E+00
        -11   -1    0    0    0    0  0.00000000000E+00  0.00000000000E+00  0.45593999997E+02  0.45594000000E+02  0.51100000000E-03 0. -1.
         11   -1    0    0    0    0 -0.00000000000E+00 -0.00000000000E+00 -0.45593999997E+02  0.45594000000E+02  0.51100000000E-03 0.  1.
    9900012    2    1    2    0    0  0.29332612098E+02 -0.26478065989E+02  0.95747429470E+01  0.50528858180E+02  0.29999994925E+02 0.  0.
        -12    1    1    2    0    0 -0.29332612098E+02  0.26478065989E+02 -0.95747429470E+01  0.40659141820E+02  0.00000000000E+00 0.  1.
         11    1    3    3    0    0  0.75889316737E+01 -0.12066672717E+02 -0.67958013922E+00  0.14270890085E+02  0.51100000000E-03 0. -1.
        -11    1    3    3    0    0  0.25705095904E+02 -0.77004057824E+01  0.93344170116E+01  0.28410905404E+02  0.51100000000E-03 0.  1.
         12    1    3    3    0    0 -0.39614154799E+01 -0.67109874903E+01  0.91990607464E+00  0.78470626915E+01  0.00000000000E+00 0. -1.
</event>
<event>
 7    1  0.2974434E-011  0.5052886E+02  0.7816164E-02  0.1300439E+00
        -11   -1    0    0    0    0  0.00000000000E+00  0.00000000000E+00  0.45593999997E+02  0.45594000000E+02  0.51100000000E-03 0.  1.
         11   -1    0    0    0    0 -0.00000000000E+00 -0.00000000000E+00 -0.45593999997E+02  0.45594000000E+02  0.51100000000E-03 0. -1.
    9900012    2    1    2    0    0  0.30452656078E+02 -0.75427288781E+01 -0.25863266475E+02  0.50528861127E+02  0.30000003882E+02 0.  0.
        -12    1    1    2    0    0 -0.30452656078E+02  0.75427288781E+01  0.25863266475E+02  0.40659138873E+02  0.00000000000E+00 0.  1.
         11    1    3    3    0    0  0.93728828894E+01 -0.59960551221E+01 -0.18944639645E+02  0.21970502548E+02  0.51100000000E-03 0. -1.
        -11    1    3    3    0    0 -0.24790346844E+01 -0.22937524098E+00 -0.40977008501E+01  0.47947240260E+01  0.51100000000E-03 0.  1.
         12    1    3    3    0    0  0.23558807873E+02 -0.13172985150E+01 -0.28209259798E+01  0.23763634553E+02  0.00000000000E+00 0. -1.
</event>
<event>
 7    1  0.2974434E-011  0.5052887E+02  0.7816164E-02  0.1300439E+00
        -11   -1    0    0    0    0  0.00000000000E+00  0.00000000000E+00  0.45593999997E+02  0.45594000000E+02  0.51100000000E-03 0.  1.
         11   -1    0    0    0    0 -0.00000000000E+00 -0.00000000000E+00 -0.45593999997E+02  0.45594000000E+02  0.51100000000E-03 0. -1.
    9900012    2    1    2    0    0  0.28867056546E+02 -0.27890286628E+02 -0.64799623099E+01  0.50528868758E+02  0.30000027076E+02 0.  0.
        -12    1    1    2    0    0 -0.28867056546E+02  0.27890286628E+02  0.64799623099E+01  0.40659131242E+02  0.00000000000E+00 0.  1.
         11    1    3    3    0    0  0.26317085959E+01 -0.63268554960E+01  0.22922795626E+01  0.72256166834E+01  0.51100000000E-03 0. -1.
        -11    1    3    3    0    0  0.15333636443E+02 -0.29665128972E+01  0.64669461962E+01  0.16903904836E+02  0.51100000000E-03 0.  1.
         12    1    3    3    0    0  0.10901711507E+02 -0.18596918235E+02 -0.15239188069E+02  0.26399347238E+02  0.00000000000E+00 0. -1.
</event>
<event>
 7    1  0.2974434E-011  0.5052889E+02  0.7816164E-02  0.1300439E+00
        -11   -1    0    0    0    0  0.00000000000E+00  0.00000000000E+00  0.45593999997E+02  0.45594000000E+02  0.51100000000E-03 0.  1.
         11   -1    0    0    0    0 -0.00000000000E+00 -0.00000000000E+00 -0.45593999997E+02  0.45594000000E+02  0.51100000000E-03 0. -1.
    9900012    2    1    2    0    0  0.20926068039E+02  0.34545004028E+02  0.46803288131E+01  0.50528891492E+02  0.30000096179E+02 0.  0.
        -12    1    1    2    0    0 -0.20926068039E+02 -0.34545004028E+02 -0.46803288131E+01  0.40659108508E+02  0.00000000000E+00 0.  1.
         11    1    3    3    0    0  0.87339062439E+01  0.12212698027E+01 -0.13231767369E+01  0.89175902096E+01  0.51100000000E-03 0. -1.
        -11    1    3    3    0    0  0.67564181936E+01  0.62453025461E+01 -0.65293537846E+01  0.11282085437E+02  0.51100000000E-03 0.  1.
         12    1    3    3    0    0  0.54357436013E+01  0.27078431679E+02  0.12532859335E+02  0.30329215846E+02  0.00000000000E+00 0. -1.
</event>
<event>
 7    1  0.2974434E-011  0.5052886E+02  0.7816164E-02  0.1300439E+00
        -11   -1    0    0    0    0  0.00000000000E+00  0.00000000000E+00  0.45593999997E+02  0.45594000000E+02  0.51100000000E-03 0.  1.
         11   -1    0    0    0    0 -0.00000000000E+00 -0.00000000000E+00 -0.45593999997E+02  0.45594000000E+02  0.51100000000E-03 0. -1.
    9900012    2    1    2    0    0 -0.21085287002E+01  0.26478632251E+02 -0.30783144063E+02  0.50528858131E+02  0.29999994774E+02 0.  0.
        -12    1    1    2    0    0  0.21085287002E+01 -0.26478632251E+02  0.30783144063E+02  0.40659141869E+02  0.00000000000E+00 0.  1.
         11    1    3    3    0    0 -0.56298002089E+00  0.80625581185E+00 -0.13744688422E+02  0.13779820573E+02  0.51100000000E-03 0. -1.
        -11    1    3    3    0    0 -0.17198620625E+01  0.46954077478E+01 -0.14836000478E+02  0.15656043238E+02  0.51100000000E-03 0.  1.
        -12    1    3    3    0    0  0.17431338314E+00  0.20976968691E+02 -0.22024551626E+01  0.21092994320E+02  0.00000000000E+00 0.  1.
</event>
<event>
 7    1  0.2974434E-011  0.5052886E+02  0.7816164E-02  0.1300439E+00
        -11   -1    0    0    0    0  0.00000000000E+00  0.00000000000E+00  0.45593999997E+02  0.45594000000E+02  0.51100000000E-03 0.  1.
         11   -1    0    0    0    0 -0.00000000000E+00 -0.00000000000E+00 -0.45593999997E+02  0.45594000000E+02  0.51100000000E-03 0. -1.
    9900012    2    1    2    0    0  0.37196578228E+02 -0.15764877211E+01 -0.16343031304E+02  0.50528863049E+02  0.30000009724E+02 0.  0.
        -12    1    1    2    0    0 -0.37196578228E+02  0.15764877211E+01  0.16343031304E+02  0.40659136951E+02  0.00000000000E+00 0.  1.
         11    1    3    3    0    0  0.57665545443E+01  0.38460371788E+01  0.79190493997E+00  0.69765512245E+01  0.51100000000E-03 0. -1.
        -11    1    3    3    0    0  0.16474515827E+01  0.14110875563E+01  0.52455650033E+01  0.56763736024E+01  0.51100000000E-03 0.  1.
        -12    1    3    3    0    0  0.29782572101E+02 -0.68336124561E+01 -0.22380501247E+02  0.37875938222E+02  0.00000000000E+00 0.  1.
</event>
<event>
 7    1  0.2974434E-011  0.5052886E+02  0.7816164E-02  0.1300439E+00
        -11   -1    0    0    0    0  0.00000000000E+00  0.00000000000E+00  0.45593999997E+02  0.45594000000E+02  0.51100000000E-03 0.  1.
         11   -1    0    0    0    0 -0.00000000000E+00 -0.00000000000E+00 -0.45593999997E+02  0.45594000000E+02  0.51100000000E-03 0. -1.
    9900012    2    1    2    0    0  0.28587853451E+02  0.28600868357E+02 -0.42297137238E+01  0.50528861865E+02  0.30000006126E+02 0.  0.
        -12    1    1    2    0    0 -0.28587853451E+02 -0.28600868357E+02  0.42297137238E+01  0.40659138135E+02  0.00000000000E+00 0.  1.
         11    1    3    3    0    0  0.48409666397E+01  0.14661542382E+01 -0.66479596974E+01  0.83534384930E+01  0.51100000000E-03 0. -1.
        -11    1    3    3    0    0  0.18068627921E+02  0.49975847316E+01 -0.21488062719E+01  0.18869778397E+02  0.51100000000E-03 0.  1.
        -12    1    3    3    0    0  0.56782588901E+01  0.22137129387E+02  0.45670522456E+01  0.23305644975E+02  0.00000000000E+00 0.  1.
</event>
<event>
 7    1  0.2974434E-011  0.5052883E+02  0.7816164E-02  0.1300439E+00
        -11   -1    0    0    0    0  0.00000000000E+00  0.00000000000E+00  0.45593999997E+02  0.45594000000E+02  0.51100000000E-03 0. -1.
         11   -1    0    0    0    0 -0.00000000000E+00 -0.00000000000E+00 -0.45593999997E+02  0.45594000000E+02  0.51100000000E-03 0.  1.
    9900012    2    1    2    0    0  0.57731716044E+01 -0.14263567134E+02  0.37634945684E+02  0.50528831362E+02  0.29999913406E+02 0.  0.
        -12    1    1    2    0    0 -0.57731716044E+01  0.14263567134E+02 -0.37634945684E+02  0.40659168638E+02  0.00000000000E+00 0.  1.
         11    1    3    3    0    0  0.61028128096E+01 -0.93692838977E+01  0.11634874678E+02  0.16136855765E+02  0.51100000000E-03 0. -1.
        -11    1    3    3    0    0 -0.30847545033E+01 -0.11010216457E+02  0.52448254179E+01  0.12579696765E+02  0.51100000000E-03 0.  1.
        -12    1    3    3    0    0  0.27551132981E+01  0.61159332202E+01  0.20755245587E+02  0.21812278832E+02  0.00000000000E+00 0.  1.
</event>
<event>
 7    1  0.2974434E-011  0.5052886E+02  0.7816164E-02  0.1300439E+00
        -11   -1    0    0    0    0  0.00000000000E+00  0.00000000000E+00  0.45593999997E+02  0.45594000000E+02  0.51100000000E-03 0.  1.
         11   -1    0    0    0    0 -0.00000000000E+00 -0.00000000000E+00 -0.45593999997E+02  0.45594000000E+02  0.51100000000E-03 0. -1.
    9900012    2    1    2    0    0  0.36011016428E+02 -0.49794504025E+01 -0.18209257986E+02  0.50528864411E+02  0.30000013863E+02 0.  0.
        -12    1    1    2    0    0 -0.36011016428E+02  0.49794504025E+01  0.18209257986E+02  0.40659135589E+02  0.00000000000E+00 0.  1.
         11    1    3    3    0    0 -0.22076407854E+01 -0.26334991219E+01 -0.41742185559E+01  0.54067639376E+01  0.51100000000E-03 0. -1.
        -11    1    3    3    0    0  0.21415553978E+02 -0.16797699051E+01 -0.17790281997E+02  0.27891606496E+02  0.51100000000E-03 0.  1.
        -12    1    3    3    0    0  0.16803103235E+02 -0.66618137548E+00  0.37552425676E+01  0.17230493977E+02  0.00000000000E+00 0.  1.
</event>
<event>
 7    1  0.2974434E-011  0.5052886E+02  0.7816164E-02  0.1300439E+00
        -11   -1    0    0    0    0  0.00000000000E+00  0.00000000000E+00  0.45593999997E+02  0.45594000000E+02  0.51100000000E-03 0.  1.
         11   -1    0    0    0    0 -0.00000000000E+00 -0.00000000000E+00 -0.45593999997E+02  0.45594000000E+02  0.51100000000E-03 0. -1.
    9900012    2    1    2    0    0  0.10240327660E+01  0.24738439919E+02 -0.32250992633E+02  0.50528861070E+02  0.30000003708E+02 0.  0.
        -12    1    1    2    0    0 -0.10240327660E+01 -0.24738439919E+02  0.32250992633E+02  0.40659138930E+02  0.00000000000E+00 0.  1.
         11    1    3    3    0    0 -0.37873771206E-01 -0.17872529789E+01 -0.72540963577E+01  0.74711191840E+01  0.51100000000E-03 0. -1.
        -11    1    3    3    0    0  0.18290491191E+01  0.70018714725E+00 -0.15356516515E+02  0.15480900570E+02  0.51100000000E-03 0.  1.
         12    1    3    3    0    0 -0.76714258193E+00  0.25825505751E+02 -0.96403797602E+01  0.27576841316E+02  0.00000000000E+00 0. -1.
</event>
<event>
 7    1  0.2974434E-011  0.5052884E+02  0.7816164E-02  0.1300439E+00
        -11   -1    0    0    0    0  0.00000000000E+00  0.00000000000E+00  0.45593999997E+02  0.45594000000E+02  0.51100000000E-03 0. -1.
         11   -1    0    0    0    0 -0.00000000000E+00 -0.00000000000E+00 -0.45593999997E+02  0.45594000000E+02  0.51100000000E-03 0.  1.
    9900012    2    1    2    0    0  0.36552238238E+01 -0.24353019464E+02  0.32353316613E+02  0.50528839728E+02  0.29999938836E+02 0.  0.
        -12    1    1    2    0    0 -0.36552238238E+01  0.24353019464E+02 -0.32353316613E+02  0.40659160272E+02  0.00000000000E+00 0.  1.
         11    1    3    3    0    0  0.19247777134E+01 -0.11057436005E+02  0.92580932625E+01  0.14549362576E+02  0.51100000000E-03 0. -1.
        -11    1    3    3    0    0  0.11476364946E+02 -0.15871062299E+01  0.58818856448E+01  0.12993168880E+02  0.51100000000E-03 0.  1.
         12    1    3    3    0    0 -0.97459188355E+01 -0.11708477229E+02  0.17213337706E+02  0.22986308271E+02  0.00000000000E+00 0. -1.
</event>
<event>
 7    1  0.2974434E-011  0.5052886E+02  0.7816164E-02  0.1300439E+00
        -11   -1    0    0    0    0  0.00000000000E+00  0.00000000000E+00  0.45593999997E+02  0.45594000000E+02  0.51100000000E-03 0.  1.
         11   -1    0    0    0    0 -0.00000000000E+00 -0.00000000000E+00 -0.45593999997E+02  0.45594000000E+02  0.51100000000E-03 0. -1.
    9900012    2    1    2    0    0  0.10399974661E+02 -0.16011239518E+01 -0.39273940222E+02  0.50528862633E+02  0.30000008460E+02 0.  0.
        -12    1    1    2    0    0 -0.10399974661E+02  0.16011239518E+01  0.39273940222E+02  0.40659137367E+02  0.00000000000E+00 0.  1.
         11    1    3    3    0    0  0.15040582705E+01  0.46728277487E+00 -0.25497890623E+02  0.25546486470E+02  0.51100000000E-03 0. -1.
        -11    1    3    3    0    0  0.65105827635E+01  0.72186061033E+01 -0.11628354690E+02  0.15156338445E+02  0.51100000000E-03 0.  1.
        -12    1    3    3    0    0  0.23853336272E+01 -0.92870128300E+01 -0.21476949084E+01  0.98260377181E+01  0.00000000000E+00 0.  1.
</event>
<event>
 7    1  0.2974434E-011  0.5052886E+02  0.7816164E-02  0.1300439E+00
        -11   -1    0    0    0    0  0.00000000000E+00  0.00000000000E+00  0.45593999997E+02  0.45594000000E+02  0.51100000000E-03 0.  1.
         11   -1    0    0    0    0 -0.00000000000E+00 -0.00000000000E+00 -0.45593999997E+02  0.45594000000E+02  0.51100000000E-03 0. -1.
    9900012    2    1    2    0    0  0.23709888834E+02 -0.27337681904E+02 -0.18538017593E+02  0.50528858633E+02  0.29999996301E+02 0.  0.
        -12    1    1    2    0    0 -0.23709888834E+02  0.27337681904E+02  0.18538017593E+02  0.40659141367E+02  0.00000000000E+00 0.  1.
         11    1    3    3    0    0  0.23165822767E+01  0.14458358030E+01 -0.63808265113E-01  0.27314952626E+01  0.51100000000E-03 0. -1.
        -11    1    3    3    0    0  0.13513114684E+01 -0.62742827401E-01 -0.12129805443E+02  0.12205005518E+02  0.51100000000E-03 0.  1.
         12    1    3    3    0    0  0.20041995089E+02 -0.28720774879E+02 -0.63444038848E+01  0.35592357852E+02  0.00000000000E+00 0. -1.
</event>
<event>
 7    1  0.2974434E-011  0.5052898E+02  0.7816164E-02  0.1300438E+00
        -11   -1    0    0    0    0  0.00000000000E+00  0.00000000000E+00  0.45593999997E+02  0.45594000000E+02  0.51100000000E-03 0. -1.
         11   -1    0    0    0    0 -0.00000000000E+00 -0.00000000000E+00 -0.45593999997E+02  0.45594000000E+02  0.51100000000E-03 0.  1.
    9900012    2    1    2    0    0  0.58611951575E+01  0.40225967802E+02 -0.82084949023E+00  0.50528980236E+02  0.30000365924E+02 0.  0.
        -12    1    1    2    0    0 -0.58611951575E+01 -0.40225967802E+02  0.82084949023E+00  0.40659019764E+02  0.00000000000E+00 0.  1.
         11    1    3    3    0    0  0.38140144899E+01 -0.82628871363E+00 -0.14764761296E+01  0.41724622934E+01  0.51100000000E-03 0.  1.
        -11    1    3    3    0    0  0.74124089872E+01  0.32450292724E+01 -0.88215637666E+00  0.81395467998E+01  0.51100000000E-03 0. -1.
         12    1    3    3    0    0 -0.53652283197E+01  0.37807227243E+02  0.15377830160E+01  0.38216971143E+02  0.00000000000E+00 0. -1.
</event>
<event>
 7    1  0.2974434E-011  0.5052886E+02  0.7816164E-02  0.1300439E+00
        -11   -1    0    0    0    0  0.00000000000E+00  0.00000000000E+00  0.45593999997E+02  0.45594000000E+02  0.51100000000E-03 0. -1.
         11   -1    0    0    0    0 -0.00000000000E+00 -0.00000000000E+00 -0.45593999997E+02  0.45594000000E+02  0.51100000000E-03 0.  1.
    9900012    2    1    2    0    0 -0.31869890019E+02 -0.17391921232E+02  0.18302929593E+02  0.50528855326E+02  0.29999986248E+02 0.  0.
        -12    1    1    2    0    0  0.31869890019E+02  0.17391921232E+02 -0.18302929593E+02  0.40659144674E+02  0.00000000000E+00 0.  1.
         11    1    3    3    0    0 -0.37848897937E+00  0.91454589653E+00 -0.75864032535E+00  0.12470699695E+01  0.51100000000E-03 0. -1.
        -11    1    3    3    0    0  0.44310415237E+01 -0.59476556126E+01  0.38933129882E+01  0.83765519491E+01  0.51100000000E-03 0.  1.
         12    1    3    3    0    0 -0.35922442563E+02 -0.12358811516E+02  0.15168256930E+02  0.40905233407E+02  0.00000000000E+00 0. -1.
</event>
<event>
 7    1  0.2974434E-011  0.5052886E+02  0.7816164E-02  0.1300439E+00
        -11   -1    0    0    0    0  0.00000000000E+00  0.00000000000E+00  0.45593999997E+02  0.45594000000E+02  0.51100000000E-03 0. -1.
         11   -1    0    0    0    0 -0.00000000000E+00 -0.00000000000E+00 -0.45593999997E+02  0.45594000000E+02  0.51100000000E-03 0.  1.
    9900012    2    1    2    0    0  0.47220903534E+01  0.18308069888E+02  0.35995585116E+02  0.50528859476E+02  0.29999998863E+02 0.  0.
        -12    1    1    2    0    0 -0.47220903534E+01 -0.18308069888E+02 -0.35995585116E+02  0.40659140524E+02  0.00000000000E+00 0.  1.
         11    1    3    3    0    0  0.14298391859E-01  0.20223724063E+02  0.31525505775E+02  0.37454729127E+02  0.51100000000E-03 0. -1.
        -11    1    3    3    0    0 -0.29745336357E+01  0.13342362592E+01 -0.59696254726E+00  0.33142723620E+01  0.51100000000E-03 0.  1.
        -12    1    3    3    0    0  0.76823255972E+01 -0.32498904343E+01  0.50670418887E+01  0.97598579866E+01  0.00000000000E+00 0.  1.
</event>
<event>
 7    1  0.2974434E-011  0.5052887E+02  0.7816164E-02  0.1300439E+00
        -11   -1    0    0    0    0  0.00000000000E+00  0.00000000000E+00  0.45593999997E+02  0.45594000000E+02  0.51100000000E-03 0. -1.
         11   -1    0    0    0    0 -0.00000000000E+00 -0.00000000000E+00 -0.45593999997E+02  0.45594000000E+02  0.51100000000E-03 0.  1.
    9900012    2    1    2    0    0 -0.35798133502E+02 -0.89462189031E+01 -0.17076998248E+02  0.50528867397E+02  0.30000022940E+02 0.  0.
        -12    1    1    2    0    0  0.35798133502E+02  0.89462189031E+01  0.17076998248E+02  0.40659132603E+02  0.00000000000E+00 0.  1.
         11    1    3    3    0    0 -0.17243342516E+02 -0.11854059599E+02 -0.15079711900E+02  0.25792427210E+02  0.51100000000E-03 0. -1.
        -11    1    3    3    0    0 -0.17064088029E+00 -0.11026902587E+01 -0.54867868719E+01  0.55990958695E+01  0.51100000000E-03 0.  1.
         12    1    3    3    0    0 -0.18384150105E+02  0.40105309546E+01  0.34895005247E+01  0.19137344318E+02  0.00000000000E+00 0. -1.
</event>
<event>
 7    1  0.2974434E-011  0.5052887E+02  0.7816164E-02  0.1300439E+00
        -11   -1    0    0    0    0  0.00000000000E+00  0.00000000000E+00  0.45593999997E+02  0.45594000000E+02  0.51100000000E-03 0.  1.
         11   -1    0    0    0    0 -0.00000000000E+00 -0.00000000000E+00 -0.45593999997E+02  0.45594000000E+02  0.51100000000E-03 0. -1.
    9900012    2    1    2    0    0 -0.76926603143E+00  0.39334797733E+02  0.10263851196E+02  0.50528871575E+02  0.30000035639E+02 0.  0.
        -12    1    1    2    0    0  0.76926603143E+00 -0.39334797733E+02 -0.10263851196E+02  0.40659128425E+02  0.00000000000E+00 0.  1.
         11    1    3    3    0    0  0.91573638799E+00  0.38921509962E+01 -0.35292657170E+01  0.53332100345E+01  0.51100000000E-03 0. -1.
        -11    1    3    3    0    0 -0.45904185199E+01 -0.16807398320E+01 -0.12326392801E+01  0.50414510239E+01  0.51100000000E-03 0.  1.
        -12    1    3    3    0    0  0.29054161004E+01  0.37123386569E+02  0.15025756193E+02  0.40154210517E+02  0.00000000000E+00 0.  1.
</event>
<event>
 7    1  0.2974434E-011  0.5052885E+02  0.7816164E-02  0.1300439E+00
        -11   -1    0    0    0    0  0.00000000000E+00  0.00000000000E+00  0.45593999997E+02  0.45594000000E+02  0.51100000000E-03 0.  1.
         11   -1    0    0    0    0 -0.00000000000E+00 -0.00000000000E+00 -0.45593999997E+02  0.45594000000E+02  0.51100000000E-03 0. -1.
    9900012    2    1    2    0    0 -0.30791505758E+02  0.56041454256E+01 -0.25954630475E+02  0.50528854462E+02  0.29999983623E+02 0.  0.
        -12    1    1    2    0    0  0.30791505758E+02 -0.56041454256E+01  0.25954630475E+02  0.40659145538E+02  0.00000000000E+00 0.  1.
         11    1    3    3    0    0 -0.17191783667E+02  0.45542953201E+01 -0.29516306934E+02  0.34460287387E+02  0.51100000000E-03 0. -1.
        -11    1    3    3    0    0 -0.33357082975E+01  0.14184096996E+01 -0.22513313323E+01  0.42670046814E+01  0.51100000000E-03 0.  1.
        -12    1    3    3    0    0 -0.10264013794E+02 -0.36855959409E+00  0.58130077920E+01  0.11801562393E+02  0.00000000000E+00 0.  1.
</event>
<event>
 7    1  0.2974434E-011  0.5052886E+02  0.7816164E-02  0.1300439E+00
        -11   -1    0    0    0    0  0.00000000000E+00  0.00000000000E+00  0.45593999997E+02  0.45594000000E+02  0.51100000000E-03 0.  1.
         11   -1    0    0    0    0 -0.00000000000E+00 -0.00000000000E+00 -0.45593999997E+02  0.45594000000E+02  0.51100000000E-03 0. -1.
    9900012    2    1    2    0    0 -0.37808520917E+02 -0.58137428085E+01 -0.13779764868E+02  0.50528858603E+02  0.29999996209E+02 0.  0.
        -12    1    1    2    0    0  0.37808520917E+02  0.58137428085E+01  0.13779764868E+02  0.40659141397E+02  0.00000000000E+00 0.  1.
         11    1    3    3    0    0 -0.33978112008E+02 -0.87847530955E+01 -0.13964655903E+02  0.37771624234E+02  0.51100000000E-03 0. -1.
        -11    1    3    3    0    0 -0.75348979913E+01 -0.87501738431E-01 -0.14676778610E+01  0.76770061130E+01  0.51100000000E-03 0.  1.
        -12    1    3    3    0    0  0.37044890822E+01  0.30585120254E+01  0.16525688965E+01  0.50802282555E+01  0.00000000000E+00 0.  1.
</event>
<event>
 7    1  0.2974434E-011  0.5052886E+02  0.7816164E-02  0.1300439E+00
        -11   -1    0    0    0    0  0.00000000000E+00  0.00000000000E+00  0.45593999997E+02  0.45594000000E+02  0.51100000000E-03 0.  1.
         11   -1    0    0    0    0 -0.00000000000E+00 -0.00000000000E+00 -0.45593999997E+02  0.45594000000E+02  0.51100000000E-03 0. -1.
    9900012    2    1    2    0    0  0.22194805000E+02 -0.44895033316E+01 -0.33769818005E+02  0.50528860594E+02  0.30000002263E+02 0.  0.
        -12    1    1    2    0    0 -0.22194805000E+02  0.44895033316E+01  0.33769818005E+02  0.40659139406E+02  0.00000000000E+00 0.  1.
         11    1    3    3    0    0  0.46050543440E+01 -0.28098200687E+01 -0.78304487771E+01  0.95088139450E+01  0.51100000000E-03 0. -1.
        -11    1    3    3    0    0  0.17051636980E+02 -0.90628143067E+01 -0.67564363848E+01  0.20458307842E+02  0.51100000000E-03 0.  1.
         12    1    3    3    0    0  0.53811367534E+00  0.73831310438E+01 -0.19182932843E+02  0.20561738808E+02  0.00000000000E+00 0. -1.
</event>
<event>
 7    1  0.2974434E-011  0.5052886E+02  0.7816164E-02  0.1300439E+00
        -11   -1    0    0    0    0  0.00000000000E+00  0.00000000000E+00  0.45593999997E+02  0.45594000000E+02  0.51100000000E-03 0.  1.
         11   -1    0    0    0    0 -0.00000000000E+00 -0.00000000000E+00 -0.45593999997E+02  0.45594000000E+02  0.51100000000E-03 0. -1.
    9900012    2    1    2    0    0 -0.12033123151E+02 -0.55533193627E+01 -0.38438655496E+02  0.50528860252E+02  0.30000001221E+02 0.  0.
        -12    1    1    2    0    0  0.12033123151E+02  0.55533193627E+01  0.38438655496E+02  0.40659139748E+02  0.00000000000E+00 0.  1.
         11    1    3    3    0    0 -0.10397573046E+02 -0.11474966903E+02 -0.14385788084E+02  0.21136113402E+02  0.51100000000E-03 0. -1.
        -11    1    3    3    0    0 -0.24237115075E+01 -0.19232475594E+00 -0.23013016564E+02  0.23141095435E+02  0.51100000000E-03 0.  1.
        -12    1    3    3    0    0  0.78816140228E+00  0.61139722958E+01 -0.10398508475E+01  0.62516514150E+01  0.00000000000E+00 0.  1.
</event>
<event>
 7    1  0.2974434E-011  0.5052881E+02  0.7816164E-02  0.1300439E+00
        -11   -1    0    0    0    0  0.00000000000E+00  0.00000000000E+00  0.45593999997E+02  0.45594000000E+02  0.51100000000E-03 0.  1.
         11   -1    0    0    0    0 -0.00000000000E+00 -0.00000000000E+00 -0.45593999997E+02  0.45594000000E+02  0.51100000000E-03 0. -1.
    9900012    2    1    2    0    0  0.11131744403E+02  0.12163769117E+02 -0.37165799916E+02  0.50528810436E+02  0.29999849801E+02 0.  0.
        -12    1    1    2    0    0 -0.11131744403E+02 -0.12163769117E+02  0.37165799916E+02  0.40659189564E+02  0.00000000000E+00 0.  1.
         11    1    3    3    0    0  0.10268440875E+02  0.15574069510E+02 -0.17052541138E+02  0.25274130621E+02  0.51100000000E-03 0. -1.
        -11    1    3    3    0    0  0.48610818226E+01  0.43603046017E+01 -0.83197624666E+01  0.10576427585E+02  0.51100000000E-03 0.  1.
        -12    1    3    3    0    0 -0.39977782945E+01 -0.77706049944E+01 -0.11793496312E+02  0.14678252230E+02  0.00000000000E+00 0.  1.
</event>
<event>
 7    1  0.2974434E-011  0.5052885E+02  0.7816164E-02  0.1300439E+00
        -11   -1    0    0    0    0  0.00000000000E+00  0.00000000000E+00  0.45593999997E+02  0.45594000000E+02  0.51100000000E-03 0. -1.
         11   -1    0    0    0    0 -0.00000000000E+00 -0.00000000000E+00 -0.45593999997E+02  0.45594000000E+02  0.51100000000E-03 0.  1.
    9900012    2    1    2    0    0 -0.37422072228E+02  0.13102489493E+02 -0.90044145716E+01  0.50528853396E+02  0.29999980383E+02 0.  0.
        -12    1    1    2    0    0  0.37422072228E+02 -0.13102489493E+02  0.90044145716E+01  0.40659146604E+02  0.00000000000E+00 0.  1.
         11    1    3    3    0    0 -0.17867941973E+01  0.93752924677E+01 -0.62421937649E+00  0.95644337234E+01  0.51100000000E-03 0. -1.
        -11    1    3    3    0    0  0.14327181561E+01  0.21624054900E+01  0.85504324102E+00  0.27312594207E+01  0.51100000000E-03 0.  1.
         12    1    3    3    0    0 -0.37067996187E+02  0.15647915349E+01 -0.92352384361E+01  0.38233160252E+02  0.00000000000E+00 0. -1.
</event>
<event>
 7    1  0.2974434E-011  0.5052886E+02  0.7816164E-02  0.1300439E+00
        -11   -1    0    0    0    0  0.00000000000E+00  0.00000000000E+00  0.45593999997E+02  0.45594000000E+02  0.51100000000E-03 0.  1.
         11   -1    0    0    0    0 -0.00000000000E+00 -0.00000000000E+00 -0.45593999997E+02  0.45594000000E+02  0.51100000000E-03 0. -1.
    9900012    2    1    2    0    0 -0.85578364821E+01  0.17603636248E+01 -0.39709324558E+02  0.50528857090E+02  0.29999991611E+02 0.  0.
        -12    1    1    2    0    0  0.85578364821E+01 -0.17603636248E+01  0.39709324558E+02  0.40659142910E+02  0.00000000000E+00 0.  1.
         11    1    3    3    0    0 -0.24248861911E+01  0.50151564009E+01 -0.11931542346E+02  0.13167899217E+02  0.51100000000E-03 0. -1.
        -11    1    3    3    0    0 -0.80744908819E+01 -0.38955153718E+00 -0.31356849405E+02  0.32382111702E+02  0.51100000000E-03 0.  1.
         12    1    3    3    0    0  0.19415405909E+01 -0.28652412389E+01  0.35790671934E+01  0.49788461714E+01  0.00000000000E+00 0. -1.
</event>
<event>
 7    1  0.2974434E-011  0.5052886E+02  0.7816164E-02  0.1300439E+00
        -11   -1    0    0    0    0  0.00000000000E+00  0.00000000000E+00  0.45593999997E+02  0.45594000000E+02  0.51100000000E-03 0.  1.
         11   -1    0    0    0    0 -0.00000000000E+00 -0.00000000000E+00 -0.45593999997E+02  0.45594000000E+02  0.51100000000E-03 0. -1.
    9900012    2    1    2    0    0 -0.19281123330E+02 -0.35074148624E+02 -0.71560068462E+01  0.50528855241E+02  0.29999985991E+02 0.  0.
        -12    1    1    2    0    0  0.19281123330E+02  0.35074148624E+02  0.71560068462E+01  0.40659144759E+02  0.00000000000E+00 0.  1.
         11    1    3    3    0    0  0.19372262819E+00  0.28255897464E+01 -0.15350759278E+01  0.32214816835E+01  0.51100000000E-03 0. -1.
        -11    1    3    3    0    0 -0.10293906300E+02 -0.29195483595E+01 -0.26335649818E+01  0.11019252892E+02  0.51100000000E-03 0.  1.
         12    1    3    3    0    0 -0.91809396585E+01 -0.34980190010E+02 -0.29873659367E+01  0.36288120665E+02  0.00000000000E+00 0. -1.
</event>
<event>
 7    1  0.2974434E-011  0.5052886E+02  0.7816164E-02  0.1300439E+00
        -11   -1    0    0    0    0  0.00000000000E+00  0.00000000000E+00  0.45593999997E+02  0.45594000000E+02  0.51100000000E-03 0. -1.
         11   -1    0    0    0    0 -0.00000000000E+00 -0.00000000000E+00 -0.45593999997E+02  0.45594000000E+02  0.51100000000E-03 0.  1.
    9900012    2    1    2    0    0 -0.95302596796E+01 -0.83261186216E+01  0.38639555607E+02  0.50528863778E+02  0.30000011939E+02 0.  0.
        -12    1    1    2    0    0  0.95302596796E+01  0.83261186216E+01 -0.38639555607E+02  0.40659136222E+02  0.00000000000E+00 0.  1.
         11    1    3    3    0    0 -0.18633024320E+01 -0.90241883068E+01  0.11973068304E+02  0.15108349858E+02  0.51100000000E-03 0. -1.
        -11    1    3    3    0    0  0.13940164838E+01 -0.31723975693E+01 -0.27334062449E+01  0.44134904843E+01  0.51100000000E-03 0.  1.
         12    1    3    3    0    0 -0.90609737314E+01  0.38704672544E+01  0.29399893548E+02  0.31007023436E+02  0.00000000000E+00 0. -1.
</event>
<event>
 7    1  0.2974434E-011  0.5052887E+02  0.7816164E-02  0.1300439E+00
        -11   -1    0    0    0    0  0.00000000000E+00  0.00000000000E+00  0.45593999997E+02  0.45594000000E+02  0.51100000000E-03 0.  1.
         11   -1    0    0    0    0 -0.00000000000E+00 -0.00000000000E+00 -0.45593999997E+02  0.45594000000E+02  0.51100000000E-03 0. -1.
    9900012    2    1    2    0    0 -0.21499978729E+02  0.28657324891E+02 -0.19226904809E+02  0.50528865433E+02  0.30000016969E+02 0.  0.
        -12    1    1    2    0    0  0.21499978729E+02 -0.28657324891E+02  0.19226904809E+02  0.40659134567E+02  0.00000000000E+00 0.  1.
         11    1    3    3    0    0 -0.26349527366E+02  0.17548792776E+02 -0.65768267281E+01  0.32334383718E+02  0.51100000000E-03 0.  1.
        -11    1    3    3    0    0  0.17414863613E+01  0.93398904944E+01 -0.91314678826E+01  0.13177633898E+02  0.51100000000E-03 0. -1.
        -12    1    3    3    0    0  0.31080622762E+01  0.17686416207E+01 -0.35186101979E+01  0.50168478171E+01  0.00000000000E+00 0.  1.
</event>
<event>
 7    1  0.2974434E-011  0.5052886E+02  0.7816164E-02  0.1300439E+00
        -11   -1    0    0    0    0  0.00000000000E+00  0.00000000000E+00  0.45593999997E+02  0.45594000000E+02  0.51100000000E-03 0.  1.
         11   -1    0    0    0    0 -0.00000000000E+00 -0.00000000000E+00 -0.45593999997E+02  0.45594000000E+02  0.51100000000E-03 0. -1.
    9900012    2    1    2    0    0  0.95072301479E+01  0.28738050897E+02 -0.27145958332E+02  0.50528855294E+02  0.29999986152E+02 0.  0.
        -12    1    1    2    0    0 -0.95072301479E+01 -0.28738050897E+02  0.27145958332E+02  0.40659144706E+02  0.00000000000E+00 0.  1.
         11    1    3    3    0    0  0.10517542966E+02  0.48782292574E+01 -0.54052869260E+01  0.12791909855E+02  0.51100000000E-03 0. -1.
        -11    1    3    3    0    0  0.72129149294E+01  0.21965866752E+01 -0.38727742709E+01  0.84764093586E+01  0.51100000000E-03 0.  1.
        -12    1    3    3    0    0 -0.82232277471E+01  0.21663234964E+02 -0.17867897135E+02  0.29260536081E+02  0.00000000000E+00 0.  1.
</event>
<event>
 7    1  0.2974434E-011  0.5052887E+02  0.7816164E-02  0.1300439E+00
        -11   -1    0    0    0    0  0.00000000000E+00  0.00000000000E+00  0.45593999997E+02  0.45594000000E+02  0.51100000000E-03 0.  1.
         11   -1    0    0    0    0 -0.00000000000E+00 -0.00000000000E+00 -0.45593999997E+02  0.45594000000E+02  0.51100000000E-03 0. -1.
    9900012    2    1    2    0    0 -0.17228588376E+02  0.36828467077E+02  0.65850630100E-01  0.50528873337E+02  0.30000040997E+02 0.  0.
        -12    1    1    2    0    0  0.17228588376E+02 -0.36828467077E+02 -0.65850630100E-01  0.40659126663E+02  0.00000000000E+00 0.  1.
         11    1    3    3    0    0 -0.50485104936E+01  0.22550722559E+02  0.47367112146E+01  0.23589382772E+02  0.51100000000E-03 0. -1.
        -11    1    3    3    0    0 -0.82271552046E+01  0.11280846055E+02  0.59809017419E+01  0.15189297429E+02  0.51100000000E-03 0.  1.
        -12    1    3    3    0    0 -0.39529226782E+01  0.29968984619E+01 -0.10651762326E+02  0.11750193137E+02  0.00000000000E+00 0.  1.
</event>
<event>
 7    1  0.2974434E-011  0.5052888E+02  0.7816164E-02  0.1300439E+00
        -11   -1    0    0    0    0  0.00000000000E+00  0.00000000000E+00  0.45593999997E+02  0.45594000000E+02  0.51100000000E-03 0.  1.
         11   -1    0    0    0    0 -0.00000000000E+00 -0.00000000000E+00 -0.45593999997E+02  0.45594000000E+02  0.51100000000E-03 0. -1.
    9900012    2    1    2    0    0 -0.46590371181E+01 -0.31722665048E+02 -0.25002597269E+02  0.50528880792E+02  0.30000063654E+02 0.  0.
        -12    1    1    2    0    0  0.46590371181E+01  0.31722665048E+02  0.25002597269E+02  0.40659119208E+02  0.00000000000E+00 0.  1.
         11    1    3    3    0    0  0.11881735178E+01  0.15638581949E+01 -0.74524915907E+01  0.77069475107E+01  0.51100000000E-03 0. -1.
        -11    1    3    3    0    0  0.37400669313E+01  0.21799121386E+00 -0.38628398653E+01  0.53811850838E+01  0.51100000000E-03 0.  1.
         12    1    3    3    0    0 -0.95872775672E+01 -0.33504514457E+02 -0.13687265813E+02  0.37440748197E+02  0.00000000000E+00 0. -1.
</event>
<event>
 7    1  0.2974434E-011  0.5052886E+02  0.7816164E-02  0.1300439E+00
        -11   -1    0    0    0    0  0.00000000000E+00  0.00000000000E+00  0.45593999997E+02  0.45594000000E+02  0.51100000000E-03 0.  1.
         11   -1    0    0    0    0 -0.00000000000E+00 -0.00000000000E+00 -0.45593999997E+02  0.45594000000E+02  0.51100000000E-03 0. -1.
    9900012    2    1    2    0    0 -0.30794367383E+02  0.25133780085E+02 -0.85536988885E+01  0.50528859225E+02  0.29999998101E+02 0.  0.
        -12    1    1    2    0    0  0.30794367383E+02 -0.25133780085E+02  0.85536988885E+01  0.40659140775E+02  0.00000000000E+00 0.  1.
         11    1    3    3    0    0 -0.14285827577E+02  0.16108241265E+02  0.13114641983E+01  0.21570355695E+02  0.51100000000E-03 0. -1.
        -11    1    3    3    0    0 -0.20330629354E+02  0.91622136952E+01 -0.11139468922E+02  0.24927262542E+02  0.51100000000E-03 0.  1.
        -12    1    3    3    0    0  0.38220895486E+01 -0.13667487542E+00  0.12743058350E+01  0.40312409876E+01  0.00000000000E+00 0.  1.
</event>
<event>
 7    1  0.2974434E-011  0.5052887E+02  0.7816164E-02  0.1300439E+00
        -11   -1    0    0    0    0  0.00000000000E+00  0.00000000000E+00  0.45593999997E+02  0.45594000000E+02  0.51100000000E-03 0.  1.
         11   -1    0    0    0    0 -0.00000000000E+00 -0.00000000000E+00 -0.45593999997E+02  0.45594000000E+02  0.51100000000E-03 0. -1.
    9900012    2    1    2    0    0 -0.13855271422E+02  0.22149629157E+02 -0.31154298502E+02  0.50528869006E+02  0.30000027831E+02 0.  0.
        -12    1    1    2    0    0  0.13855271422E+02 -0.22149629157E+02  0.31154298502E+02  0.40659130994E+02  0.00000000000E+00 0.  1.
         11    1    3    3    0    0 -0.94797216091E+01  0.69255325291E+01 -0.64537604383E+01  0.13396982744E+02  0.51100000000E-03 0. -1.
        -11    1    3    3    0    0 -0.11727649651E+02  0.23524359083E+01 -0.15886564934E+02  0.19886042007E+02  0.51100000000E-03 0.  1.
        -12    1    3    3    0    0  0.73520998382E+01  0.12871660720E+02 -0.88139731300E+01  0.17245844255E+02  0.00000000000E+00 0.  1.
</event>
<event>
 7    1  0.2974434E-011  0.5052886E+02  0.7816164E-02  0.1300439E+00
        -11   -1    0    0    0    0  0.00000000000E+00  0.00000000000E+00  0.45593999997E+02  0.45594000000E+02  0.51100000000E-03 0.  1.
         11   -1    0    0    0    0 -0.00000000000E+00 -0.00000000000E+00 -0.45593999997E+02  0.45594000000E+02  0.51100000000E-03 0. -1.
    9900012    2    1    2    0    0  0.17673828331E+02  0.31719216934E+02 -0.18294615821E+02  0.50528857131E+02  0.29999991736E+02 0.  0.
        -12    1    1    2    0    0 -0.17673828331E+02 -0.31719216934E+02  0.18294615821E+02  0.40659142869E+02  0.00000000000E+00 0.  1.
         11    1    3    3    0    0  0.65305158695E+01  0.37465652767E+01  0.62519774812E-01  0.75291631592E+01  0.51100000000E-03 0. -1.
        -11    1    3    3    0    0  0.90305171556E+01  0.50218454578E+01  0.38185101418E+01  0.11015906312E+02  0.51100000000E-03 0.  1.
         12    1    3    3    0    0  0.21127953054E+01  0.22950806200E+02 -0.22175645738E+02  0.31983787661E+02  0.00000000000E+00 0. -1.
</event>
<event>
 7    1  0.2974434E-011  0.5052886E+02  0.7816164E-02  0.1300439E+00
        -11   -1    0    0    0    0  0.00000000000E+00  0.00000000000E+00  0.45593999997E+02  0.45594000000E+02  0.51100000000E-03 0.  1.
         11   -1    0    0    0    0 -0.00000000000E+00 -0.00000000000E+00 -0.45593999997E+02  0.45594000000E+02  0.51100000000E-03 0. -1.
    9900012    2    1    2    0    0 -0.11425151185E+02  0.39013376240E+02  0.76703450827E+00  0.50528856536E+02  0.29999989927E+02 0.  0.
        -12    1    1    2    0    0  0.11425151185E+02 -0.39013376240E+02 -0.76703450827E+00  0.40659143464E+02  0.00000000000E+00 0.  1.
         11    1    3    3    0    0 -0.86778069400E+01  0.72610587092E+01  0.12836845214E+01  0.11387499861E+02  0.51100000000E-03 0. -1.
        -11    1    3    3    0    0 -0.41657810775E+01  0.24785423381E+01  0.73420777853E+01  0.87978980770E+01  0.51100000000E-03 0.  1.
         12    1    3    3    0    0  0.14184368328E+01  0.29273775193E+02 -0.78587277984E+01  0.30343458598E+02  0.00000000000E+00 0. -1.
</event>
<event>
 7    1  0.2974434E-011  0.5052884E+02  0.7816164E-02  0.1300439E+00
        -11   -1    0    0    0    0  0.00000000000E+00  0.00000000000E+00  0.45593999997E+02  0.45594000000E+02  0.51100000000E-03 0.  1.
         11   -1    0    0    0    0 -0.00000000000E+00 -0.00000000000E+00 -0.45593999997E+02  0.45594000000E+02  0.51100000000E-03 0. -1.
    9900012    2    1    2    0    0 -0.74033179786E+01 -0.36880562927E+02 -0.15433143356E+02  0.50528844170E+02  0.29999952339E+02 0.  0.
        -12    1    1    2    0    0  0.74033179786E+01  0.36880562927E+02  0.15433143356E+02  0.40659155830E+02  0.00000000000E+00 0.  1.
         11    1    3    3    0    0  0.38853986774E+01 -0.14229796826E+02  0.16050349330E+01  0.14837775372E+02  0.51100000000E-03 0. -1.
        -11    1    3    3    0    0 -0.20630252594E+01 -0.20412344640E+02 -0.65318459434E+01  0.21531021773E+02  0.51100000000E-03 0.  1.
         12    1    3    3    0    0 -0.92256913966E+01 -0.22384214619E+01 -0.10506332346E+02  0.14160047025E+02  0.00000000000E+00 0. -1.
</event>
<event>
 7    1  0.2974434E-011  0.5052887E+02  0.7816164E-02  0.1300439E+00
        -11   -1    0    0    0    0  0.00000000000E+00  0.00000000000E+00  0.45593999997E+02  0.45594000000E+02  0.51100000000E-03 0.  1.
         11   -1    0    0    0    0 -0.00000000000E+00 -0.00000000000E+00 -0.45593999997E+02  0.45594000000E+02  0.51100000000E-03 0. -1.
    9900012    2    1    2    0    0 -0.12421441844E+02 -0.28616265483E+01 -0.38609377352E+02  0.50528866420E+02  0.30000019969E+02 0.  0.
        -12    1    1    2    0    0  0.12421441844E+02  0.28616265483E+01  0.38609377352E+02  0.40659133580E+02  0.00000000000E+00 0.  1.
         11    1    3    3    0    0 -0.67897675219E+00 -0.31465688818E+00  0.11122974062E+01  0.13406058959E+01  0.51100000000E-03 0. -1.
        -11    1    3    3    0    0 -0.18953134581E+01  0.86626905670E+01 -0.26945536623E+01  0.92679577396E+01  0.51100000000E-03 0.  1.
         12    1    3    3    0    0 -0.98471516340E+01 -0.11209660227E+02 -0.37027121096E+02  0.39920302784E+02  0.00000000000E+00 0. -1.
</event>
<event>
 7    1  0.2974434E-011  0.5052886E+02  0.7816164E-02  0.1300439E+00
        -11   -1    0    0    0    0  0.00000000000E+00  0.00000000000E+00  0.45593999997E+02  0.45594000000E+02  0.51100000000E-03 0.  1.
         11   -1    0    0    0    0 -0.00000000000E+00 -0.00000000000E+00 -0.45593999997E+02  0.45594000000E+02  0.51100000000E-03 0. -1.
    9900012    2    1    2    0    0 -0.19917240624E+02  0.24323948598E+02 -0.25784003732E+02  0.50528858372E+02  0.29999995508E+02 0.  0.
        -12    1    1    2    0    0  0.19917240624E+02 -0.24323948598E+02  0.25784003732E+02  0.40659141628E+02  0.00000000000E+00 0.  1.
         11    1    3    3    0    0 -0.58143932162E+01 -0.31347912145E+00 -0.34578106121E+01  0.67721408818E+01  0.51100000000E-03 0. -1.
        -11    1    3    3    0    0 -0.92472088947E+01  0.10832287719E+01 -0.16603455991E+02  0.19035729774E+02  0.51100000000E-03 0.  1.
        -12    1    3    3    0    0 -0.48556385132E+01  0.23554198947E+02 -0.57227371287E+01  0.24720987716E+02  0.00000000000E+00 0.  1.
</event>
<event>
 7    1  0.2974434E-011  0.5052887E+02  0.7816164E-02  0.1300439E+00
        -11   -1    0    0    0    0  0.00000000000E+00  0.00000000000E+00  0.45593999997E+02  0.45594000000E+02  0.51100000000E-03 0.  1.
         11   -1    0    0    0    0 -0.00000000000E+00 -0.00000000000E+00 -0.45593999997E+02  0.45594000000E+02  0.51100000000E-03 0. -1.
    9900012    2    1    2    0    0  0.33774855372E+02 -0.13955924455E+02 -0.17822906694E+02  0.50528872048E+02  0.30000037077E+02 0.  0.
        -12    1    1    2    0    0 -0.33774855372E+02  0.13955924455E+02  0.17822906694E+02  0.40659127952E+02  0.00000000000E+00 0.  1.
         11    1    3    3    0    0  0.77524465474E+01 -0.57068941892E+01 -0.66031951653E+01  0.11673527976E+02  0.51100000000E-03 0. -1.
        -11    1    3    3    0    0  0.20385942691E+02 -0.16430807578E+02 -0.12172624728E+02  0.28874398524E+02  0.51100000000E-03 0.  1.
        -12    1    3    3    0    0  0.56364661336E+01  0.81817773126E+01  0.95291319910E+00  0.99809455481E+01  0.00000000000E+00 0.  1.
</event>
<event>
 7    1  0.2974434E-011  0.5052887E+02  0.7816164E-02  0.1300439E+00
        -11   -1    0    0    0    0  0.00000000000E+00  0.00000000000E+00  0.45593999997E+02  0.45594000000E+02  0.51100000000E-03 0. -1.
         11   -1    0    0    0    0 -0.00000000000E+00 -0.00000000000E+00 -0.45593999997E+02  0.45594000000E+02  0.51100000000E-03 0.  1.
    9900012    2    1    2    0    0 -0.26950011792E+01 -0.29295456716E+02  0.28065604160E+02  0.50528868770E+02  0.30000027112E+02 0.  0.
        -12    1    1    2    0    0  0.26950011792E+01  0.29295456716E+02 -0.28065604160E+02  0.40659131230E+02  0.00000000000E+00 0.  1.
         11    1    3    3    0    0 -0.13581857785E+01 -0.21835761866E-01  0.20724622504E+01  0.24779518659E+01  0.51100000000E-03 0. -1.
        -11    1    3    3    0    0 -0.75889072613E+01  0.13151770603E+01  0.10968651907E+02  0.13402706034E+02  0.51100000000E-03 0.  1.
         12    1    3    3    0    0  0.62520918606E+01 -0.30588798015E+02  0.15024490002E+02  0.34648210869E+02  0.00000000000E+00 0. -1.
</event>
<event>
 7    1  0.2974434E-011  0.5052886E+02  0.7816164E-02  0.1300439E+00
        -11   -1    0    0    0    0  0.00000000000E+00  0.00000000000E+00  0.45593999997E+02  0.45594000000E+02  0.51100000000E-03 0.  1.
         11   -1    0    0    0    0 -0.00000000000E+00 -0.00000000000E+00 -0.45593999997E+02  0.45594000000E+02  0.51100000000E-03 0. -1.
    9900012    2    1    2    0    0  0.84777573436E+01 -0.56098084605E+01 -0.39367796993E+02  0.50528858831E+02  0.29999996903E+02 0.  0.
        -12    1    1    2    0    0 -0.84777573436E+01  0.56098084605E+01  0.39367796993E+02  0.40659141169E+02  0.00000000000E+00 0.  1.
         11    1    3    3    0    0 -0.73315407990E+01 -0.15385522128E+01 -0.10407508056E+02  0.12823215572E+02  0.51100000000E-03 0. -1.
        -11    1    3    3    0    0 -0.27973104837E+01 -0.46667318964E+01 -0.52549138326E+01  0.75642218492E+01  0.51100000000E-03 0.  1.
         12    1    3    3    0    0  0.18606608626E+02  0.59547564871E+00 -0.23705375104E+02  0.30141421410E+02  0.00000000000E+00 0. -1.
</event>
<event>
 7    1  0.2974434E-011  0.5052886E+02  0.7816164E-02  0.1300439E+00
        -11   -1    0    0    0    0  0.00000000000E+00  0.00000000000E+00  0.45593999997E+02  0.45594000000E+02  0.51100000000E-03 0.  1.
         11   -1    0    0    0    0 -0.00000000000E+00 -0.00000000000E+00 -0.45593999997E+02  0.45594000000E+02  0.51100000000E-03 0. -1.
    9900012    2    1    2    0    0  0.74852822105E+01  0.10763047639E+01 -0.39949693206E+02  0.50528857498E+02  0.29999992852E+02 0.  0.
        -12    1    1    2    0    0 -0.74852822105E+01 -0.10763047639E+01  0.39949693206E+02  0.40659142502E+02  0.00000000000E+00 0.  1.
         11    1    3    3    0    0 -0.13492835445E+01 -0.32741122592E+01 -0.21319275182E+02  0.21611382920E+02  0.51100000000E-03 0. -1.
        -11    1    3    3    0    0 -0.26287994240E+01 -0.17687039326E+01 -0.15132423774E+02  0.15460567569E+02  0.51100000000E-03 0.  1.
         12    1    3    3    0    0  0.11463365179E+02  0.61191209557E+01 -0.34979942502E+01  0.13456907010E+02  0.00000000000E+00 0. -1.
</event>
<event>
 7    1  0.2974434E-011  0.5052885E+02  0.7816164E-02  0.1300439E+00
        -11   -1    0    0    0    0  0.00000000000E+00  0.00000000000E+00  0.45593999997E+02  0.45594000000E+02  0.51100000000E-03 0.  1.
         11   -1    0    0    0    0 -0.00000000000E+00 -0.00000000000E+00 -0.45593999997E+02  0.45594000000E+02  0.51100000000E-03 0. -1.
    9900012    2    1    2    0    0 -0.20400639141E+02 -0.10394832434E+02 -0.33599517953E+02  0.50528853116E+02  0.29999979531E+02 0.  0.
        -12    1    1    2    0    0  0.20400639141E+02  0.10394832434E+02  0.33599517953E+02  0.40659146884E+02  0.00000000000E+00 0.  1.
         11    1    3    3    0    0 -0.15229910833E+01 -0.10008460201E+02 -0.78910599304E+01  0.12835793879E+02  0.51100000000E-03 0. -1.
        -11    1    3    3    0    0  0.33072968160E+01 -0.22856099635E+00  0.50289989981E+00  0.33531121259E+01  0.51100000000E-03 0.  1.
        -12    1    3    3    0    0 -0.22184944874E+02 -0.15781123738E+00 -0.26211357922E+02  0.34339947111E+02  0.00000000000E+00 0.  1.
</event>
<event>
 7    1  0.2974434E-011  0.5052886E+02  0.7816164E-02  0.1300439E+00
        -11   -1    0    0    0    0  0.00000000000E+00  0.00000000000E+00  0.45593999997E+02  0.45594000000E+02  0.51100000000E-03 0.  1.
         11   -1    0    0    0    0 -0.00000000000E+00 -0.00000000000E+00 -0.45593999997E+02  0.45594000000E+02  0.51100000000E-03 0. -1.
    9900012    2    1    2    0    0 -0.13139336676E+02  0.65113797000E+01 -0.37922626417E+02  0.50528857999E+02  0.29999994374E+02 0.  0.
        -12    1    1    2    0    0  0.13139336676E+02 -0.65113797000E+01  0.37922626417E+02  0.40659142001E+02  0.00000000000E+00 0.  1.
         11    1    3    3    0    0 -0.14884418425E+02 -0.28729858984E+01 -0.10626637462E+02  0.18512843753E+02  0.51100000000E-03 0. -1.
        -11    1    3    3    0    0  0.54948148417E-01 -0.23145077137E+01 -0.49162430453E-01  0.23156818567E+01  0.51100000000E-03 0.  1.
        -12    1    3    3    0    0  0.16901336005E+01  0.11698873312E+02 -0.27246826525E+02  0.29700332389E+02  0.00000000000E+00 0.  1.
</event>
<event>
 7    1  0.2974434E-011  0.5052886E+02  0.7816164E-02  0.1300439E+00
        -11   -1    0    0    0    0  0.00000000000E+00  0.00000000000E+00  0.45593999997E+02  0.45594000000E+02  0.51100000000E-03 0.  1.
         11   -1    0    0    0    0 -0.00000000000E+00 -0.00000000000E+00 -0.45593999997E+02  0.45594000000E+02  0.51100000000E-03 0. -1.
    9900012    2    1    2    0    0  0.14323362989E+02  0.30785628286E+02 -0.22366315775E+02  0.50528859360E+02  0.29999998509E+02 0.  0.
        -12    1    1    2    0    0 -0.14323362989E+02 -0.30785628286E+02  0.22366315775E+02  0.40659140640E+02  0.00000000000E+00 0.  1.
         11    1    3    3    0    0  0.26512500091E+01  0.15449977411E+02  0.38901924217E+01  0.16151301061E+02  0.51100000000E-03 0. -1.
        -11    1    3    3    0    0 -0.10580131469E+01 -0.84561991984E+00 -0.59947408193E+00  0.14811597834E+01  0.51100000000E-03 0.  1.
         12    1    3    3    0    0  0.12730126127E+02  0.16181270795E+02 -0.25657034114E+02  0.32896398515E+02  0.00000000000E+00 0. -1.
</event>
<event>
 7    1  0.2974434E-011  0.5052886E+02  0.7816164E-02  0.1300439E+00
        -11   -1    0    0    0    0  0.00000000000E+00  0.00000000000E+00  0.45593999997E+02  0.45594000000E+02  0.51100000000E-03 0.  1.
         11   -1    0    0    0    0 -0.00000000000E+00 -0.00000000000E+00 -0.45593999997E+02  0.45594000000E+02  0.51100000000E-03 0. -1.
    9900012    2    1    2    0    0 -0.26894731288E+02  0.30291685777E+02 -0.35004569121E+01  0.50528855925E+02  0.29999988071E+02 0.  0.
        -12    1    1    2    0    0  0.26894731288E+02 -0.30291685777E+02  0.35004569121E+01  0.40659144075E+02  0.00000000000E+00 0.  1.
         11    1    3    3    0    0 -0.67461389923E+01  0.97114695105E+01 -0.15479964240E+01  0.11925574391E+02  0.51100000000E-03 0. -1.
        -11    1    3    3    0    0 -0.15737317506E+02  0.18688547211E+02  0.94779366187E+01  0.26206034457E+02  0.51100000000E-03 0.  1.
        -12    1    3    3    0    0 -0.44112747902E+01  0.18916690551E+01 -0.11430397107E+02  0.12397247078E+02  0.00000000000E+00 0.  1.
</event>
<event>
 7    1  0.2974434E-011  0.5052883E+02  0.7816164E-02  0.1300439E+00
        -11   -1    0    0    0    0  0.00000000000E+00  0.00000000000E+00  0.45593999997E+02  0.45594000000E+02  0.51100000000E-03 0. -1.
         11   -1    0    0    0    0 -0.00000000000E+00 -0.00000000000E+00 -0.45593999997E+02  0.45594000000E+02  0.51100000000E-03 0.  1.
    9900012    2    1    2    0    0  0.14773042747E+02  0.35899429709E+02  0.12089503274E+02  0.50528832093E+02  0.29999915631E+02 0.  0.
        -12    1    1    2    0    0 -0.14773042747E+02 -0.35899429709E+02 -0.12089503274E+02  0.40659167907E+02  0.00000000000E+00 0.  1.
         11    1    3    3    0    0  0.39464124201E+01  0.11880139309E+02  0.30800658286E+01  0.12891806962E+02  0.51100000000E-03 0. -1.
        -11    1    3    3    0    0  0.17678554933E+02  0.20014445346E+02  0.15560754453E+01  0.26749405565E+02  0.51100000000E-03 0.  1.
        -12    1    3    3    0    0 -0.68519246058E+01  0.40048450545E+01  0.74533620003E+01  0.10887619566E+02  0.00000000000E+00 0.  1.
</event>
<event>
 7    1  0.2974434E-011  0.5052886E+02  0.7816164E-02  0.1300439E+00
        -11   -1    0    0    0    0  0.00000000000E+00  0.00000000000E+00  0.45593999997E+02  0.45594000000E+02  0.51100000000E-03 0.  1.
         11   -1    0    0    0    0 -0.00000000000E+00 -0.00000000000E+00 -0.45593999997E+02  0.45594000000E+02  0.51100000000E-03 0. -1.
    9900012    2    1    2    0    0 -0.13292668484E+02 -0.23636311368E+02 -0.30295139520E+02  0.50528859219E+02  0.29999998081E+02 0.  0.
        -12    1    1    2    0    0  0.13292668484E+02  0.23636311368E+02  0.30295139520E+02  0.40659140781E+02  0.00000000000E+00 0.  1.
         11    1    3    3    0    0 -0.12337200912E+02 -0.14272769113E+02 -0.86605823189E+01  0.20758712650E+02  0.51100000000E-03 0. -1.
        -11    1    3    3    0    0 -0.11258824271E+01 -0.81184238087E+01 -0.97750973460E-01  0.81967049411E+01  0.51100000000E-03 0.  1.
         12    1    3    3    0    0  0.17041485512E+00 -0.12451184459E+01 -0.21536806228E+02  0.21573441628E+02  0.00000000000E+00 0. -1.
</event>
<event>
 7    1  0.2974434E-011  0.5052886E+02  0.7816164E-02  0.1300439E+00
        -11   -1    0    0    0    0  0.00000000000E+00  0.00000000000E+00  0.45593999997E+02  0.45594000000E+02  0.51100000000E-03 0. -1.
         11   -1    0    0    0    0 -0.00000000000E+00 -0.00000000000E+00 -0.45593999997E+02  0.45594000000E+02  0.51100000000E-03 0.  1.
    9900012    2    1    2    0    0  0.10964662550E+02  0.19842763046E+01  0.39102485392E+02  0.50528861530E+02  0.30000005107E+02 0.  0.
        -12    1    1    2    0    0 -0.10964662550E+02 -0.19842763046E+01 -0.39102485392E+02  0.40659138470E+02  0.00000000000E+00 0.  1.
         11    1    3    3    0    0  0.31218058165E+01 -0.55772227346E+01  0.13322265851E+02  0.14776124413E+02  0.51100000000E-03 0. -1.
        -11    1    3    3    0    0  0.12292496242E+02 -0.32876186127E+01  0.10536548456E+02  0.16520676549E+02  0.51100000000E-03 0.  1.
         12    1    3    3    0    0 -0.44496395085E+01  0.10849117652E+02  0.15243671085E+02  0.19232060569E+02  0.00000000000E+00 0. -1.
</event>
<event>
 7    1  0.2974434E-011  0.5052886E+02  0.7816164E-02  0.1300439E+00
        -11   -1    0    0    0    0  0.00000000000E+00  0.00000000000E+00  0.45593999997E+02  0.45594000000E+02  0.51100000000E-03 0. -1.
         11   -1    0    0    0    0 -0.00000000000E+00 -0.00000000000E+00 -0.45593999997E+02  0.45594000000E+02  0.51100000000E-03 0.  1.
    9900012    2    1    2    0    0 -0.28452165942E+01  0.28897565536E+02  0.28460521031E+02  0.50528858240E+02  0.29999995105E+02 0.  0.
        -12    1    1    2    0    0  0.28452165942E+01 -0.28897565536E+02 -0.28460521031E+02  0.40659141760E+02  0.00000000000E+00 0.  1.
         11    1    3    3    0    0  0.87127300250E+01  0.88936901116E+01  0.49358194686E+01  0.13392972126E+02  0.51100000000E-03 0. -1.
        -11    1    3    3    0    0  0.24806172658E+01  0.53092879003E+01 -0.24175184538E+00  0.58651891907E+01  0.51100000000E-03 0.  1.
         12    1    3    3    0    0 -0.14038563885E+02  0.14694587524E+02  0.23766453407E+02  0.31270696922E+02  0.00000000000E+00 0. -1.
</event>
<event>
 7    1  0.2974434E-011  0.5052887E+02  0.7816164E-02  0.1300439E+00
        -11   -1    0    0    0    0  0.00000000000E+00  0.00000000000E+00  0.45593999997E+02  0.45594000000E+02  0.51100000000E-03 0. -1.
         11   -1    0    0    0    0 -0.00000000000E+00 -0.00000000000E+00 -0.45593999997E+02  0.45594000000E+02  0.51100000000E-03 0.  1.
    9900012    2    1    2    0    0  0.16348547325E+02  0.27076325091E+02  0.25549216214E+02  0.50528870284E+02  0.30000031717E+02 0.  0.
        -12    1    1    2    0    0 -0.16348547325E+02 -0.27076325091E+02 -0.25549216214E+02  0.40659129716E+02  0.00000000000E+00 0.  1.
         11    1    3    3    0    0  0.51711995852E+01  0.74438838875E+01  0.39099992632E+01  0.98712110189E+01  0.51100000000E-03 0. -1.
        -11    1    3    3    0    0  0.19691061902E+02  0.12959425916E+02  0.15621299663E+02  0.28279137935E+02  0.51100000000E-03 0.  1.
        -12    1    3    3    0    0 -0.85137141619E+01  0.66730152874E+01  0.60179172875E+01  0.12378521331E+02  0.00000000000E+00 0.  1.
</event>
<event>
 7    1  0.2974434E-011  0.5052886E+02  0.7816164E-02  0.1300439E+00
        -11   -1    0    0    0    0  0.00000000000E+00  0.00000000000E+00  0.45593999997E+02  0.45594000000E+02  0.51100000000E-03 0.  1.
         11   -1    0    0    0    0 -0.00000000000E+00 -0.00000000000E+00 -0.45593999997E+02  0.45594000000E+02  0.51100000000E-03 0. -1.
    9900012    2    1    2    0    0  0.99742687794E+01  0.31524524059E+02 -0.23661864974E+02  0.50528861926E+02  0.30000006312E+02 0.  0.
        -12    1    1    2    0    0 -0.99742687794E+01 -0.31524524059E+02  0.23661864974E+02  0.40659138074E+02  0.00000000000E+00 0.  1.
         11    1    3    3    0    0  0.11937452211E+02  0.20686520283E+02 -0.14614297014E+02  0.28000224360E+02  0.51100000000E-03 0. -1.
        -11    1    3    3    0    0  0.67226871913E+01  0.59677671880E+01  0.12439559594E+00  0.89902304090E+01  0.51100000000E-03 0.  1.
         12    1    3    3    0    0 -0.86858706231E+01  0.48702365885E+01 -0.91719635554E+01  0.13538407158E+02  0.00000000000E+00 0. -1.
</event>
<event>
 7    1  0.2974434E-011  0.5052886E+02  0.7816164E-02  0.1300439E+00
        -11   -1    0    0    0    0  0.00000000000E+00  0.00000000000E+00  0.45593999997E+02  0.45594000000E+02  0.51100000000E-03 0.  1.
         11   -1    0    0    0    0 -0.00000000000E+00 -0.00000000000E+00 -0.45593999997E+02  0.45594000000E+02  0.51100000000E-03 0. -1.
    9900012    2    1    2    0    0 -0.22609967506E+02  0.26908469573E+02 -0.20442342512E+02  0.50528859173E+02  0.29999997943E+02 0.  0.
        -12    1    1    2    0    0  0.22609967506E+02 -0.26908469573E+02  0.20442342512E+02  0.40659140827E+02  0.00000000000E+00 0.  1.
         11    1    3    3    0    0 -0.13616873978E+02  0.27217307355E+02 -0.12978116901E+02  0.33085232282E+02  0.51100000000E-03 0. -1.
        -11    1    3    3    0    0  0.13133504309E+01  0.13666384223E+01 -0.67123722615E+01  0.69748499317E+01  0.51100000000E-03 0.  1.
        -12    1    3    3    0    0 -0.10306443959E+02 -0.16754762039E+01 -0.75185334952E+00  0.10468776960E+02  0.00000000000E+00 0.  1.
</event>
<event>
 7    1  0.2974434E-011  0.5052888E+02  0.7816164E-02  0.1300439E+00
        -11   -1    0    0    0    0  0.00000000000E+00  0.00000000000E+00  0.45593999997E+02  0.45594000000E+02  0.51100000000E-03 0.  1.
         11   -1    0    0    0    0 -0.00000000000E+00 -0.00000000000E+00 -0.45593999997E+02  0.45594000000E+02  0.51100000000E-03 0. -1.
    9900012    2    1    2    0    0 -0.88306795430E+01  0.38983898117E+02 -0.74457108523E+01  0.50528882650E+02  0.30000069303E+02 0.  0.
        -12    1    1    2    0    0  0.88306795430E+01 -0.38983898117E+02  0.74457108523E+01  0.40659117350E+02  0.00000000000E+00 0.  1.
         11    1    3    3    0    0  0.14916114100E+01  0.11921593324E+01  0.36357835728E+01  0.41067104745E+01  0.51100000000E-03 0. -1.
        -11    1    3    3    0    0  0.16086504831E+01  0.23045565786E+01  0.49522706452E+01  0.56941831903E+01  0.51100000000E-03 0.  1.
         12    1    3    3    0    0 -0.11930941436E+02  0.35487182206E+02 -0.16033765070E+02  0.40727988985E+02  0.00000000000E+00 0. -1.
</event>
<event>
 7    1  0.2974434E-011  0.5052885E+02  0.7816164E-02  0.1300439E+00
        -11   -1    0    0    0    0  0.00000000000E+00  0.00000000000E+00  0.45593999997E+02  0.45594000000E+02  0.51100000000E-03 0.  1.
         11   -1    0    0    0    0 -0.00000000000E+00 -0.00000000000E+00 -0.45593999997E+02  0.45594000000E+02  0.51100000000E-03 0. -1.
    9900012    2    1    2    0    0 -0.32847011244E+02  0.10999144501E+02 -0.21289891674E+02  0.50528845866E+02  0.29999957494E+02 0.  0.
        -12    1    1    2    0    0  0.32847011244E+02 -0.10999144501E+02  0.21289891674E+02  0.40659154134E+02  0.00000000000E+00 0.  1.
         11    1    3    3    0    0 -0.45542027364E+01  0.89655180895E+01 -0.40274027415E+01  0.10832416641E+02  0.51100000000E-03 0. -1.
        -11    1    3    3    0    0 -0.99735297667E+01  0.98194225761E+01 -0.10701678313E+01  0.14037008769E+02  0.51100000000E-03 0.  1.
        -12    1    3    3    0    0 -0.18319278740E+02 -0.77857961641E+01 -0.16192321102E+02  0.25659420456E+02  0.00000000000E+00 0.  1.
</event>
<event>
 7    1  0.2974434E-011  0.5052886E+02  0.7816164E-02  0.1300439E+00
        -11   -1    0    0    0    0  0.00000000000E+00  0.00000000000E+00  0.45593999997E+02  0.45594000000E+02  0.51100000000E-03 0.  1.
         11   -1    0    0    0    0 -0.00000000000E+00 -0.00000000000E+00 -0.45593999997E+02  0.45594000000E+02  0.51100000000E-03 0. -1.
    9900012    2    1    2    0    0 -0.36000833843E+02 -0.53760004750E+01 -0.18116410892E+02  0.50528858812E+02  0.29999996846E+02 0.  0.
        -12    1    1    2    0    0  0.36000833843E+02  0.53760004750E+01  0.18116410892E+02  0.40659141188E+02  0.00000000000E+00 0.  1.
         11    1    3    3    0    0 -0.13963296163E+02 -0.54234765535E+01 -0.23456700689E+01  0.15162120762E+02  0.51100000000E-03 0. -1.
        -11    1    3    3    0    0 -0.12313838741E+02  0.10215821804E+01  0.42676891163E+01  0.13072391722E+02  0.51100000000E-03 0.  1.
         12    1    3    3    0    0 -0.97236989395E+01 -0.97410610188E+00 -0.20038429939E+02  0.22294346328E+02  0.00000000000E+00 0. -1.
</event>
<event>
 7    1  0.2974434E-011  0.5052883E+02  0.7816164E-02  0.1300439E+00
        -11   -1    0    0    0    0  0.00000000000E+00  0.00000000000E+00  0.45593999997E+02  0.45594000000E+02  0.51100000000E-03 0. -1.
         11   -1    0    0    0    0 -0.00000000000E+00 -0.00000000000E+00 -0.45593999997E+02  0.45594000000E+02  0.51100000000E-03 0.  1.
    9900012    2    1    2    0    0  0.29756411555E+02  0.18305812067E+02  0.20799558850E+02  0.50528825974E+02  0.29999897032E+02 0.  0.
        -12    1    1    2    0    0 -0.29756411555E+02 -0.18305812067E+02 -0.20799558850E+02  0.40659174026E+02  0.00000000000E+00 0.  1.
         11    1    3    3    0    0 -0.27972254282E+00 -0.15442849174E+00 -0.26725991497E-01  0.32063593025E+00  0.51100000000E-03 0. -1.
        -11    1    3    3    0    0 -0.51550657037E+01  0.35632897782E+01 -0.76952380691E+00  0.63137867879E+01  0.51100000000E-03 0.  1.
         12    1    3    3    0    0  0.35191199802E+02  0.14896950781E+02  0.21595808648E+02  0.43894403256E+02  0.00000000000E+00 0. -1.
</event>
<event>
 7    1  0.2974434E-011  0.5052885E+02  0.7816164E-02  0.1300439E+00
        -11   -1    0    0    0    0  0.00000000000E+00  0.00000000000E+00  0.45593999997E+02  0.45594000000E+02  0.51100000000E-03 0. -1.
         11   -1    0    0    0    0 -0.00000000000E+00 -0.00000000000E+00 -0.45593999997E+02  0.45594000000E+02  0.51100000000E-03 0.  1.
    9900012    2    1    2    0    0  0.36007909900E+02 -0.40921351423E+01  0.18435057685E+02  0.50528849772E+02  0.29999969367E+02 0.  0.
        -12    1    1    2    0    0 -0.36007909900E+02  0.40921351423E+01 -0.18435057685E+02  0.40659150228E+02  0.00000000000E+00 0.  1.
         11    1    3    3    0    0  0.70988982144E+01 -0.77707332780E+01 -0.15263477682E+01  0.10635242795E+02  0.51100000000E-03 0. -1.
        -11    1    3    3    0    0  0.16309485656E+01  0.12593080878E+01 -0.33481386927E+01  0.39313970864E+01  0.51100000000E-03 0.  1.
         12    1    3    3    0    0  0.27278063120E+02  0.24192900478E+01  0.23309544146E+02  0.35962209891E+02  0.00000000000E+00 0. -1.
</event>
<event>
 7    1  0.2974434E-011  0.5052886E+02  0.7816164E-02  0.1300439E+00
        -11   -1    0    0    0    0  0.00000000000E+00  0.00000000000E+00  0.45593999997E+02  0.45594000000E+02  0.51100000000E-03 0.  1.
         11   -1    0    0    0    0 -0.00000000000E+00 -0.00000000000E+00 -0.45593999997E+02  0.45594000000E+02  0.51100000000E-03 0. -1.
    9900012    2    1    2    0    0  0.74573568726E+01  0.13727821062E+02 -0.37537985139E+02  0.50528861163E+02  0.30000003992E+02 0.  0.
        -12    1    1    2    0    0 -0.74573568726E+01 -0.13727821062E+02  0.37537985139E+02  0.40659138837E+02  0.00000000000E+00 0.  1.
         11    1    3    3    0    0  0.79191355594E+01  0.18885591724E+02 -0.33948065674E+02  0.39646556547E+02  0.51100000000E-03 0. -1.
        -11    1    3    3    0    0  0.35835206319E+01 -0.10844939528E+01  0.57763504549E+00  0.37883254559E+01  0.51100000000E-03 0.  1.
        -12    1    3    3    0    0 -0.40452993187E+01 -0.40732767094E+01 -0.41675545110E+01  0.70939791606E+01  0.00000000000E+00 0.  1.
</event>
<event>
 7    1  0.2974434E-011  0.5052882E+02  0.7816164E-02  0.1300439E+00
        -11   -1    0    0    0    0  0.00000000000E+00  0.00000000000E+00  0.45593999997E+02  0.45594000000E+02  0.51100000000E-03 0. -1.
         11   -1    0    0    0    0 -0.00000000000E+00 -0.00000000000E+00 -0.45593999997E+02  0.45594000000E+02  0.51100000000E-03 0.  1.
    9900012    2    1    2    0    0 -0.12196035109E+02  0.36784618349E+02 -0.12301105655E+02  0.50528823670E+02  0.29999890027E+02 0.  0.
        -12    1    1    2    0    0  0.12196035109E+02 -0.36784618349E+02  0.12301105655E+02  0.40659176330E+02  0.00000000000E+00 0.  1.
         11    1    3    3    0    0 -0.68662694218E+01  0.13650270448E+02  0.25814373866E+01  0.15496430502E+02  0.51100000000E-03 0.  1.
        -11    1    3    3    0    0 -0.28221019756E+01  0.16873564814E+02  0.16400166457E+01  0.17186363896E+02  0.51100000000E-03 0. -1.
        -12    1    3    3    0    0 -0.25076637114E+01  0.62607830875E+01 -0.16522559687E+02  0.17846029272E+02  0.00000000000E+00 0.  1.
</event>
<event>
 7    1  0.2974434E-011  0.5052886E+02  0.7816164E-02  0.1300439E+00
        -11   -1    0    0    0    0  0.00000000000E+00  0.00000000000E+00  0.45593999997E+02  0.45594000000E+02  0.51100000000E-03 0.  1.
         11   -1    0    0    0    0 -0.00000000000E+00 -0.00000000000E+00 -0.45593999997E+02  0.45594000000E+02  0.51100000000E-03 0. -1.
    9900012    2    1    2    0    0  0.36879358153E+02 -0.10193690950E+02  0.13753811641E+02  0.50528859237E+02  0.29999998136E+02 0.  0.
        -12    1    1    2    0    0 -0.36879358153E+02  0.10193690950E+02 -0.13753811641E+02  0.40659140763E+02  0.00000000000E+00 0.  1.
         11    1    3    3    0    0  0.29957462119E+02 -0.11560478290E+02  0.88287158170E+01  0.33302258454E+02  0.51100000000E-03 0. -1.
        -11    1    3    3    0    0  0.61375300833E+00 -0.63108670536E+01  0.53469904980E+00  0.63631469461E+01  0.51100000000E-03 0.  1.
         12    1    3    3    0    0  0.63081430253E+01  0.76776543938E+01  0.43903967741E+01  0.10863453836E+02  0.00000000000E+00 0. -1.
</event>
<event>
 7    1  0.2974434E-011  0.5052887E+02  0.7816164E-02  0.1300439E+00
        -11   -1    0    0    0    0  0.00000000000E+00  0.00000000000E+00  0.45593999997E+02  0.45594000000E+02  0.51100000000E-03 0. -1.
         11   -1    0    0    0    0 -0.00000000000E+00 -0.00000000000E+00 -0.45593999997E+02  0.45594000000E+02  0.51100000000E-03 0.  1.
    9900012    2    1    2    0    0  0.12420598689E+02 -0.23163094702E+02  0.31022000729E+02  0.50528871171E+02  0.30000034410E+02 0.  0.
        -12    1    1    2    0    0 -0.12420598689E+02  0.23163094702E+02 -0.31022000729E+02  0.40659128829E+02  0.00000000000E+00 0.  1.
         11    1    3    3    0    0  0.91228138414E+01 -0.15330656658E+02  0.19464923430E+02  0.26403371192E+02  0.51100000000E-03 0. -1.
        -11    1    3    3    0    0 -0.49049325953E+01 -0.10153393315E+02  0.10722043030E+02  0.15559947512E+02  0.51100000000E-03 0.  1.
        -12    1    3    3    0    0  0.82027174431E+01  0.23209552711E+01  0.83503426916E+00  0.85655524662E+01  0.00000000000E+00 0.  1.
</event>
<event>
 7    1  0.2974434E-011  0.5052890E+02  0.7816164E-02  0.1300439E+00
        -11   -1    0    0    0    0  0.00000000000E+00  0.00000000000E+00  0.45593999997E+02  0.45594000000E+02  0.51100000000E-03 0.  1.
         11   -1    0    0    0    0 -0.00000000000E+00 -0.00000000000E+00 -0.45593999997E+02  0.45594000000E+02  0.51100000000E-03 0. -1.
    9900012    2    1    2    0    0 -0.11933722794E+02  0.90738416880E+01 -0.37794360356E+02  0.50528904862E+02  0.30000136819E+02 0.  0.
        -12    1    1    2    0    0  0.11933722794E+02 -0.90738416880E+01  0.37794360356E+02  0.40659095138E+02  0.00000000000E+00 0.  1.
         11    1    3    3    0    0 -0.11725046149E+02  0.94983751337E+01 -0.25332612765E+02  0.29486218936E+02  0.51100000000E-03 0. -1.
        -11    1    3    3    0    0 -0.21090383001E+01  0.60772843338E+01 -0.12730523975E+02  0.14263508277E+02  0.51100000000E-03 0.  1.
        -12    1    3    3    0    0  0.19003616553E+01 -0.65018177795E+01  0.26877638370E+00  0.67791776495E+01  0.00000000000E+00 0.  1.
</event>
<event>
 7    1  0.2974434E-011  0.5052886E+02  0.7816164E-02  0.1300439E+00
        -11   -1    0    0    0    0  0.00000000000E+00  0.00000000000E+00  0.45593999997E+02  0.45594000000E+02  0.51100000000E-03 0. -1.
         11   -1    0    0    0    0 -0.00000000000E+00 -0.00000000000E+00 -0.45593999997E+02  0.45594000000E+02  0.51100000000E-03 0.  1.
    9900012    2    1    2    0    0 -0.35517304291E+02  0.15116316637E+02 -0.12774339939E+02  0.50528859654E+02  0.29999999405E+02 0.  0.
        -12    1    1    2    0    0  0.35517304291E+02 -0.15116316637E+02  0.12774339939E+02  0.40659140346E+02  0.00000000000E+00 0.  1.
         11    1    3    3    0    0 -0.14352963666E+02  0.38800347855E+01 -0.12103378532E+02  0.19171698101E+02  0.51100000000E-03 0. -1.
        -11    1    3    3    0    0  0.27016450074E+01  0.50018258839E+01 -0.32626275293E+01  0.65545317587E+01  0.51100000000E-03 0.  1.
         12    1    3    3    0    0 -0.23865985632E+02  0.62344559675E+01  0.25916661224E+01  0.24802629794E+02  0.00000000000E+00 0. -1.
</event>
<event>
 7    1  0.2974434E-011  0.5052886E+02  0.7816164E-02  0.1300439E+00
        -11   -1    0    0    0    0  0.00000000000E+00  0.00000000000E+00  0.45593999997E+02  0.45594000000E+02  0.51100000000E-03 0.  1.
         11   -1    0    0    0    0 -0.00000000000E+00 -0.00000000000E+00 -0.45593999997E+02  0.45594000000E+02  0.51100000000E-03 0. -1.
    9900012    2    1    2    0    0 -0.31265746707E+02  0.14026238433E+02 -0.21883399887E+02  0.50528862376E+02  0.30000007678E+02 0.  0.
        -12    1    1    2    0    0  0.31265746707E+02 -0.14026238433E+02  0.21883399887E+02  0.40659137624E+02  0.00000000000E+00 0.  1.
         11    1    3    3    0    0 -0.95654740178E+01  0.72973203498E+01 -0.21708673789E+02  0.24819663483E+02  0.51100000000E-03 0. -1.
        -11    1    3    3    0    0 -0.12259434850E+02 -0.38448439567E+00 -0.45822948465E+01  0.13093471557E+02  0.51100000000E-03 0.  1.
        -12    1    3    3    0    0 -0.94408378389E+01  0.71134024792E+01  0.44075687488E+01  0.12615727336E+02  0.00000000000E+00 0.  1.
</event>
<event>
 7    1  0.2974434E-011  0.5052884E+02  0.7816164E-02  0.1300439E+00
        -11   -1    0    0    0    0  0.00000000000E+00  0.00000000000E+00  0.45593999997E+02  0.45594000000E+02  0.51100000000E-03 0.  1.
         11   -1    0    0    0    0 -0.00000000000E+00 -0.00000000000E+00 -0.45593999997E+02  0.45594000000E+02  0.51100000000E-03 0. -1.
    9900012    2    1    2    0    0 -0.16040071881E+02  0.13842777250E+02 -0.34702462094E+02  0.50528840351E+02  0.29999940732E+02 0.  0.
        -12    1    1    2    0    0  0.16040071881E+02 -0.13842777250E+02  0.34702462094E+02  0.40659159649E+02  0.00000000000E+00 0.  1.
         11    1    3    3    0    0  0.12454314433E+01 -0.78072730696E+00 -0.11744654942E+02  0.11836281282E+02  0.51100000000E-03 0. -1.
        -11    1    3    3    0    0 -0.77222744628E+01  0.47933400953E+01 -0.23262099021E+02  0.24974684848E+02  0.51100000000E-03 0.  1.
        -12    1    3    3    0    0 -0.95632288619E+01  0.98301644614E+01  0.30429186957E+00  0.13717874221E+02  0.00000000000E+00 0.  1.
</event>
<event>
 7    1  0.2974434E-011  0.5052886E+02  0.7816164E-02  0.1300439E+00
        -11   -1    0    0    0    0  0.00000000000E+00  0.00000000000E+00  0.45593999997E+02  0.45594000000E+02  0.51100000000E-03 0.  1.
         11   -1    0    0    0    0 -0.00000000000E+00 -0.00000000000E+00 -0.45593999997E+02  0.45594000000E+02  0.51100000000E-03 0. -1.
    9900012    2    1    2    0    0  0.23117836655E+02  0.19461576672E+02 -0.27202545471E+02  0.50528858122E+02  0.29999994747E+02 0.  0.
        -12    1    1    2    0    0 -0.23117836655E+02 -0.19461576672E+02  0.27202545471E+02  0.40659141878E+02  0.00000000000E+00 0.  1.
         11    1    3    3    0    0 -0.13365660419E+01  0.38237188255E+01 -0.60610215897E+01  0.72899394656E+01  0.51100000000E-03 0. -1.
        -11    1    3    3    0    0  0.15192317547E+02  0.16150686773E+02 -0.24800276166E+02  0.33267174419E+02  0.51100000000E-03 0.  1.
        -12    1    3    3    0    0  0.92620851504E+01 -0.51282892652E+00  0.36587522851E+01  0.99717442368E+01  0.00000000000E+00 0.  1.
</event>
<event>
 7    1  0.2974434E-011  0.5052885E+02  0.7816164E-02  0.1300439E+00
        -11   -1    0    0    0    0  0.00000000000E+00  0.00000000000E+00  0.45593999997E+02  0.45594000000E+02  0.51100000000E-03 0.  1.
         11   -1    0    0    0    0 -0.00000000000E+00 -0.00000000000E+00 -0.45593999997E+02  0.45594000000E+02  0.51100000000E-03 0. -1.
    9900012    2    1    2    0    0 -0.98112042869E+01  0.37657110742E+02 -0.11783395426E+02  0.50528854328E+02  0.29999983216E+02 0.  0.
        -12    1    1    2    0    0  0.98112042869E+01 -0.37657110742E+02  0.11783395426E+02  0.40659145672E+02  0.00000000000E+00 0.  1.
         11    1    3    3    0    0 -0.59886153385E+00  0.55363508259E+00 -0.54651395676E+01  0.55256581233E+01  0.51100000000E-03 0. -1.
        -11    1    3    3    0    0  0.12379410597E+00  0.16335440448E+02 -0.13430701289E+02  0.21148183775E+02  0.51100000000E-03 0.  1.
        -12    1    3    3    0    0 -0.93361368591E+01  0.20768035212E+02  0.71124454310E+01  0.23855012429E+02  0.00000000000E+00 0.  1.
</event>
<event>
 7    1  0.2974434E-011  0.5052886E+02  0.7816164E-02  0.1300439E+00
        -11   -1    0    0    0    0  0.00000000000E+00  0.00000000000E+00  0.45593999997E+02  0.45594000000E+02  0.51100000000E-03 0. -1.
         11   -1    0    0    0    0 -0.00000000000E+00 -0.00000000000E+00 -0.45593999997E+02  0.45594000000E+02  0.51100000000E-03 0.  1.
    9900012    2    1    2    0    0  0.19512440143E+02 -0.22104600093E+02  0.27996731464E+02  0.50528860336E+02  0.30000001476E+02 0.  0.
        -12    1    1    2    0    0 -0.19512440143E+02  0.22104600093E+02 -0.27996731464E+02  0.40659139664E+02  0.00000000000E+00 0.  1.
         11    1    3    3    0    0  0.12333279893E+02 -0.54403092632E+01  0.17925123795E+02  0.22428036497E+02  0.51100000000E-03 0. -1.
        -11    1    3    3    0    0  0.75929789230E+01 -0.72229432988E+01  0.14315359395E+02  0.17741300789E+02  0.51100000000E-03 0.  1.
        -12    1    3    3    0    0 -0.41381867344E+00 -0.94413475309E+01 -0.42437517259E+01  0.10359523049E+02  0.00000000000E+00 0.  1.
</event>
<event>
 7    1  0.2974434E-011  0.5052886E+02  0.7816164E-02  0.1300439E+00
        -11   -1    0    0    0    0  0.00000000000E+00  0.00000000000E+00  0.45593999997E+02  0.45594000000E+02  0.51100000000E-03 0.  1.
         11   -1    0    0    0    0 -0.00000000000E+00 -0.00000000000E+00 -0.45593999997E+02  0.45594000000E+02  0.51100000000E-03 0. -1.
    9900012    2    1    2    0    0 -0.28179252989E+02  0.18024649055E+01 -0.29254852439E+02  0.50528861175E+02  0.30000004026E+02 0.  0.
        -12    1    1    2    0    0  0.28179252989E+02 -0.18024649055E+01  0.29254852439E+02  0.40659138825E+02  0.00000000000E+00 0.  1.
         11    1    3    3    0    0 -0.39701458673E+01  0.24860157106E+00 -0.33547815684E+01  0.52036929754E+01  0.51100000000E-03 0. -1.
        -11    1    3    3    0    0  0.40716719783E+01 -0.14477585466E+01 -0.13724633213E+02  0.14388887191E+02  0.51100000000E-03 0.  1.
        -12    1    3    3    0    0 -0.28280779100E+02  0.30016218810E+01 -0.12175437658E+02  0.30936281008E+02  0.00000000000E+00 0.  1.
</event>
<event>
 7    1  0.2974434E-011  0.5052887E+02  0.7816164E-02  0.1300439E+00
        -11   -1    0    0    0    0  0.00000000000E+00  0.00000000000E+00  0.45593999997E+02  0.45594000000E+02  0.51100000000E-03 0. -1.
         11   -1    0    0    0    0 -0.00000000000E+00 -0.00000000000E+00 -0.45593999997E+02  0.45594000000E+02  0.51100000000E-03 0.  1.
    9900012    2    1    2    0    0 -0.64825625976E+01 -0.26885846222E+02  0.29804233634E+02  0.50528872028E+02  0.30000037016E+02 0.  0.
        -12    1    1    2    0    0  0.64825625976E+01  0.26885846222E+02 -0.29804233634E+02  0.40659127972E+02  0.00000000000E+00 0.  1.
         11    1    3    3    0    0 -0.56669849049E+01 -0.11123587067E+02  0.62531492859E+01  0.13962477696E+02  0.51100000000E-03 0. -1.
        -11    1    3    3    0    0 -0.11714186772E+02 -0.10883559575E+02  0.14465100091E+02  0.21561845043E+02  0.51100000000E-03 0.  1.
         12    1    3    3    0    0  0.10898609079E+02 -0.48786995794E+01  0.90859842572E+01  0.15004549289E+02  0.00000000000E+00 0. -1.
</event>
<event>
 7    1  0.2974434E-011  0.5052886E+02  0.7816164E-02  0.1300439E+00
        -11   -1    0    0    0    0  0.00000000000E+00  0.00000000000E+00  0.45593999997E+02  0.45594000000E+02  0.51100000000E-03 0. -1.
         11   -1    0    0    0    0 -0.00000000000E+00 -0.00000000000E+00 -0.45593999997E+02  0.45594000000E+02  0.51100000000E-03 0.  1.
    9900012    2    1    2    0    0 -0.19671562573E+02 -0.30115292942E+02  0.18954279314E+02  0.50528856535E+02  0.29999989924E+02 0.  0.
        -12    1    1    2    0    0  0.19671562573E+02  0.30115292942E+02 -0.18954279314E+02  0.40659143465E+02  0.00000000000E+00 0.  1.
         11    1    3    3    0    0 -0.87421486091E+00 -0.10663927551E+02 -0.34459087861E+01  0.11240902546E+02  0.51100000000E-03 0. -1.
        -11    1    3    3    0    0 -0.33164675984E+01 -0.52032026566E+01 -0.25276642746E+01  0.66679353748E+01  0.51100000000E-03 0.  1.
         12    1    3    3    0    0 -0.15480880113E+02 -0.14248162734E+02  0.24927852374E+02  0.32620018614E+02  0.00000000000E+00 0. -1.
</event>
<event>
 7    1  0.2974434E-011  0.5052885E+02  0.7816164E-02  0.1300439E+00
        -11   -1    0    0    0    0  0.00000000000E+00  0.00000000000E+00  0.45593999997E+02  0.45594000000E+02  0.51100000000E-03 0.  1.
         11   -1    0    0    0    0 -0.00000000000E+00 -0.00000000000E+00 -0.45593999997E+02  0.45594000000E+02  0.51100000000E-03 0. -1.
    9900012    2    1    2    0    0  0.37024892792E+02  0.12632683040E+02 -0.11078762244E+02  0.50528851707E+02  0.29999975247E+02 0.  0.
        -12    1    1    2    0    0 -0.37024892792E+02 -0.12632683040E+02  0.11078762244E+02  0.40659148293E+02  0.00000000000E+00 0.  1.
         11    1    3    3    0    0  0.54720219208E+01  0.58223754155E+01  0.61543994991E+01  0.10085619110E+02  0.51100000000E-03 0. -1.
        -11    1    3    3    0    0  0.21326387875E+01 -0.45253617254E+01 -0.16045014391E+01  0.52537103149E+01  0.51100000000E-03 0.  1.
         12    1    3    3    0    0  0.29420232084E+02  0.11335669350E+02 -0.15628660304E+02  0.35189522281E+02  0.00000000000E+00 0. -1.
</event>
<event>
 7    1  0.2974434E-011  0.5052883E+02  0.7816164E-02  0.1300439E+00
        -11   -1    0    0    0    0  0.00000000000E+00  0.00000000000E+00  0.45593999997E+02  0.45594000000E+02  0.51100000000E-03 0.  1.
         11   -1    0    0    0    0 -0.00000000000E+00 -0.00000000000E+00 -0.45593999997E+02  0.45594000000E+02  0.51100000000E-03 0. -1.
    9900012    2    1    2    0    0  0.59303419796E+01 -0.14970948990E+02 -0.37334561259E+02  0.50528834562E+02  0.29999923136E+02 0.  0.
        -12    1    1    2    0    0 -0.59303419796E+01  0.14970948990E+02  0.37334561259E+02  0.40659165438E+02  0.00000000000E+00 0.  1.
         11    1    3    3    0    0  0.21521854347E+01  0.93662378807E+00 -0.13076946141E+02  0.13285920627E+02  0.51100000000E-03 0. -1.
        -11    1    3    3    0    0 -0.72961499977E+01 -0.14265562477E+00 -0.13056651416E+02  0.14957616852E+02  0.51100000000E-03 0.  1.
         12    1    3    3    0    0  0.11074306543E+02 -0.15764917154E+02 -0.11200963702E+02  0.22285297084E+02  0.00000000000E+00 0. -1.
</event>
<event>
 7    1  0.2974434E-011  0.5052886E+02  0.7816164E-02  0.1300439E+00
        -11   -1    0    0    0    0  0.00000000000E+00  0.00000000000E+00  0.45593999997E+02  0.45594000000E+02  0.51100000000E-03 0. -1.
         11   -1    0    0    0    0 -0.00000000000E+00 -0.00000000000E+00 -0.45593999997E+02  0.45594000000E+02  0.51100000000E-03 0.  1.
    9900012    2    1    2    0    0 -0.10221712020E+02  0.31936209852E+02  0.22994798286E+02  0.50528860258E+02  0.30000001241E+02 0.  0.
        -12    1    1    2    0    0  0.10221712020E+02 -0.31936209852E+02 -0.22994798286E+02  0.40659139742E+02  0.00000000000E+00 0.  1.
         11    1    3    3    0    0  0.61570674135E+01  0.82028323004E+01  0.24751914436E+01  0.10550948290E+02  0.51100000000E-03 0. -1.
        -11    1    3    3    0    0 -0.95254701480E+01 -0.76315866153E-01  0.53166402581E+01  0.10909036142E+02  0.51100000000E-03 0.  1.
        -12    1    3    3    0    0 -0.68533092859E+01  0.23809693418E+02  0.15202966584E+02  0.29068875826E+02  0.00000000000E+00 0.  1.
</event>
<event>
 7    1  0.2974434E-011  0.5052886E+02  0.7816164E-02  0.1300439E+00
        -11   -1    0    0    0    0  0.00000000000E+00  0.00000000000E+00  0.45593999997E+02  0.45594000000E+02  0.51100000000E-03 0.  1.
         11   -1    0    0    0    0 -0.00000000000E+00 -0.00000000000E+00 -0.45593999997E+02  0.45594000000E+02  0.51100000000E-03 0. -1.
    9900012    2    1    2    0    0  0.13648607967E+02 -0.32831774048E+02 -0.19721969643E+02  0.50528856217E+02  0.29999988956E+02 0.  0.
        -12    1    1    2    0    0 -0.13648607967E+02  0.32831774048E+02  0.19721969643E+02  0.40659143783E+02  0.00000000000E+00 0.  1.
         11    1    3    3    0    0  0.39756263924E+01 -0.32376634923E+02 -0.20288245077E+02  0.38414385102E+02  0.51100000000E-03 0. -1.
        -11    1    3    3    0    0  0.31568546199E+00 -0.23501384935E+01 -0.72661340881E+00  0.24800757159E+01  0.51100000000E-03 0.  1.
        -12    1    3    3    0    0  0.93572961127E+01  0.18949993684E+01  0.12928888432E+01  0.96343953992E+01  0.00000000000E+00 0.  1.
</event>
<event>
 7    1  0.2974434E-011  0.5052885E+02  0.7816164E-02  0.1300439E+00
        -11   -1    0    0    0    0  0.00000000000E+00  0.00000000000E+00  0.45593999997E+02  0.45594000000E+02  0.51100000000E-03 0. -1.
         11   -1    0    0    0    0 -0.00000000000E+00 -0.00000000000E+00 -0.45593999997E+02  0.45594000000E+02  0.51100000000E-03 0.  1.
    9900012    2    1    2    0    0 -0.14696499802E+02  0.99544806145E+01  0.36579878962E+02  0.50528851760E+02  0.29999975408E+02 0.  0.
        -12    1    1    2    0    0  0.14696499802E+02 -0.99544806145E+01 -0.36579878962E+02  0.40659148240E+02  0.00000000000E+00 0.  1.
         11    1    3    3    0    0 -0.82685117616E+01  0.64196264329E+01  0.14265241088E+02  0.17693981854E+02  0.51100000000E-03 0. -1.
        -11    1    3    3    0    0 -0.12980112140E+02  0.39937605184E+01  0.52679223657E+01  0.14566552116E+02  0.51100000000E-03 0.  1.
        -12    1    3    3    0    0  0.65521240988E+01 -0.45890633683E+00  0.17046715508E+02  0.18268317789E+02  0.00000000000E+00 0.  1.
</event>
<event>
 7    1  0.2974434E-011  0.5052886E+02  0.7816164E-02  0.1300439E+00
        -11   -1    0    0    0    0  0.00000000000E+00  0.00000000000E+00  0.45593999997E+02  0.45594000000E+02  0.51100000000E-03 0. -1.
         11   -1    0    0    0    0 -0.00000000000E+00 -0.00000000000E+00 -0.45593999997E+02  0.45594000000E+02  0.51100000000E-03 0.  1.
    9900012    2    1    2    0    0 -0.11179384655E+02  0.11439839781E+02  0.37380700176E+02  0.50528864235E+02  0.30000013329E+02 0.  0.
        -12    1    1    2    0    0  0.11179384655E+02 -0.11439839781E+02 -0.37380700176E+02  0.40659135765E+02  0.00000000000E+00 0.  1.
         11    1    3    3    0    0  0.75831588240E+01  0.61172817754E+01  0.12917454806E+02  0.16179804480E+02  0.51100000000E-03 0. -1.
        -11    1    3    3    0    0 -0.42381636052E+01  0.28326340746E+01  0.17162289584E+02  0.17903352496E+02  0.51100000000E-03 0.  1.
        -12    1    3    3    0    0 -0.14524379874E+02  0.24899239308E+01  0.73009557856E+01  0.16445707260E+02  0.00000000000E+00 0.  1.
</event>
<event>
 7    1  0.2974434E-011  0.5052887E+02  0.7816164E-02  0.1300439E+00
        -11   -1    0    0    0    0  0.00000000000E+00  0.00000000000E+00  0.45593999997E+02  0.45594000000E+02  0.51100000000E-03 0.  1.
         11   -1    0    0    0    0 -0.00000000000E+00 -0.00000000000E+00 -0.45593999997E+02  0.45594000000E+02  0.51100000000E-03 0. -1.
    9900012    2    1    2    0    0  0.13160588484E+02  0.37654453325E+02 -0.78807479378E+01  0.50528866555E+02  0.30000020380E+02 0.  0.
        -12    1    1    2    0    0 -0.13160588484E+02 -0.37654453325E+02  0.78807479378E+01  0.40659133445E+02  0.00000000000E+00 0.  1.
         11    1    3    3    0    0  0.97203511125E+01  0.50602786924E+01 -0.63114503536E+01  0.12646187252E+02  0.51100000000E-03 0. -1.
        -11    1    3    3    0    0  0.10774030898E+02  0.13084489209E+02 -0.17481101483E+01  0.17039351191E+02  0.51100000000E-03 0.  1.
         12    1    3    3    0    0 -0.73337935268E+01  0.19509685423E+02  0.17881256415E+00  0.20843328111E+02  0.00000000000E+00 0. -1.
</event>
<event>
 7    1  0.2974434E-011  0.5052885E+02  0.7816164E-02  0.1300439E+00
        -11   -1    0    0    0    0  0.00000000000E+00  0.00000000000E+00  0.45593999997E+02  0.45594000000E+02  0.51100000000E-03 0.  1.
         11   -1    0    0    0    0 -0.00000000000E+00 -0.00000000000E+00 -0.45593999997E+02  0.45594000000E+02  0.51100000000E-03 0. -1.
    9900012    2    1    2    0    0 -0.99173993500E+00  0.23402498136E+02 -0.33234104226E+02  0.50528854032E+02  0.29999982317E+02 0.  0.
        -12    1    1    2    0    0  0.99173993500E+00 -0.23402498136E+02  0.33234104226E+02  0.40659145968E+02  0.00000000000E+00 0.  1.
         11    1    3    3    0    0 -0.71893908419E+00 -0.32583412441E+01  0.18181082489E+01  0.37998919637E+01  0.51100000000E-03 0. -1.
        -11    1    3    3    0    0  0.51131373632E+01  0.44709488849E+01 -0.31248912620E+01  0.74765301636E+01  0.51100000000E-03 0.  1.
         12    1    3    3    0    0 -0.53859382140E+01  0.22189890495E+02 -0.31927321213E+02  0.39252431905E+02  0.00000000000E+00 0. -1.
</event>
<event>
 7    1  0.2974434E-011  0.5052889E+02  0.7816164E-02  0.1300439E+00
        -11   -1    0    0    0    0  0.00000000000E+00  0.00000000000E+00  0.45593999997E+02  0.45594000000E+02  0.51100000000E-03 0. -1.
         11   -1    0    0    0    0 -0.00000000000E+00 -0.00000000000E+00 -0.45593999997E+02  0.45594000000E+02  0.51100000000E-03 0.  1.
    9900012    2    1    2    0    0 -0.56174196323E+01  0.25072416833E+02  0.31511607175E+02  0.50528894305E+02  0.30000104730E+02 0.  0.
        -12    1    1    2    0    0  0.56174196323E+01 -0.25072416833E+02 -0.31511607175E+02  0.40659105695E+02  0.00000000000E+00 0.  1.
         11    1    3    3    0    0 -0.37055329279E+01  0.27352194639E+02  0.27505382345E+02  0.38966903701E+02  0.51100000000E-03 0. -1.
        -11    1    3    3    0    0 -0.12245472315E+01  0.12133987503E+01  0.68134805438E+01  0.70281839639E+01  0.51100000000E-03 0.  1.
         12    1    3    3    0    0 -0.68733947291E+00 -0.34931765565E+01 -0.28072557139E+01  0.45338066401E+01  0.00000000000E+00 0. -1.
</event>
<event>
 7    1  0.2974434E-011  0.5052886E+02  0.7816164E-02  0.1300439E+00
        -11   -1    0    0    0    0  0.00000000000E+00  0.00000000000E+00  0.45593999997E+02  0.45594000000E+02  0.51100000000E-03 0.  1.
         11   -1    0    0    0    0 -0.00000000000E+00 -0.00000000000E+00 -0.45593999997E+02  0.45594000000E+02  0.51100000000E-03 0. -1.
    9900012    2    1    2    0    0  0.31504192918E+02 -0.25154392971E+02 -0.52828236143E+01  0.50528857332E+02  0.29999992347E+02 0.  0.
        -12    1    1    2    0    0 -0.31504192918E+02  0.25154392971E+02  0.52828236143E+01  0.40659142668E+02  0.00000000000E+00 0.  1.
         11    1    3    3    0    0  0.20541547476E+01 -0.92694033661E+01  0.44247122006E+01  0.10474706144E+02  0.51100000000E-03 0. -1.
        -11    1    3    3    0    0  0.15466141315E+02 -0.18956083329E+01  0.38788930360E+01  0.16057417899E+02  0.51100000000E-03 0.  1.
         12    1    3    3    0    0  0.13983896856E+02 -0.13989381272E+02 -0.13586428851E+02  0.23996733289E+02  0.00000000000E+00 0. -1.
</event>
<event>
 7    1  0.2974434E-011  0.5052886E+02  0.7816164E-02  0.1300439E+00
        -11   -1    0    0    0    0  0.00000000000E+00  0.00000000000E+00  0.45593999997E+02  0.45594000000E+02  0.51100000000E-03 0.  1.
         11   -1    0    0    0    0 -0.00000000000E+00 -0.00000000000E+00 -0.45593999997E+02  0.45594000000E+02  0.51100000000E-03 0. -1.
    9900012    2    1    2    0    0  0.13385022714E+02  0.26788906600E+02 -0.27502025783E+02  0.50528858690E+02  0.29999996475E+02 0.  0.
        -12    1    1    2    0    0 -0.13385022714E+02 -0.26788906600E+02  0.27502025783E+02  0.40659141310E+02  0.00000000000E+00 0.  1.
         11    1    3    3    0    0  0.82467900257E+00 -0.34077270257E+00  0.18997723233E+01  0.20988941454E+01  0.51100000000E-03 0. -1.
        -11    1    3    3    0    0 -0.15576786298E+01  0.15835037239E+02 -0.26336807260E+01  0.16127958380E+02  0.51100000000E-03 0.  1.
         12    1    3    3    0    0  0.14118022341E+02  0.11294642063E+02 -0.26768117381E+02  0.32302006165E+02  0.00000000000E+00 0. -1.
</event>
<event>
 7    1  0.2974434E-011  0.5052875E+02  0.7816164E-02  0.1300439E+00
        -11   -1    0    0    0    0  0.00000000000E+00  0.00000000000E+00  0.45593999997E+02  0.45594000000E+02  0.51100000000E-03 0.  1.
         11   -1    0    0    0    0 -0.00000000000E+00 -0.00000000000E+00 -0.45593999997E+02  0.45594000000E+02  0.51100000000E-03 0. -1.
    9900012    2    1    2    0    0 -0.11584772030E+02 -0.37879330626E+02 -0.91718960911E+01  0.50528753701E+02  0.29999677348E+02 0.  0.
        -12    1    1    2    0    0  0.11584772030E+02  0.37879330626E+02  0.91718960911E+01  0.40659246299E+02  0.00000000000E+00 0.  1.
         11    1    3    3    0    0 -0.91614985372E+01 -0.29774012864E+01 -0.32977951553E+01  0.10182014880E+02  0.51100000000E-03 0. -1.
        -11    1    3    3    0    0  0.64228180571E+00  0.22568842037E+00 -0.50296361720E+01  0.50755001196E+01  0.51100000000E-03 0.  1.
         12    1    3    3    0    0 -0.30655552984E+01 -0.35127617760E+02 -0.84446476382E+00  0.35271238702E+02  0.00000000000E+00 0. -1.
</event>
<event>
 7    1  0.2974434E-011  0.5052885E+02  0.7816164E-02  0.1300439E+00
        -11   -1    0    0    0    0  0.00000000000E+00  0.00000000000E+00  0.45593999997E+02  0.45594000000E+02  0.51100000000E-03 0.  1.
         11   -1    0    0    0    0 -0.00000000000E+00 -0.00000000000E+00 -0.45593999997E+02  0.45594000000E+02  0.51100000000E-03 0. -1.
    9900012    2    1    2    0    0 -0.14228347926E+02  0.34437044714E+02 -0.16272992128E+02  0.50528853352E+02  0.29999980249E+02 0.  0.
        -12    1    1    2    0    0  0.14228347926E+02 -0.34437044714E+02  0.16272992128E+02  0.40659146648E+02  0.00000000000E+00 0.  1.
         11    1    3    3    0    0  0.57173956864E+01  0.75272237604E+01  0.12140319021E+01  0.95300359231E+01  0.51100000000E-03 0. -1.
        -11    1    3    3    0    0 -0.51153580616E+01 -0.77366666429E-01 -0.65707448917E+01  0.83275183814E+01  0.51100000000E-03 0.  1.
         12    1    3    3    0    0 -0.14830385551E+02  0.26987187620E+02 -0.10916279139E+02  0.32671299048E+02  0.00000000000E+00 0. -1.
</event>
<event>
 7    1  0.2974434E-011  0.5052886E+02  0.7816164E-02  0.1300439E+00
        -11   -1    0    0    0    0  0.00000000000E+00  0.00000000000E+00  0.45593999997E+02  0.45594000000E+02  0.51100000000E-03 0. -1.
         11   -1    0    0    0    0 -0.00000000000E+00 -0.00000000000E+00 -0.45593999997E+02  0.45594000000E+02  0.51100000000E-03 0.  1.
    9900012    2    1    2    0    0 -0.29696505279E+01  0.36769353731E+01  0.40383502547E+02  0.50528856429E+02  0.29999989601E+02 0.  0.
        -12    1    1    2    0    0  0.29696505279E+01 -0.36769353731E+01 -0.40383502547E+02  0.40659143571E+02  0.00000000000E+00 0.  1.
         11    1    3    3    0    0 -0.68845932427E+01  0.27536572448E+01  0.91291183216E+01  0.11760997149E+02  0.51100000000E-03 0. -1.
        -11    1    3    3    0    0 -0.17547323714E+01  0.79381996022E+01  0.28036410583E+02  0.29191341477E+02  0.51100000000E-03 0.  1.
        -12    1    3    3    0    0  0.56696750862E+01 -0.70149214738E+01  0.32179736422E+01  0.95765178028E+01  0.00000000000E+00 0.  1.
</event>
<event>
 7    1  0.2974434E-011  0.5052886E+02  0.7816164E-02  0.1300439E+00
        -11   -1    0    0    0    0  0.00000000000E+00  0.00000000000E+00  0.45593999997E+02  0.45594000000E+02  0.51100000000E-03 0. -1.
         11   -1    0    0    0    0 -0.00000000000E+00 -0.00000000000E+00 -0.45593999997E+02  0.45594000000E+02  0.51100000000E-03 0.  1.
    9900012    2    1    2    0    0 -0.33912383653E+02 -0.21792417557E+02  0.53109797858E+01  0.50528859154E+02  0.29999997886E+02 0.  0.
        -12    1    1    2    0    0  0.33912383653E+02  0.21792417557E+02 -0.53109797858E+01  0.40659140846E+02  0.00000000000E+00 0.  1.
         11    1    3    3    0    0 -0.16516141879E+02 -0.19111286756E+02  0.83624975023E+01  0.26607434840E+02  0.51100000000E-03 0. -1.
        -11    1    3    3    0    0 -0.17930231982E+02 -0.56149334774E+01  0.10872462268E+01  0.18820276339E+02  0.51100000000E-03 0.  1.
        -12    1    3    3    0    0  0.53399020733E+00  0.29338026761E+01 -0.41387639433E+01  0.51011479750E+01  0.00000000000E+00 0.  1.
</event>
<event>
 7    1  0.2974434E-011  0.5052886E+02  0.7816164E-02  0.1300439E+00
        -11   -1    0    0    0    0  0.00000000000E+00  0.00000000000E+00  0.45593999997E+02  0.45594000000E+02  0.51100000000E-03 0. -1.
         11   -1    0    0    0    0 -0.00000000000E+00 -0.00000000000E+00 -0.45593999997E+02  0.45594000000E+02  0.51100000000E-03 0.  1.
    9900012    2    1    2    0    0  0.26920423374E+02 -0.57518449848E+01  0.29922782280E+02  0.50528858165E+02  0.29999994879E+02 0.  0.
        -12    1    1    2    0    0 -0.26920423374E+02  0.57518449848E+01 -0.29922782280E+02  0.40659141835E+02  0.00000000000E+00 0.  1.
         11    1    3    3    0    0  0.27470384340E+01 -0.44425305643E+01  0.36099184188E+01  0.63493156500E+01  0.51100000000E-03 0. -1.
        -11    1    3    3    0    0  0.25330113612E+02 -0.94670095129E+01  0.18059385058E+02  0.32517384791E+02  0.51100000000E-03 0.  1.
         12    1    3    3    0    0 -0.11567286714E+01  0.81576950924E+01  0.82534788033E+01  0.11662157725E+02  0.00000000000E+00 0. -1.
</event>
<event>
 7    1  0.2974434E-011  0.5052886E+02  0.7816164E-02  0.1300439E+00
        -11   -1    0    0    0    0  0.00000000000E+00  0.00000000000E+00  0.45593999997E+02  0.45594000000E+02  0.51100000000E-03 0.  1.
         11   -1    0    0    0    0 -0.00000000000E+00 -0.00000000000E+00 -0.45593999997E+02  0.45594000000E+02  0.51100000000E-03 0. -1.
    9900012    2    1    2    0    0 -0.16202832450E+02  0.17830710171E+02 -0.32752096829E+02  0.50528857715E+02  0.29999993512E+02 0.  0.
        -12    1    1    2    0    0  0.16202832450E+02 -0.17830710171E+02  0.32752096829E+02  0.40659142285E+02  0.00000000000E+00 0.  1.
         11    1    3    3    0    0 -0.11515834278E+02  0.17043190167E+02 -0.11709847591E+02  0.23668656511E+02  0.51100000000E-03 0. -1.
        -11    1    3    3    0    0 -0.50459967165E+00  0.77342288485E+01 -0.61138427287E+01  0.98717774429E+01  0.51100000000E-03 0.  1.
        -12    1    3    3    0    0 -0.41823985009E+01 -0.69467088441E+01 -0.14928406510E+02  0.16988423762E+02  0.00000000000E+00 0.  1.
</event>
<event>
 7    1  0.2974434E-011  0.5052883E+02  0.7816164E-02  0.1300439E+00
        -11   -1    0    0    0    0  0.00000000000E+00  0.00000000000E+00  0.45593999997E+02  0.45594000000E+02  0.51100000000E-03 0. -1.
         11   -1    0    0    0    0 -0.00000000000E+00 -0.00000000000E+00 -0.45593999997E+02  0.45594000000E+02  0.51100000000E-03 0.  1.
    9900012    2    1    2    0    0 -0.24751747566E+02 -0.25183802939E+02  0.20156763831E+02  0.50528830478E+02  0.29999910721E+02 0.  0.
        -12    1    1    2    0    0  0.24751747566E+02  0.25183802939E+02 -0.20156763831E+02  0.40659169522E+02  0.00000000000E+00 0.  1.
         11    1    3    3    0    0 -0.18958894526E+02 -0.12869547229E+02  0.12177751091E+02  0.25949230228E+02  0.51100000000E-03 0. -1.
        -11    1    3    3    0    0  0.10252004164E+01 -0.11768952866E+02 -0.24911295945E+01  0.12073318283E+02  0.51100000000E-03 0.  1.
         12    1    3    3    0    0 -0.68180534568E+01 -0.54530284423E+00  0.10470142335E+02  0.12506281967E+02  0.00000000000E+00 0. -1.
</event>
<event>
 7    1  0.2974434E-011  0.5052889E+02  0.7816164E-02  0.1300439E+00
        -11   -1    0    0    0    0  0.00000000000E+00  0.00000000000E+00  0.45593999997E+02  0.45594000000E+02  0.51100000000E-03 0. -1.
         11   -1    0    0    0    0 -0.00000000000E+00 -0.00000000000E+00 -0.45593999997E+02  0.45594000000E+02  0.51100000000E-03 0.  1.
    9900012    2    1    2    0    0  0.38452371569E+02 -0.13212772869E+02 -0.34613134549E-01  0.50528887316E+02  0.30000083486E+02 0.  0.
        -12    1    1    2    0    0 -0.38452371569E+02  0.13212772869E+02  0.34613134549E-01  0.40659112684E+02  0.00000000000E+00 0.  1.
         11    1    3    3    0    0 -0.21160510073E+01 -0.74950115072E+00 -0.23358900921E+01  0.32397232326E+01  0.51100000000E-03 0. -1.
        -11    1    3    3    0    0 -0.74825638843E+00  0.17902516355E+01  0.30053655128E+01  0.35773049448E+01  0.51100000000E-03 0.  1.
         12    1    3    3    0    0  0.41316678965E+02 -0.14253523354E+02 -0.70408855525E+00  0.43711859139E+02  0.00000000000E+00 0. -1.
</event>
<event>
 7    1  0.2974434E-011  0.5052887E+02  0.7816164E-02  0.1300439E+00
        -11   -1    0    0    0    0  0.00000000000E+00  0.00000000000E+00  0.45593999997E+02  0.45594000000E+02  0.51100000000E-03 0.  1.
         11   -1    0    0    0    0 -0.00000000000E+00 -0.00000000000E+00 -0.45593999997E+02  0.45594000000E+02  0.51100000000E-03 0. -1.
    9900012    2    1    2    0    0  0.29118095719E+02  0.11656462658E+02 -0.25873311510E+02  0.50528869802E+02  0.30000030250E+02 0.  0.
        -12    1    1    2    0    0 -0.29118095719E+02 -0.11656462658E+02  0.25873311510E+02  0.40659130198E+02  0.00000000000E+00 0.  1.
         11    1    3    3    0    0  0.56329365185E+01  0.79802642786E+01 -0.12608839374E+02  0.15949840826E+02  0.51100000000E-03 0. -1.
        -11    1    3    3    0    0 -0.33988978412E+01  0.32363942717E+01 -0.39164121599E+01  0.61126948954E+01  0.51100000000E-03 0.  1.
         12    1    3    3    0    0  0.26884057041E+02  0.43980410735E+00 -0.93480599763E+01  0.28466334080E+02  0.00000000000E+00 0. -1.
</event>
<event>
 7    1  0.2974434E-011  0.5052887E+02  0.7816164E-02  0.1300439E+00
        -11   -1    0    0    0    0  0.00000000000E+00  0.00000000000E+00  0.45593999997E+02  0.45594000000E+02  0.51100000000E-03 0. -1.
         11   -1    0    0    0    0 -0.00000000000E+00 -0.00000000000E+00 -0.45593999997E+02  0.45594000000E+02  0.51100000000E-03 0.  1.
    9900012    2    1    2    0    0  0.30245922593E+02  0.19775074970E+02 -0.18635861914E+02  0.50528870978E+02  0.30000033824E+02 0.  0.
        -12    1    1    2    0    0 -0.30245922593E+02 -0.19775074970E+02  0.18635861914E+02  0.40659129022E+02  0.00000000000E+00 0.  1.
         11    1    3    3    0    0  0.59474561397E+01 -0.19302520806E+01  0.50493279841E+01  0.80370281187E+01  0.51100000000E-03 0. -1.
        -11    1    3    3    0    0  0.96898563310E+01  0.36468428586E+01 -0.16668308378E+01  0.10486710821E+02  0.51100000000E-03 0.  1.
        -12    1    3    3    0    0  0.14608610122E+02  0.18058484192E+02 -0.22018359060E+02  0.32005132037E+02  0.00000000000E+00 0.  1.
</event>
<event>
 7    1  0.2974434E-011  0.5052886E+02  0.7816164E-02  0.1300439E+00
        -11   -1    0    0    0    0  0.00000000000E+00  0.00000000000E+00  0.45593999997E+02  0.45594000000E+02  0.51100000000E-03 0.  1.
         11   -1    0    0    0    0 -0.00000000000E+00 -0.00000000000E+00 -0.45593999997E+02  0.45594000000E+02  0.51100000000E-03 0. -1.
    9900012    2    1    2    0    0  0.29872341376E+02  0.28392068838E+01 -0.27436255232E+02  0.50528856180E+02  0.29999988846E+02 0.  0.
        -12    1    1    2    0    0 -0.29872341376E+02 -0.28392068838E+01  0.27436255232E+02  0.40659143820E+02  0.00000000000E+00 0.  1.
         11    1    3    3    0    0  0.13969921760E+02 -0.55702313400E+00 -0.10476128151E+02  0.17470496560E+02  0.51100000000E-03 0. -1.
        -11    1    3    3    0    0  0.14373734495E+02 -0.80456292164E+01 -0.73482202677E+01  0.18036982402E+02  0.51100000000E-03 0.  1.
        -12    1    3    3    0    0  0.15286851202E+01  0.11441859234E+02 -0.96119068137E+01  0.15021377218E+02  0.00000000000E+00 0.  1.
</event>
<event>
 7    1  0.2974434E-011  0.5052886E+02  0.7816164E-02  0.1300439E+00
        -11   -1    0    0    0    0  0.00000000000E+00  0.00000000000E+00  0.45593999997E+02  0.45594000000E+02  0.51100000000E-03 0.  1.
         11   -1    0    0    0    0 -0.00000000000E+00 -0.00000000000E+00 -0.45593999997E+02  0.45594000000E+02  0.51100000000E-03 0. -1.
    9900012    2    1    2    0    0 -0.33605464515E+02  0.18505651743E+02 -0.13467710212E+02  0.50528860682E+02  0.30000002530E+02 0.  0.
        -12    1    1    2    0    0  0.33605464515E+02 -0.18505651743E+02  0.13467710212E+02  0.40659139318E+02  0.00000000000E+00 0.  1.
         11    1    3    3    0    0 -0.35483204661E+01  0.10999059402E+02 -0.22189270172E+01  0.11768327121E+02  0.51100000000E-03 0.  1.
        -11    1    3    3    0    0 -0.97480612054E+01  0.86744499064E+01  0.36451964290E+01  0.13548366533E+02  0.51100000000E-03 0. -1.
         12    1    3    3    0    0 -0.20309082843E+02 -0.11678575656E+01 -0.14893979623E+02  0.25212167028E+02  0.00000000000E+00 0. -1.
</event>
<event>
 7    1  0.2974434E-011  0.5052890E+02  0.7816164E-02  0.1300439E+00
        -11   -1    0    0    0    0  0.00000000000E+00  0.00000000000E+00  0.45593999997E+02  0.45594000000E+02  0.51100000000E-03 0.  1.
         11   -1    0    0    0    0 -0.00000000000E+00 -0.00000000000E+00 -0.45593999997E+02  0.45594000000E+02  0.51100000000E-03 0. -1.
    9900012    2    1    2    0    0 -0.77213513441E+01 -0.12702554265E+02 -0.37844258788E+02  0.50528904159E+02  0.30000134681E+02 0.  0.
        -12    1    1    2    0    0  0.77213513441E+01  0.12702554265E+02  0.37844258788E+02  0.40659095841E+02  0.00000000000E+00 0.  1.
         11    1    3    3    0    0  0.65124468756E+01  0.48471905265E+00  0.38975697693E+00  0.65420812919E+01  0.51100000000E-03 0.  1.
        -11    1    3    3    0    0 -0.16080531814E+01 -0.73937347606E+01 -0.10203966905E+02  0.12703310183E+02  0.51100000000E-03 0. -1.
        -12    1    3    3    0    0 -0.12625745038E+02 -0.57935385566E+01 -0.28030048860E+02  0.31283512684E+02  0.00000000000E+00 0.  1.
</event>
<event>
 7    1  0.2974434E-011  0.5052886E+02  0.7816164E-02  0.1300439E+00
        -11   -1    0    0    0    0  0.00000000000E+00  0.00000000000E+00  0.45593999997E+02  0.45594000000E+02  0.51100000000E-03 0.  1.
         11   -1    0    0    0    0 -0.00000000000E+00 -0.00000000000E+00 -0.45593999997E+02  0.45594000000E+02  0.51100000000E-03 0. -1.
    9900012    2    1    2    0    0 -0.19174915361E+02 -0.10133132655E+02 -0.34391975335E+02  0.50528859282E+02  0.29999998275E+02 0.  0.
        -12    1    1    2    0    0  0.19174915361E+02  0.10133132655E+02  0.34391975335E+02  0.40659140718E+02  0.00000000000E+00 0.  1.
         11    1    3    3    0    0 -0.58299332274E+01 -0.62998347615E+01 -0.17222446098E+01  0.87545511715E+01  0.51100000000E-03 0. -1.
        -11    1    3    3    0    0  0.61113169925E+01 -0.34110025679E+00 -0.59382942336E+01  0.85280644600E+01  0.51100000000E-03 0.  1.
         12    1    3    3    0    0 -0.19456299126E+02 -0.34921976363E+01 -0.26731436491E+02  0.33246243651E+02  0.00000000000E+00 0. -1.
</event>
<event>
 7    1  0.2974434E-011  0.5052886E+02  0.7816164E-02  0.1300439E+00
        -11   -1    0    0    0    0  0.00000000000E+00  0.00000000000E+00  0.45593999997E+02  0.45594000000E+02  0.51100000000E-03 0.  1.
         11   -1    0    0    0    0 -0.00000000000E+00 -0.00000000000E+00 -0.45593999997E+02  0.45594000000E+02  0.51100000000E-03 0. -1.
    9900012    2    1    2    0    0 -0.77690517181E+01 -0.13761696769E+02 -0.37462291263E+02  0.50528859217E+02  0.29999998076E+02 0.  0.
        -12    1    1    2    0    0  0.77690517181E+01  0.13761696769E+02  0.37462291263E+02  0.40659140783E+02  0.00000000000E+00 0.  1.
         11    1    3    3    0    0 -0.73463900957E+01 -0.64199855295E+01 -0.16281837920E+02  0.18981146118E+02  0.51100000000E-03 0. -1.
        -11    1    3    3    0    0 -0.28130042151E+01  0.70528502882E+01 -0.12333733891E+02  0.14483669488E+02  0.51100000000E-03 0.  1.
         12    1    3    3    0    0  0.23903425926E+01 -0.14394561528E+02 -0.88467194520E+01  0.17064043611E+02  0.00000000000E+00 0. -1.
</event>
<event>
 7    1  0.2974434E-011  0.5052888E+02  0.7816164E-02  0.1300439E+00
        -11   -1    0    0    0    0  0.00000000000E+00  0.00000000000E+00  0.45593999997E+02  0.45594000000E+02  0.51100000000E-03 0. -1.
         11   -1    0    0    0    0 -0.00000000000E+00 -0.00000000000E+00 -0.45593999997E+02  0.45594000000E+02  0.51100000000E-03 0.  1.
    9900012    2    1    2    0    0  0.29615821659E+02 -0.70918596033E+01  0.26940171432E+02  0.50528877999E+02  0.30000055165E+02 0.  0.
        -12    1    1    2    0    0 -0.29615821659E+02  0.70918596033E+01 -0.26940171432E+02  0.40659122001E+02  0.00000000000E+00 0.  1.
         11    1    3    3    0    0  0.10195872843E+02 -0.96941819005E+01  0.15960617401E+02  0.21276143773E+02  0.51100000000E-03 0. -1.
        -11    1    3    3    0    0  0.17018600961E+02  0.74038840309E+01  0.13856916446E+02  0.23161701385E+02  0.51100000000E-03 0.  1.
         12    1    3    3    0    0  0.24013478540E+01 -0.48015617338E+01 -0.28773624148E+01  0.60910328406E+01  0.00000000000E+00 0. -1.
</event>
<event>
 7    1  0.2974434E-011  0.5052886E+02  0.7816164E-02  0.1300439E+00
        -11   -1    0    0    0    0  0.00000000000E+00  0.00000000000E+00  0.45593999997E+02  0.45594000000E+02  0.51100000000E-03 0.  1.
         11   -1    0    0    0    0 -0.00000000000E+00 -0.00000000000E+00 -0.45593999997E+02  0.45594000000E+02  0.51100000000E-03 0. -1.
    9900012    2    1    2    0    0 -0.26004366759E+02  0.14246099402E+02 -0.27820621764E+02  0.50528862846E+02  0.30000009108E+02 0.  0.
        -12    1    1    2    0    0  0.26004366759E+02 -0.14246099402E+02  0.27820621764E+02  0.40659137154E+02  0.00000000000E+00 0.  1.
         11    1    3    3    0    0 -0.79405412556E+00  0.10493391359E+02 -0.74787014700E+00  0.10549933374E+02  0.51100000000E-03 0.  1.
        -11    1    3    3    0    0  0.15439133329E+01 -0.39887987409E+00 -0.43491655717E+01  0.46322796725E+01  0.51100000000E-03 0. -1.
         12    1    3    3    0    0 -0.26754225966E+02  0.41515879170E+01 -0.22723586046E+02  0.35346649800E+02  0.00000000000E+00 0. -1.
</event>
<event>
 7    1  0.2974434E-011  0.5052886E+02  0.7816164E-02  0.1300439E+00
        -11   -1    0    0    0    0  0.00000000000E+00  0.00000000000E+00  0.45593999997E+02  0.45594000000E+02  0.51100000000E-03 0.  1.
         11   -1    0    0    0    0 -0.00000000000E+00 -0.00000000000E+00 -0.45593999997E+02  0.45594000000E+02  0.51100000000E-03 0. -1.
    9900012    2    1    2    0    0  0.10344738820E+02  0.23788503259E+02 -0.31309092639E+02  0.50528858464E+02  0.29999995787E+02 0.  0.
        -12    1    1    2    0    0 -0.10344738820E+02 -0.23788503259E+02  0.31309092639E+02  0.40659141536E+02  0.00000000000E+00 0.  1.
         11    1    3    3    0    0 -0.82996514722E+00  0.15217953238E+02 -0.11429696983E+02  0.19050273391E+02  0.51100000000E-03 0. -1.
        -11    1    3    3    0    0  0.93751101348E+01  0.10082164497E+02 -0.23456585249E+02  0.27198421329E+02  0.51100000000E-03 0.  1.
        -12    1    3    3    0    0  0.17995938324E+01 -0.15116144755E+01  0.35771895936E+01  0.42801637436E+01  0.00000000000E+00 0.  1.
</event>
<event>
 7    1  0.2974434E-011  0.5052887E+02  0.7816164E-02  0.1300439E+00
        -11   -1    0    0    0    0  0.00000000000E+00  0.00000000000E+00  0.45593999997E+02  0.45594000000E+02  0.51100000000E-03 0.  1.
         11   -1    0    0    0    0 -0.00000000000E+00 -0.00000000000E+00 -0.45593999997E+02  0.45594000000E+02  0.51100000000E-03 0. -1.
    9900012    2    1    2    0    0 -0.36088242416E+02 -0.68285749961E+01 -0.17440601020E+02  0.50528865219E+02  0.30000016321E+02 0.  0.
        -12    1    1    2    0    0  0.36088242416E+02  0.68285749961E+01  0.17440601020E+02  0.40659134781E+02  0.00000000000E+00 0.  1.
         11    1    3    3    0    0 -0.10833320033E+02 -0.89098800659E+01 -0.85822607333E+01  0.16443904198E+02  0.51100000000E-03 0. -1.
        -11    1    3    3    0    0 -0.20967699973E+01 -0.74539171949E+01 -0.33780684987E+01  0.84479981660E+01  0.51100000000E-03 0.  1.
        -12    1    3    3    0    0 -0.23158152386E+02  0.95352222647E+01 -0.54802717885E+01  0.25636962855E+02  0.00000000000E+00 0.  1.
</event>
<event>
 7    1  0.2974434E-011  0.5052886E+02  0.7816164E-02  0.1300439E+00
        -11   -1    0    0    0    0  0.00000000000E+00  0.00000000000E+00  0.45593999997E+02  0.45594000000E+02  0.51100000000E-03 0. -1.
         11   -1    0    0    0    0 -0.00000000000E+00 -0.00000000000E+00 -0.45593999997E+02  0.45594000000E+02  0.51100000000E-03 0.  1.
    9900012    2    1    2    0    0  0.94492114138E+00  0.31768535160E+02  0.25358095311E+02  0.50528859577E+02  0.29999999169E+02 0.  0.
        -12    1    1    2    0    0 -0.94492114138E+00 -0.31768535160E+02 -0.25358095311E+02  0.40659140423E+02  0.00000000000E+00 0.  1.
         11    1    3    3    0    0  0.20479147648E+01  0.20835541593E+02  0.15097215942E+02  0.25811619047E+02  0.51100000000E-03 0. -1.
        -11    1    3    3    0    0  0.21799898504E+01  0.15322951010E+02  0.32450403837E+01  0.15813774716E+02  0.51100000000E-03 0.  1.
        -12    1    3    3    0    0 -0.32829834739E+01 -0.43899574430E+01  0.70158389851E+01  0.89034658142E+01  0.00000000000E+00 0.  1.
</event>
<event>
 7    1  0.2974434E-011  0.5052886E+02  0.7816164E-02  0.1300439E+00
        -11   -1    0    0    0    0  0.00000000000E+00  0.00000000000E+00  0.45593999997E+02  0.45594000000E+02  0.51100000000E-03 0. -1.
         11   -1    0    0    0    0 -0.00000000000E+00 -0.00000000000E+00 -0.45593999997E+02  0.45594000000E+02  0.51100000000E-03 0.  1.
    9900012    2    1    2    0    0  0.14792920348E+02  0.33941684366E+02  0.16801712774E+02  0.50528856107E+02  0.29999988622E+02 0.  0.
        -12    1    1    2    0    0 -0.14792920348E+02 -0.33941684366E+02 -0.16801712774E+02  0.40659143893E+02  0.00000000000E+00 0.  1.
         11    1    3    3    0    0  0.18846503127E+01  0.54196014746E+01 -0.20418491712E+01  0.60904133886E+01  0.51100000000E-03 0. -1.
        -11    1    3    3    0    0 -0.56512963180E+01  0.33405050529E+01 -0.19829239605E+01  0.68577045560E+01  0.51100000000E-03 0.  1.
         12    1    3    3    0    0  0.18559566354E+02  0.25181577838E+02  0.20826485905E+02  0.37580738162E+02  0.00000000000E+00 0. -1.
</event>
<event>
 7    1  0.2974434E-011  0.5052886E+02  0.7816164E-02  0.1300439E+00
        -11   -1    0    0    0    0  0.00000000000E+00  0.00000000000E+00  0.45593999997E+02  0.45594000000E+02  0.51100000000E-03 0.  1.
         11   -1    0    0    0    0 -0.00000000000E+00 -0.00000000000E+00 -0.45593999997E+02  0.45594000000E+02  0.51100000000E-03 0. -1.
    9900012    2    1    2    0    0  0.32322013522E+02  0.20271760371E+02 -0.14053778560E+02  0.50528861809E+02  0.30000005953E+02 0.  0.
        -12    1    1    2    0    0 -0.32322013522E+02 -0.20271760371E+02  0.14053778560E+02  0.40659138191E+02  0.00000000000E+00 0.  1.
         11    1    3    3    0    0  0.93698869261E+01  0.59794318637E+01 -0.27129461883E+01  0.11441523662E+02  0.51100000000E-03 0. -1.
        -11    1    3    3    0    0  0.28227649987E+02  0.10421113558E+02 -0.60956768670E+01  0.30701092950E+02  0.51100000000E-03 0.  1.
        -12    1    3    3    0    0 -0.52755233912E+01  0.38712149496E+01 -0.52451555047E+01  0.83862451971E+01  0.00000000000E+00 0.  1.
</event>
<event>
 7    1  0.2974434E-011  0.5052885E+02  0.7816164E-02  0.1300439E+00
        -11   -1    0    0    0    0  0.00000000000E+00  0.00000000000E+00  0.45593999997E+02  0.45594000000E+02  0.51100000000E-03 0. -1.
         11   -1    0    0    0    0 -0.00000000000E+00 -0.00000000000E+00 -0.45593999997E+02  0.45594000000E+02  0.51100000000E-03 0.  1.
    9900012    2    1    2    0    0 -0.17378776410E+02 -0.23151112948E+02  0.28551188992E+02  0.50528852283E+02  0.29999976998E+02 0.  0.
        -12    1    1    2    0    0  0.17378776410E+02  0.23151112948E+02 -0.28551188992E+02  0.40659147717E+02  0.00000000000E+00 0.  1.
         11    1    3    3    0    0  0.48752231433E+01 -0.19566880903E+01  0.53264649011E+01  0.74811534928E+01  0.51100000000E-03 0. -1.
        -11    1    3    3    0    0  0.80068867850E-01 -0.10671842947E+02  0.28733848382E+01  0.11052193610E+02  0.51100000000E-03 0.  1.
         12    1    3    3    0    0 -0.22334068421E+02 -0.10522581910E+02  0.20351339253E+02  0.31995505179E+02  0.00000000000E+00 0. -1.
</event>
<event>
 7    1  0.2974434E-011  0.5052885E+02  0.7816164E-02  0.1300439E+00
        -11   -1    0    0    0    0  0.00000000000E+00  0.00000000000E+00  0.45593999997E+02  0.45594000000E+02  0.51100000000E-03 0.  1.
         11   -1    0    0    0    0 -0.00000000000E+00 -0.00000000000E+00 -0.45593999997E+02  0.45594000000E+02  0.51100000000E-03 0. -1.
    9900012    2    1    2    0    0 -0.37399027044E+02 -0.77934423990E+01 -0.13919095381E+02  0.50528853619E+02  0.29999981059E+02 0.  0.
        -12    1    1    2    0    0  0.37399027044E+02  0.77934423990E+01  0.13919095381E+02  0.40659146381E+02  0.00000000000E+00 0.  1.
         11    1    3    3    0    0 -0.17072287445E+02 -0.88712542793E+01 -0.10592496465E+02  0.21962766964E+02  0.51100000000E-03 0. -1.
        -11    1    3    3    0    0  0.21197581298E+01 -0.47307165526E+01 -0.73722327802E+00  0.52360817462E+01  0.51100000000E-03 0.  1.
         12    1    3    3    0    0 -0.22446497728E+02  0.58085284329E+01 -0.25893756380E+01  0.23330004908E+02  0.00000000000E+00 0. -1.
</event>
<event>
 7    1  0.2974434E-011  0.5052886E+02  0.7816164E-02  0.1300439E+00
        -11   -1    0    0    0    0  0.00000000000E+00  0.00000000000E+00  0.45593999997E+02  0.45594000000E+02  0.51100000000E-03 0.  1.
         11   -1    0    0    0    0 -0.00000000000E+00 -0.00000000000E+00 -0.45593999997E+02  0.45594000000E+02  0.51100000000E-03 0. -1.
    9900012    2    1    2    0    0 -0.33497341469E+02 -0.10863216755E+02 -0.20324480635E+02  0.50528857401E+02  0.29999992558E+02 0.  0.
        -12    1    1    2    0    0  0.33497341469E+02  0.10863216755E+02  0.20324480635E+02  0.40659142599E+02  0.00000000000E+00 0.  1.
         11    1    3    3    0    0 -0.27188253601E+02 -0.99816219594E+01 -0.18200047695E+02  0.34206368518E+02  0.51100000000E-03 0. -1.
        -11    1    3    3    0    0 -0.99450662821E+01  0.17384856727E+01 -0.47186450296E+01  0.11144159321E+02  0.51100000000E-03 0.  1.
         12    1    3    3    0    0  0.36359784143E+01 -0.26200804687E+01  0.25942120899E+01  0.51783295626E+01  0.00000000000E+00 0. -1.
</event>
<event>
 7    1  0.2974434E-011  0.5052889E+02  0.7816164E-02  0.1300439E+00
        -11   -1    0    0    0    0  0.00000000000E+00  0.00000000000E+00  0.45593999997E+02  0.45594000000E+02  0.51100000000E-03 0.  1.
         11   -1    0    0    0    0 -0.00000000000E+00 -0.00000000000E+00 -0.45593999997E+02  0.45594000000E+02  0.51100000000E-03 0. -1.
    9900012    2    1    2    0    0  0.68215111621E+01  0.37821152731E+02 -0.13273680458E+02  0.50528890303E+02  0.30000092565E+02 0.  0.
        -12    1    1    2    0    0 -0.68215111621E+01 -0.37821152731E+02  0.13273680458E+02  0.40659109697E+02  0.00000000000E+00 0.  1.
         11    1    3    3    0    0  0.39047194867E+01  0.51460750878E+01 -0.52409184342E+01  0.83184222888E+01  0.51100000000E-03 0. -1.
        -11    1    3    3    0    0 -0.49853975698E+01  0.19776016112E+02 -0.15234470333E+02  0.25456513680E+02  0.51100000000E-03 0.  1.
        -12    1    3    3    0    0  0.79021892452E+01  0.12899061532E+02  0.72017083084E+01  0.16753954334E+02  0.00000000000E+00 0.  1.
</event>
<event>
 7    1  0.2974434E-011  0.5052886E+02  0.7816164E-02  0.1300439E+00
        -11   -1    0    0    0    0  0.00000000000E+00  0.00000000000E+00  0.45593999997E+02  0.45594000000E+02  0.51100000000E-03 0.  1.
         11   -1    0    0    0    0 -0.00000000000E+00 -0.00000000000E+00 -0.45593999997E+02  0.45594000000E+02  0.51100000000E-03 0. -1.
    9900012    2    1    2    0    0  0.18659032285E+01 -0.25685969130E+02 -0.31462921066E+02  0.50528855801E+02  0.29999987693E+02 0.  0.
        -12    1    1    2    0    0 -0.18659032285E+01  0.25685969130E+02  0.31462921066E+02  0.40659144199E+02  0.00000000000E+00 0.  1.
         11    1    3    3    0    0  0.19930377385E+01  0.44294238196E+01 -0.32311072697E+01  0.58336994481E+01  0.51100000000E-03 0. -1.
        -11    1    3    3    0    0 -0.35627276981E+01 -0.19427086596E+00 -0.23683783490E+00  0.35758722351E+01  0.51100000000E-03 0.  1.
         12    1    3    3    0    0  0.34355931881E+01 -0.29921122084E+02 -0.27994975961E+02  0.41119284118E+02  0.00000000000E+00 0. -1.
</event>
<event>
 7    1  0.2974434E-011  0.5052886E+02  0.7816164E-02  0.1300439E+00
        -11   -1    0    0    0    0  0.00000000000E+00  0.00000000000E+00  0.45593999997E+02  0.45594000000E+02  0.51100000000E-03 0.  1.
         11   -1    0    0    0    0 -0.00000000000E+00 -0.00000000000E+00 -0.45593999997E+02  0.45594000000E+02  0.51100000000E-03 0. -1.
    9900012    2    1    2    0    0  0.52224240688E+01 -0.27139396860E+02 -0.29821888915E+02  0.50528860394E+02  0.30000001652E+02 0.  0.
        -12    1    1    2    0    0 -0.52224240688E+01  0.27139396860E+02  0.29821888915E+02  0.40659139606E+02  0.00000000000E+00 0.  1.
         11    1    3    3    0    0  0.52688203933E+01 -0.26999023422E+02 -0.31772210712E+02  0.42025957548E+02  0.51100000000E-03 0. -1.
        -11    1    3    3    0    0  0.26833782641E+00  0.31387943567E+01 -0.17051205583E+01  0.35821043511E+01  0.51100000000E-03 0.  1.
        -12    1    3    3    0    0 -0.31473415090E+00 -0.32791677947E+01  0.36554423548E+01  0.49207984943E+01  0.00000000000E+00 0.  1.
</event>
<event>
 7    1  0.2974434E-011  0.5052886E+02  0.7816164E-02  0.1300439E+00
        -11   -1    0    0    0    0  0.00000000000E+00  0.00000000000E+00  0.45593999997E+02  0.45594000000E+02  0.51100000000E-03 0.  1.
         11   -1    0    0    0    0 -0.00000000000E+00 -0.00000000000E+00 -0.45593999997E+02  0.45594000000E+02  0.51100000000E-03 0. -1.
    9900012    2    1    2    0    0  0.14162127660E+02 -0.37303033859E+02  0.78156012259E+01  0.50528858132E+02  0.29999994777E+02 0.  0.
        -12    1    1    2    0    0 -0.14162127660E+02  0.37303033859E+02 -0.78156012259E+01  0.40659141868E+02  0.00000000000E+00 0.  1.
         11    1    3    3    0    0  0.14923013094E+02 -0.13653562664E+02  0.86605422744E+00  0.20245151108E+02  0.51100000000E-03 0. -1.
        -11    1    3    3    0    0  0.79384926131E+01 -0.66191803739E+01  0.29150632143E+01  0.10739218202E+02  0.51100000000E-03 0.  1.
        -12    1    3    3    0    0 -0.86993780470E+01 -0.17030290821E+02  0.40344837842E+01  0.19544488821E+02  0.00000000000E+00 0.  1.
</event>
<event>
 7    1  0.2974434E-011  0.5052886E+02  0.7816164E-02  0.1300439E+00
        -11   -1    0    0    0    0  0.00000000000E+00  0.00000000000E+00  0.45593999997E+02  0.45594000000E+02  0.51100000000E-03 0.  1.
         11   -1    0    0    0    0 -0.00000000000E+00 -0.00000000000E+00 -0.45593999997E+02  0.45594000000E+02  0.51100000000E-03 0. -1.
    9900012    2    1    2    0    0  0.38468819925E+02  0.15869203960E+00 -0.13163983981E+02  0.50528858791E+02  0.29999996781E+02 0.  0.
        -12    1    1    2    0    0 -0.38468819925E+02 -0.15869203960E+00  0.13163983981E+02  0.40659141209E+02  0.00000000000E+00 0.  1.
         11    1    3    3    0    0  0.65481015961E+01  0.71819866224E+01 -0.97369937785E+00  0.97676331369E+01  0.51100000000E-03 0. -1.
        -11    1    3    3    0    0  0.93644309419E+01  0.70885714885E+01 -0.69374451441E+01  0.13640694924E+02  0.51100000000E-03 0.  1.
        -12    1    3    3    0    0  0.22556287387E+02 -0.14111866071E+02 -0.52528394589E+01  0.27120530730E+02  0.00000000000E+00 0.  1.
</event>
<event>
 7    1  0.2974434E-011  0.5052884E+02  0.7816164E-02  0.1300439E+00
        -11   -1    0    0    0    0  0.00000000000E+00  0.00000000000E+00  0.45593999997E+02  0.45594000000E+02  0.51100000000E-03 0.  1.
         11   -1    0    0    0    0 -0.00000000000E+00 -0.00000000000E+00 -0.45593999997E+02  0.45594000000E+02  0.51100000000E-03 0. -1.
    9900012    2    1    2    0    0 -0.21939420390E+02 -0.18139114680E+02 -0.29031051452E+02  0.50528836250E+02  0.29999928267E+02 0.  0.
        -12    1    1    2    0    0  0.21939420390E+02  0.18139114680E+02  0.29031051452E+02  0.40659163750E+02  0.00000000000E+00 0.  1.
         11    1    3    3    0    0 -0.12803961927E+02 -0.11304632527E+01 -0.77950994140E+00  0.12877384214E+02  0.51100000000E-03 0.  1.
        -11    1    3    3    0    0 -0.85787343631E+01 -0.71966500997E+01 -0.24841952089E+02  0.27249019061E+02  0.51100000000E-03 0. -1.
        -12    1    3    3    0    0 -0.55672409987E+00 -0.98120013277E+01 -0.34095894212E+01  0.10402432975E+02  0.00000000000E+00 0.  1.
</event>
<event>
 7    1  0.2974434E-011  0.5052885E+02  0.7816164E-02  0.1300439E+00
        -11   -1    0    0    0    0  0.00000000000E+00  0.00000000000E+00  0.45593999997E+02  0.45594000000E+02  0.51100000000E-03 0.  1.
         11   -1    0    0    0    0 -0.00000000000E+00 -0.00000000000E+00 -0.45593999997E+02  0.45594000000E+02  0.51100000000E-03 0. -1.
    9900012    2    1    2    0    0 -0.19209851070E+02  0.46091454146E+00 -0.35832046749E+02  0.50528851035E+02  0.29999973206E+02 0.  0.
        -12    1    1    2    0    0  0.19209851070E+02 -0.46091454146E+00  0.35832046749E+02  0.40659148965E+02  0.00000000000E+00 0.  1.
         11    1    3    3    0    0 -0.15453871628E+02 -0.29688100402E+01 -0.28344839362E+02  0.32420146515E+02  0.51100000000E-03 0. -1.
        -11    1    3    3    0    0  0.16508560761E+01 -0.56650944364E+01 -0.29350547102E+01  0.65903844478E+01  0.51100000000E-03 0.  1.
         12    1    3    3    0    0 -0.54068355180E+01  0.90948190180E+01 -0.45521526772E+01  0.11518320072E+02  0.00000000000E+00 0. -1.
</event>
<event>
 7    1  0.2974434E-011  0.5052885E+02  0.7816164E-02  0.1300439E+00
        -11   -1    0    0    0    0  0.00000000000E+00  0.00000000000E+00  0.45593999997E+02  0.45594000000E+02  0.51100000000E-03 0.  1.
         11   -1    0    0    0    0 -0.00000000000E+00 -0.00000000000E+00 -0.45593999997E+02  0.45594000000E+02  0.51100000000E-03 0. -1.
    9900012    2    1    2    0    0 -0.12612897106E+01 -0.40273877966E+02 -0.54397090019E+01  0.50528849342E+02  0.29999968061E+02 0.  0.
        -12    1    1    2    0    0  0.12612897106E+01  0.40273877966E+02  0.54397090019E+01  0.40659150658E+02  0.00000000000E+00 0.  1.
         11    1    3    3    0    0  0.12012989902E+01 -0.18596760460E+02 -0.11565889679E+02  0.21932907313E+02  0.51100000000E-03 0. -1.
        -11    1    3    3    0    0 -0.97959768255E+01 -0.97586233916E+01  0.17720075388E+01  0.13940297825E+02  0.51100000000E-03 0.  1.
         12    1    3    3    0    0  0.73333881247E+01 -0.11918494114E+02  0.43541731379E+01  0.14655644205E+02  0.00000000000E+00 0. -1.
</event>
<event>
 7    1  0.2974434E-011  0.5052886E+02  0.7816164E-02  0.1300439E+00
        -11   -1    0    0    0    0  0.00000000000E+00  0.00000000000E+00  0.45593999997E+02  0.45594000000E+02  0.51100000000E-03 0.  1.
         11   -1    0    0    0    0 -0.00000000000E+00 -0.00000000000E+00 -0.45593999997E+02  0.45594000000E+02  0.51100000000E-03 0. -1.
    9900012    2    1    2    0    0  0.13593854152E+02  0.27995205684E+01  0.38216953675E+02  0.50528859154E+02  0.29999997885E+02 0.  0.
        -12    1    1    2    0    0 -0.13593854152E+02 -0.27995205684E+01 -0.38216953675E+02  0.40659140846E+02  0.00000000000E+00 0.  1.
         11    1    3    3    0    0  0.17501814055E+02 -0.36087667088E+01  0.26554758132E+02  0.32007684579E+02  0.51100000000E-03 0. -1.
        -11    1    3    3    0    0  0.10379320018E+01  0.69183714526E+01  0.14236584368E+01  0.71391855279E+01  0.51100000000E-03 0.  1.
        -12    1    3    3    0    0 -0.49458919049E+01 -0.51008417535E+00  0.10238537106E+02  0.11381989047E+02  0.00000000000E+00 0.  1.
</event>
<event>
 7    1  0.2974434E-011  0.5052886E+02  0.7816164E-02  0.1300439E+00
        -11   -1    0    0    0    0  0.00000000000E+00  0.00000000000E+00  0.45593999997E+02  0.45594000000E+02  0.51100000000E-03 0. -1.
         11   -1    0    0    0    0 -0.00000000000E+00 -0.00000000000E+00 -0.45593999997E+02  0.45594000000E+02  0.51100000000E-03 0.  1.
    9900012    2    1    2    0    0 -0.13203521146E+02  0.21272223493E+02  0.32036306917E+02  0.50528862972E+02  0.30000009490E+02 0.  0.
        -12    1    1    2    0    0  0.13203521146E+02 -0.21272223493E+02 -0.32036306917E+02  0.40659137028E+02  0.00000000000E+00 0.  1.
         11    1    3    3    0    0  0.52232194231E+00 -0.92975791079E+00  0.50706799817E-01  0.10676335630E+01  0.51100000000E-03 0. -1.
        -11    1    3    3    0    0 -0.54476705300E+01 -0.61240039135E+01  0.62996028475E+01  0.10337578751E+02  0.51100000000E-03 0.  1.
         12    1    3    3    0    0 -0.82781725580E+01  0.28325985317E+02  0.25685997270E+02  0.39123650658E+02  0.00000000000E+00 0. -1.
</event>
<event>
 7    1  0.2974434E-011  0.5052886E+02  0.7816164E-02  0.1300439E+00
        -11   -1    0    0    0    0  0.00000000000E+00  0.00000000000E+00  0.45593999997E+02  0.45594000000E+02  0.51100000000E-03 0.  1.
         11   -1    0    0    0    0 -0.00000000000E+00 -0.00000000000E+00 -0.45593999997E+02  0.45594000000E+02  0.51100000000E-03 0. -1.
    9900012    2    1    2    0    0 -0.18978644822E+01 -0.40297870476E+02 -0.50641369538E+01  0.50528859114E+02  0.29999997762E+02 0.  0.
        -12    1    1    2    0    0  0.18978644822E+01  0.40297870476E+02  0.50641369538E+01  0.40659140886E+02  0.00000000000E+00 0.  1.
         11    1    3    3    0    0  0.57535371464E+01 -0.78324866707E+01  0.49696442262E+01  0.10915511950E+02  0.51100000000E-03 0. -1.
        -11    1    3    3    0    0 -0.81140727791E+01 -0.22018697238E+02  0.21417521135E+01  0.23563707422E+02  0.51100000000E-03 0.  1.
         12    1    3    3    0    0  0.46267115045E+00 -0.10446686568E+02 -0.12175533293E+02  0.16049639741E+02  0.00000000000E+00 0. -1.
</event>
<event>
 7    1  0.2974434E-011  0.5052886E+02  0.7816164E-02  0.1300439E+00
        -11   -1    0    0    0    0  0.00000000000E+00  0.00000000000E+00  0.45593999997E+02  0.45594000000E+02  0.51100000000E-03 0. -1.
         11   -1    0    0    0    0 -0.00000000000E+00 -0.00000000000E+00 -0.45593999997E+02  0.45594000000E+02  0.51100000000E-03 0.  1.
    9900012    2    1    2    0    0 -0.29774974532E+02 -0.14482436448E+01  0.27649944634E+02  0.50528856425E+02  0.29999989589E+02 0.  0.
        -12    1    1    2    0    0  0.29774974532E+02  0.14482436448E+01 -0.27649944634E+02  0.40659143575E+02  0.00000000000E+00 0.  1.
         11    1    3    3    0    0 -0.80303616419E+01 -0.11882517639E+02  0.36326330261E+01  0.14794490748E+02  0.51100000000E-03 0. -1.
        -11    1    3    3    0    0 -0.18483836679E+02  0.75699881695E+01  0.12842444744E+02  0.23746269739E+02  0.51100000000E-03 0.  1.
        -12    1    3    3    0    0 -0.32607762104E+01  0.28642858242E+01  0.11174866864E+02  0.11988095938E+02  0.00000000000E+00 0.  1.
</event>
<event>
 7    1  0.3433549E-011  0.5052884E+02  0.7816164E-02  0.1300439E+00
        -11   -1    0    0    0    0  0.00000000000E+00  0.00000000000E+00  0.45593999997E+02  0.45594000000E+02  0.51100000000E-03 0. -1.
         11   -1    0    0    0    0 -0.00000000000E+00 -0.00000000000E+00 -0.45593999997E+02  0.45594000000E+02  0.51100000000E-03 0.  1.
    9900012    2    1    2    0    0  0.20951045402E+02 -0.42411966156E+01  0.34586599428E+02  0.50528844669E+02  0.29999953857E+02 0.  0.
        -12    1    1    2    0    0 -0.20951045402E+02  0.42411966156E+01 -0.34586599428E+02  0.40659155331E+02  0.00000000000E+00 0.  1.
         11    1    3    3    0    0  0.10085286582E+02 -0.24807918618E+01  0.17191644611E+02  0.20085317483E+02  0.51100000000E-03 0. -1.
        -11    1    3    3    0    0  0.16695721342E+02  0.20279772701E+01  0.16270215641E+02  0.23400421368E+02  0.51100000000E-03 0.  1.
        -12    1    3    3    0    0 -0.58299625217E+01 -0.37883820239E+01  0.11247391772E+01  0.70431058192E+01  0.00000000000E+00 0.  1.
</event>
<event>
 7    1  0.2974434E-011  0.5052886E+02  0.7816164E-02  0.1300439E+00
        -11   -1    0    0    0    0  0.00000000000E+00  0.00000000000E+00  0.45593999997E+02  0.45594000000E+02  0.51100000000E-03 0.  1.
         11   -1    0    0    0    0 -0.00000000000E+00 -0.00000000000E+00 -0.45593999997E+02  0.45594000000E+02  0.51100000000E-03 0. -1.
    9900012    2    1    2    0    0 -0.15944726039E+02  0.14858214195E+02 -0.34324405903E+02  0.50528860091E+02  0.30000000732E+02 0.  0.
        -12    1    1    2    0    0  0.15944726039E+02 -0.14858214195E+02  0.34324405903E+02  0.40659139909E+02  0.00000000000E+00 0.  1.
         11    1    3    3    0    0 -0.17252476194E+02  0.36489614330E+00 -0.25496143046E+02  0.30786919211E+02  0.51100000000E-03 0. -1.
        -11    1    3    3    0    0 -0.30176911472E+01  0.21855194311E+01 -0.48241868853E+01  0.60955503779E+01  0.51100000000E-03 0.  1.
        -12    1    3    3    0    0  0.43254413022E+01  0.12307798621E+02 -0.40040759723E+01  0.13646390502E+02  0.00000000000E+00 0.  1.
</event>
<event>
 7    1  0.2974434E-011  0.5052887E+02  0.7816164E-02  0.1300439E+00
        -11   -1    0    0    0    0  0.00000000000E+00  0.00000000000E+00  0.45593999997E+02  0.45594000000E+02  0.51100000000E-03 0.  1.
         11   -1    0    0    0    0 -0.00000000000E+00 -0.00000000000E+00 -0.45593999997E+02  0.45594000000E+02  0.51100000000E-03 0. -1.
    9900012    2    1    2    0    0 -0.40612723925E+02 -0.11940888329E+01 -0.15315702706E+01  0.50528869411E+02  0.30000029061E+02 0.  0.
        -12    1    1    2    0    0  0.40612723925E+02  0.11940888329E+01  0.15315702706E+01  0.40659130589E+02  0.00000000000E+00 0.  1.
         11    1    3    3    0    0  0.25608252980E+01 -0.36862383960E+01 -0.14296900547E+01  0.47106468380E+01  0.51100000000E-03 0. -1.
        -11    1    3    3    0    0 -0.40272653366E+00  0.28603330644E+01 -0.93987358579E+00  0.30376070382E+01  0.51100000000E-03 0.  1.
         12    1    3    3    0    0 -0.42770822690E+02 -0.36818350124E+00  0.83799336988E+00  0.42780615535E+02  0.00000000000E+00 0. -1.
</event>
<event>
 7    1  0.2974434E-011  0.5052886E+02  0.7816164E-02  0.1300439E+00
        -11   -1    0    0    0    0  0.00000000000E+00  0.00000000000E+00  0.45593999997E+02  0.45594000000E+02  0.51100000000E-03 0.  1.
         11   -1    0    0    0    0 -0.00000000000E+00 -0.00000000000E+00 -0.45593999997E+02  0.45594000000E+02  0.51100000000E-03 0. -1.
    9900012    2    1    2    0    0 -0.31275210246E+02 -0.25934956647E+02 -0.15507468027E+01  0.50528861202E+02  0.30000004108E+02 0.  0.
        -12    1    1    2    0    0  0.31275210246E+02  0.25934956647E+02  0.15507468027E+01  0.40659138798E+02  0.00000000000E+00 0.  1.
         11    1    3    3    0    0 -0.10658065689E+02  0.41221594743E+01  0.48281814337E+00  0.11437642964E+02  0.51100000000E-03 0. -1.
        -11    1    3    3    0    0  0.10859612998E+01 -0.62248138455E+00  0.19362308940E+01  0.23055986977E+01  0.51100000000E-03 0.  1.
         12    1    3    3    0    0 -0.21703105856E+02 -0.29434634737E+02 -0.39697958401E+01  0.36785619540E+02  0.00000000000E+00 0. -1.
</event>
<event>
 7    1  0.2974434E-011  0.5052886E+02  0.7816164E-02  0.1300439E+00
        -11   -1    0    0    0    0  0.00000000000E+00  0.00000000000E+00  0.45593999997E+02  0.45594000000E+02  0.51100000000E-03 0.  1.
         11   -1    0    0    0    0 -0.00000000000E+00 -0.00000000000E+00 -0.45593999997E+02  0.45594000000E+02  0.51100000000E-03 0. -1.
    9900012    2    1    2    0    0  0.33974909542E+02  0.14084045658E+02 -0.17335251364E+02  0.50528858834E+02  0.29999996912E+02 0.  0.
        -12    1    1    2    0    0 -0.33974909542E+02 -0.14084045658E+02  0.17335251364E+02  0.40659141166E+02  0.00000000000E+00 0.  1.
         11    1    3    3    0    0  0.28819510815E+02  0.11133901214E+02  0.64664021963E+00  0.30902202246E+02  0.51100000000E-03 0.  1.
        -11    1    3    3    0    0  0.43917336306E+01  0.32098727882E+00 -0.67013566363E+01  0.80186369255E+01  0.51100000000E-03 0. -1.
        -12    1    3    3    0    0  0.76366509687E+00  0.26291571658E+01 -0.11280534947E+02  0.11608019662E+02  0.00000000000E+00 0.  1.
</event>
<event>
 7    1  0.2974434E-011  0.5052888E+02  0.7816164E-02  0.1300439E+00
        -11   -1    0    0    0    0  0.00000000000E+00  0.00000000000E+00  0.45593999997E+02  0.45594000000E+02  0.51100000000E-03 0.  1.
         11   -1    0    0    0    0 -0.00000000000E+00 -0.00000000000E+00 -0.45593999997E+02  0.45594000000E+02  0.51100000000E-03 0. -1.
    9900012    2    1    2    0    0  0.30322965490E+01  0.37481989404E+02 -0.15461878871E+02  0.50528879863E+02  0.30000060832E+02 0.  0.
        -12    1    1    2    0    0 -0.30322965490E+01 -0.37481989404E+02  0.15461878871E+02  0.40659120137E+02  0.00000000000E+00 0.  1.
         11    1    3    3    0    0  0.10520463531E+02  0.14816426058E+02 -0.33247537963E+01  0.18473240704E+02  0.51100000000E-03 0. -1.
        -11    1    3    3    0    0  0.25096031448E+01  0.13282799122E+02  0.33314840694E+00  0.13521902550E+02  0.51100000000E-03 0.  1.
        -12    1    3    3    0    0 -0.99977701263E+01  0.93827642242E+01 -0.12470273482E+02  0.18533736609E+02  0.00000000000E+00 0.  1.
</event>
<event>
 7    1  0.2974434E-011  0.5052885E+02  0.7816164E-02  0.1300439E+00
        -11   -1    0    0    0    0  0.00000000000E+00  0.00000000000E+00  0.45593999997E+02  0.45594000000E+02  0.51100000000E-03 0. -1.
         11   -1    0    0    0    0 -0.00000000000E+00 -0.00000000000E+00 -0.45593999997E+02  0.45594000000E+02  0.51100000000E-03 0.  1.
    9900012    2    1    2    0    0  0.10370451862E+02  0.28328143114E+02  0.27260530193E+02  0.50528850101E+02  0.29999970366E+02 0.  0.
        -12    1    1    2    0    0 -0.10370451862E+02 -0.28328143114E+02 -0.27260530193E+02  0.40659149899E+02  0.00000000000E+00 0.  1.
         11    1    3    3    0    0  0.86519138596E+01  0.90332340125E+01  0.57291506887E+01  0.13757837695E+02  0.51100000000E-03 0. -1.
        -11    1    3    3    0    0  0.60280715275E+01  0.60285674480E+00 -0.20292550279E+01  0.63889716562E+01  0.51100000000E-03 0.  1.
         12    1    3    3    0    0 -0.43095335255E+01  0.18692052357E+02  0.23560634533E+02  0.30382040750E+02  0.00000000000E+00 0. -1.
</event>
<event>
 7    1  0.2974434E-011  0.5052886E+02  0.7816164E-02  0.1300439E+00
        -11   -1    0    0    0    0  0.00000000000E+00  0.00000000000E+00  0.45593999997E+02  0.45594000000E+02  0.51100000000E-03 0. -1.
         11   -1    0    0    0    0 -0.00000000000E+00 -0.00000000000E+00 -0.45593999997E+02  0.45594000000E+02  0.51100000000E-03 0.  1.
    9900012    2    1    2    0    0  0.19210284126E+02  0.33138838879E+02  0.13636276620E+02  0.50528859595E+02  0.29999999224E+02 0.  0.
        -12    1    1    2    0    0 -0.19210284126E+02 -0.33138838879E+02 -0.13636276620E+02  0.40659140405E+02  0.00000000000E+00 0.  1.
         11    1    3    3    0    0  0.67316968585E+01  0.20593663985E+02 -0.34612545977E-01  0.21666008798E+02  0.51100000000E-03 0. -1.
        -11    1    3    3    0    0  0.53330106980E+01 -0.26571152563E+01 -0.15911201585E+01  0.61670842551E+01  0.51100000000E-03 0.  1.
         12    1    3    3    0    0  0.71455765691E+01  0.15202290150E+02  0.15262009324E+02  0.22695766542E+02  0.00000000000E+00 0. -1.
</event>
<event>
 7    1  0.2974434E-011  0.5052885E+02  0.7816164E-02  0.1300439E+00
        -11   -1    0    0    0    0  0.00000000000E+00  0.00000000000E+00  0.45593999997E+02  0.45594000000E+02  0.51100000000E-03 0. -1.
         11   -1    0    0    0    0 -0.00000000000E+00 -0.00000000000E+00 -0.45593999997E+02  0.45594000000E+02  0.51100000000E-03 0.  1.
    9900012    2    1    2    0    0 -0.20579078423E+02 -0.23431342635E+02  0.26089076501E+02  0.50528853439E+02  0.29999980512E+02 0.  0.
        -12    1    1    2    0    0  0.20579078423E+02  0.23431342635E+02 -0.26089076501E+02  0.40659146561E+02  0.00000000000E+00 0.  1.
         11    1    3    3    0    0  0.29955824593E+01 -0.85692220422E+01  0.16561200339E+01  0.92275573424E+01  0.51100000000E-03 0. -1.
        -11    1    3    3    0    0 -0.17306579129E+01 -0.57059849125E+00 -0.29513847541E+01  0.34686354201E+01  0.51100000000E-03 0.  1.
         12    1    3    3    0    0 -0.21844002970E+02 -0.14291522102E+02  0.27384341221E+02  0.37832660676E+02  0.00000000000E+00 0. -1.
</event>
<event>
 7    1  0.3168593E-011  0.5052885E+02  0.7816164E-02  0.1300439E+00
        -11   -1    0    0    0    0  0.00000000000E+00  0.00000000000E+00  0.45593999997E+02  0.45594000000E+02  0.51100000000E-03 0. -1.
         11   -1    0    0    0    0 -0.00000000000E+00 -0.00000000000E+00 -0.45593999997E+02  0.45594000000E+02  0.51100000000E-03 0.  1.
    9900012    2    1    2    0    0 -0.29857026517E+02  0.24083935646E+02  0.13479190863E+02  0.50528848817E+02  0.29999966464E+02 0.  0.
        -12    1    1    2    0    0  0.29857026517E+02 -0.24083935646E+02 -0.13479190863E+02  0.40659151183E+02  0.00000000000E+00 0.  1.
         11    1    3    3    0    0 -0.18607264890E+02  0.79181512983E+01  0.50618395379E+01  0.20845854418E+02  0.51100000000E-03 0. -1.
        -11    1    3    3    0    0 -0.12083793202E+02  0.34903016375E+01  0.11012738037E+02  0.16717675167E+02  0.51100000000E-03 0.  1.
        -12    1    3    3    0    0  0.83403157449E+00  0.12675482710E+02 -0.25953867116E+01  0.12965319232E+02  0.00000000000E+00 0.  1.
</event>
<event>
 7    1  0.2974434E-011  0.5052885E+02  0.7816164E-02  0.1300439E+00
        -11   -1    0    0    0    0  0.00000000000E+00  0.00000000000E+00  0.45593999997E+02  0.45594000000E+02  0.51100000000E-03 0.  1.
         11   -1    0    0    0    0 -0.00000000000E+00 -0.00000000000E+00 -0.45593999997E+02  0.45594000000E+02  0.51100000000E-03 0. -1.
    9900012    2    1    2    0    0  0.15201350039E+02  0.13912863760E+02 -0.35050217749E+02  0.50528848690E+02  0.29999966077E+02 0.  0.
        -12    1    1    2    0    0 -0.15201350039E+02 -0.13912863760E+02  0.35050217749E+02  0.40659151310E+02  0.00000000000E+00 0.  1.
         11    1    3    3    0    0  0.80861483282E+01  0.40932522282E+01 -0.15643332641E+02  0.18079114053E+02  0.51100000000E-03 0. -1.
        -11    1    3    3    0    0 -0.34766000379E+01 -0.24412598257E+01 -0.15097971348E+02  0.15684235284E+02  0.51100000000E-03 0.  1.
         12    1    3    3    0    0  0.10591801749E+02  0.12260871357E+02 -0.43089137608E+01  0.16765499352E+02  0.00000000000E+00 0. -1.
</event>
<event>
 7    1  0.2974434E-011  0.5052887E+02  0.7816164E-02  0.1300439E+00
        -11   -1    0    0    0    0  0.00000000000E+00  0.00000000000E+00  0.45593999997E+02  0.45594000000E+02  0.51100000000E-03 0.  1.
         11   -1    0    0    0    0 -0.00000000000E+00 -0.00000000000E+00 -0.45593999997E+02  0.45594000000E+02  0.51100000000E-03 0. -1.
    9900012    2    1    2    0    0 -0.12378862939E+02  0.14391696710E+02 -0.35955633924E+02  0.50528870734E+02  0.30000033082E+02 0.  0.
        -12    1    1    2    0    0  0.12378862939E+02 -0.14391696710E+02  0.35955633924E+02  0.40659129266E+02  0.00000000000E+00 0.  1.
         11    1    3    3    0    0  0.67559566911E+01  0.86347621402E+00 -0.61255069601E+01  0.91602607913E+01  0.51100000000E-03 0.  1.
        -11    1    3    3    0    0  0.18977812397E+01  0.35913616513E-01  0.60253966822E+00  0.19914612059E+01  0.51100000000E-03 0. -1.
         12    1    3    3    0    0 -0.21032600870E+02  0.13492306879E+02 -0.30432666632E+02  0.39377148736E+02  0.00000000000E+00 0. -1.
</event>
<event>
 7    1  0.2974434E-011  0.5052886E+02  0.7816164E-02  0.1300439E+00
        -11   -1    0    0    0    0  0.00000000000E+00  0.00000000000E+00  0.45593999997E+02  0.45594000000E+02  0.51100000000E-03 0. -1.
         11   -1    0    0    0    0 -0.00000000000E+00 -0.00000000000E+00 -0.45593999997E+02  0.45594000000E+02  0.51100000000E-03 0.  1.
    9900012    2    1    2    0    0  0.90751441325E+01  0.39296690488E+02 -0.51553398962E+01  0.50528860144E+02  0.30000000895E+02 0.  0.
        -12    1    1    2    0    0 -0.90751441325E+01 -0.39296690488E+02  0.51553398962E+01  0.40659139856E+02  0.00000000000E+00 0.  1.
         11    1    3    3    0    0 -0.46826489459E+01  0.89527020529E+01 -0.76653732067E+01  0.12682114250E+02  0.51100000000E-03 0. -1.
        -11    1    3    3    0    0 -0.22070085875E+01  0.12701573835E+02 -0.33950765353E+01  0.13331444398E+02  0.51100000000E-03 0.  1.
        -12    1    3    3    0    0  0.15964801666E+02  0.17642414600E+02  0.59051098458E+01  0.24515301496E+02  0.00000000000E+00 0.  1.
</event>
<event>
 7    1  0.2974434E-011  0.5052886E+02  0.7816164E-02  0.1300439E+00
        -11   -1    0    0    0    0  0.00000000000E+00  0.00000000000E+00  0.45593999997E+02  0.45594000000E+02  0.51100000000E-03 0. -1.
         11   -1    0    0    0    0 -0.00000000000E+00 -0.00000000000E+00 -0.45593999997E+02  0.45594000000E+02  0.51100000000E-03 0.  1.
    9900012    2    1    2    0    0 -0.31732749101E+01 -0.34429112516E+02  0.21394673491E+02  0.50528861837E+02  0.30000006041E+02 0.  0.
        -12    1    1    2    0    0  0.31732749101E+01  0.34429112516E+02 -0.21394673491E+02  0.40659138163E+02  0.00000000000E+00 0.  1.
         11    1    3    3    0    0 -0.89758730938E+01 -0.15859062575E+02  0.10117685687E+02  0.20843313735E+02  0.51100000000E-03 0. -1.
        -11    1    3    3    0    0  0.79256516231E+01 -0.34720682585E+01  0.11555976297E+02  0.14436474642E+02  0.51100000000E-03 0.  1.
         12    1    3    3    0    0 -0.21230534394E+01 -0.15097981683E+02 -0.27898849281E+00  0.15249073460E+02  0.00000000000E+00 0. -1.
</event>
<event>
 7    1  0.2974434E-011  0.5052885E+02  0.7816164E-02  0.1300439E+00
        -11   -1    0    0    0    0  0.00000000000E+00  0.00000000000E+00  0.45593999997E+02  0.45594000000E+02  0.51100000000E-03 0.  1.
         11   -1    0    0    0    0 -0.00000000000E+00 -0.00000000000E+00 -0.45593999997E+02  0.45594000000E+02  0.51100000000E-03 0. -1.
    9900012    2    1    2    0    0  0.17350549836E+02 -0.27497128236E+02 -0.24413776684E+02  0.50528854253E+02  0.29999982989E+02 0.  0.
        -12    1    1    2    0    0 -0.17350549836E+02  0.27497128236E+02  0.24413776684E+02  0.40659145747E+02  0.00000000000E+00 0.  1.
         11    1    3    3    0    0  0.26540085439E+00 -0.70534619753E+01 -0.47978520791E+01  0.85347025891E+01  0.51100000000E-03 0. -1.
        -11    1    3    3    0    0 -0.56255493346E+01  0.42842161507E+00 -0.40633041112E+00  0.56564525156E+01  0.51100000000E-03 0.  1.
         12    1    3    3    0    0  0.22710698317E+02 -0.20872087876E+02 -0.19209594194E+02  0.36337699149E+02  0.00000000000E+00 0. -1.
</event>
<event>
 7    1  0.2974434E-011  0.5052887E+02  0.7816164E-02  0.1300439E+00
        -11   -1    0    0    0    0  0.00000000000E+00  0.00000000000E+00  0.45593999997E+02  0.45594000000E+02  0.51100000000E-03 0.  1.
         11   -1    0    0    0    0 -0.00000000000E+00 -0.00000000000E+00 -0.45593999997E+02  0.45594000000E+02  0.51100000000E-03 0. -1.
    9900012    2    1    2    0    0  0.28161290221E+02 -0.21432442760E+02 -0.20018914689E+02  0.50528870461E+02  0.30000032252E+02 0.  0.
        -12    1    1    2    0    0 -0.28161290221E+02  0.21432442760E+02  0.20018914689E+02  0.40659129539E+02  0.00000000000E+00 0.  1.
         11    1    3    3    0    0  0.63614095730E+01 -0.96575610008E+01 -0.10236011120E+02  0.15443831783E+02  0.51100000000E-03 0. -1.
        -11    1    3    3    0    0  0.80902740001E+01 -0.26002437529E+01 -0.15458031631E+02  0.17639856664E+02  0.51100000000E-03 0.  1.
        -12    1    3    3    0    0  0.13709606648E+02 -0.91746380066E+01  0.56751280612E+01  0.17445182014E+02  0.00000000000E+00 0.  1.
</event>
<event>
 7    1  0.2974434E-011  0.5052886E+02  0.7816164E-02  0.1300439E+00
        -11   -1    0    0    0    0  0.00000000000E+00  0.00000000000E+00  0.45593999997E+02  0.45594000000E+02  0.51100000000E-03 0.  1.
         11   -1    0    0    0    0 -0.00000000000E+00 -0.00000000000E+00 -0.45593999997E+02  0.45594000000E+02  0.51100000000E-03 0. -1.
    9900012    2    1    2    0    0 -0.11052538909E+01 -0.30255847640E+02 -0.27139048477E+02  0.50528857672E+02  0.29999993381E+02 0.  0.
        -12    1    1    2    0    0  0.11052538909E+01  0.30255847640E+02  0.27139048477E+02  0.40659142328E+02  0.00000000000E+00 0.  1.
         11    1    3    3    0    0 -0.41673727862E+01 -0.10567769444E+02 -0.11092864771E+02  0.15877543766E+02  0.51100000000E-03 0. -1.
        -11    1    3    3    0    0 -0.86948957063E+01 -0.13443009963E+01 -0.60630978921E+01  0.10685013469E+02  0.51100000000E-03 0.  1.
        -12    1    3    3    0    0  0.11757014602E+02 -0.18343777200E+02 -0.99830858135E+01  0.23966300438E+02  0.00000000000E+00 0.  1.
</event>
<event>
 7    1  0.2974434E-011  0.5052886E+02  0.7816164E-02  0.1300439E+00
        -11   -1    0    0    0    0  0.00000000000E+00  0.00000000000E+00  0.45593999997E+02  0.45594000000E+02  0.51100000000E-03 0.  1.
         11   -1    0    0    0    0 -0.00000000000E+00 -0.00000000000E+00 -0.45593999997E+02  0.45594000000E+02  0.51100000000E-03 0. -1.
    9900012    2    1    2    0    0  0.25007729108E+02  0.19986628077E+02 -0.25066186216E+02  0.50528861932E+02  0.30000006328E+02 0.  0.
        -12    1    1    2    0    0 -0.25007729108E+02 -0.19986628077E+02  0.25066186216E+02  0.40659138068E+02  0.00000000000E+00 0.  1.
         11    1    3    3    0    0  0.92365090097E+01  0.10436005370E+02 -0.83707142338E+01  0.16257065043E+02  0.51100000000E-03 0. -1.
        -11    1    3    3    0    0  0.18504486343E+02  0.12031679963E+02 -0.19643777015E+02  0.29547509425E+02  0.51100000000E-03 0.  1.
        -12    1    3    3    0    0 -0.27332662456E+01 -0.24810572557E+01  0.29483050324E+01  0.47242874637E+01  0.00000000000E+00 0.  1.
</event>
<event>
 7    1  0.2974434E-011  0.5052887E+02  0.7816164E-02  0.1300439E+00
        -11   -1    0    0    0    0  0.00000000000E+00  0.00000000000E+00  0.45593999997E+02  0.45594000000E+02  0.51100000000E-03 0.  1.
         11   -1    0    0    0    0 -0.00000000000E+00 -0.00000000000E+00 -0.45593999997E+02  0.45594000000E+02  0.51100000000E-03 0. -1.
    9900012    2    1    2    0    0  0.32958686626E+02 -0.14770683884E+02 -0.18673966181E+02  0.50528866470E+02  0.30000020121E+02 0.  0.
        -12    1    1    2    0    0 -0.32958686626E+02  0.14770683884E+02  0.18673966181E+02  0.40659133530E+02  0.00000000000E+00 0.  1.
         11    1    3    3    0    0  0.24518617489E+02 -0.89515753797E+01 -0.17391892652E+02  0.31365127700E+02  0.51100000000E-03 0. -1.
        -11    1    3    3    0    0  0.69454718592E+01  0.47619289270E+01 -0.92386357682E+00  0.84716628016E+01  0.51100000000E-03 0.  1.
         12    1    3    3    0    0  0.14945972779E+01 -0.10581037431E+02 -0.35820995231E+00  0.10692075968E+02  0.00000000000E+00 0. -1.
</event>
<event>
 7    1  0.2974434E-011  0.5052884E+02  0.7816164E-02  0.1300439E+00
        -11   -1    0    0    0    0  0.00000000000E+00  0.00000000000E+00  0.45593999997E+02  0.45594000000E+02  0.51100000000E-03 0. -1.
         11   -1    0    0    0    0 -0.00000000000E+00 -0.00000000000E+00 -0.45593999997E+02  0.45594000000E+02  0.51100000000E-03 0.  1.
    9900012    2    1    2    0    0  0.91913634541E+01  0.25407996570E+02  0.30382888691E+02  0.50528838953E+02  0.29999936482E+02 0.  0.
        -12    1    1    2    0    0 -0.91913634541E+01 -0.25407996570E+02 -0.30382888691E+02  0.40659161047E+02  0.00000000000E+00 0.  1.
         11    1    3    3    0    0  0.62886126799E+01  0.19246182208E+02  0.29438753386E+02  0.35729572909E+02  0.51100000000E-03 0. -1.
        -11    1    3    3    0    0 -0.33277708223E+01 -0.10080354548E+01  0.35299260821E+01  0.49548534318E+01  0.51100000000E-03 0.  1.
         12    1    3    3    0    0  0.62305215965E+01  0.71698498159E+01 -0.25857907774E+01  0.98444126128E+01  0.00000000000E+00 0. -1.
</event>
<event>
 7    1  0.2974434E-011  0.5052886E+02  0.7816164E-02  0.1300439E+00
        -11   -1    0    0    0    0  0.00000000000E+00  0.00000000000E+00  0.45593999997E+02  0.45594000000E+02  0.51100000000E-03 0.  1.
         11   -1    0    0    0    0 -0.00000000000E+00 -0.00000000000E+00 -0.45593999997E+02  0.45594000000E+02  0.51100000000E-03 0. -1.
    9900012    2    1    2    0    0 -0.10329886160E+02 -0.31645571021E+02 -0.23345592223E+02  0.50528863393E+02  0.30000010770E+02 0.  0.
        -12    1    1    2    0    0  0.10329886160E+02  0.31645571021E+02  0.23345592223E+02  0.40659136607E+02  0.00000000000E+00 0.  1.
         11    1    3    3    0    0  0.20433485837E+01 -0.71082034787E+01 -0.29336931692E+01  0.79566567100E+01  0.51100000000E-03 0. -1.
        -11    1    3    3    0    0  0.32105603252E+01  0.11601530245E+01  0.29458596454E+01  0.45090732921E+01  0.51100000000E-03 0.  1.
         12    1    3    3    0    0 -0.15583795069E+02 -0.25697520567E+02 -0.23357758700E+02  0.38063133391E+02  0.00000000000E+00 0. -1.
</event>
<event>
 7    1  0.2974434E-011  0.5052885E+02  0.7816164E-02  0.1300439E+00
        -11   -1    0    0    0    0  0.00000000000E+00  0.00000000000E+00  0.45593999997E+02  0.45594000000E+02  0.51100000000E-03 0. -1.
         11   -1    0    0    0    0 -0.00000000000E+00 -0.00000000000E+00 -0.45593999997E+02  0.45594000000E+02  0.51100000000E-03 0.  1.
    9900012    2    1    2    0    0  0.12500423860E+01 -0.38657903192E+02  0.12536752132E+02  0.50528852945E+02  0.29999979012E+02 0.  0.
        -12    1    1    2    0    0 -0.12500423860E+01  0.38657903192E+02 -0.12536752132E+02  0.40659147055E+02  0.00000000000E+00 0.  1.
         11    1    3    3    0    0 -0.59134877886E+01 -0.50231943118E+01  0.34571462551E+00  0.77666812593E+01  0.51100000000E-03 0. -1.
        -11    1    3    3    0    0 -0.46707885397E+01 -0.30059473581E+01 -0.32947815650E+01  0.64581398967E+01  0.51100000000E-03 0.  1.
         12    1    3    3    0    0  0.11834318714E+02 -0.30628761522E+02  0.15485819072E+02  0.36304031789E+02  0.00000000000E+00 0. -1.
</event>
<event>
 7    1  0.2974434E-011  0.5052886E+02  0.7816164E-02  0.1300439E+00
        -11   -1    0    0    0    0  0.00000000000E+00  0.00000000000E+00  0.45593999997E+02  0.45594000000E+02  0.51100000000E-03 0. -1.
         11   -1    0    0    0    0 -0.00000000000E+00 -0.00000000000E+00 -0.45593999997E+02  0.45594000000E+02  0.51100000000E-03 0.  1.
    9900012    2    1    2    0    0 -0.18805888272E+02 -0.29566380439E+02 -0.20623606533E+02  0.50528862867E+02  0.30000009170E+02 0.  0.
        -12    1    1    2    0    0  0.18805888272E+02  0.29566380439E+02  0.20623606533E+02  0.40659137133E+02  0.00000000000E+00 0.  1.
         11    1    3    3    0    0 -0.13037240441E+02 -0.75818213062E+01 -0.10144905715E+02  0.18176159244E+02  0.51100000000E-03 0. -1.
        -11    1    3    3    0    0 -0.11354261840E+02 -0.49686835605E+01 -0.20614940463E+01  0.12564109050E+02  0.51100000000E-03 0.  1.
         12    1    3    3    0    0  0.55856140083E+01 -0.17015875572E+02 -0.84172067724E+01  0.19788594573E+02  0.00000000000E+00 0. -1.
</event>
<event>
 7    1  0.2974434E-011  0.5052885E+02  0.7816164E-02  0.1300439E+00
        -11   -1    0    0    0    0  0.00000000000E+00  0.00000000000E+00  0.45593999997E+02  0.45594000000E+02  0.51100000000E-03 0.  1.
         11   -1    0    0    0    0 -0.00000000000E+00 -0.00000000000E+00 -0.45593999997E+02  0.45594000000E+02  0.51100000000E-03 0. -1.
    9900012    2    1    2    0    0 -0.87679037685E+00  0.26544563681E+02 -0.30786102552E+02  0.50528846876E+02  0.29999960565E+02 0.  0.
        -12    1    1    2    0    0  0.87679037685E+00 -0.26544563681E+02  0.30786102552E+02  0.40659153124E+02  0.00000000000E+00 0.  1.
         11    1    3    3    0    0 -0.66220310506E+01  0.11378504563E+02 -0.11390444334E+02  0.17408730100E+02  0.51100000000E-03 0. -1.
        -11    1    3    3    0    0  0.85544618907E-01  0.19591932299E+02 -0.13108729776E+02  0.23573076288E+02  0.51100000000E-03 0.  1.
         12    1    3    3    0    0  0.56596960548E+01 -0.44258731802E+01 -0.62869284422E+01  0.95470404879E+01  0.00000000000E+00 0. -1.
</event>
<event>
 7    1  0.2974434E-011  0.5052886E+02  0.7816164E-02  0.1300439E+00
        -11   -1    0    0    0    0  0.00000000000E+00  0.00000000000E+00  0.45593999997E+02  0.45594000000E+02  0.51100000000E-03 0.  1.
         11   -1    0    0    0    0 -0.00000000000E+00 -0.00000000000E+00 -0.45593999997E+02  0.45594000000E+02  0.51100000000E-03 0. -1.
    9900012    2    1    2    0    0  0.35994162735E+02  0.15339054851E+02 -0.11058884545E+02  0.50528864716E+02  0.30000014790E+02 0.  0.
        -12    1    1    2    0    0 -0.35994162735E+02 -0.15339054851E+02  0.11058884545E+02  0.40659135284E+02  0.00000000000E+00 0.  1.
         11    1    3    3    0    0  0.98307093831E+01 -0.50725925592E+00 -0.90561589210E+01  0.13375880292E+02  0.51100000000E-03 0. -1.
        -11    1    3    3    0    0  0.45985993847E+01  0.11039315158E+02 -0.78414216404E+01  0.14300401710E+02  0.51100000000E-03 0.  1.
         12    1    3    3    0    0  0.21564853967E+02  0.48069989493E+01  0.58386960166E+01  0.22852582714E+02  0.00000000000E+00 0. -1.
</event>
<event>
 7    1  0.2974434E-011  0.5052884E+02  0.7816164E-02  0.1300439E+00
        -11   -1    0    0    0    0  0.00000000000E+00  0.00000000000E+00  0.45593999997E+02  0.45594000000E+02  0.51100000000E-03 0. -1.
         11   -1    0    0    0    0 -0.00000000000E+00 -0.00000000000E+00 -0.45593999997E+02  0.45594000000E+02  0.51100000000E-03 0.  1.
    9900012    2    1    2    0    0  0.28635506688E+02 -0.28796106127E+02 -0.19897210672E+01  0.50528844066E+02  0.29999952023E+02 0.  0.
        -12    1    1    2    0    0 -0.28635506688E+02  0.28796106127E+02  0.19897210672E+01  0.40659155934E+02  0.00000000000E+00 0.  1.
         11    1    3    3    0    0  0.13073539192E+00  0.10034031664E+00 -0.56227795028E+01  0.56251941762E+01  0.51100000000E-03 0. -1.
        -11    1    3    3    0    0  0.19610591186E+02 -0.29905865736E+02  0.36910038453E+01  0.35952184937E+02  0.51100000000E-03 0.  1.
         12    1    3    3    0    0  0.88941801099E+01  0.10094192925E+01 -0.57945409725E-01  0.89514649531E+01  0.00000000000E+00 0. -1.
</event>
<event>
 7    1  0.2974434E-011  0.5052886E+02  0.7816164E-02  0.1300439E+00
        -11   -1    0    0    0    0  0.00000000000E+00  0.00000000000E+00  0.45593999997E+02  0.45594000000E+02  0.51100000000E-03 0.  1.
         11   -1    0    0    0    0 -0.00000000000E+00 -0.00000000000E+00 -0.45593999997E+02  0.45594000000E+02  0.51100000000E-03 0. -1.
    9900012    2    1    2    0    0 -0.17049719608E+02 -0.32630088929E+02 -0.17255439991E+02  0.50528857713E+02  0.29999993505E+02 0.  0.
        -12    1    1    2    0    0  0.17049719608E+02  0.32630088929E+02  0.17255439991E+02  0.40659142287E+02  0.00000000000E+00 0.  1.
         11    1    3    3    0    0 -0.29947119560E+01 -0.14995836589E+02 -0.58822577173E+01  0.16384272057E+02  0.51100000000E-03 0. -1.
        -11    1    3    3    0    0 -0.31977499520E+01 -0.18360593686E+02 -0.13556802759E+02  0.23046125630E+02  0.51100000000E-03 0.  1.
        -12    1    3    3    0    0 -0.10857257700E+02  0.72634134663E+00  0.21836204855E+01  0.11098460026E+02  0.00000000000E+00 0.  1.
</event>
<event>
 7    1  0.2974434E-011  0.5052885E+02  0.7816164E-02  0.1300439E+00
        -11   -1    0    0    0    0  0.00000000000E+00  0.00000000000E+00  0.45593999997E+02  0.45594000000E+02  0.51100000000E-03 0. -1.
         11   -1    0    0    0    0 -0.00000000000E+00 -0.00000000000E+00 -0.45593999997E+02  0.45594000000E+02  0.51100000000E-03 0.  1.
    9900012    2    1    2    0    0 -0.28753254084E+01  0.34833288812E+02  0.20773561522E+02  0.50528851411E+02  0.29999974348E+02 0.  0.
        -12    1    1    2    0    0  0.28753254084E+01 -0.34833288812E+02 -0.20773561522E+02  0.40659148589E+02  0.00000000000E+00 0.  1.
         11    1    3    3    0    0  0.64033231937E+01  0.24821307603E+02  0.10542272530E+02  0.27717131334E+02  0.51100000000E-03 0. -1.
        -11    1    3    3    0    0  0.58456654137E+00  0.98294041319E+01  0.80258945055E+01  0.12703302189E+02  0.51100000000E-03 0.  1.
        -12    1    3    3    0    0 -0.98632151434E+01  0.18257707776E+00  0.22053944866E+01  0.10108417888E+02  0.00000000000E+00 0.  1.
</event>
<event>
 7    1  0.2974434E-011  0.5052886E+02  0.7816164E-02  0.1300439E+00
        -11   -1    0    0    0    0  0.00000000000E+00  0.00000000000E+00  0.45593999997E+02  0.45594000000E+02  0.51100000000E-03 0. -1.
         11   -1    0    0    0    0 -0.00000000000E+00 -0.00000000000E+00 -0.45593999997E+02  0.45594000000E+02  0.51100000000E-03 0.  1.
    9900012    2    1    2    0    0  0.14303122740E+02 -0.37838959934E+02 -0.40987106900E+01  0.50528860335E+02  0.30000001474E+02 0.  0.
        -12    1    1    2    0    0 -0.14303122740E+02  0.37838959934E+02  0.40987106900E+01  0.40659139665E+02  0.00000000000E+00 0.  1.
         11    1    3    3    0    0  0.23668192446E+01 -0.31584083431E+02 -0.80439883769E+01  0.32678156447E+02  0.51100000000E-03 0. -1.
        -11    1    3    3    0    0  0.25974539246E+01 -0.35353491367E+01 -0.34914322150E+01  0.56067423324E+01  0.51100000000E-03 0.  1.
         12    1    3    3    0    0  0.93388495709E+01 -0.27195273661E+01  0.74367099018E+01  0.12243961555E+02  0.00000000000E+00 0. -1.
</event>
<event>
 7    1  0.2974434E-011  0.5052888E+02  0.7816164E-02  0.1300439E+00
        -11   -1    0    0    0    0  0.00000000000E+00  0.00000000000E+00  0.45593999997E+02  0.45594000000E+02  0.51100000000E-03 0.  1.
         11   -1    0    0    0    0 -0.00000000000E+00 -0.00000000000E+00 -0.45593999997E+02  0.45594000000E+02  0.51100000000E-03 0. -1.
    9900012    2    1    2    0    0  0.60441242976E+01 -0.32776035463E+02 -0.23288715065E+02  0.50528878163E+02  0.30000055664E+02 0.  0.
        -12    1    1    2    0    0 -0.60441242976E+01  0.32776035463E+02  0.23288715065E+02  0.40659121837E+02  0.00000000000E+00 0.  1.
         11    1    3    3    0    0  0.10496796957E+02 -0.15379138073E+02 -0.16454034544E+02  0.24848257228E+02  0.51100000000E-03 0. -1.
        -11    1    3    3    0    0 -0.35347129607E+01 -0.20547934869E+02 -0.77977626933E+01  0.22260209487E+02  0.51100000000E-03 0.  1.
        -12    1    3    3    0    0 -0.91795969837E+00  0.31510374799E+01  0.96308217220E+00  0.34204114486E+01  0.00000000000E+00 0.  1.
</event>
<event>
 7    1  0.2974434E-011  0.5052885E+02  0.7816164E-02  0.1300439E+00
        -11   -1    0    0    0    0  0.00000000000E+00  0.00000000000E+00  0.45593999997E+02  0.45594000000E+02  0.51100000000E-03 0.  1.
         11   -1    0    0    0    0 -0.00000000000E+00 -0.00000000000E+00 -0.45593999997E+02  0.45594000000E+02  0.51100000000E-03 0. -1.
    9900012    2    1    2    0    0 -0.36861889992E+02 -0.16561680208E+02 -0.44808384151E+01  0.50528854682E+02  0.29999984291E+02 0.  0.
        -12    1    1    2    0    0  0.36861889992E+02  0.16561680208E+02  0.44808384151E+01  0.40659145318E+02  0.00000000000E+00 0.  1.
         11    1    3    3    0    0 -0.19903857708E+02 -0.16458890563E+02 -0.14455886323E+01  0.25867902060E+02  0.51100000000E-03 0.  1.
        -11    1    3    3    0    0 -0.16354164368E+02 -0.50530197589E+01  0.24001264818E+01  0.17284452790E+02  0.51100000000E-03 0. -1.
        -12    1    3    3    0    0 -0.60386791618E+00  0.49502301135E+01 -0.54353762646E+01  0.73764998322E+01  0.00000000000E+00 0.  1.
</event>
<event>
 7    1  0.2974434E-011  0.5052886E+02  0.7816164E-02  0.1300439E+00
        -11   -1    0    0    0    0  0.00000000000E+00  0.00000000000E+00  0.45593999997E+02  0.45594000000E+02  0.51100000000E-03 0.  1.
         11   -1    0    0    0    0 -0.00000000000E+00 -0.00000000000E+00 -0.45593999997E+02  0.45594000000E+02  0.51100000000E-03 0. -1.
    9900012    2    1    2    0    0 -0.23085364878E+02 -0.33946880722E+01 -0.33297266683E+02  0.50528856536E+02  0.29999989926E+02 0.  0.
        -12    1    1    2    0    0  0.23085364878E+02  0.33946880722E+01  0.33297266683E+02  0.40659143464E+02  0.00000000000E+00 0.  1.
         11    1    3    3    0    0 -0.71139545174E+01  0.11336987634E+02 -0.14018650780E+02  0.19381904123E+02  0.51100000000E-03 0. -1.
        -11    1    3    3    0    0  0.21570726335E+00  0.15086047610E+01 -0.99293537260E+00  0.18188839610E+01  0.51100000000E-03 0.  1.
        -12    1    3    3    0    0 -0.16187117624E+02 -0.16240280467E+02 -0.18285680531E+02  0.29328068452E+02  0.00000000000E+00 0.  1.
</event>
<event>
 7    1  0.2974434E-011  0.5052885E+02  0.7816164E-02  0.1300439E+00
        -11   -1    0    0    0    0  0.00000000000E+00  0.00000000000E+00  0.45593999997E+02  0.45594000000E+02  0.51100000000E-03 0. -1.
         11   -1    0    0    0    0 -0.00000000000E+00 -0.00000000000E+00 -0.45593999997E+02  0.45594000000E+02  0.51100000000E-03 0.  1.
    9900012    2    1    2    0    0  0.39002283079E+02  0.11487773406E+02 -0.13889730328E+00  0.50528852006E+02  0.29999976156E+02 0.  0.
        -12    1    1    2    0    0 -0.39002283079E+02 -0.11487773406E+02  0.13889730328E+00  0.40659147994E+02  0.00000000000E+00 0.  1.
         11    1    3    3    0    0  0.97142408535E+00  0.51762348698E+01  0.43656776281E+01  0.68407758036E+01  0.51100000000E-03 0. -1.
        -11    1    3    3    0    0  0.24122191312E+01  0.18141768556E+01  0.56261632954E+01  0.63846497545E+01  0.51100000000E-03 0.  1.
         12    1    3    3    0    0  0.35618639862E+02  0.44973616803E+01 -0.10130738227E+02  0.37303426448E+02  0.00000000000E+00 0. -1.
</event>
<event>
 7    1  0.2974434E-011  0.5052885E+02  0.7816164E-02  0.1300439E+00
        -11   -1    0    0    0    0  0.00000000000E+00  0.00000000000E+00  0.45593999997E+02  0.45594000000E+02  0.51100000000E-03 0.  1.
         11   -1    0    0    0    0 -0.00000000000E+00 -0.00000000000E+00 -0.45593999997E+02  0.45594000000E+02  0.51100000000E-03 0. -1.
    9900012    2    1    2    0    0 -0.33763130898E+02  0.11331691259E+01 -0.22625948911E+02  0.50528847962E+02  0.29999963865E+02 0.  0.
        -12    1    1    2    0    0  0.33763130898E+02 -0.11331691259E+01  0.22625948911E+02  0.40659152038E+02  0.00000000000E+00 0.  1.
         11    1    3    3    0    0 -0.13245700993E+01 -0.31961675265E+01 -0.36016700755E+01  0.49941966721E+01  0.51100000000E-03 0. -1.
        -11    1    3    3    0    0 -0.24441561297E+02 -0.87115287210E+01 -0.10245856635E+02  0.27897279971E+02  0.51100000000E-03 0.  1.
        -12    1    3    3    0    0 -0.79969995016E+01  0.13040865373E+02 -0.87784222008E+01  0.17637371319E+02  0.00000000000E+00 0.  1.
</event>
<event>
 7    1  0.2974434E-011  0.5052886E+02  0.7816164E-02  0.1300439E+00
        -11   -1    0    0    0    0  0.00000000000E+00  0.00000000000E+00  0.45593999997E+02  0.45594000000E+02  0.51100000000E-03 0.  1.
         11   -1    0    0    0    0 -0.00000000000E+00 -0.00000000000E+00 -0.45593999997E+02  0.45594000000E+02  0.51100000000E-03 0. -1.
    9900012    2    1    2    0    0 -0.35147279676E+01  0.31227076606E+02 -0.25800809735E+02  0.50528863154E+02  0.30000010043E+02 0.  0.
        -12    1    1    2    0    0  0.35147279676E+01 -0.31227076606E+02  0.25800809735E+02  0.40659136846E+02  0.00000000000E+00 0.  1.
         11    1    3    3    0    0 -0.79510593731E+01  0.17608915331E+02 -0.10121499601E+02  0.21811418998E+02  0.51100000000E-03 0. -1.
        -11    1    3    3    0    0  0.18635261199E+01 -0.14593887217E+01  0.34755448842E+01  0.42049919790E+01  0.51100000000E-03 0.  1.
        -12    1    3    3    0    0  0.25728052856E+01  0.15077549997E+02 -0.19154855018E+02  0.24512452177E+02  0.00000000000E+00 0.  1.
</event>
<event>
 7    1  0.2974434E-011  0.5052887E+02  0.7816164E-02  0.1300439E+00
        -11   -1    0    0    0    0  0.00000000000E+00  0.00000000000E+00  0.45593999997E+02  0.45594000000E+02  0.51100000000E-03 0.  1.
         11   -1    0    0    0    0 -0.00000000000E+00 -0.00000000000E+00 -0.45593999997E+02  0.45594000000E+02  0.51100000000E-03 0. -1.
    9900012    2    1    2    0    0 -0.12916016281E+02  0.16764079424E+02 -0.34717534430E+02  0.50528867786E+02  0.30000024122E+02 0.  0.
        -12    1    1    2    0    0  0.12916016281E+02 -0.16764079424E+02  0.34717534430E+02  0.40659132214E+02  0.00000000000E+00 0.  1.
         11    1    3    3    0    0 -0.16932357962E+01  0.12028489165E+02 -0.27401242514E+02  0.29972982678E+02  0.51100000000E-03 0. -1.
        -11    1    3    3    0    0  0.26957391489E+01  0.29120132350E+01  0.11892884503E+01  0.41426124509E+01  0.51100000000E-03 0.  1.
         12    1    3    3    0    0 -0.13918519634E+02  0.18235770245E+01 -0.85055803664E+01  0.16413272657E+02  0.00000000000E+00 0. -1.
</event>
<event>
 7    1  0.2974434E-011  0.5052886E+02  0.7816164E-02  0.1300439E+00
        -11   -1    0    0    0    0  0.00000000000E+00  0.00000000000E+00  0.45593999997E+02  0.45594000000E+02  0.51100000000E-03 0. -1.
         11   -1    0    0    0    0 -0.00000000000E+00 -0.00000000000E+00 -0.45593999997E+02  0.45594000000E+02  0.51100000000E-03 0.  1.
    9900012    2    1    2    0    0  0.27247200809E+02  0.27645448831E+02  0.12103099427E+02  0.50528858239E+02  0.29999995104E+02 0.  0.
        -12    1    1    2    0    0 -0.27247200809E+02 -0.27645448831E+02 -0.12103099427E+02  0.40659141761E+02  0.00000000000E+00 0.  1.
         11    1    3    3    0    0  0.98183419851E+01  0.12559636305E+02  0.17728560665E+02  0.23842109114E+02  0.51100000000E-03 0. -1.
        -11    1    3    3    0    0  0.41477475504E+01  0.11280699829E+02 -0.77301908747E+00  0.12043901243E+02  0.51100000000E-03 0.  1.
        -12    1    3    3    0    0  0.13281111273E+02  0.38051126962E+01 -0.48524421508E+01  0.14642847883E+02  0.00000000000E+00 0.  1.
</event>
<event>
 7    1  0.2974434E-011  0.5052885E+02  0.7816164E-02  0.1300439E+00
        -11   -1    0    0    0    0  0.00000000000E+00  0.00000000000E+00  0.45593999997E+02  0.45594000000E+02  0.51100000000E-03 0.  1.
         11   -1    0    0    0    0 -0.00000000000E+00 -0.00000000000E+00 -0.45593999997E+02  0.45594000000E+02  0.51100000000E-03 0. -1.
    9900012    2    1    2    0    0  0.33782534516E+02  0.40034664948E+01 -0.22268343897E+02  0.50528849465E+02  0.29999968434E+02 0.  0.
        -12    1    1    2    0    0 -0.33782534516E+02 -0.40034664948E+01  0.22268343897E+02  0.40659150535E+02  0.00000000000E+00 0.  1.
         11    1    3    3    0    0  0.53248034427E+01  0.39837264083E+00  0.15816386425E+01  0.55690047154E+01  0.51100000000E-03 0. -1.
        -11    1    3    3    0    0  0.12514364157E+01  0.76588648258E+01  0.10819641612E+01  0.78354929793E+01  0.51100000000E-03 0.  1.
         12    1    3    3    0    0  0.27206294657E+02 -0.40537709717E+01 -0.24931946701E+02  0.37124351770E+02  0.00000000000E+00 0. -1.
</event>
<event>
 7    1  0.2974434E-011  0.5052882E+02  0.7816164E-02  0.1300439E+00
        -11   -1    0    0    0    0  0.00000000000E+00  0.00000000000E+00  0.45593999997E+02  0.45594000000E+02  0.51100000000E-03 0. -1.
         11   -1    0    0    0    0 -0.00000000000E+00 -0.00000000000E+00 -0.45593999997E+02  0.45594000000E+02  0.51100000000E-03 0.  1.
    9900012    2    1    2    0    0  0.28040779034E+02 -0.28973577286E+02  0.52359439050E+01  0.50528824183E+02  0.29999891585E+02 0.  0.
        -12    1    1    2    0    0 -0.28040779034E+02  0.28973577286E+02 -0.52359439050E+01  0.40659175817E+02  0.00000000000E+00 0.  1.
         11    1    3    3    0    0  0.56541110079E+01 -0.57341058976E+01  0.98168764472E+01  0.12697243999E+02  0.51100000000E-03 0. -1.
        -11    1    3    3    0    0 -0.43696119469E+00 -0.65345144006E+00  0.44157044259E+01  0.44851287281E+01  0.51100000000E-03 0.  1.
        -12    1    3    3    0    0  0.22823629221E+02 -0.22586019948E+02 -0.89966369681E+01  0.33346451455E+02  0.00000000000E+00 0.  1.
</event>
<event>
 7    1  0.2974434E-011  0.5052886E+02  0.7816164E-02  0.1300439E+00
        -11   -1    0    0    0    0  0.00000000000E+00  0.00000000000E+00  0.45593999997E+02  0.45594000000E+02  0.51100000000E-03 0. -1.
         11   -1    0    0    0    0 -0.00000000000E+00 -0.00000000000E+00 -0.45593999997E+02  0.45594000000E+02  0.51100000000E-03 0.  1.
    9900012    2    1    2    0    0 -0.16494883547E+02 -0.34812460330E+02 -0.13006816155E+02  0.50528857806E+02  0.29999993788E+02 0.  0.
        -12    1    1    2    0    0  0.16494883547E+02  0.34812460330E+02  0.13006816155E+02  0.40659142194E+02  0.00000000000E+00 0.  1.
         11    1    3    3    0    0 -0.16026047095E+02 -0.24896335533E+02 -0.16113023156E+02  0.33708919056E+02  0.51100000000E-03 0.  1.
        -11    1    3    3    0    0  0.19502779493E+01 -0.10137588833E+02 -0.25761904357E+01  0.10640068085E+02  0.51100000000E-03 0. -1.
        -12    1    3    3    0    0 -0.24191144015E+01  0.22146403581E+00  0.56823974372E+01  0.61798706654E+01  0.00000000000E+00 0.  1.
</event>
<event>
 7    1  0.2974434E-011  0.5052873E+02  0.7816164E-02  0.1300439E+00
        -11   -1    0    0    0    0  0.00000000000E+00  0.00000000000E+00  0.45593999997E+02  0.45594000000E+02  0.51100000000E-03 0. -1.
         11   -1    0    0    0    0 -0.00000000000E+00 -0.00000000000E+00 -0.45593999997E+02  0.45594000000E+02  0.51100000000E-03 0.  1.
    9900012    2    1    2    0    0  0.26596484396E+02 -0.30619689782E+02  0.28702201794E+01  0.50528726169E+02  0.29999593660E+02 0.  0.
        -12    1    1    2    0    0 -0.26596484396E+02  0.30619689782E+02 -0.28702201794E+01  0.40659273831E+02  0.00000000000E+00 0.  1.
         11    1    3    3    0    0  0.55641864681E+01  0.42415840295E+01  0.29071620833E+01  0.75764634079E+01  0.51100000000E-03 0. -1.
        -11    1    3    3    0    0  0.91272741413E+01 -0.48423170121E+01  0.22624643835E+01  0.10577046499E+02  0.51100000000E-03 0.  1.
        -12    1    3    3    0    0  0.11905023787E+02 -0.30018956800E+02 -0.22994062875E+01  0.32375216262E+02  0.00000000000E+00 0.  1.
</event>
<event>
 7    1  0.2974434E-011  0.5052886E+02  0.7816164E-02  0.1300439E+00
        -11   -1    0    0    0    0  0.00000000000E+00  0.00000000000E+00  0.45593999997E+02  0.45594000000E+02  0.51100000000E-03 0. -1.
         11   -1    0    0    0    0 -0.00000000000E+00 -0.00000000000E+00 -0.45593999997E+02  0.45594000000E+02  0.51100000000E-03 0.  1.
    9900012    2    1    2    0    0 -0.16742404170E+02 -0.36731879794E+02  0.48607073556E+01  0.50528861217E+02  0.30000004154E+02 0.  0.
        -12    1    1    2    0    0  0.16742404170E+02  0.36731879794E+02 -0.48607073556E+01  0.40659138783E+02  0.00000000000E+00 0.  1.
         11    1    3    3    0    0 -0.12594182714E+02 -0.68552936577E+01  0.16456619168E+01  0.14433180273E+02  0.51100000000E-03 0. -1.
        -11    1    3    3    0    0 -0.65067261735E+01 -0.50393543793E+01 -0.52358319757E+01  0.97543074996E+01  0.51100000000E-03 0.  1.
         12    1    3    3    0    0  0.23585047177E+01 -0.24837231757E+02  0.84508774145E+01  0.26341373444E+02  0.00000000000E+00 0. -1.
</event>
<event>
 7    1  0.2974434E-011  0.5052887E+02  0.7816164E-02  0.1300439E+00
        -11   -1    0    0    0    0  0.00000000000E+00  0.00000000000E+00  0.45593999997E+02  0.45594000000E+02  0.51100000000E-03 0. -1.
         11   -1    0    0    0    0 -0.00000000000E+00 -0.00000000000E+00 -0.45593999997E+02  0.45594000000E+02  0.51100000000E-03 0.  1.
    9900012    2    1    2    0    0  0.35079649270E+02  0.12904380549E+01  0.20516290055E+02  0.50528865960E+02  0.30000018571E+02 0.  0.
        -12    1    1    2    0    0 -0.35079649270E+02 -0.12904380549E+01 -0.20516290055E+02  0.40659134040E+02  0.00000000000E+00 0.  1.
         11    1    3    3    0    0  0.42395107031E+01  0.10262163014E+02  0.61840322483E+01  0.12709354658E+02  0.51100000000E-03 0. -1.
        -11    1    3    3    0    0  0.27005841519E+01  0.26941199102E+01 -0.65484842912E+00  0.38704345464E+01  0.51100000000E-03 0.  1.
        -12    1    3    3    0    0  0.28139554415E+02 -0.11665844869E+02  0.14987106235E+02  0.33949076755E+02  0.00000000000E+00 0.  1.
</event>
<event>
 7    1  0.2974434E-011  0.5052886E+02  0.7816164E-02  0.1300439E+00
        -11   -1    0    0    0    0  0.00000000000E+00  0.00000000000E+00  0.45593999997E+02  0.45594000000E+02  0.51100000000E-03 0. -1.
         11   -1    0    0    0    0 -0.00000000000E+00 -0.00000000000E+00 -0.45593999997E+02  0.45594000000E+02  0.51100000000E-03 0.  1.
    9900012    2    1    2    0    0  0.38252521093E+02  0.60683190755E+01  0.12372779744E+02  0.50528861483E+02  0.30000004964E+02 0.  0.
        -12    1    1    2    0    0 -0.38252521093E+02 -0.60683190755E+01 -0.12372779744E+02  0.40659138517E+02  0.00000000000E+00 0.  1.
         11    1    3    3    0    0  0.29319326335E+01 -0.29660333651E+01 -0.26665917196E+01  0.49501812644E+01  0.51100000000E-03 0. -1.
        -11    1    3    3    0    0  0.84920388185E+01 -0.48254515267E+01 -0.32271442036E+01  0.10286601271E+02  0.51100000000E-03 0.  1.
         12    1    3    3    0    0  0.26828549641E+02  0.13859803967E+02  0.18266515667E+02  0.35292078948E+02  0.00000000000E+00 0. -1.
</event>
<event>
 7    1  0.2974434E-011  0.5052887E+02  0.7816164E-02  0.1300439E+00
        -11   -1    0    0    0    0  0.00000000000E+00  0.00000000000E+00  0.45593999997E+02  0.45594000000E+02  0.51100000000E-03 0.  1.
         11   -1    0    0    0    0 -0.00000000000E+00 -0.00000000000E+00 -0.45593999997E+02  0.45594000000E+02  0.51100000000E-03 0. -1.
    9900012    2    1    2    0    0 -0.81219716012E+01 -0.14046492328E+02 -0.37281287597E+02  0.50528870959E+02  0.30000033768E+02 0.  0.
        -12    1    1    2    0    0  0.81219716012E+01  0.14046492328E+02  0.37281287597E+02  0.40659129041E+02  0.00000000000E+00 0.  1.
         11    1    3    3    0    0 -0.38313276885E+01  0.29223940050E+01 -0.19052876487E+00  0.48224226327E+01  0.51100000000E-03 0. -1.
        -11    1    3    3    0    0 -0.80951701874E+01 -0.50203473021E+01 -0.40216725930E+01  0.10339705900E+02  0.51100000000E-03 0.  1.
         12    1    3    3    0    0  0.38045262748E+01 -0.11948539031E+02 -0.33069086240E+02  0.35366742427E+02  0.00000000000E+00 0. -1.
</event>
<event>
 7    1  0.2974434E-011  0.5052888E+02  0.7816164E-02  0.1300439E+00
        -11   -1    0    0    0    0  0.00000000000E+00  0.00000000000E+00  0.45593999997E+02  0.45594000000E+02  0.51100000000E-03 0. -1.
         11   -1    0    0    0    0 -0.00000000000E+00 -0.00000000000E+00 -0.45593999997E+02  0.45594000000E+02  0.51100000000E-03 0.  1.
    9900012    2    1    2    0    0  0.20092500391E+02 -0.84939634019E+01  0.34311925029E+02  0.50528878201E+02  0.30000055780E+02 0.  0.
        -12    1    1    2    0    0 -0.20092500391E+02  0.84939634019E+01 -0.34311925029E+02  0.40659121799E+02  0.00000000000E+00 0.  1.
         11    1    3    3    0    0 -0.32909516724E+01  0.31578081337E+01  0.37508233078E+01  0.59051495212E+01  0.51100000000E-03 0. -1.
        -11    1    3    3    0    0 -0.18444960266E+01  0.28564652160E+01  0.28112034919E+01  0.44118504572E+01  0.51100000000E-03 0.  1.
        -12    1    3    3    0    0  0.25227948090E+02 -0.14508236752E+02  0.27749898230E+02  0.40211878223E+02  0.00000000000E+00 0.  1.
</event>
<event>
 7    1  0.2974434E-011  0.5052887E+02  0.7816164E-02  0.1300439E+00
        -11   -1    0    0    0    0  0.00000000000E+00  0.00000000000E+00  0.45593999997E+02  0.45594000000E+02  0.51100000000E-03 0.  1.
         11   -1    0    0    0    0 -0.00000000000E+00 -0.00000000000E+00 -0.45593999997E+02  0.45594000000E+02  0.51100000000E-03 0. -1.
    9900012    2    1    2    0    0  0.29109289060E+02  0.25764560507E+02 -0.11916437756E+02  0.50528870933E+02  0.30000033689E+02 0.  0.
        -12    1    1    2    0    0 -0.29109289060E+02 -0.25764560507E+02  0.11916437756E+02  0.40659129067E+02  0.00000000000E+00 0.  1.
         11    1    3    3    0    0  0.19506953364E+01  0.71107605904E+01 -0.13939746710E+01  0.75040851617E+01  0.51100000000E-03 0. -1.
        -11    1    3    3    0    0  0.14210336841E+02  0.23353043400E+02 -0.34894076989E+01  0.27558560839E+02  0.51100000000E-03 0.  1.
        -12    1    3    3    0    0  0.12948256882E+02 -0.46992434830E+01 -0.70330553857E+01  0.15466224933E+02  0.00000000000E+00 0.  1.
</event>
<event>
 7    1  0.2974434E-011  0.5052886E+02  0.7816164E-02  0.1300439E+00
        -11   -1    0    0    0    0  0.00000000000E+00  0.00000000000E+00  0.45593999997E+02  0.45594000000E+02  0.51100000000E-03 0. -1.
         11   -1    0    0    0    0 -0.00000000000E+00 -0.00000000000E+00 -0.45593999997E+02  0.45594000000E+02  0.51100000000E-03 0.  1.
    9900012    2    1    2    0    0 -0.68984028481E+01  0.38064977833E+02  0.12515410176E+02  0.50528855996E+02  0.29999988285E+02 0.  0.
        -12    1    1    2    0    0  0.68984028481E+01 -0.38064977833E+02 -0.12515410176E+02  0.40659144004E+02  0.00000000000E+00 0.  1.
         11    1    3    3    0    0 -0.44619935426E+01  0.20138145135E+02  0.65219574430E+01  0.21633081265E+02  0.51100000000E-03 0. -1.
        -11    1    3    3    0    0  0.87058303024E+01  0.10206380878E+02  0.73082753403E+01  0.15276536931E+02  0.51100000000E-03 0.  1.
        -12    1    3    3    0    0 -0.11142239608E+02  0.77204518193E+01 -0.13148226069E+01  0.13619237800E+02  0.00000000000E+00 0.  1.
</event>
<event>
 7    1  0.2974434E-011  0.5052886E+02  0.7816164E-02  0.1300439E+00
        -11   -1    0    0    0    0  0.00000000000E+00  0.00000000000E+00  0.45593999997E+02  0.45594000000E+02  0.51100000000E-03 0.  1.
         11   -1    0    0    0    0 -0.00000000000E+00 -0.00000000000E+00 -0.45593999997E+02  0.45594000000E+02  0.51100000000E-03 0. -1.
    9900012    2    1    2    0    0 -0.13716401612E+01 -0.20513371681E+01 -0.40584182762E+02  0.50528864847E+02  0.30000015190E+02 0.  0.
        -12    1    1    2    0    0  0.13716401612E+01  0.20513371681E+01  0.40584182762E+02  0.40659135153E+02  0.00000000000E+00 0.  1.
         11    1    3    3    0    0 -0.81063413222E+01 -0.65458587360E+01 -0.12050639313E+02  0.15930440808E+02  0.51100000000E-03 0. -1.
        -11    1    3    3    0    0  0.26169321525E+01 -0.41169747116E+01 -0.23111232420E+02  0.23620475839E+02  0.51100000000E-03 0.  1.
        -12    1    3    3    0    0  0.41177690085E+01  0.86114962795E+01 -0.54223110295E+01  0.10977948200E+02  0.00000000000E+00 0.  1.
</event>
<event>
 7    1  0.3004499E-011  0.5052887E+02  0.7816164E-02  0.1300439E+00
        -11   -1    0    0    0    0  0.00000000000E+00  0.00000000000E+00  0.45593999997E+02  0.45594000000E+02  0.51100000000E-03 0. -1.
         11   -1    0    0    0    0 -0.00000000000E+00 -0.00000000000E+00 -0.45593999997E+02  0.45594000000E+02  0.51100000000E-03 0.  1.
    9900012    2    1    2    0    0  0.19582320695E+02  0.35574717401E+02 -0.20340166799E+01  0.50528867867E+02  0.30000024367E+02 0.  0.
        -12    1    1    2    0    0 -0.19582320695E+02 -0.35574717401E+02  0.20340166799E+01  0.40659132133E+02  0.00000000000E+00 0.  1.
         11    1    3    3    0    0  0.12714595587E+02  0.19430674747E+02 -0.34221015783E+01  0.23471745601E+02  0.51100000000E-03 0. -1.
        -11    1    3    3    0    0  0.60108064830E+01  0.20731741042E+02  0.36147768255E+01  0.21886102736E+02  0.51100000000E-03 0.  1.
        -12    1    3    3    0    0  0.85691862454E+00 -0.45876983883E+01 -0.22266919272E+01  0.51710195291E+01  0.00000000000E+00 0.  1.
</event>
<event>
 7    1  0.2974434E-011  0.5052889E+02  0.7816164E-02  0.1300439E+00
        -11   -1    0    0    0    0  0.00000000000E+00  0.00000000000E+00  0.45593999997E+02  0.45594000000E+02  0.51100000000E-03 0.  1.
         11   -1    0    0    0    0 -0.00000000000E+00 -0.00000000000E+00 -0.45593999997E+02  0.45594000000E+02  0.51100000000E-03 0. -1.
    9900012    2    1    2    0    0 -0.10972828707E+02 -0.78041536418E+01 -0.38364769372E+02  0.50528888932E+02  0.30000088396E+02 0.  0.
        -12    1    1    2    0    0  0.10972828707E+02  0.78041536418E+01  0.38364769372E+02  0.40659111068E+02  0.00000000000E+00 0.  1.
         11    1    3    3    0    0 -0.14388339376E+01  0.21613184408E+01 -0.20734854333E+01  0.33227823591E+01  0.51100000000E-03 0. -1.
        -11    1    3    3    0    0 -0.54535687601E+01 -0.77114126800E+00  0.32568941870E+01  0.63987054224E+01  0.51100000000E-03 0.  1.
        -12    1    3    3    0    0 -0.40804260092E+01 -0.91943308146E+01 -0.39548178126E+02  0.40807401150E+02  0.00000000000E+00 0.  1.
</event>
<event>
 7    1  0.2974434E-011  0.5052886E+02  0.7816164E-02  0.1300439E+00
        -11   -1    0    0    0    0  0.00000000000E+00  0.00000000000E+00  0.45593999997E+02  0.45594000000E+02  0.51100000000E-03 0.  1.
         11   -1    0    0    0    0 -0.00000000000E+00 -0.00000000000E+00 -0.45593999997E+02  0.45594000000E+02  0.51100000000E-03 0. -1.
    9900012    2    1    2    0    0 -0.14853490870E+02  0.37829940828E+02 -0.11978883406E+01  0.50528861414E+02  0.30000004755E+02 0.  0.
        -12    1    1    2    0    0  0.14853490870E+02 -0.37829940828E+02  0.11978883406E+01  0.40659138586E+02  0.00000000000E+00 0.  1.
         11    1    3    3    0    0 -0.14713450307E+02  0.17531091515E+02 -0.45868464574E+01  0.23342321014E+02  0.51100000000E-03 0. -1.
        -11    1    3    3    0    0 -0.70479149487E+01  0.69187241551E+01 -0.36955930888E+01  0.10545105860E+02  0.51100000000E-03 0.  1.
        -12    1    3    3    0    0  0.69078743861E+01  0.13380125158E+02  0.70845512056E+01  0.16641434540E+02  0.00000000000E+00 0.  1.
</event>
<event>
 7    1  0.2974434E-011  0.5052886E+02  0.7816164E-02  0.1300439E+00
        -11   -1    0    0    0    0  0.00000000000E+00  0.00000000000E+00  0.45593999997E+02  0.45594000000E+02  0.51100000000E-03 0.  1.
         11   -1    0    0    0    0 -0.00000000000E+00 -0.00000000000E+00 -0.45593999997E+02  0.45594000000E+02  0.51100000000E-03 0. -1.
    9900012    2    1    2    0    0 -0.39283604337E+02 -0.51166657823E+01 -0.91533526035E+01  0.50528859548E+02  0.29999999082E+02 0.  0.
        -12    1    1    2    0    0  0.39283604337E+02  0.51166657823E+01  0.91533526035E+01  0.40659140452E+02  0.00000000000E+00 0.  1.
         11    1    3    3    0    0 -0.90218523524E+01 -0.46312714066E+01  0.94970942259E+01  0.13893786155E+02  0.51100000000E-03 0. -1.
        -11    1    3    3    0    0 -0.79157872862E+01  0.37247978977E+01 -0.60689704656E+01  0.10647356973E+02  0.51100000000E-03 0.  1.
        -12    1    3    3    0    0 -0.22345964698E+02 -0.42101922734E+01 -0.12581476364E+02  0.25987716421E+02  0.00000000000E+00 0.  1.
</event>
<event>
 7    1  0.2974434E-011  0.5052886E+02  0.7816164E-02  0.1300439E+00
        -11   -1    0    0    0    0  0.00000000000E+00  0.00000000000E+00  0.45593999997E+02  0.45594000000E+02  0.51100000000E-03 0.  1.
         11   -1    0    0    0    0 -0.00000000000E+00 -0.00000000000E+00 -0.45593999997E+02  0.45594000000E+02  0.51100000000E-03 0. -1.
    9900012    2    1    2    0    0  0.33061828057E+02  0.19363650646E+02 -0.13606270566E+02  0.50528855401E+02  0.29999986476E+02 0.  0.
        -12    1    1    2    0    0 -0.33061828057E+02 -0.19363650646E+02  0.13606270566E+02  0.40659144599E+02  0.00000000000E+00 0.  1.
         11    1    3    3    0    0  0.83939869290E+01  0.82955187815E+00 -0.79156204868E+01  0.11567377440E+02  0.51100000000E-03 0. -1.
        -11    1    3    3    0    0  0.20788435943E+02  0.52766951391E+01 -0.11071980684E+02  0.24136928908E+02  0.51100000000E-03 0.  1.
        -12    1    3    3    0    0  0.38794051848E+01  0.13257403629E+02  0.53813306047E+01  0.14824549053E+02  0.00000000000E+00 0.  1.
</event>
<event>
 7    1  0.2974434E-011  0.5052886E+02  0.7816164E-02  0.1300439E+00
        -11   -1    0    0    0    0  0.00000000000E+00  0.00000000000E+00  0.45593999997E+02  0.45594000000E+02  0.51100000000E-03 0.  1.
         11   -1    0    0    0    0 -0.00000000000E+00 -0.00000000000E+00 -0.45593999997E+02  0.45594000000E+02  0.51100000000E-03 0. -1.
    9900012    2    1    2    0    0  0.29115559112E+02  0.27904941733E+02 -0.51734018094E+01  0.50528860291E+02  0.30000001341E+02 0.  0.
        -12    1    1    2    0    0 -0.29115559112E+02 -0.27904941733E+02  0.51734018094E+01  0.40659139709E+02  0.00000000000E+00 0.  1.
         11    1    3    3    0    0  0.72439611777E+01  0.14745168828E+02 -0.13750538970E-01  0.16428486438E+02  0.51100000000E-03 0. -1.
        -11    1    3    3    0    0  0.14139662667E+02  0.15329993738E+02  0.47058253314E+01  0.21379512639E+02  0.51100000000E-03 0.  1.
        -12    1    3    3    0    0  0.77319352676E+01 -0.21702208330E+01 -0.98654766019E+01  0.12720861214E+02  0.00000000000E+00 0.  1.
</event>
<event>
 7    1  0.2974434E-011  0.5052886E+02  0.7816164E-02  0.1300439E+00
        -11   -1    0    0    0    0  0.00000000000E+00  0.00000000000E+00  0.45593999997E+02  0.45594000000E+02  0.51100000000E-03 0.  1.
         11   -1    0    0    0    0 -0.00000000000E+00 -0.00000000000E+00 -0.45593999997E+02  0.45594000000E+02  0.51100000000E-03 0. -1.
    9900012    2    1    2    0    0  0.36302932059E+02  0.16449476346E+02 -0.80422512825E+01  0.50528856455E+02  0.29999989680E+02 0.  0.
        -12    1    1    2    0    0 -0.36302932059E+02 -0.16449476346E+02  0.80422512825E+01  0.40659143545E+02  0.00000000000E+00 0.  1.
         11    1    3    3    0    0  0.12339241127E+02 -0.54879741769E+01  0.29303431994E+01  0.13818887208E+02  0.51100000000E-03 0. -1.
        -11    1    3    3    0    0  0.26689340139E+01 -0.58260274895E+00 -0.41591134407E+01  0.49760284975E+01  0.51100000000E-03 0.  1.
         12    1    3    3    0    0  0.21294756918E+02  0.22520053272E+02 -0.68134810411E+01  0.31733940749E+02  0.00000000000E+00 0. -1.
</event>
<event>
 7    1  0.2974434E-011  0.5052885E+02  0.7816164E-02  0.1300439E+00
        -11   -1    0    0    0    0  0.00000000000E+00  0.00000000000E+00  0.45593999997E+02  0.45594000000E+02  0.51100000000E-03 0. -1.
         11   -1    0    0    0    0 -0.00000000000E+00 -0.00000000000E+00 -0.45593999997E+02  0.45594000000E+02  0.51100000000E-03 0.  1.
    9900012    2    1    2    0    0 -0.46488126304E+00 -0.76637161292E+01  0.39927654325E+02  0.50528852943E+02  0.29999979005E+02 0.  0.
        -12    1    1    2    0    0  0.46488126304E+00  0.76637161292E+01 -0.39927654325E+02  0.40659147057E+02  0.00000000000E+00 0.  1.
         11    1    3    3    0    0  0.11658220515E+01 -0.49051069882E+00 -0.68600980630E+00  0.14388716124E+01  0.51100000000E-03 0.  1.
        -11    1    3    3    0    0  0.10605581252E+02 -0.61737413770E+01  0.91244925679E+01  0.15292148350E+02  0.51100000000E-03 0. -1.
         12    1    3    3    0    0 -0.12236284567E+02 -0.99946405339E+00  0.31489171564E+02  0.33797832980E+02  0.00000000000E+00 0. -1.
</event>
<event>
 7    1  0.2974434E-011  0.5052886E+02  0.7816164E-02  0.1300439E+00
        -11   -1    0    0    0    0  0.00000000000E+00  0.00000000000E+00  0.45593999997E+02  0.45594000000E+02  0.51100000000E-03 0.  1.
         11   -1    0    0    0    0 -0.00000000000E+00 -0.00000000000E+00 -0.45593999997E+02  0.45594000000E+02  0.51100000000E-03 0. -1.
    9900012    2    1    2    0    0  0.30680523974E+02 -0.91461221790E+01 -0.25064305832E+02  0.50528861678E+02  0.30000005557E+02 0.  0.
        -12    1    1    2    0    0 -0.30680523974E+02  0.91461221790E+01  0.25064305832E+02  0.40659138322E+02  0.00000000000E+00 0.  1.
         11    1    3    3    0    0  0.18788045790E+02 -0.11720982438E+02 -0.16044111895E+02  0.27345669139E+02  0.51100000000E-03 0. -1.
        -11    1    3    3    0    0  0.56698929484E+01 -0.75318560540E+01 -0.48605352559E+01  0.10606665117E+02  0.51100000000E-03 0.  1.
        -12    1    3    3    0    0  0.62225852355E+01  0.10106716313E+02 -0.41596586815E+01  0.12576527422E+02  0.00000000000E+00 0.  1.
</event>
<event>
 7    1  0.2974434E-011  0.5052886E+02  0.7816164E-02  0.1300439E+00
        -11   -1    0    0    0    0  0.00000000000E+00  0.00000000000E+00  0.45593999997E+02  0.45594000000E+02  0.51100000000E-03 0.  1.
         11   -1    0    0    0    0 -0.00000000000E+00 -0.00000000000E+00 -0.45593999997E+02  0.45594000000E+02  0.51100000000E-03 0. -1.
    9900012    2    1    2    0    0 -0.24985198748E+02  0.21459374982E+02 -0.23841153545E+02  0.50528861624E+02  0.30000005393E+02 0.  0.
        -12    1    1    2    0    0  0.24985198748E+02 -0.21459374982E+02  0.23841153545E+02  0.40659138376E+02  0.00000000000E+00 0.  1.
         11    1    3    3    0    0 -0.13702010003E+02  0.64365906065E+01 -0.12158951055E+02  0.19416870700E+02  0.51100000000E-03 0. -1.
        -11    1    3    3    0    0 -0.17124922812E+02  0.15329227626E+02 -0.94595225987E+01  0.24854190170E+02  0.51100000000E-03 0.  1.
        -12    1    3    3    0    0  0.58417340674E+01 -0.30644325124E+00 -0.22226798919E+01  0.62578007544E+01  0.00000000000E+00 0.  1.
</event>
<event>
 7    1  0.2974434E-011  0.5052886E+02  0.7816164E-02  0.1300439E+00
        -11   -1    0    0    0    0  0.00000000000E+00  0.00000000000E+00  0.45593999997E+02  0.45594000000E+02  0.51100000000E-03 0. -1.
         11   -1    0    0    0    0 -0.00000000000E+00 -0.00000000000E+00 -0.45593999997E+02  0.45594000000E+02  0.51100000000E-03 0.  1.
    9900012    2    1    2    0    0  0.37560160936E+02  0.23974755738E+01  0.15383499095E+02  0.50528860522E+02  0.30000002043E+02 0.  0.
        -12    1    1    2    0    0 -0.37560160936E+02 -0.23974755738E+01 -0.15383499095E+02  0.40659139478E+02  0.00000000000E+00 0.  1.
         11    1    3    3    0    0  0.10542253936E+01  0.10211730763E+02  0.51108679613E+01  0.11467859780E+02  0.51100000000E-03 0.  1.
        -11    1    3    3    0    0  0.14832389266E+02 -0.16348098197E+01  0.20105873011E+01  0.15057052701E+02  0.51100000000E-03 0. -1.
        -12    1    3    3    0    0  0.21673546277E+02 -0.61794453694E+01  0.82620438330E+01  0.24003948042E+02  0.00000000000E+00 0.  1.
</event>
