<event>
 7    1  0.5068291E-011  0.5052886E+02  0.7816164E-02  0.1300439E+00
        -11   -1    0    0    0    0  0.00000000000E+00  0.00000000000E+00  0.45593999997E+02  0.45594000000E+02  0.51100000000E-03 0.  1.
         11   -1    0    0    0    0 -0.00000000000E+00 -0.00000000000E+00 -0.45593999997E+02  0.45594000000E+02  0.51100000000E-03 0. -1.
    9900012    2    1    2    0    0 -0.32532076400E+02  0.23578762007E+02 -0.62347186730E+01  0.50528859212E+02  0.29999998061E+02 0.  0.
        -12    1    1    2    0    0  0.32532076400E+02 -0.23578762007E+02  0.62347186730E+01  0.40659140788E+02  0.00000000000E+00 0.  1.
         11    1    3    3    0    0  0.35215380438E+01  0.27452824014E+01  0.41121149969E+01  0.60701973334E+01  0.51100000000E-03 0.  1.
        -11    1    3    3    0    0 -0.29724525356E+02  0.12567257454E+02 -0.10818361362E+02  0.34037043208E+02  0.51100000000E-03 0. -1.
        -12    1    3    3    0    0 -0.63290890882E+01  0.82662221518E+01  0.47152769183E+00  0.10421618670E+02  0.00000000000E+00 0.  1.
</event>
<event>
 7    1  0.5068291E-011  0.5052886E+02  0.7816164E-02  0.1300439E+00
        -11   -1    0    0    0    0  0.00000000000E+00  0.00000000000E+00  0.45593999997E+02  0.45594000000E+02  0.51100000000E-03 0.  1.
         11   -1    0    0    0    0 -0.00000000000E+00 -0.00000000000E+00 -0.45593999997E+02  0.45594000000E+02  0.51100000000E-03 0. -1.
    9900012    2    1    2    0    0  0.15306479699E+01  0.83809284086E+01 -0.39756546914E+02  0.50528857526E+02  0.29999992936E+02 0.  0.
        -12    1    1    2    0    0 -0.15306479699E+01 -0.83809284086E+01  0.39756546914E+02  0.40659142474E+02  0.00000000000E+00 0.  1.
         11    1    3    3    0    0 -0.21257250837E+01  0.10158370408E+02 -0.41191210617E+02  0.42478547866E+02  0.51100000000E-03 0. -1.
        -11    1    3    3    0    0  0.43066674121E+01 -0.30003134052E+00 -0.16072915665E+01  0.46066028095E+01  0.51100000000E-03 0.  1.
         12    1    3    3    0    0 -0.65029435854E+00 -0.14774106586E+01  0.30419552697E+01  0.34437068501E+01  0.00000000000E+00 0. -1.
</event>
<event>
 7    1  0.5068291E-011  0.5052888E+02  0.7816164E-02  0.1300439E+00
        -11   -1    0    0    0    0  0.00000000000E+00  0.00000000000E+00  0.45593999997E+02  0.45594000000E+02  0.51100000000E-03 0.  1.
         11   -1    0    0    0    0 -0.00000000000E+00 -0.00000000000E+00 -0.45593999997E+02  0.45594000000E+02  0.51100000000E-03 0. -1.
    9900012    2    1    2    0    0 -0.32528582741E+01 -0.57322572019E+01 -0.40121373089E+02  0.50528875093E+02  0.30000046334E+02 0.  0.
        -12    1    1    2    0    0  0.32528582741E+01  0.57322572019E+01  0.40121373089E+02  0.40659124907E+02  0.00000000000E+00 0.  1.
         11    1    3    3    0    0 -0.30608456204E+01  0.27778473041E+01 -0.33801686805E+02  0.34053476221E+02  0.51100000000E-03 0. -1.
        -11    1    3    3    0    0 -0.32501691732E+01 -0.97687719343E+01 -0.77360108069E+01  0.12877824670E+02  0.51100000000E-03 0.  1.
        -12    1    3    3    0    0  0.30581565195E+01  0.12586674282E+01  0.14163245229E+01  0.35975742031E+01  0.00000000000E+00 0.  1.
</event>
<event>
 7    1  0.5068291E-011  0.5052887E+02  0.7816164E-02  0.1300439E+00
        -11   -1    0    0    0    0  0.00000000000E+00  0.00000000000E+00  0.45593999997E+02  0.45594000000E+02  0.51100000000E-03 0.  1.
         11   -1    0    0    0    0 -0.00000000000E+00 -0.00000000000E+00 -0.45593999997E+02  0.45594000000E+02  0.51100000000E-03 0. -1.
    9900012    2    1    2    0    0  0.15186358400E+02  0.14293329606E+02 -0.34903296572E+02  0.50528869853E+02  0.30000030406E+02 0.  0.
        -12    1    1    2    0    0 -0.15186358400E+02 -0.14293329606E+02  0.34903296572E+02  0.40659130147E+02  0.00000000000E+00 0.  1.
         11    1    3    3    0    0  0.40924752403E+01  0.19597379221E+01 -0.26789092163E+02  0.27170653020E+02  0.51100000000E-03 0. -1.
        -11    1    3    3    0    0 -0.23315473984E+01  0.71212456460E+01 -0.30882435510E+01  0.81046592348E+01  0.51100000000E-03 0.  1.
         12    1    3    3    0    0  0.13425430558E+02  0.52123460377E+01 -0.50259608581E+01  0.15253557599E+02  0.00000000000E+00 0. -1.
</event>
<event>
 7    1  0.5068291E-011  0.5052884E+02  0.7816164E-02  0.1300439E+00
        -11   -1    0    0    0    0  0.00000000000E+00  0.00000000000E+00  0.45593999997E+02  0.45594000000E+02  0.51100000000E-03 0.  1.
         11   -1    0    0    0    0 -0.00000000000E+00 -0.00000000000E+00 -0.45593999997E+02  0.45594000000E+02  0.51100000000E-03 0. -1.
    9900012    2    1    2    0    0 -0.21021458448E+02 -0.31997489078E+02 -0.13690367587E+02  0.50528841287E+02  0.29999943576E+02 0.  0.
        -12    1    1    2    0    0  0.21021458448E+02  0.31997489078E+02  0.13690367587E+02  0.40659158713E+02  0.00000000000E+00 0.  1.
         11    1    3    3    0    0 -0.24316030261E+02 -0.25041679868E+02 -0.79910564367E+01  0.35807988515E+02  0.51100000000E-03 0. -1.
        -11    1    3    3    0    0  0.74723368962E+01 -0.42859962877E+01 -0.35525975855E+01  0.93180755918E+01  0.51100000000E-03 0.  1.
        -12    1    3    3    0    0 -0.41777650832E+01 -0.26698129223E+01 -0.21467135651E+01  0.54027771804E+01  0.00000000000E+00 0.  1.
</event>
<event>
 7    1  0.5068291E-011  0.5052886E+02  0.7816164E-02  0.1300439E+00
        -11   -1    0    0    0    0  0.00000000000E+00  0.00000000000E+00  0.45593999997E+02  0.45594000000E+02  0.51100000000E-03 0.  1.
         11   -1    0    0    0    0 -0.00000000000E+00 -0.00000000000E+00 -0.45593999997E+02  0.45594000000E+02  0.51100000000E-03 0. -1.
    9900012    2    1    2    0    0  0.49702071833E+01 -0.38050773585E+01 -0.40174419685E+02  0.50528861173E+02  0.30000004022E+02 0.  0.
        -12    1    1    2    0    0 -0.49702071833E+01  0.38050773585E+01  0.40174419685E+02  0.40659138827E+02  0.00000000000E+00 0.  1.
         11    1    3    3    0    0  0.27855735508E+01  0.46464562106E+01 -0.91871060140E+01  0.10665453225E+02  0.51100000000E-03 0. -1.
        -11    1    3    3    0    0  0.94957541574E+01 -0.97006122719E+01 -0.29248749371E+02  0.32245318505E+02  0.51100000000E-03 0.  1.
        -12    1    3    3    0    0 -0.73111205248E+01  0.12490787028E+01 -0.17385642992E+01  0.76180894427E+01  0.00000000000E+00 0.  1.
</event>
<event>
 7    1  0.5068291E-011  0.5052886E+02  0.7816164E-02  0.1300439E+00
        -11   -1    0    0    0    0  0.00000000000E+00  0.00000000000E+00  0.45593999997E+02  0.45594000000E+02  0.51100000000E-03 0.  1.
         11   -1    0    0    0    0 -0.00000000000E+00 -0.00000000000E+00 -0.45593999997E+02  0.45594000000E+02  0.51100000000E-03 0. -1.
    9900012    2    1    2    0    0 -0.43696508030E+01  0.10527766180E+02 -0.39028677195E+02  0.50528863850E+02  0.30000012160E+02 0.  0.
        -12    1    1    2    0    0  0.43696508030E+01 -0.10527766180E+02  0.39028677195E+02  0.40659136150E+02  0.00000000000E+00 0.  1.
         11    1    3    3    0    0 -0.13266458530E+02  0.34943932027E+00 -0.96282204809E+01  0.16395842755E+02  0.51100000000E-03 0. -1.
        -11    1    3    3    0    0  0.29275524356E+01  0.54858699091E+01 -0.34849656435E+01  0.71281356413E+01  0.51100000000E-03 0.  1.
         12    1    3    3    0    0  0.59692552914E+01  0.46924569504E+01 -0.25915491070E+02  0.27004885454E+02  0.00000000000E+00 0. -1.
</event>
<event>
 7    1  0.5068291E-011  0.5052886E+02  0.7816164E-02  0.1300439E+00
        -11   -1    0    0    0    0  0.00000000000E+00  0.00000000000E+00  0.45593999997E+02  0.45594000000E+02  0.51100000000E-03 0.  1.
         11   -1    0    0    0    0 -0.00000000000E+00 -0.00000000000E+00 -0.45593999997E+02  0.45594000000E+02  0.51100000000E-03 0. -1.
    9900012    2    1    2    0    0  0.38335783707E+02 -0.77910617279E+01 -0.11082983396E+02  0.50528862328E+02  0.30000007532E+02 0.  0.
        -12    1    1    2    0    0 -0.38335783707E+02  0.77910617279E+01  0.11082983396E+02  0.40659137672E+02  0.00000000000E+00 0.  1.
         11    1    3    3    0    0  0.27206848697E+02 -0.10731397581E+02 -0.39380629739E+01  0.29510741270E+02  0.51100000000E-03 0. -1.
        -11    1    3    3    0    0 -0.34687034354E+01  0.37921499355E+01 -0.16586485262E+01  0.54003166435E+01  0.51100000000E-03 0.  1.
        -12    1    3    3    0    0  0.14597638445E+02 -0.85181408209E+00 -0.54862718963E+01  0.15617804414E+02  0.00000000000E+00 0.  1.
</event>
<event>
 7    1  0.5068291E-011  0.5052887E+02  0.7816164E-02  0.1300439E+00
        -11   -1    0    0    0    0  0.00000000000E+00  0.00000000000E+00  0.45593999997E+02  0.45594000000E+02  0.51100000000E-03 0.  1.
         11   -1    0    0    0    0 -0.00000000000E+00 -0.00000000000E+00 -0.45593999997E+02  0.45594000000E+02  0.51100000000E-03 0. -1.
    9900012    2    1    2    0    0  0.13933678765E+02  0.28773784011E+02 -0.25121437593E+02  0.50528872157E+02  0.30000037408E+02 0.  0.
        -12    1    1    2    0    0 -0.13933678765E+02 -0.28773784011E+02  0.25121437593E+02  0.40659127843E+02  0.00000000000E+00 0.  1.
         11    1    3    3    0    0  0.11593234174E+02  0.13886781001E+02  0.96337257232E+00  0.18115569330E+02  0.51100000000E-03 0. -1.
        -11    1    3    3    0    0 -0.32288636060E+01  0.59076475511E+01 -0.17659049869E+02  0.18898886272E+02  0.51100000000E-03 0.  1.
         12    1    3    3    0    0  0.55693081973E+01  0.89793554585E+01 -0.84257602961E+01  0.13514416555E+02  0.00000000000E+00 0. -1.
</event>
<event>
 7    1  0.5068291E-011  0.5052886E+02  0.7816164E-02  0.1300439E+00
        -11   -1    0    0    0    0  0.00000000000E+00  0.00000000000E+00  0.45593999997E+02  0.45594000000E+02  0.51100000000E-03 0. -1.
         11   -1    0    0    0    0 -0.00000000000E+00 -0.00000000000E+00 -0.45593999997E+02  0.45594000000E+02  0.51100000000E-03 0.  1.
    9900012    2    1    2    0    0 -0.36325712978E+02  0.16529001586E+02  0.77717898344E+01  0.50528855468E+02  0.29999986681E+02 0.  0.
        -12    1    1    2    0    0  0.36325712978E+02 -0.16529001586E+02 -0.77717898344E+01  0.40659144532E+02  0.00000000000E+00 0.  1.
         11    1    3    3    0    0 -0.21387927128E+02  0.13632849396E+02  0.18907922904E+02  0.31635542643E+02  0.51100000000E-03 0. -1.
        -11    1    3    3    0    0 -0.10098341245E+02  0.25116757001E+01 -0.74580979567E+01  0.12802665196E+02  0.51100000000E-03 0.  1.
         12    1    3    3    0    0 -0.48394446049E+01  0.38447648995E+00 -0.36780351129E+01  0.60906476295E+01  0.00000000000E+00 0. -1.
</event>
<event>
 7    1  0.5068291E-011  0.5052886E+02  0.7816164E-02  0.1300439E+00
        -11   -1    0    0    0    0  0.00000000000E+00  0.00000000000E+00  0.45593999997E+02  0.45594000000E+02  0.51100000000E-03 0.  1.
         11   -1    0    0    0    0 -0.00000000000E+00 -0.00000000000E+00 -0.45593999997E+02  0.45594000000E+02  0.51100000000E-03 0. -1.
    9900012    2    1    2    0    0 -0.19881152812E+02  0.35252296644E+02  0.38962366890E+01  0.50528864297E+02  0.30000013516E+02 0.  0.
        -12    1    1    2    0    0  0.19881152812E+02 -0.35252296644E+02 -0.38962366890E+01  0.40659135703E+02  0.00000000000E+00 0.  1.
         11    1    3    3    0    0 -0.18144908357E+02  0.18578500948E+02  0.62765231140E+01  0.26716907370E+02  0.51100000000E-03 0. -1.
        -11    1    3    3    0    0 -0.31562783464E+01  0.13402678995E+02 -0.88897691861E+01  0.16389688639E+02  0.51100000000E-03 0.  1.
        -12    1    3    3    0    0  0.14200338908E+01  0.32711167016E+01  0.65094827611E+01  0.74222682883E+01  0.00000000000E+00 0.  1.
</event>
<event>
 7    1  0.5068291E-011  0.5052887E+02  0.7816164E-02  0.1300439E+00
        -11   -1    0    0    0    0  0.00000000000E+00  0.00000000000E+00  0.45593999997E+02  0.45594000000E+02  0.51100000000E-03 0.  1.
         11   -1    0    0    0    0 -0.00000000000E+00 -0.00000000000E+00 -0.45593999997E+02  0.45594000000E+02  0.51100000000E-03 0. -1.
    9900012    2    1    2    0    0 -0.21531799507E+02 -0.31465781708E+02 -0.14122724150E+02  0.50528866390E+02  0.30000019880E+02 0.  0.
        -12    1    1    2    0    0  0.21531799507E+02  0.31465781708E+02  0.14122724150E+02  0.40659133610E+02  0.00000000000E+00 0.  1.
         11    1    3    3    0    0 -0.20090443326E+01 -0.50932566173E+01 -0.47295985953E+01  0.72350967674E+01  0.51100000000E-03 0. -1.
        -11    1    3    3    0    0 -0.24296048901E+02 -0.12237184930E+02 -0.77367993319E+01  0.28282587423E+02  0.51100000000E-03 0.  1.
        -12    1    3    3    0    0  0.47732937268E+01 -0.14135340161E+02 -0.16563262228E+01  0.15011182199E+02  0.00000000000E+00 0.  1.
</event>
<event>
 7    1  0.5068291E-011  0.5052887E+02  0.7816164E-02  0.1300439E+00
        -11   -1    0    0    0    0  0.00000000000E+00  0.00000000000E+00  0.45593999997E+02  0.45594000000E+02  0.51100000000E-03 0.  1.
         11   -1    0    0    0    0 -0.00000000000E+00 -0.00000000000E+00 -0.45593999997E+02  0.45594000000E+02  0.51100000000E-03 0. -1.
    9900012    2    1    2    0    0 -0.18292935884E+01  0.39235761468E+01 -0.40428013129E+02  0.50528868057E+02  0.30000024947E+02 0.  0.
        -12    1    1    2    0    0  0.18292935884E+01 -0.39235761468E+01  0.40428013129E+02  0.40659131943E+02  0.00000000000E+00 0.  1.
         11    1    3    3    0    0 -0.55066035736E+01 -0.84741499363E+01 -0.93423494727E+01  0.13762753867E+02  0.51100000000E-03 0. -1.
        -11    1    3    3    0    0  0.89732264873E+01  0.54432116882E+01 -0.20561397612E+02  0.23085025863E+02  0.51100000000E-03 0.  1.
         12    1    3    3    0    0 -0.52959165021E+01  0.69545143949E+01 -0.10524266044E+02  0.13681088327E+02  0.00000000000E+00 0. -1.
</event>
<event>
 7    1  0.5068291E-011  0.5052883E+02  0.7816164E-02  0.1300439E+00
        -11   -1    0    0    0    0  0.00000000000E+00  0.00000000000E+00  0.45593999997E+02  0.45594000000E+02  0.51100000000E-03 0.  1.
         11   -1    0    0    0    0 -0.00000000000E+00 -0.00000000000E+00 -0.45593999997E+02  0.45594000000E+02  0.51100000000E-03 0. -1.
    9900012    2    1    2    0    0  0.27208824995E+02 -0.30184970229E+02 -0.13098102693E+01  0.50528828977E+02  0.29999906159E+02 0.  0.
        -12    1    1    2    0    0 -0.27208824995E+02  0.30184970229E+02  0.13098102693E+01  0.40659171023E+02  0.00000000000E+00 0.  1.
         11    1    3    3    0    0  0.17648643494E+02 -0.28840907139E+02  0.88032837365E+01  0.34939524132E+02  0.51100000000E-03 0. -1.
        -11    1    3    3    0    0  0.26770317672E+01  0.27376764461E+01 -0.27431982486E+01  0.47102556511E+01  0.51100000000E-03 0.  1.
         12    1    3    3    0    0  0.68831497337E+01 -0.40817395366E+01 -0.73698957572E+01  0.10879049194E+02  0.00000000000E+00 0. -1.
</event>
<event>
 7    1  0.5068291E-011  0.5052886E+02  0.7816164E-02  0.1300439E+00
        -11   -1    0    0    0    0  0.00000000000E+00  0.00000000000E+00  0.45593999997E+02  0.45594000000E+02  0.51100000000E-03 0.  1.
         11   -1    0    0    0    0 -0.00000000000E+00 -0.00000000000E+00 -0.45593999997E+02  0.45594000000E+02  0.51100000000E-03 0. -1.
    9900012    2    1    2    0    0 -0.33372282397E+02 -0.22203432552E+02 -0.68164274764E+01  0.50528864089E+02  0.30000012885E+02 0.  0.
        -12    1    1    2    0    0  0.33372282397E+02  0.22203432552E+02  0.68164274764E+01  0.40659135911E+02  0.00000000000E+00 0.  1.
         11    1    3    3    0    0 -0.10477606017E+02 -0.10378617899E+02 -0.17811200445E+01  0.14854909162E+02  0.51100000000E-03 0. -1.
        -11    1    3    3    0    0 -0.23260365433E+02  0.14406105729E+00 -0.44681798862E+01  0.23686071549E+02  0.51100000000E-03 0.  1.
        -12    1    3    3    0    0  0.36568905209E+00 -0.11968875709E+02 -0.56712754558E+00  0.11987883378E+02  0.00000000000E+00 0.  1.
</event>
<event>
 7    1  0.5068291E-011  0.5052890E+02  0.7816164E-02  0.1300439E+00
        -11   -1    0    0    0    0  0.00000000000E+00  0.00000000000E+00  0.45593999997E+02  0.45594000000E+02  0.51100000000E-03 0. -1.
         11   -1    0    0    0    0 -0.00000000000E+00 -0.00000000000E+00 -0.45593999997E+02  0.45594000000E+02  0.51100000000E-03 0.  1.
    9900012    2    1    2    0    0 -0.40475387632E+01  0.22376614116E+02  0.33705591790E+02  0.50528900806E+02  0.30000124490E+02 0.  0.
        -12    1    1    2    0    0  0.40475387632E+01 -0.22376614116E+02 -0.33705591790E+02  0.40659099194E+02  0.00000000000E+00 0.  1.
         11    1    3    3    0    0 -0.80563013808E+01  0.77562425416E+01  0.23288699459E+02  0.25834604952E+02  0.51100000000E-03 0. -1.
        -11    1    3    3    0    0  0.51817911959E+01  0.12781484816E+02 -0.26250994209E+00  0.13794427347E+02  0.51100000000E-03 0.  1.
        -12    1    3    3    0    0 -0.11730285784E+01  0.18388867586E+01  0.10679402274E+02  0.10899868507E+02  0.00000000000E+00 0.  1.
</event>
<event>
 7    1  0.5068291E-011  0.5052879E+02  0.7816164E-02  0.1300439E+00
        -11   -1    0    0    0    0  0.00000000000E+00  0.00000000000E+00  0.45593999997E+02  0.45594000000E+02  0.51100000000E-03 0.  1.
         11   -1    0    0    0    0 -0.00000000000E+00 -0.00000000000E+00 -0.45593999997E+02  0.45594000000E+02  0.51100000000E-03 0. -1.
    9900012    2    1    2    0    0 -0.30139627120E+02  0.10601514146E+02 -0.25147209289E+02  0.50528789972E+02  0.29999787597E+02 0.  0.
        -12    1    1    2    0    0  0.30139627120E+02 -0.10601514146E+02  0.25147209289E+02  0.40659210028E+02  0.00000000000E+00 0.  1.
         11    1    3    3    0    0 -0.68421197278E+01  0.79855334603E+01 -0.22395931272E+02  0.24741889273E+02  0.51100000000E-03 0. -1.
        -11    1    3    3    0    0  0.24018705276E+00 -0.12013798964E+00  0.16617289020E+01  0.16832902785E+01  0.51100000000E-03 0.  1.
         12    1    3    3    0    0 -0.23537694445E+02  0.27361186750E+01 -0.44130069187E+01  0.24103610420E+02  0.00000000000E+00 0. -1.
</event>
<event>
 7    1  0.5068291E-011  0.5052886E+02  0.7816164E-02  0.1300439E+00
        -11   -1    0    0    0    0  0.00000000000E+00  0.00000000000E+00  0.45593999997E+02  0.45594000000E+02  0.51100000000E-03 0. -1.
         11   -1    0    0    0    0 -0.00000000000E+00 -0.00000000000E+00 -0.45593999997E+02  0.45594000000E+02  0.51100000000E-03 0.  1.
    9900012    2    1    2    0    0 -0.21585864879E+02 -0.34277354078E+02  0.35040978665E+01  0.50528864900E+02  0.30000015351E+02 0.  0.
        -12    1    1    2    0    0  0.21585864879E+02  0.34277354078E+02 -0.35040978665E+01  0.40659135100E+02  0.00000000000E+00 0.  1.
         11    1    3    3    0    0 -0.67995712116E+01 -0.24808993691E+02 -0.91961914953E+01  0.27318313911E+02  0.51100000000E-03 0. -1.
        -11    1    3    3    0    0 -0.51814774807E+01 -0.35434881805E+00  0.52004475841E+00  0.52195515880E+01  0.51100000000E-03 0.  1.
         12    1    3    3    0    0 -0.96048161870E+01 -0.91140115690E+01  0.12180244603E+02  0.17990999401E+02  0.00000000000E+00 0. -1.
</event>
<event>
 7    1  0.5068291E-011  0.5052886E+02  0.7816164E-02  0.1300439E+00
        -11   -1    0    0    0    0  0.00000000000E+00  0.00000000000E+00  0.45593999997E+02  0.45594000000E+02  0.51100000000E-03 0.  1.
         11   -1    0    0    0    0 -0.00000000000E+00 -0.00000000000E+00 -0.45593999997E+02  0.45594000000E+02  0.51100000000E-03 0. -1.
    9900012    2    1    2    0    0  0.24501762538E+02  0.20418512727E+02 -0.25217322588E+02  0.50528863413E+02  0.30000010831E+02 0.  0.
        -12    1    1    2    0    0 -0.24501762538E+02 -0.20418512727E+02  0.25217322588E+02  0.40659136587E+02  0.00000000000E+00 0.  1.
         11    1    3    3    0    0  0.17276417654E+02 -0.16217021774E+01 -0.11614135834E+02  0.20880437647E+02  0.51100000000E-03 0.  1.
        -11    1    3    3    0    0  0.18900909254E+01  0.10974658130E+02  0.24212172206E+00  0.11138859366E+02  0.51100000000E-03 0. -1.
         12    1    3    3    0    0  0.53352539586E+01  0.11065556774E+02 -0.13845308476E+02  0.18509566401E+02  0.00000000000E+00 0. -1.
</event>
<event>
 7    1  0.5068291E-011  0.5052874E+02  0.7816164E-02  0.1300439E+00
        -11   -1    0    0    0    0  0.00000000000E+00  0.00000000000E+00  0.45593999997E+02  0.45594000000E+02  0.51100000000E-03 0. -1.
         11   -1    0    0    0    0 -0.00000000000E+00 -0.00000000000E+00 -0.45593999997E+02  0.45594000000E+02  0.51100000000E-03 0.  1.
    9900012    2    1    2    0    0  0.95506338240E+01 -0.10153977696E+02  0.38194992694E+02  0.50528741074E+02  0.29999638967E+02 0.  0.
        -12    1    1    2    0    0 -0.95506338240E+01  0.10153977696E+02 -0.38194992694E+02  0.40659258926E+02  0.00000000000E+00 0.  1.
         11    1    3    3    0    0  0.19189564595E+01 -0.74139524398E+01  0.58646293882E+01  0.96458780210E+01  0.51100000000E-03 0. -1.
        -11    1    3    3    0    0  0.11497422037E+02  0.76746444368E+01  0.19639884356E+02  0.24016992703E+02  0.51100000000E-03 0.  1.
        -12    1    3    3    0    0 -0.38657446724E+01 -0.10414669693E+02  0.12690478950E+02  0.16865870350E+02  0.00000000000E+00 0.  1.
</event>
<event>
 7    1  0.5068291E-011  0.5052884E+02  0.7816164E-02  0.1300439E+00
        -11   -1    0    0    0    0  0.00000000000E+00  0.00000000000E+00  0.45593999997E+02  0.45594000000E+02  0.51100000000E-03 0.  1.
         11   -1    0    0    0    0 -0.00000000000E+00 -0.00000000000E+00 -0.45593999997E+02  0.45594000000E+02  0.51100000000E-03 0. -1.
    9900012    2    1    2    0    0  0.11125229503E+02  0.39107062487E+02 -0.18502545027E+00  0.50528839873E+02  0.29999939277E+02 0.  0.
        -12    1    1    2    0    0 -0.11125229503E+02 -0.39107062487E+02  0.18502545027E+00  0.40659160127E+02  0.00000000000E+00 0.  1.
         11    1    3    3    0    0 -0.55615384977E+01  0.26727936314E+02 -0.17597645528E+00  0.27300993718E+02  0.51100000000E-03 0. -1.
        -11    1    3    3    0    0  0.13630501270E+02  0.58583149051E+01 -0.34720334473E+01  0.15236975912E+02  0.51100000000E-03 0.  1.
         12    1    3    3    0    0  0.30562667300E+01  0.65208112682E+01  0.34629844523E+01  0.79908702428E+01  0.00000000000E+00 0. -1.
</event>
<event>
 7    1  0.5068291E-011  0.5052886E+02  0.7816164E-02  0.1300439E+00
        -11   -1    0    0    0    0  0.00000000000E+00  0.00000000000E+00  0.45593999997E+02  0.45594000000E+02  0.51100000000E-03 0.  1.
         11   -1    0    0    0    0 -0.00000000000E+00 -0.00000000000E+00 -0.45593999997E+02  0.45594000000E+02  0.51100000000E-03 0. -1.
    9900012    2    1    2    0    0 -0.18328530114E+02 -0.15376863868E+02 -0.32875262695E+02  0.50528857660E+02  0.29999993344E+02 0.  0.
        -12    1    1    2    0    0  0.18328530114E+02  0.15376863868E+02  0.32875262695E+02  0.40659142340E+02  0.00000000000E+00 0.  1.
         11    1    3    3    0    0  0.34449512552E+01  0.41570278512E+01 -0.55367380305E+01  0.77333070536E+01  0.51100000000E-03 0. -1.
        -11    1    3    3    0    0 -0.39444569852E+01 -0.98179876601E+01 -0.27984884047E+01  0.10944549338E+02  0.51100000000E-03 0.  1.
         12    1    3    3    0    0 -0.17829024384E+02 -0.97159040588E+01 -0.24540036260E+02  0.31851001268E+02  0.00000000000E+00 0. -1.
</event>
<event>
 7    1  0.5068291E-011  0.5052886E+02  0.7816164E-02  0.1300439E+00
        -11   -1    0    0    0    0  0.00000000000E+00  0.00000000000E+00  0.45593999997E+02  0.45594000000E+02  0.51100000000E-03 0.  1.
         11   -1    0    0    0    0 -0.00000000000E+00 -0.00000000000E+00 -0.45593999997E+02  0.45594000000E+02  0.51100000000E-03 0. -1.
    9900012    2    1    2    0    0 -0.39184494954E+02  0.76564159381E+01  0.76889643924E+01  0.50528861750E+02  0.30000005775E+02 0.  0.
        -12    1    1    2    0    0  0.39184494954E+02 -0.76564159381E+01 -0.76889643924E+01  0.40659138250E+02  0.00000000000E+00 0.  1.
         11    1    3    3    0    0 -0.23792590014E+02  0.92742385820E+01  0.13766307010E+02  0.29010516193E+02  0.51100000000E-03 0. -1.
        -11    1    3    3    0    0 -0.13466695673E+01  0.46143444237E+01 -0.34805563189E+01  0.59346411799E+01  0.51100000000E-03 0.  1.
         12    1    3    3    0    0 -0.14045235372E+02 -0.62321670675E+01 -0.25967862986E+01  0.15583704377E+02  0.00000000000E+00 0. -1.
</event>
<event>
 7    1  0.5068291E-011  0.5052888E+02  0.7816164E-02  0.1300439E+00
        -11   -1    0    0    0    0  0.00000000000E+00  0.00000000000E+00  0.45593999997E+02  0.45594000000E+02  0.51100000000E-03 0.  1.
         11   -1    0    0    0    0 -0.00000000000E+00 -0.00000000000E+00 -0.45593999997E+02  0.45594000000E+02  0.51100000000E-03 0. -1.
    9900012    2    1    2    0    0 -0.17235238071E+02 -0.11701125878E+02 -0.34916967341E+02  0.50528875730E+02  0.30000048268E+02 0.  0.
        -12    1    1    2    0    0  0.17235238071E+02  0.11701125878E+02  0.34916967341E+02  0.40659124270E+02  0.00000000000E+00 0.  1.
         11    1    3    3    0    0 -0.13780149096E+02  0.38632739086E+01 -0.27180737321E+02  0.30718233608E+02  0.51100000000E-03 0. -1.
        -11    1    3    3    0    0  0.28582005163E+01 -0.69320114036E+01 -0.25082276525E+01  0.79065351773E+01  0.51100000000E-03 0.  1.
         12    1    3    3    0    0 -0.63132894907E+01 -0.86323883831E+01 -0.52280023668E+01  0.11904106944E+02  0.00000000000E+00 0. -1.
</event>
<event>
 7    1  0.5068291E-011  0.5052886E+02  0.7816164E-02  0.1300439E+00
        -11   -1    0    0    0    0  0.00000000000E+00  0.00000000000E+00  0.45593999997E+02  0.45594000000E+02  0.51100000000E-03 0.  1.
         11   -1    0    0    0    0 -0.00000000000E+00 -0.00000000000E+00 -0.45593999997E+02  0.45594000000E+02  0.51100000000E-03 0. -1.
    9900012    2    1    2    0    0  0.76850819598E+01 -0.27842865827E+02 -0.28616077194E+02  0.50528861591E+02  0.30000005293E+02 0.  0.
        -12    1    1    2    0    0 -0.76850819598E+01  0.27842865827E+02  0.28616077194E+02  0.40659138409E+02  0.00000000000E+00 0.  1.
         11    1    3    3    0    0  0.46260555219E+01 -0.23877598243E+01  0.47640633457E+01  0.70567759277E+01  0.51100000000E-03 0. -1.
        -11    1    3    3    0    0  0.12790550465E+01 -0.94086934243E+01 -0.21260255617E+02  0.23284285751E+02  0.51100000000E-03 0.  1.
         12    1    3    3    0    0  0.17799713914E+01 -0.16046412578E+02 -0.12119884923E+02  0.20187799913E+02  0.00000000000E+00 0. -1.
</event>
<event>
 7    1  0.5068291E-011  0.5052885E+02  0.7816164E-02  0.1300439E+00
        -11   -1    0    0    0    0  0.00000000000E+00  0.00000000000E+00  0.45593999997E+02  0.45594000000E+02  0.51100000000E-03 0.  1.
         11   -1    0    0    0    0 -0.00000000000E+00 -0.00000000000E+00 -0.45593999997E+02  0.45594000000E+02  0.51100000000E-03 0. -1.
    9900012    2    1    2    0    0 -0.93149212550E+00 -0.29639529696E+01 -0.40540269489E+02  0.50528854104E+02  0.29999982534E+02 0.  0.
        -12    1    1    2    0    0  0.93149212550E+00  0.29639529696E+01  0.40540269489E+02  0.40659145896E+02  0.00000000000E+00 0.  1.
         11    1    3    3    0    0 -0.11178876062E+02 -0.83675934202E+01 -0.11990968312E+02  0.18405629872E+02  0.51100000000E-03 0.  1.
        -11    1    3    3    0    0 -0.15589369123E+01  0.17628906247E+01 -0.40207338937E+01  0.46587947966E+01  0.51100000000E-03 0. -1.
         12    1    3    3    0    0  0.11806320849E+02  0.36407498260E+01 -0.24528567283E+02  0.27464429436E+02  0.00000000000E+00 0. -1.
</event>
<event>
 7    1  0.5068291E-011  0.5052887E+02  0.7816164E-02  0.1300439E+00
        -11   -1    0    0    0    0  0.00000000000E+00  0.00000000000E+00  0.45593999997E+02  0.45594000000E+02  0.51100000000E-03 0. -1.
         11   -1    0    0    0    0 -0.00000000000E+00 -0.00000000000E+00 -0.45593999997E+02  0.45594000000E+02  0.51100000000E-03 0.  1.
    9900012    2    1    2    0    0 -0.14758242615E+02  0.36194178176E+02  0.11195579039E+02  0.50528865123E+02  0.30000016029E+02 0.  0.
        -12    1    1    2    0    0  0.14758242615E+02 -0.36194178176E+02 -0.11195579039E+02  0.40659134877E+02  0.00000000000E+00 0.  1.
         11    1    3    3    0    0 -0.48678115244E+01  0.31147807626E+02 -0.86343527828E+00  0.31537708060E+02  0.51100000000E-03 0. -1.
        -11    1    3    3    0    0 -0.94188591534E+01  0.75815797263E+01  0.10037883390E+02  0.15714781644E+02  0.51100000000E-03 0.  1.
         12    1    3    3    0    0 -0.47157193695E+00 -0.25352091769E+01  0.20211309269E+01  0.32763754190E+01  0.00000000000E+00 0. -1.
</event>
<event>
 7    1  0.5068291E-011  0.5052886E+02  0.7816164E-02  0.1300439E+00
        -11   -1    0    0    0    0  0.00000000000E+00  0.00000000000E+00  0.45593999997E+02  0.45594000000E+02  0.51100000000E-03 0.  1.
         11   -1    0    0    0    0 -0.00000000000E+00 -0.00000000000E+00 -0.45593999997E+02  0.45594000000E+02  0.51100000000E-03 0. -1.
    9900012    2    1    2    0    0 -0.39769872977E+02 -0.20783525981E+01 -0.81977738437E+01  0.50528857828E+02  0.29999993854E+02 0.  0.
        -12    1    1    2    0    0  0.39769872977E+02  0.20783525981E+01  0.81977738437E+01  0.40659142172E+02  0.00000000000E+00 0.  1.
         11    1    3    3    0    0 -0.17649312973E+02 -0.13510542364E+02 -0.81671384223E+01  0.23679846995E+02  0.51100000000E-03 0. -1.
        -11    1    3    3    0    0 -0.62767354227E+01  0.46699715408E+01 -0.45356476397E+01  0.90431267563E+01  0.51100000000E-03 0.  1.
         12    1    3    3    0    0 -0.15843824581E+02  0.67622182254E+01  0.45050122182E+01  0.17805884077E+02  0.00000000000E+00 0. -1.
</event>
<event>
 7    1  0.5068291E-011  0.5052886E+02  0.7816164E-02  0.1300439E+00
        -11   -1    0    0    0    0  0.00000000000E+00  0.00000000000E+00  0.45593999997E+02  0.45594000000E+02  0.51100000000E-03 0. -1.
         11   -1    0    0    0    0 -0.00000000000E+00 -0.00000000000E+00 -0.45593999997E+02  0.45594000000E+02  0.51100000000E-03 0.  1.
    9900012    2    1    2    0    0 -0.28280272269E+02 -0.28484481548E+02  0.64827326863E+01  0.50528864351E+02  0.30000013680E+02 0.  0.
        -12    1    1    2    0    0  0.28280272269E+02  0.28484481548E+02 -0.64827326863E+01  0.40659135649E+02  0.00000000000E+00 0.  1.
         11    1    3    3    0    0 -0.32722435599E+01 -0.10523858656E+02  0.12984672846E+02  0.17031174596E+02  0.51100000000E-03 0. -1.
        -11    1    3    3    0    0 -0.28410554845E+01 -0.46869647057E+01 -0.53126608611E+01  0.76330596817E+01  0.51100000000E-03 0.  1.
         12    1    3    3    0    0 -0.22166973225E+02 -0.13273658186E+02 -0.11892792985E+01  0.25864630073E+02  0.00000000000E+00 0. -1.
</event>
<event>
 7    1  0.5068291E-011  0.5052882E+02  0.7816164E-02  0.1300439E+00
        -11   -1    0    0    0    0  0.00000000000E+00  0.00000000000E+00  0.45593999997E+02  0.45594000000E+02  0.51100000000E-03 0. -1.
         11   -1    0    0    0    0 -0.00000000000E+00 -0.00000000000E+00 -0.45593999997E+02  0.45594000000E+02  0.51100000000E-03 0.  1.
    9900012    2    1    2    0    0 -0.25140227671E+02  0.10532873074E+02  0.30169456472E+02  0.50528824328E+02  0.29999892026E+02 0.  0.
        -12    1    1    2    0    0  0.25140227671E+02 -0.10532873074E+02 -0.30169456472E+02  0.40659175672E+02  0.00000000000E+00 0.  1.
         11    1    3    3    0    0 -0.64165906431E+01 -0.52619271002E+01 -0.21176208660E+01  0.85641596600E+01  0.51100000000E-03 0.  1.
        -11    1    3    3    0    0 -0.23671307906E+01  0.84315244504E+01  0.12432738444E+02  0.15207461925E+02  0.51100000000E-03 0. -1.
         12    1    3    3    0    0 -0.16356506238E+02  0.73632757237E+01  0.19854338894E+02  0.26757202742E+02  0.00000000000E+00 0. -1.
</event>
<event>
 7    1  0.5068291E-011  0.5052883E+02  0.7816164E-02  0.1300439E+00
        -11   -1    0    0    0    0  0.00000000000E+00  0.00000000000E+00  0.45593999997E+02  0.45594000000E+02  0.51100000000E-03 0.  1.
         11   -1    0    0    0    0 -0.00000000000E+00 -0.00000000000E+00 -0.45593999997E+02  0.45594000000E+02  0.51100000000E-03 0. -1.
    9900012    2    1    2    0    0 -0.14172346350E+02 -0.35032351687E+02  0.15001573360E+02  0.50528827984E+02  0.29999903140E+02 0.  0.
        -12    1    1    2    0    0  0.14172346350E+02  0.35032351687E+02 -0.15001573360E+02  0.40659172016E+02  0.00000000000E+00 0.  1.
         11    1    3    3    0    0 -0.93531759684E+01 -0.38283451499E+00  0.63166225687E+01  0.11292837726E+02  0.51100000000E-03 0. -1.
        -11    1    3    3    0    0 -0.94202023962E+00 -0.23870399367E+02  0.12752959494E+02  0.27079906650E+02  0.51100000000E-03 0.  1.
         12    1    3    3    0    0 -0.38771501416E+01 -0.10779117805E+02 -0.40680087035E+01  0.12156083608E+02  0.00000000000E+00 0. -1.
</event>
<event>
 7    1  0.5068291E-011  0.5052886E+02  0.7816164E-02  0.1300439E+00
        -11   -1    0    0    0    0  0.00000000000E+00  0.00000000000E+00  0.45593999997E+02  0.45594000000E+02  0.51100000000E-03 0. -1.
         11   -1    0    0    0    0 -0.00000000000E+00 -0.00000000000E+00 -0.45593999997E+02  0.45594000000E+02  0.51100000000E-03 0.  1.
    9900012    2    1    2    0    0  0.20642207178E+02  0.23187442400E+02  0.26256571233E+02  0.50528859144E+02  0.29999997854E+02 0.  0.
        -12    1    1    2    0    0 -0.20642207178E+02 -0.23187442400E+02 -0.26256571233E+02  0.40659140856E+02  0.00000000000E+00 0.  1.
         11    1    3    3    0    0  0.17883170151E+02  0.10851541249E+02  0.26227923820E+02  0.33547991151E+02  0.51100000000E-03 0. -1.
        -11    1    3    3    0    0  0.36983331887E+00  0.52411525536E+01 -0.55515634656E+01  0.76437107446E+01  0.51100000000E-03 0.  1.
         12    1    3    3    0    0  0.23892037087E+01  0.70947485978E+01  0.55802108786E+01  0.93371572482E+01  0.00000000000E+00 0. -1.
</event>
<event>
 7    1  0.5068291E-011  0.5052886E+02  0.7816164E-02  0.1300439E+00
        -11   -1    0    0    0    0  0.00000000000E+00  0.00000000000E+00  0.45593999997E+02  0.45594000000E+02  0.51100000000E-03 0.  1.
         11   -1    0    0    0    0 -0.00000000000E+00 -0.00000000000E+00 -0.45593999997E+02  0.45594000000E+02  0.51100000000E-03 0. -1.
    9900012    2    1    2    0    0  0.27616988637E+02  0.19266619376E+02 -0.22787388568E+02  0.50528858822E+02  0.29999996876E+02 0.  0.
        -12    1    1    2    0    0 -0.27616988637E+02 -0.19266619376E+02  0.22787388568E+02  0.40659141178E+02  0.00000000000E+00 0.  1.
         11    1    3    3    0    0 -0.21647948605E+00  0.33989901299E+01 -0.58603771054E+00  0.34559279116E+01  0.51100000000E-03 0. -1.
        -11    1    3    3    0    0  0.10053795905E+02  0.13903203851E+02  0.16751290498E+01  0.17239023958E+02  0.51100000000E-03 0.  1.
        -12    1    3    3    0    0  0.17779672217E+02  0.19644253955E+01 -0.23876479908E+02  0.29833906953E+02  0.00000000000E+00 0.  1.
</event>
<event>
 7    1  0.5068291E-011  0.5052886E+02  0.7816164E-02  0.1300439E+00
        -11   -1    0    0    0    0  0.00000000000E+00  0.00000000000E+00  0.45593999997E+02  0.45594000000E+02  0.51100000000E-03 0. -1.
         11   -1    0    0    0    0 -0.00000000000E+00 -0.00000000000E+00 -0.45593999997E+02  0.45594000000E+02  0.51100000000E-03 0.  1.
    9900012    2    1    2    0    0  0.20362013710E+02  0.34972522885E+02  0.39340831281E+01  0.50528856264E+02  0.29999989099E+02 0.  0.
        -12    1    1    2    0    0 -0.20362013710E+02 -0.34972522885E+02 -0.39340831281E+01  0.40659143736E+02  0.00000000000E+00 0.  1.
         11    1    3    3    0    0  0.55640806209E+01  0.32848514188E+01  0.16794706780E+01  0.66760665080E+01  0.51100000000E-03 0. -1.
        -11    1    3    3    0    0  0.16076816486E+00  0.22904552456E+02 -0.76113460595E+01  0.24136631055E+02  0.51100000000E-03 0.  1.
        -12    1    3    3    0    0  0.14637164925E+02  0.87831190108E+01  0.98659585096E+01  0.19716158700E+02  0.00000000000E+00 0.  1.
</event>
<event>
 7    1  0.5068291E-011  0.5052888E+02  0.7816164E-02  0.1300439E+00
        -11   -1    0    0    0    0  0.00000000000E+00  0.00000000000E+00  0.45593999997E+02  0.45594000000E+02  0.51100000000E-03 0.  1.
         11   -1    0    0    0    0 -0.00000000000E+00 -0.00000000000E+00 -0.45593999997E+02  0.45594000000E+02  0.51100000000E-03 0. -1.
    9900012    2    1    2    0    0 -0.17090769965E+01 -0.17816988446E+02 -0.36507508881E+02  0.50528877701E+02  0.30000054259E+02 0.  0.
        -12    1    1    2    0    0  0.17090769965E+01  0.17816988446E+02  0.36507508881E+02  0.40659122299E+02  0.00000000000E+00 0.  1.
         11    1    3    3    0    0 -0.18600149641E+00 -0.11385350410E+02 -0.31944123383E+02  0.33912944719E+02  0.51100000000E-03 0. -1.
        -11    1    3    3    0    0  0.59923053870E+01 -0.23023787590E+01  0.84950770003E+00  0.64753637268E+01  0.51100000000E-03 0.  1.
        -12    1    3    3    0    0 -0.75153808871E+01 -0.41292592768E+01 -0.54128931978E+01  0.10140569255E+02  0.00000000000E+00 0.  1.
</event>
<event>
 7    1  0.5068291E-011  0.5052886E+02  0.7816164E-02  0.1300439E+00
        -11   -1    0    0    0    0  0.00000000000E+00  0.00000000000E+00  0.45593999997E+02  0.45594000000E+02  0.51100000000E-03 0. -1.
         11   -1    0    0    0    0 -0.00000000000E+00 -0.00000000000E+00 -0.45593999997E+02  0.45594000000E+02  0.51100000000E-03 0.  1.
    9900012    2    1    2    0    0 -0.39059481368E+02 -0.33328150316E+01  0.10789577693E+02  0.50528859237E+02  0.29999998138E+02 0.  0.
        -12    1    1    2    0    0  0.39059481368E+02  0.33328150316E+01 -0.10789577693E+02  0.40659140763E+02  0.00000000000E+00 0.  1.
         11    1    3    3    0    0 -0.83554262408E+01  0.51249915952E+01  0.17633269661E+01  0.99593176858E+01  0.51100000000E-03 0. -1.
        -11    1    3    3    0    0 -0.31600334739E+02 -0.63643576431E+01  0.13965914486E+02  0.35130228743E+02  0.51100000000E-03 0.  1.
        -12    1    3    3    0    0  0.89627961209E+00 -0.20934489836E+01 -0.49396637584E+01  0.54393128092E+01  0.00000000000E+00 0.  1.
</event>
<event>
 7    1  0.5068291E-011  0.5052886E+02  0.7816164E-02  0.1300439E+00
        -11   -1    0    0    0    0  0.00000000000E+00  0.00000000000E+00  0.45593999997E+02  0.45594000000E+02  0.51100000000E-03 0.  1.
         11   -1    0    0    0    0 -0.00000000000E+00 -0.00000000000E+00 -0.45593999997E+02  0.45594000000E+02  0.51100000000E-03 0. -1.
    9900012    2    1    2    0    0 -0.97286361911E+00  0.80651989239E+01 -0.39839320470E+02  0.50528863845E+02  0.30000012144E+02 0.  0.
        -12    1    1    2    0    0  0.97286361911E+00 -0.80651989239E+01  0.39839320470E+02  0.40659136155E+02  0.00000000000E+00 0.  1.
         11    1    3    3    0    0 -0.10449482860E+02  0.40178902898E+01 -0.30750601577E+02  0.32725137617E+02  0.51100000000E-03 0. -1.
        -11    1    3    3    0    0  0.40999764326E+01  0.54728399949E+00  0.22996596684E+01  0.47326273227E+01  0.51100000000E-03 0.  1.
        -12    1    3    3    0    0  0.53766428086E+01  0.35000246346E+01 -0.11388378562E+02  0.13071098906E+02  0.00000000000E+00 0.  1.
</event>
<event>
 7    1  0.5068291E-011  0.5052887E+02  0.7816164E-02  0.1300439E+00
        -11   -1    0    0    0    0  0.00000000000E+00  0.00000000000E+00  0.45593999997E+02  0.45594000000E+02  0.51100000000E-03 0. -1.
         11   -1    0    0    0    0 -0.00000000000E+00 -0.00000000000E+00 -0.45593999997E+02  0.45594000000E+02  0.51100000000E-03 0.  1.
    9900012    2    1    2    0    0  0.14928147444E+02 -0.17708374522E+02  0.33417497114E+02  0.50528865385E+02  0.30000016824E+02 0.  0.
        -12    1    1    2    0    0 -0.14928147444E+02  0.17708374522E+02 -0.33417497114E+02  0.40659134615E+02  0.00000000000E+00 0.  1.
         11    1    3    3    0    0  0.15646926868E+02 -0.16802761511E+02  0.21120098585E+02  0.31196436965E+02  0.51100000000E-03 0. -1.
        -11    1    3    3    0    0 -0.22317453020E+01  0.64511208978E+01  0.32110377155E+01  0.75437663937E+01  0.51100000000E-03 0.  1.
        -12    1    3    3    0    0  0.15129658781E+01 -0.73567339087E+01  0.90863608126E+01  0.11788662026E+02  0.00000000000E+00 0.  1.
</event>
<event>
 7    1  0.5068291E-011  0.5052885E+02  0.7816164E-02  0.1300439E+00
        -11   -1    0    0    0    0  0.00000000000E+00  0.00000000000E+00  0.45593999997E+02  0.45594000000E+02  0.51100000000E-03 0.  1.
         11   -1    0    0    0    0 -0.00000000000E+00 -0.00000000000E+00 -0.45593999997E+02  0.45594000000E+02  0.51100000000E-03 0. -1.
    9900012    2    1    2    0    0 -0.18533612620E+01  0.24803282539E+02 -0.32164086433E+02  0.50528853074E+02  0.29999979403E+02 0.  0.
        -12    1    1    2    0    0  0.18533612620E+01 -0.24803282539E+02  0.32164086433E+02  0.40659146926E+02  0.00000000000E+00 0.  1.
         11    1    3    3    0    0 -0.12931809434E+02  0.10637833709E+02 -0.10559970068E+02  0.19796670664E+02  0.51100000000E-03 0. -1.
        -11    1    3    3    0    0  0.37694002477E+01 -0.18345814510E+01 -0.32018164317E+01  0.52750067347E+01  0.51100000000E-03 0.  1.
         12    1    3    3    0    0  0.73090479242E+01  0.16000030281E+02 -0.18402299933E+02  0.25457175676E+02  0.00000000000E+00 0. -1.
</event>
<event>
 7    1  0.5068291E-011  0.5052886E+02  0.7816164E-02  0.1300439E+00
        -11   -1    0    0    0    0  0.00000000000E+00  0.00000000000E+00  0.45593999997E+02  0.45594000000E+02  0.51100000000E-03 0.  1.
         11   -1    0    0    0    0 -0.00000000000E+00 -0.00000000000E+00 -0.45593999997E+02  0.45594000000E+02  0.51100000000E-03 0. -1.
    9900012    2    1    2    0    0  0.49886486663E+01  0.22759311711E+01 -0.40287704646E+02  0.50528860512E+02  0.30000002014E+02 0.  0.
        -12    1    1    2    0    0 -0.49886486663E+01 -0.22759311711E+01  0.40287704646E+02  0.40659139488E+02  0.00000000000E+00 0.  1.
         11    1    3    3    0    0  0.90220149787E+01 -0.83465498435E+01 -0.60849117464E+01  0.13714510556E+02  0.51100000000E-03 0. -1.
        -11    1    3    3    0    0 -0.25237854917E+01  0.10626255750E+02 -0.22458189638E+02  0.24973127288E+02  0.51100000000E-03 0.  1.
         12    1    3    3    0    0 -0.15095808208E+01 -0.37747357614E-02 -0.11744603262E+02  0.11841222669E+02  0.00000000000E+00 0. -1.
</event>
<event>
 7    1  0.5068291E-011  0.5052887E+02  0.7816164E-02  0.1300439E+00
        -11   -1    0    0    0    0  0.00000000000E+00  0.00000000000E+00  0.45593999997E+02  0.45594000000E+02  0.51100000000E-03 0.  1.
         11   -1    0    0    0    0 -0.00000000000E+00 -0.00000000000E+00 -0.45593999997E+02  0.45594000000E+02  0.51100000000E-03 0. -1.
    9900012    2    1    2    0    0 -0.34332511085E+01  0.59700291015E+01 -0.40071644160E+02  0.50528866631E+02  0.30000020612E+02 0.  0.
        -12    1    1    2    0    0  0.34332511085E+01 -0.59700291015E+01  0.40071644160E+02  0.40659133369E+02  0.00000000000E+00 0.  1.
         11    1    3    3    0    0 -0.99279356067E+01 -0.44741375358E+00 -0.38076132365E+02  0.39351695524E+02  0.51100000000E-03 0. -1.
        -11    1    3    3    0    0  0.43482656246E+01  0.71908165791E+01 -0.26367884390E+01  0.88072646462E+01  0.51100000000E-03 0.  1.
        -12    1    3    3    0    0  0.21464188736E+01 -0.77337372397E+00  0.64127664427E+00  0.23699064607E+01  0.00000000000E+00 0.  1.
</event>
<event>
 7    1  0.5068291E-011  0.5052886E+02  0.7816164E-02  0.1300439E+00
        -11   -1    0    0    0    0  0.00000000000E+00  0.00000000000E+00  0.45593999997E+02  0.45594000000E+02  0.51100000000E-03 0.  1.
         11   -1    0    0    0    0 -0.00000000000E+00 -0.00000000000E+00 -0.45593999997E+02  0.45594000000E+02  0.51100000000E-03 0. -1.
    9900012    2    1    2    0    0 -0.91250153080E+01  0.34298854285E+02 -0.19836532970E+02  0.50528863882E+02  0.30000012255E+02 0.  0.
        -12    1    1    2    0    0  0.91250153080E+01 -0.34298854285E+02  0.19836532970E+02  0.40659136118E+02  0.00000000000E+00 0.  1.
         11    1    3    3    0    0 -0.27916711567E+01  0.31672546437E+01 -0.62647745165E+01  0.75546230766E+01  0.51100000000E-03 0. -1.
        -11    1    3    3    0    0 -0.73468077394E+01  0.14751263708E+02  0.59044195835E+01  0.17505357346E+02  0.51100000000E-03 0.  1.
        -12    1    3    3    0    0  0.10134635881E+01  0.16380335933E+02 -0.19476178037E+02  0.25468883459E+02  0.00000000000E+00 0.  1.
</event>
<event>
 7    1  0.5068291E-011  0.5052886E+02  0.7816164E-02  0.1300439E+00
        -11   -1    0    0    0    0  0.00000000000E+00  0.00000000000E+00  0.45593999997E+02  0.45594000000E+02  0.51100000000E-03 0.  1.
         11   -1    0    0    0    0 -0.00000000000E+00 -0.00000000000E+00 -0.45593999997E+02  0.45594000000E+02  0.51100000000E-03 0. -1.
    9900012    2    1    2    0    0 -0.14120608194E+02  0.30836572343E+02 -0.22424983386E+02  0.50528860197E+02  0.30000001054E+02 0.  0.
        -12    1    1    2    0    0  0.14120608194E+02 -0.30836572343E+02  0.22424983386E+02  0.40659139803E+02  0.00000000000E+00 0.  1.
         11    1    3    3    0    0 -0.33105332740E+01  0.97410688085E+01 -0.52751440634E+01  0.11561799049E+02  0.51100000000E-03 0. -1.
        -11    1    3    3    0    0 -0.17188818080E+01  0.32141898294E+01  0.68066774086E+01  0.77211675630E+01  0.51100000000E-03 0.  1.
        -12    1    3    3    0    0 -0.90911931124E+01  0.17881313705E+02 -0.23956516731E+02  0.31245893585E+02  0.00000000000E+00 0.  1.
</event>
<event>
 7    1  0.5068291E-011  0.5052886E+02  0.7816164E-02  0.1300439E+00
        -11   -1    0    0    0    0  0.00000000000E+00  0.00000000000E+00  0.45593999997E+02  0.45594000000E+02  0.51100000000E-03 0.  1.
         11   -1    0    0    0    0 -0.00000000000E+00 -0.00000000000E+00 -0.45593999997E+02  0.45594000000E+02  0.51100000000E-03 0. -1.
    9900012    2    1    2    0    0 -0.37732344799E+02 -0.53881525033E+01 -0.14156402371E+02  0.50528858844E+02  0.29999996944E+02 0.  0.
        -12    1    1    2    0    0  0.37732344799E+02  0.53881525033E+01  0.14156402371E+02  0.40659141156E+02  0.00000000000E+00 0.  1.
         11    1    3    3    0    0 -0.21472528231E+02 -0.92127650354E+01 -0.12752084880E+02  0.26618793686E+02  0.51100000000E-03 0. -1.
        -11    1    3    3    0    0 -0.14896999463E+02  0.56427984638E+01  0.53337956968E+01  0.16799141177E+02  0.51100000000E-03 0.  1.
        -12    1    3    3    0    0 -0.13628171051E+01 -0.18181859317E+01 -0.67381131872E+01  0.71109239813E+01  0.00000000000E+00 0.  1.
</event>
<event>
 7    1  0.5068291E-011  0.5052887E+02  0.7816164E-02  0.1300439E+00
        -11   -1    0    0    0    0  0.00000000000E+00  0.00000000000E+00  0.45593999997E+02  0.45594000000E+02  0.51100000000E-03 0.  1.
         11   -1    0    0    0    0 -0.00000000000E+00 -0.00000000000E+00 -0.45593999997E+02  0.45594000000E+02  0.51100000000E-03 0. -1.
    9900012    2    1    2    0    0  0.24816805747E+02  0.16041550509E+02 -0.27927761793E+02  0.50528867336E+02  0.30000022755E+02 0.  0.
        -12    1    1    2    0    0 -0.24816805747E+02 -0.16041550509E+02  0.27927761793E+02  0.40659132664E+02  0.00000000000E+00 0.  1.
         11    1    3    3    0    0  0.11343767734E+02  0.18620338507E+02 -0.55867695613E+01  0.22508000065E+02  0.51100000000E-03 0. -1.
        -11    1    3    3    0    0  0.67980934764E+00 -0.35858498765E+01 -0.78972454520E+01  0.86998244854E+01  0.51100000000E-03 0.  1.
         12    1    3    3    0    0  0.12793228666E+02  0.10070618786E+01 -0.14443746779E+02  0.19321042786E+02  0.00000000000E+00 0. -1.
</event>
<event>
 7    1  0.5068291E-011  0.5052885E+02  0.7816164E-02  0.1300439E+00
        -11   -1    0    0    0    0  0.00000000000E+00  0.00000000000E+00  0.45593999997E+02  0.45594000000E+02  0.51100000000E-03 0.  1.
         11   -1    0    0    0    0 -0.00000000000E+00 -0.00000000000E+00 -0.45593999997E+02  0.45594000000E+02  0.51100000000E-03 0. -1.
    9900012    2    1    2    0    0 -0.14756171349E+02 -0.12084430407E+02 -0.35908050990E+02  0.50528853710E+02  0.29999981337E+02 0.  0.
        -12    1    1    2    0    0  0.14756171349E+02  0.12084430407E+02  0.35908050990E+02  0.40659146290E+02  0.00000000000E+00 0.  1.
         11    1    3    3    0    0  0.56073618684E+01 -0.18885317245E+01 -0.90371150811E+01  0.10801782651E+02  0.51100000000E-03 0. -1.
        -11    1    3    3    0    0 -0.15434319348E+02 -0.44565325948E+01 -0.27796727267E+02  0.32105092175E+02  0.51100000000E-03 0.  1.
        -12    1    3    3    0    0 -0.49292138695E+01 -0.57393660881E+01  0.92579135874E+00  0.76219788837E+01  0.00000000000E+00 0.  1.
</event>
<event>
 7    1  0.5068291E-011  0.5052887E+02  0.7816164E-02  0.1300439E+00
        -11   -1    0    0    0    0  0.00000000000E+00  0.00000000000E+00  0.45593999997E+02  0.45594000000E+02  0.51100000000E-03 0.  1.
         11   -1    0    0    0    0 -0.00000000000E+00 -0.00000000000E+00 -0.45593999997E+02  0.45594000000E+02  0.51100000000E-03 0. -1.
    9900012    2    1    2    0    0  0.27517428508E+02 -0.11297845202E+02 -0.27718491319E+02  0.50528868936E+02  0.30000027617E+02 0.  0.
        -12    1    1    2    0    0 -0.27517428508E+02  0.11297845202E+02  0.27718491319E+02  0.40659131064E+02  0.00000000000E+00 0.  1.
         11    1    3    3    0    0  0.19444617685E+02 -0.11479254317E+02 -0.62898487508E+01  0.23439894073E+02  0.51100000000E-03 0. -1.
        -11    1    3    3    0    0  0.73813210691E+01  0.60791849321E+01 -0.82313792575E+01  0.12617289523E+02  0.51100000000E-03 0.  1.
        -12    1    3    3    0    0  0.69148975388E+00 -0.58977758174E+01 -0.13197263311E+02  0.14471685339E+02  0.00000000000E+00 0.  1.
</event>
<event>
 7    1  0.5068291E-011  0.5052886E+02  0.7816164E-02  0.1300439E+00
        -11   -1    0    0    0    0  0.00000000000E+00  0.00000000000E+00  0.45593999997E+02  0.45594000000E+02  0.51100000000E-03 0.  1.
         11   -1    0    0    0    0 -0.00000000000E+00 -0.00000000000E+00 -0.45593999997E+02  0.45594000000E+02  0.51100000000E-03 0. -1.
    9900012    2    1    2    0    0 -0.24493684934E+02 -0.74743327173E+01 -0.31580994290E+02  0.50528862632E+02  0.30000008455E+02 0.  0.
        -12    1    1    2    0    0  0.24493684934E+02  0.74743327173E+01  0.31580994290E+02  0.40659137368E+02  0.00000000000E+00 0.  1.
         11    1    3    3    0    0 -0.89758973238E+01 -0.24354104680E+01 -0.21787604670E+02  0.23689611108E+02  0.51100000000E-03 0. -1.
        -11    1    3    3    0    0 -0.68021374990E+01  0.60059620402E+01  0.96846578365E+00  0.91257098803E+01  0.51100000000E-03 0.  1.
        -12    1    3    3    0    0 -0.87156501113E+01 -0.11044884290E+02 -0.10761855403E+02  0.17713541643E+02  0.00000000000E+00 0.  1.
</event>
<event>
 7    1  0.5068291E-011  0.5052890E+02  0.7816164E-02  0.1300439E+00
        -11   -1    0    0    0    0  0.00000000000E+00  0.00000000000E+00  0.45593999997E+02  0.45594000000E+02  0.51100000000E-03 0.  1.
         11   -1    0    0    0    0 -0.00000000000E+00 -0.00000000000E+00 -0.45593999997E+02  0.45594000000E+02  0.51100000000E-03 0. -1.
    9900012    2    1    2    0    0  0.34808553131E+02  0.85606674526E+01  0.19189639950E+02  0.50528896718E+02  0.30000112063E+02 0.  0.
        -12    1    1    2    0    0 -0.34808553131E+02 -0.85606674526E+01 -0.19189639950E+02  0.40659103282E+02  0.00000000000E+00 0.  1.
         11    1    3    3    0    0  0.23209524435E+02  0.16328495368E+02  0.17529314573E+02  0.33355339229E+02  0.51100000000E-03 0. -1.
        -11    1    3    3    0    0  0.10698028718E+02 -0.31977958355E+01 -0.18799188740E+01  0.11322888849E+02  0.51100000000E-03 0.  1.
         12    1    3    3    0    0  0.90099997897E+00 -0.45700320796E+01  0.35402442511E+01  0.58506686394E+01  0.00000000000E+00 0. -1.
</event>
<event>
 7    1  0.5068291E-011  0.5052887E+02  0.7816164E-02  0.1300439E+00
        -11   -1    0    0    0    0  0.00000000000E+00  0.00000000000E+00  0.45593999997E+02  0.45594000000E+02  0.51100000000E-03 0.  1.
         11   -1    0    0    0    0 -0.00000000000E+00 -0.00000000000E+00 -0.45593999997E+02  0.45594000000E+02  0.51100000000E-03 0. -1.
    9900012    2    1    2    0    0  0.36956263034E+01 -0.36309227162E+02 -0.17920572590E+02  0.50528873684E+02  0.30000042049E+02 0.  0.
        -12    1    1    2    0    0 -0.36956263034E+01  0.36309227162E+02  0.17920572590E+02  0.40659126316E+02  0.00000000000E+00 0.  1.
         11    1    3    3    0    0  0.58373125504E+01 -0.26639849406E+02 -0.31867231826E+01  0.27457439777E+02  0.51100000000E-03 0. -1.
        -11    1    3    3    0    0  0.51265750465E+01 -0.23390143863E-01 -0.71925570134E+01  0.88326210979E+01  0.51100000000E-03 0.  1.
         12    1    3    3    0    0 -0.72682612936E+01 -0.96459876114E+01 -0.75412923942E+01  0.14238812809E+02  0.00000000000E+00 0. -1.
</event>
<event>
 7    1  0.5068291E-011  0.5052886E+02  0.7816164E-02  0.1300439E+00
        -11   -1    0    0    0    0  0.00000000000E+00  0.00000000000E+00  0.45593999997E+02  0.45594000000E+02  0.51100000000E-03 0. -1.
         11   -1    0    0    0    0 -0.00000000000E+00 -0.00000000000E+00 -0.45593999997E+02  0.45594000000E+02  0.51100000000E-03 0.  1.
    9900012    2    1    2    0    0 -0.24401339061E+02  0.31712106158E+02 -0.72168286382E+01  0.50528860307E+02  0.30000001390E+02 0.  0.
        -12    1    1    2    0    0  0.24401339061E+02 -0.31712106158E+02  0.72168286382E+01  0.40659139693E+02  0.00000000000E+00 0.  1.
         11    1    3    3    0    0 -0.18712544906E+02  0.26188248251E+02 -0.13227710719E+02  0.34798793290E+02  0.51100000000E-03 0. -1.
        -11    1    3    3    0    0 -0.61455528614E+01 -0.23963798953E+01  0.24919412710E+01  0.70512572024E+01  0.51100000000E-03 0.  1.
         12    1    3    3    0    0  0.45675870714E+00  0.79202378030E+01  0.35189408101E+01  0.86788098145E+01  0.00000000000E+00 0. -1.
</event>
<event>
 7    1  0.5068291E-011  0.5052890E+02  0.7816164E-02  0.1300439E+00
        -11   -1    0    0    0    0  0.00000000000E+00  0.00000000000E+00  0.45593999997E+02  0.45594000000E+02  0.51100000000E-03 0.  1.
         11   -1    0    0    0    0 -0.00000000000E+00 -0.00000000000E+00 -0.45593999997E+02  0.45594000000E+02  0.51100000000E-03 0. -1.
    9900012    2    1    2    0    0  0.11134175533E+02 -0.37818489470E+02 -0.99475664815E+01  0.50528903976E+02  0.30000134125E+02 0.  0.
        -12    1    1    2    0    0 -0.11134175533E+02  0.37818489470E+02  0.99475664815E+01  0.40659096024E+02  0.00000000000E+00 0.  1.
         11    1    3    3    0    0 -0.46495218746E+00  0.79468525413E+00 -0.77220956718E+01  0.77767902772E+01  0.51100000000E-03 0. -1.
        -11    1    3    3    0    0  0.62593562295E+01 -0.16973973498E+02  0.58997277771E+01  0.19028980657E+02  0.51100000000E-03 0.  1.
         12    1    3    3    0    0  0.53397714906E+01 -0.21639201226E+02 -0.81251985869E+01  0.23723133042E+02  0.00000000000E+00 0. -1.
</event>
<event>
 7    1  0.5068291E-011  0.5052897E+02  0.7816164E-02  0.1300438E+00
        -11   -1    0    0    0    0  0.00000000000E+00  0.00000000000E+00  0.45593999997E+02  0.45594000000E+02  0.51100000000E-03 0.  1.
         11   -1    0    0    0    0 -0.00000000000E+00 -0.00000000000E+00 -0.45593999997E+02  0.45594000000E+02  0.51100000000E-03 0. -1.
    9900012    2    1    2    0    0  0.52252481701E+01  0.40248248795E+02 -0.24356179809E+01  0.50528966754E+02  0.30000324945E+02 0.  0.
        -12    1    1    2    0    0 -0.52252481701E+01 -0.40248248795E+02  0.24356179809E+01  0.40659033246E+02  0.00000000000E+00 0.  1.
         11    1    3    3    0    0 -0.87875380549E+01  0.23903082172E+02 -0.43696484632E+01  0.25839349650E+02  0.51100000000E-03 0. -1.
        -11    1    3    3    0    0  0.14322253228E+02  0.83289555752E+01  0.18089953479E+01  0.16666460420E+02  0.51100000000E-03 0.  1.
        -12    1    3    3    0    0 -0.30946700346E+00  0.80162110483E+01  0.12503513441E+00  0.80231566843E+01  0.00000000000E+00 0.  1.
</event>
<event>
 7    1  0.5068291E-011  0.5052886E+02  0.7816164E-02  0.1300439E+00
        -11   -1    0    0    0    0  0.00000000000E+00  0.00000000000E+00  0.45593999997E+02  0.45594000000E+02  0.51100000000E-03 0. -1.
         11   -1    0    0    0    0 -0.00000000000E+00 -0.00000000000E+00 -0.45593999997E+02  0.45594000000E+02  0.51100000000E-03 0.  1.
    9900012    2    1    2    0    0  0.20323695161E+02  0.31860492608E+02  0.15000741726E+02  0.50528858020E+02  0.29999994436E+02 0.  0.
        -12    1    1    2    0    0 -0.20323695161E+02 -0.31860492608E+02 -0.15000741726E+02  0.40659141980E+02  0.00000000000E+00 0.  1.
         11    1    3    3    0    0  0.12766189844E+02  0.26933363970E+02  0.17852458095E+02  0.34743228954E+02  0.51100000000E-03 0. -1.
        -11    1    3    3    0    0  0.48155158452E+01  0.45428958953E+01 -0.77293516617E+01  0.10176933396E+02  0.51100000000E-03 0.  1.
         12    1    3    3    0    0  0.27419894722E+01  0.38423274317E+00  0.48776352929E+01  0.56086956699E+01  0.00000000000E+00 0. -1.
</event>
<event>
 7    1  0.5068291E-011  0.5052885E+02  0.7816164E-02  0.1300439E+00
        -11   -1    0    0    0    0  0.00000000000E+00  0.00000000000E+00  0.45593999997E+02  0.45594000000E+02  0.51100000000E-03 0.  1.
         11   -1    0    0    0    0 -0.00000000000E+00 -0.00000000000E+00 -0.45593999997E+02  0.45594000000E+02  0.51100000000E-03 0. -1.
    9900012    2    1    2    0    0 -0.13926701925E+02  0.72426798083E+01 -0.37506754672E+02  0.50528854862E+02  0.29999984839E+02 0.  0.
        -12    1    1    2    0    0  0.13926701925E+02 -0.72426798083E+01  0.37506754672E+02  0.40659145138E+02  0.00000000000E+00 0.  1.
         11    1    3    3    0    0 -0.82665916498E+01  0.68177012017E+01 -0.40066806749E+02  0.41474891084E+02  0.51100000000E-03 0. -1.
        -11    1    3    3    0    0 -0.38754550664E+01 -0.29221869862E+01  0.10181154808E+01  0.49593233558E+01  0.51100000000E-03 0.  1.
         12    1    3    3    0    0 -0.17846552085E+01  0.33471655928E+01  0.15419365955E+01  0.40946404217E+01  0.00000000000E+00 0. -1.
</event>
<event>
 7    1  0.5068291E-011  0.5052886E+02  0.7816164E-02  0.1300439E+00
        -11   -1    0    0    0    0  0.00000000000E+00  0.00000000000E+00  0.45593999997E+02  0.45594000000E+02  0.51100000000E-03 0. -1.
         11   -1    0    0    0    0 -0.00000000000E+00 -0.00000000000E+00 -0.45593999997E+02  0.45594000000E+02  0.51100000000E-03 0.  1.
    9900012    2    1    2    0    0 -0.12519832863E+02 -0.26136004998E+01  0.38595184941E+02  0.50528862981E+02  0.30000009518E+02 0.  0.
        -12    1    1    2    0    0  0.12519832863E+02  0.26136004998E+01 -0.38595184941E+02  0.40659137019E+02  0.00000000000E+00 0.  1.
         11    1    3    3    0    0 -0.32052420125E+01  0.10715911720E+02  0.17949963408E+02  0.21149598742E+02  0.51100000000E-03 0. -1.
        -11    1    3    3    0    0  0.89398250255E+00 -0.85742625744E+01  0.45855075288E+01  0.97644284507E+01  0.51100000000E-03 0.  1.
         12    1    3    3    0    0 -0.10208573353E+02 -0.47552496458E+01  0.16059714004E+02  0.19614835788E+02  0.00000000000E+00 0. -1.
</event>
<event>
 7    1  0.5068291E-011  0.5052888E+02  0.7816164E-02  0.1300439E+00
        -11   -1    0    0    0    0  0.00000000000E+00  0.00000000000E+00  0.45593999997E+02  0.45594000000E+02  0.51100000000E-03 0. -1.
         11   -1    0    0    0    0 -0.00000000000E+00 -0.00000000000E+00 -0.45593999997E+02  0.45594000000E+02  0.51100000000E-03 0.  1.
    9900012    2    1    2    0    0  0.30210864283E+02  0.23659994766E+02  0.13441442675E+02  0.50528879815E+02  0.30000060685E+02 0.  0.
        -12    1    1    2    0    0 -0.30210864283E+02 -0.23659994766E+02 -0.13441442675E+02  0.40659120185E+02  0.00000000000E+00 0.  1.
         11    1    3    3    0    0  0.19054667516E+02  0.19597232675E+02  0.12519853394E+02  0.30064574035E+02  0.51100000000E-03 0. -1.
        -11    1    3    3    0    0 -0.40968970009E+01  0.52862952116E+00 -0.19135015202E+01  0.45525270494E+01  0.51100000000E-03 0.  1.
        -12    1    3    3    0    0  0.15253093768E+02  0.35341325704E+01  0.28350908012E+01  0.15911778731E+02  0.00000000000E+00 0.  1.
</event>
<event>
 7    1  0.5068291E-011  0.5052886E+02  0.7816164E-02  0.1300439E+00
        -11   -1    0    0    0    0  0.00000000000E+00  0.00000000000E+00  0.45593999997E+02  0.45594000000E+02  0.51100000000E-03 0. -1.
         11   -1    0    0    0    0 -0.00000000000E+00 -0.00000000000E+00 -0.45593999997E+02  0.45594000000E+02  0.51100000000E-03 0.  1.
    9900012    2    1    2    0    0 -0.13924667146E+01  0.40324664843E+02  0.50148097929E+01  0.50528857418E+02  0.29999992609E+02 0.  0.
        -12    1    1    2    0    0  0.13924667146E+01 -0.40324664843E+02 -0.50148097929E+01  0.40659142582E+02  0.00000000000E+00 0.  1.
         11    1    3    3    0    0 -0.47049287381E+01  0.11201260532E+02  0.14199044359E+02  0.18687360780E+02  0.51100000000E-03 0. -1.
        -11    1    3    3    0    0  0.17426350089E+01  0.71166713046E+01 -0.61604156386E+01  0.95725915160E+01  0.51100000000E-03 0.  1.
         12    1    3    3    0    0  0.15698270146E+01  0.22006733006E+02 -0.30238189276E+01  0.22268905123E+02  0.00000000000E+00 0. -1.
</event>
<event>
 7    1  0.5068291E-011  0.5052893E+02  0.7816164E-02  0.1300439E+00
        -11   -1    0    0    0    0  0.00000000000E+00  0.00000000000E+00  0.45593999997E+02  0.45594000000E+02  0.51100000000E-03 0.  1.
         11   -1    0    0    0    0 -0.00000000000E+00 -0.00000000000E+00 -0.45593999997E+02  0.45594000000E+02  0.51100000000E-03 0. -1.
    9900012    2    1    2    0    0  0.24448326123E+01  0.15653063130E+02 -0.37445483590E+02  0.50528931723E+02  0.30000218463E+02 0.  0.
        -12    1    1    2    0    0 -0.24448326123E+01 -0.15653063130E+02  0.37445483590E+02  0.40659068277E+02  0.00000000000E+00 0.  1.
         11    1    3    3    0    0 -0.19582085554E+01  0.18227589899E+02 -0.38878032041E+02  0.42983496715E+02  0.51100000000E-03 0. -1.
        -11    1    3    3    0    0  0.46513250120E+00 -0.20325420767E+00  0.27238634479E+01  0.27707567307E+01  0.51100000000E-03 0.  1.
         12    1    3    3    0    0  0.39379086665E+01 -0.23712725607E+01 -0.12913149978E+01  0.47746782768E+01  0.00000000000E+00 0. -1.
</event>
<event>
 7    1  0.5068291E-011  0.5052886E+02  0.7816164E-02  0.1300439E+00
        -11   -1    0    0    0    0  0.00000000000E+00  0.00000000000E+00  0.45593999997E+02  0.45594000000E+02  0.51100000000E-03 0.  1.
         11   -1    0    0    0    0 -0.00000000000E+00 -0.00000000000E+00 -0.45593999997E+02  0.45594000000E+02  0.51100000000E-03 0. -1.
    9900012    2    1    2    0    0  0.24924894743E+02 -0.43393762980E+01 -0.31828992186E+02  0.50528864395E+02  0.30000013815E+02 0.  0.
        -12    1    1    2    0    0 -0.24924894743E+02  0.43393762980E+01  0.31828992186E+02  0.40659135605E+02  0.00000000000E+00 0.  1.
         11    1    3    3    0    0  0.39285662515E+01  0.49391604684E+01 -0.21786944508E+02  0.22682590024E+02  0.51100000000E-03 0. -1.
        -11    1    3    3    0    0  0.19871197157E+02 -0.55357063825E+01 -0.11568651628E+02  0.23650416960E+02  0.51100000000E-03 0.  1.
         12    1    3    3    0    0  0.11251313337E+01 -0.37428303838E+01  0.15266039498E+01  0.41958574118E+01  0.00000000000E+00 0. -1.
</event>
<event>
 7    1  0.5068291E-011  0.5052887E+02  0.7816164E-02  0.1300439E+00
        -11   -1    0    0    0    0  0.00000000000E+00  0.00000000000E+00  0.45593999997E+02  0.45594000000E+02  0.51100000000E-03 0. -1.
         11   -1    0    0    0    0 -0.00000000000E+00 -0.00000000000E+00 -0.45593999997E+02  0.45594000000E+02  0.51100000000E-03 0.  1.
    9900012    2    1    2    0    0 -0.15853034700E+02 -0.32158513612E+02 -0.19174880968E+02  0.50528871049E+02  0.30000034042E+02 0.  0.
        -12    1    1    2    0    0  0.15853034700E+02  0.32158513612E+02  0.19174880968E+02  0.40659128951E+02  0.00000000000E+00 0.  1.
         11    1    3    3    0    0 -0.21089894692E+02 -0.21682382793E+02 -0.15560337649E+02  0.34015194983E+02  0.51100000000E-03 0. -1.
        -11    1    3    3    0    0  0.21377837573E+01  0.19274574222E+01 -0.22553412354E+01  0.36567438872E+01  0.51100000000E-03 0.  1.
         12    1    3    3    0    0  0.30990762353E+01 -0.12403588241E+02 -0.13592020831E+01  0.12856932179E+02  0.00000000000E+00 0. -1.
</event>
<event>
 7    1  0.5068291E-011  0.5052885E+02  0.7816164E-02  0.1300439E+00
        -11   -1    0    0    0    0  0.00000000000E+00  0.00000000000E+00  0.45593999997E+02  0.45594000000E+02  0.51100000000E-03 0. -1.
         11   -1    0    0    0    0 -0.00000000000E+00 -0.00000000000E+00 -0.45593999997E+02  0.45594000000E+02  0.51100000000E-03 0.  1.
    9900012    2    1    2    0    0 -0.21125727457E+02  0.31439334859E+02  0.14779653875E+02  0.50528852129E+02  0.29999976531E+02 0.  0.
        -12    1    1    2    0    0  0.21125727457E+02 -0.31439334859E+02 -0.14779653875E+02  0.40659147871E+02  0.00000000000E+00 0.  1.
         11    1    3    3    0    0 -0.22767750104E+02  0.35647288088E+02  0.14770159394E+02  0.44802424060E+02  0.51100000000E-03 0. -1.
        -11    1    3    3    0    0  0.83659026532E+00 -0.30901262728E+01  0.16357062708E+01  0.35950380971E+01  0.51100000000E-03 0.  1.
         12    1    3    3    0    0  0.80543238215E+00 -0.11178269564E+01 -0.16262117900E+01  0.21313899720E+01  0.00000000000E+00 0. -1.
</event>
<event>
 7    1  0.5068291E-011  0.5052887E+02  0.7816164E-02  0.1300439E+00
        -11   -1    0    0    0    0  0.00000000000E+00  0.00000000000E+00  0.45593999997E+02  0.45594000000E+02  0.51100000000E-03 0.  1.
         11   -1    0    0    0    0 -0.00000000000E+00 -0.00000000000E+00 -0.45593999997E+02  0.45594000000E+02  0.51100000000E-03 0. -1.
    9900012    2    1    2    0    0  0.17058826326E+01  0.32376722744E+02 -0.24535747662E+02  0.50528866652E+02  0.30000020677E+02 0.  0.
        -12    1    1    2    0    0 -0.17058826326E+01 -0.32376722744E+02  0.24535747662E+02  0.40659133348E+02  0.00000000000E+00 0.  1.
         11    1    3    3    0    0 -0.13076750455E+02  0.12729490962E+02 -0.14087917371E+02  0.23054517101E+02  0.51100000000E-03 0. -1.
        -11    1    3    3    0    0  0.61834760241E+01  0.13352096745E+02 -0.68054511606E+01  0.16211971780E+02  0.51100000000E-03 0.  1.
         12    1    3    3    0    0  0.85991570638E+01  0.62951350371E+01 -0.36423791303E+01  0.11262377772E+02  0.00000000000E+00 0. -1.
</event>
<event>
 7    1  0.5068291E-011  0.5052886E+02  0.7816164E-02  0.1300439E+00
        -11   -1    0    0    0    0  0.00000000000E+00  0.00000000000E+00  0.45593999997E+02  0.45594000000E+02  0.51100000000E-03 0. -1.
         11   -1    0    0    0    0 -0.00000000000E+00 -0.00000000000E+00 -0.45593999997E+02  0.45594000000E+02  0.51100000000E-03 0.  1.
    9900012    2    1    2    0    0 -0.41736158068E+00  0.40379637095E+02 -0.47408989944E+01  0.50528863193E+02  0.30000010162E+02 0.  0.
        -12    1    1    2    0    0  0.41736158068E+00 -0.40379637095E+02  0.47408989944E+01  0.40659136807E+02  0.00000000000E+00 0.  1.
         11    1    3    3    0    0  0.10802817985E+02  0.22592611460E+02 -0.65208488854E+01  0.25877566335E+02  0.51100000000E-03 0. -1.
        -11    1    3    3    0    0 -0.81218543101E+01  0.53078426283E+01  0.56446932160E+01  0.11224984301E+02  0.51100000000E-03 0.  1.
         12    1    3    3    0    0 -0.30983252554E+01  0.12479183007E+02 -0.38647433250E+01  0.13426312557E+02  0.00000000000E+00 0. -1.
</event>
<event>
 7    1  0.5068291E-011  0.5052886E+02  0.7816164E-02  0.1300439E+00
        -11   -1    0    0    0    0  0.00000000000E+00  0.00000000000E+00  0.45593999997E+02  0.45594000000E+02  0.51100000000E-03 0.  1.
         11   -1    0    0    0    0 -0.00000000000E+00 -0.00000000000E+00 -0.45593999997E+02  0.45594000000E+02  0.51100000000E-03 0. -1.
    9900012    2    1    2    0    0 -0.34610762576E+01 -0.36694587608E+02 -0.17166649591E+02  0.50528859985E+02  0.30000000411E+02 0.  0.
        -12    1    1    2    0    0  0.34610762576E+01  0.36694587608E+02  0.17166649591E+02  0.40659140015E+02  0.00000000000E+00 0.  1.
         11    1    3    3    0    0  0.67029060661E+01 -0.92253282425E+01 -0.48905366440E+01  0.12407779005E+02  0.51100000000E-03 0. -1.
        -11    1    3    3    0    0 -0.13344268520E+02 -0.85394872268E+01 -0.10346004454E+01  0.15876483955E+02  0.51100000000E-03 0.  1.
        -12    1    3    3    0    0  0.31802861959E+01 -0.18929772138E+02 -0.11241512502E+02  0.22244597025E+02  0.00000000000E+00 0.  1.
</event>
<event>
 7    1  0.5068291E-011  0.5052886E+02  0.7816164E-02  0.1300439E+00
        -11   -1    0    0    0    0  0.00000000000E+00  0.00000000000E+00  0.45593999997E+02  0.45594000000E+02  0.51100000000E-03 0.  1.
         11   -1    0    0    0    0 -0.00000000000E+00 -0.00000000000E+00 -0.45593999997E+02  0.45594000000E+02  0.51100000000E-03 0. -1.
    9900012    2    1    2    0    0 -0.84863871815E+01 -0.19764948046E+02 -0.34503529369E+02  0.50528862312E+02  0.30000007482E+02 0.  0.
        -12    1    1    2    0    0  0.84863871815E+01  0.19764948046E+02  0.34503529369E+02  0.40659137688E+02  0.00000000000E+00 0.  1.
         11    1    3    3    0    0  0.83105142697E+01 -0.75217226453E+01 -0.12066683520E+02  0.16469541901E+02  0.51100000000E-03 0. -1.
        -11    1    3    3    0    0 -0.17328282503E+02 -0.83117254105E+01 -0.11433087060E+02  0.22362236780E+02  0.51100000000E-03 0.  1.
        -12    1    3    3    0    0  0.53138105201E+00 -0.39314999906E+01 -0.11003758788E+02  0.11697083631E+02  0.00000000000E+00 0.  1.
</event>
<event>
 7    1  0.5068291E-011  0.5052888E+02  0.7816164E-02  0.1300439E+00
        -11   -1    0    0    0    0  0.00000000000E+00  0.00000000000E+00  0.45593999997E+02  0.45594000000E+02  0.51100000000E-03 0.  1.
         11   -1    0    0    0    0 -0.00000000000E+00 -0.00000000000E+00 -0.45593999997E+02  0.45594000000E+02  0.51100000000E-03 0. -1.
    9900012    2    1    2    0    0 -0.20323461821E+02 -0.17031886106E+02 -0.30822655063E+02  0.50528876672E+02  0.30000051131E+02 0.  0.
        -12    1    1    2    0    0  0.20323461821E+02  0.17031886106E+02  0.30822655063E+02  0.40659123328E+02  0.00000000000E+00 0.  1.
         11    1    3    3    0    0 -0.16138779154E+02 -0.95282901666E+01 -0.15876482939E+02  0.24562394363E+02  0.51100000000E-03 0. -1.
        -11    1    3    3    0    0  0.36234848654E+01  0.25577455935E+01  0.19191546410E+01  0.48326866118E+01  0.51100000000E-03 0.  1.
        -12    1    3    3    0    0 -0.78081675319E+01 -0.10061341533E+02 -0.16865326765E+02  0.21133795696E+02  0.00000000000E+00 0.  1.
</event>
<event>
 7    1  0.5068291E-011  0.5052887E+02  0.7816164E-02  0.1300439E+00
        -11   -1    0    0    0    0  0.00000000000E+00  0.00000000000E+00  0.45593999997E+02  0.45594000000E+02  0.51100000000E-03 0.  1.
         11   -1    0    0    0    0 -0.00000000000E+00 -0.00000000000E+00 -0.45593999997E+02  0.45594000000E+02  0.51100000000E-03 0. -1.
    9900012    2    1    2    0    0 -0.39770141821E+02 -0.15232463916E+01 -0.83174979426E+01  0.50528865331E+02  0.30000016660E+02 0.  0.
        -12    1    1    2    0    0  0.39770141821E+02  0.15232463916E+01  0.83174979426E+01  0.40659134669E+02  0.00000000000E+00 0.  1.
         11    1    3    3    0    0 -0.15124100035E+02  0.55113947181E+01 -0.46152273951E+01  0.16745572483E+02  0.51100000000E-03 0. -1.
        -11    1    3    3    0    0  0.14228319713E+01  0.39022746883E+01  0.24901915666E+01  0.48428558580E+01  0.51100000000E-03 0.  1.
        -12    1    3    3    0    0 -0.26068873757E+02 -0.10936915798E+02 -0.61924621141E+01  0.28940436990E+02  0.00000000000E+00 0.  1.
</event>
<event>
 7    1  0.5068291E-011  0.5052885E+02  0.7816164E-02  0.1300439E+00
        -11   -1    0    0    0    0  0.00000000000E+00  0.00000000000E+00  0.45593999997E+02  0.45594000000E+02  0.51100000000E-03 0. -1.
         11   -1    0    0    0    0 -0.00000000000E+00 -0.00000000000E+00 -0.45593999997E+02  0.45594000000E+02  0.51100000000E-03 0.  1.
    9900012    2    1    2    0    0  0.17637115014E+02  0.36228681179E+02  0.54388898662E+01  0.50528847414E+02  0.29999962201E+02 0.  0.
        -12    1    1    2    0    0 -0.17637115014E+02 -0.36228681179E+02 -0.54388898662E+01  0.40659152586E+02  0.00000000000E+00 0.  1.
         11    1    3    3    0    0  0.61513060765E+01  0.17588605372E+02  0.12300174471E+02  0.22326932115E+02  0.51100000000E-03 0. -1.
        -11    1    3    3    0    0  0.83829704080E+01  0.22003781692E+00 -0.25882402801E+00  0.83898509904E+01  0.51100000000E-03 0.  1.
        -12    1    3    3    0    0  0.31028385291E+01  0.18420037990E+02 -0.66024605772E+01  0.19812064309E+02  0.00000000000E+00 0.  1.
</event>
<event>
 7    1  0.5068291E-011  0.5052887E+02  0.7816164E-02  0.1300439E+00
        -11   -1    0    0    0    0  0.00000000000E+00  0.00000000000E+00  0.45593999997E+02  0.45594000000E+02  0.51100000000E-03 0. -1.
         11   -1    0    0    0    0 -0.00000000000E+00 -0.00000000000E+00 -0.45593999997E+02  0.45594000000E+02  0.51100000000E-03 0.  1.
    9900012    2    1    2    0    0  0.38882514826E+02  0.78928331702E+01  0.88892032684E+01  0.50528871758E+02  0.30000036196E+02 0.  0.
        -12    1    1    2    0    0 -0.38882514826E+02 -0.78928331702E+01 -0.88892032684E+01  0.40659128242E+02  0.00000000000E+00 0.  1.
         11    1    3    3    0    0  0.54946052602E+01 -0.57691621190E+01  0.10527874557E+02  0.13202653577E+02  0.51100000000E-03 0.  1.
        -11    1    3    3    0    0  0.68241980388E+01 -0.27337590814E+00 -0.26151602067E+01  0.73132398038E+01  0.51100000000E-03 0. -1.
         12    1    3    3    0    0  0.26563711527E+02  0.13935371197E+02  0.97648891845E+00  0.30012978378E+02  0.00000000000E+00 0. -1.
</event>
<event>
 7    1  0.5068291E-011  0.5052884E+02  0.7816164E-02  0.1300439E+00
        -11   -1    0    0    0    0  0.00000000000E+00  0.00000000000E+00  0.45593999997E+02  0.45594000000E+02  0.51100000000E-03 0.  1.
         11   -1    0    0    0    0 -0.00000000000E+00 -0.00000000000E+00 -0.45593999997E+02  0.45594000000E+02  0.51100000000E-03 0. -1.
    9900012    2    1    2    0    0 -0.10034112772E+02  0.39900666384E+01 -0.39199022168E+02  0.50528838796E+02  0.29999936004E+02 0.  0.
        -12    1    1    2    0    0  0.10034112772E+02 -0.39900666384E+01  0.39199022168E+02  0.40659161204E+02  0.00000000000E+00 0.  1.
         11    1    3    3    0    0 -0.37869981750E+01  0.63230302879E+00  0.55207856231E+00  0.38789113547E+01  0.51100000000E-03 0. -1.
        -11    1    3    3    0    0  0.16521143862E+01 -0.28274589601E+01 -0.35668284120E+02  0.35818298375E+02  0.51100000000E-03 0.  1.
        -12    1    3    3    0    0 -0.78992289831E+01  0.61852225697E+01 -0.40828166099E+01  0.10831629067E+02  0.00000000000E+00 0.  1.
</event>
<event>
 7    1  0.5068291E-011  0.5052885E+02  0.7816164E-02  0.1300439E+00
        -11   -1    0    0    0    0  0.00000000000E+00  0.00000000000E+00  0.45593999997E+02  0.45594000000E+02  0.51100000000E-03 0.  1.
         11   -1    0    0    0    0 -0.00000000000E+00 -0.00000000000E+00 -0.45593999997E+02  0.45594000000E+02  0.51100000000E-03 0. -1.
    9900012    2    1    2    0    0  0.91522489907E+01 -0.12165465430E+02 -0.37701516266E+02  0.50528849253E+02  0.29999967788E+02 0.  0.
        -12    1    1    2    0    0 -0.91522489907E+01  0.12165465430E+02  0.37701516266E+02  0.40659150747E+02  0.00000000000E+00 0.  1.
         11    1    3    3    0    0  0.13360508504E+02 -0.18613343607E+02 -0.22731724950E+02  0.32275239227E+02  0.51100000000E-03 0. -1.
        -11    1    3    3    0    0 -0.26997251131E+00  0.29763969941E+01 -0.72941936013E+00  0.30763415102E+01  0.51100000000E-03 0.  1.
         12    1    3    3    0    0 -0.39382870024E+01  0.34714811830E+01 -0.14240371957E+02  0.15177268515E+02  0.00000000000E+00 0. -1.
</event>
<event>
 7    1  0.5068291E-011  0.5052885E+02  0.7816164E-02  0.1300439E+00
        -11   -1    0    0    0    0  0.00000000000E+00  0.00000000000E+00  0.45593999997E+02  0.45594000000E+02  0.51100000000E-03 0. -1.
         11   -1    0    0    0    0 -0.00000000000E+00 -0.00000000000E+00 -0.45593999997E+02  0.45594000000E+02  0.51100000000E-03 0.  1.
    9900012    2    1    2    0    0 -0.99585951940E+01 -0.21728439804E+02  0.32891753398E+02  0.50528853967E+02  0.29999982118E+02 0.  0.
        -12    1    1    2    0    0  0.99585951940E+01  0.21728439804E+02 -0.32891753398E+02  0.40659146033E+02  0.00000000000E+00 0.  1.
         11    1    3    3    0    0 -0.19009193276E+01 -0.66905820219E+01  0.28755598261E+02  0.29584824044E+02  0.51100000000E-03 0. -1.
        -11    1    3    3    0    0  0.19661217452E+01 -0.69527183125E+01  0.35555761956E+01  0.80528286330E+01  0.51100000000E-03 0.  1.
         12    1    3    3    0    0 -0.10023797612E+02 -0.80851394698E+01  0.58057894114E+00  0.12891201291E+02  0.00000000000E+00 0. -1.
</event>
<event>
 7    1  0.5068291E-011  0.5052886E+02  0.7816164E-02  0.1300439E+00
        -11   -1    0    0    0    0  0.00000000000E+00  0.00000000000E+00  0.45593999997E+02  0.45594000000E+02  0.51100000000E-03 0.  1.
         11   -1    0    0    0    0 -0.00000000000E+00 -0.00000000000E+00 -0.45593999997E+02  0.45594000000E+02  0.51100000000E-03 0. -1.
    9900012    2    1    2    0    0 -0.18476709507E+02 -0.56737681714E+00 -0.36214016536E+02  0.50528859523E+02  0.29999999005E+02 0.  0.
        -12    1    1    2    0    0  0.18476709507E+02  0.56737681714E+00  0.36214016536E+02  0.40659140477E+02  0.00000000000E+00 0.  1.
         11    1    3    3    0    0  0.23809941642E+01  0.52328673038E+01 -0.17406026631E+02  0.18330897326E+02  0.51100000000E-03 0. -1.
        -11    1    3    3    0    0 -0.17903597921E+02 -0.25123169901E+00 -0.18729223028E+02  0.25911112122E+02  0.51100000000E-03 0.  1.
         12    1    3    3    0    0 -0.29541057502E+01 -0.55490124219E+01 -0.78766877202E-01  0.62868500748E+01  0.00000000000E+00 0. -1.
</event>
<event>
 7    1  0.5068291E-011  0.5052884E+02  0.7816164E-02  0.1300439E+00
        -11   -1    0    0    0    0  0.00000000000E+00  0.00000000000E+00  0.45593999997E+02  0.45594000000E+02  0.51100000000E-03 0. -1.
         11   -1    0    0    0    0 -0.00000000000E+00 -0.00000000000E+00 -0.45593999997E+02  0.45594000000E+02  0.51100000000E-03 0.  1.
    9900012    2    1    2    0    0  0.29083653377E+02 -0.27750788720E+02  0.60993794021E+01  0.50528836243E+02  0.29999928245E+02 0.  0.
        -12    1    1    2    0    0 -0.29083653377E+02  0.27750788720E+02 -0.60993794021E+01  0.40659163757E+02  0.00000000000E+00 0.  1.
         11    1    3    3    0    0  0.14354168433E+02 -0.24432242507E+01  0.84427696475E+01  0.16831276117E+02  0.51100000000E-03 0. -1.
        -11    1    3    3    0    0  0.97645482412E+00 -0.86611206961E+01 -0.74987771117E+01  0.11497831716E+02  0.51100000000E-03 0.  1.
         12    1    3    3    0    0  0.13753030119E+02 -0.16646443773E+02  0.51553868663E+01  0.22199728410E+02  0.00000000000E+00 0. -1.
</event>
<event>
 7    1  0.5068291E-011  0.5052887E+02  0.7816164E-02  0.1300439E+00
        -11   -1    0    0    0    0  0.00000000000E+00  0.00000000000E+00  0.45593999997E+02  0.45594000000E+02  0.51100000000E-03 0.  1.
         11   -1    0    0    0    0 -0.00000000000E+00 -0.00000000000E+00 -0.45593999997E+02  0.45594000000E+02  0.51100000000E-03 0. -1.
    9900012    2    1    2    0    0 -0.25192830966E+02  0.21863464785E+01 -0.31838749420E+02  0.50528870550E+02  0.30000032524E+02 0.  0.
        -12    1    1    2    0    0  0.25192830966E+02 -0.21863464785E+01  0.31838749420E+02  0.40659129450E+02  0.00000000000E+00 0.  1.
         11    1    3    3    0    0 -0.25778770650E+01 -0.25713471767E+01 -0.14938504985E+02  0.15375831943E+02  0.51100000000E-03 0. -1.
        -11    1    3    3    0    0 -0.19554344734E+02  0.37356910076E+01 -0.21152606826E+01  0.20020042790E+02  0.51100000000E-03 0.  1.
        -12    1    3    3    0    0 -0.30606091672E+01  0.10220026476E+01 -0.14784983752E+02  0.15132995818E+02  0.00000000000E+00 0.  1.
</event>
<event>
 7    1  0.5068291E-011  0.5052885E+02  0.7816164E-02  0.1300439E+00
        -11   -1    0    0    0    0  0.00000000000E+00  0.00000000000E+00  0.45593999997E+02  0.45594000000E+02  0.51100000000E-03 0.  1.
         11   -1    0    0    0    0 -0.00000000000E+00 -0.00000000000E+00 -0.45593999997E+02  0.45594000000E+02  0.51100000000E-03 0. -1.
    9900012    2    1    2    0    0 -0.31501814881E+01  0.24629926871E+02 -0.32196420952E+02  0.50528850191E+02  0.29999970642E+02 0.  0.
        -12    1    1    2    0    0  0.31501814881E+01 -0.24629926871E+02  0.32196420952E+02  0.40659149809E+02  0.00000000000E+00 0.  1.
         11    1    3    3    0    0 -0.10702443472E+02  0.88290046875E+01 -0.29824969967E+01  0.14191156001E+02  0.51100000000E-03 0. -1.
        -11    1    3    3    0    0  0.45719195011E+01  0.41019235534E+01 -0.20628529474E+02  0.21523579008E+02  0.51100000000E-03 0.  1.
        -12    1    3    3    0    0  0.29803424832E+01  0.11698998630E+02 -0.85853944807E+01  0.14814115183E+02  0.00000000000E+00 0.  1.
</event>
<event>
 7    1  0.5068291E-011  0.5052891E+02  0.7816164E-02  0.1300439E+00
        -11   -1    0    0    0    0  0.00000000000E+00  0.00000000000E+00  0.45593999997E+02  0.45594000000E+02  0.51100000000E-03 0.  1.
         11   -1    0    0    0    0 -0.00000000000E+00 -0.00000000000E+00 -0.45593999997E+02  0.45594000000E+02  0.51100000000E-03 0. -1.
    9900012    2    1    2    0    0 -0.79505195384E+00 -0.22325668560E+02 -0.33971955560E+02  0.50528913084E+02  0.30000161810E+02 0.  0.
        -12    1    1    2    0    0  0.79505195384E+00  0.22325668560E+02  0.33971955560E+02  0.40659086916E+02  0.00000000000E+00 0.  1.
         11    1    3    3    0    0 -0.49522641218E+01 -0.23481756096E+01  0.29600797572E+01  0.62290385338E+01  0.51100000000E-03 0.  1.
        -11    1    3    3    0    0  0.68921596614E+01 -0.16279414347E+02 -0.19720343106E+02  0.26484205270E+02  0.51100000000E-03 0. -1.
        -12    1    3    3    0    0 -0.27349474934E+01 -0.36980786032E+01 -0.17211692211E+02  0.17815669280E+02  0.00000000000E+00 0.  1.
</event>
<event>
 7    1  0.5068291E-011  0.5052886E+02  0.7816164E-02  0.1300439E+00
        -11   -1    0    0    0    0  0.00000000000E+00  0.00000000000E+00  0.45593999997E+02  0.45594000000E+02  0.51100000000E-03 0.  1.
         11   -1    0    0    0    0 -0.00000000000E+00 -0.00000000000E+00 -0.45593999997E+02  0.45594000000E+02  0.51100000000E-03 0. -1.
    9900012    2    1    2    0    0 -0.19293620372E+02  0.34103718117E+02 -0.10856257205E+02  0.50528859613E+02  0.29999999280E+02 0.  0.
        -12    1    1    2    0    0  0.19293620372E+02 -0.34103718117E+02  0.10856257205E+02  0.40659140387E+02  0.00000000000E+00 0.  1.
         11    1    3    3    0    0 -0.12387276424E+02  0.13708530161E+02 -0.13142903911E+02  0.22673869097E+02  0.51100000000E-03 0. -1.
        -11    1    3    3    0    0 -0.31531736180E+01  0.22643266696E+02  0.39000399484E+01  0.23192031873E+02  0.51100000000E-03 0.  1.
        -12    1    3    3    0    0 -0.37531703309E+01 -0.22480787395E+01 -0.16133932423E+01  0.46629586430E+01  0.00000000000E+00 0.  1.
</event>
<event>
 7    1  0.5068291E-011  0.5052887E+02  0.7816164E-02  0.1300439E+00
        -11   -1    0    0    0    0  0.00000000000E+00  0.00000000000E+00  0.45593999997E+02  0.45594000000E+02  0.51100000000E-03 0. -1.
         11   -1    0    0    0    0 -0.00000000000E+00 -0.00000000000E+00 -0.45593999997E+02  0.45594000000E+02  0.51100000000E-03 0.  1.
    9900012    2    1    2    0    0 -0.17267975476E+02 -0.27527817570E+02  0.24437700414E+02  0.50528869184E+02  0.30000028370E+02 0.  0.
        -12    1    1    2    0    0  0.17267975476E+02  0.27527817570E+02 -0.24437700414E+02  0.40659130816E+02  0.00000000000E+00 0.  1.
         11    1    3    3    0    0 -0.32366541158E+01 -0.19486441466E+00  0.83827802841E+01  0.89880424764E+01  0.51100000000E-03 0. -1.
        -11    1    3    3    0    0 -0.40704448202E+01 -0.28032339266E+02  0.11726017663E+02  0.30657463304E+02  0.51100000000E-03 0.  1.
        -12    1    3    3    0    0 -0.99608765404E+01  0.69938611086E+00  0.43289024671E+01  0.10883363403E+02  0.00000000000E+00 0.  1.
</event>
<event>
 7    1  0.5068291E-011  0.5052887E+02  0.7816164E-02  0.1300439E+00
        -11   -1    0    0    0    0  0.00000000000E+00  0.00000000000E+00  0.45593999997E+02  0.45594000000E+02  0.51100000000E-03 0.  1.
         11   -1    0    0    0    0 -0.00000000000E+00 -0.00000000000E+00 -0.45593999997E+02  0.45594000000E+02  0.51100000000E-03 0. -1.
    9900012    2    1    2    0    0 -0.30724712314E+02  0.21030250816E+02 -0.16336630780E+02  0.50528869397E+02  0.30000029020E+02 0.  0.
        -12    1    1    2    0    0  0.30724712314E+02 -0.21030250816E+02  0.16336630780E+02  0.40659130603E+02  0.00000000000E+00 0.  1.
         11    1    3    3    0    0 -0.43693738522E+01 -0.36260696135E+01 -0.31801494776E+01  0.65079305208E+01  0.51100000000E-03 0. -1.
        -11    1    3    3    0    0 -0.11210919884E+02  0.16571658219E+02  0.32555910899E+01  0.20270753671E+02  0.51100000000E-03 0.  1.
         12    1    3    3    0    0 -0.15144418577E+02  0.80846622104E+01 -0.16412072392E+02  0.23750185206E+02  0.00000000000E+00 0. -1.
</event>
<event>
 7    1  0.5068291E-011  0.5052887E+02  0.7816164E-02  0.1300439E+00
        -11   -1    0    0    0    0  0.00000000000E+00  0.00000000000E+00  0.45593999997E+02  0.45594000000E+02  0.51100000000E-03 0.  1.
         11   -1    0    0    0    0 -0.00000000000E+00 -0.00000000000E+00 -0.45593999997E+02  0.45594000000E+02  0.51100000000E-03 0. -1.
    9900012    2    1    2    0    0 -0.33089334984E+01  0.18125426362E+02 -0.36244783749E+02  0.50528874693E+02  0.30000045116E+02 0.  0.
        -12    1    1    2    0    0  0.33089334984E+01 -0.18125426362E+02  0.36244783749E+02  0.40659125307E+02  0.00000000000E+00 0.  1.
         11    1    3    3    0    0 -0.28741807573E+01  0.20224122267E+02 -0.30165321910E+02  0.36431067548E+02  0.51100000000E-03 0. -1.
        -11    1    3    3    0    0  0.30106543991E+01 -0.57388686148E+01 -0.63569655368E+01  0.90779768663E+01  0.51100000000E-03 0.  1.
        -12    1    3    3    0    0 -0.34454071402E+01  0.36401727098E+01  0.27750369759E+00  0.50198302781E+01  0.00000000000E+00 0.  1.
</event>
<event>
 7    1  0.5068291E-011  0.5052885E+02  0.7816164E-02  0.1300439E+00
        -11   -1    0    0    0    0  0.00000000000E+00  0.00000000000E+00  0.45593999997E+02  0.45594000000E+02  0.51100000000E-03 0. -1.
         11   -1    0    0    0    0 -0.00000000000E+00 -0.00000000000E+00 -0.45593999997E+02  0.45594000000E+02  0.51100000000E-03 0.  1.
    9900012    2    1    2    0    0 -0.32784389861E+02 -0.23341705095E+02  0.57891851488E+01  0.50528854904E+02  0.29999984965E+02 0.  0.
        -12    1    1    2    0    0  0.32784389861E+02  0.23341705095E+02 -0.57891851488E+01  0.40659145096E+02  0.00000000000E+00 0.  1.
         11    1    3    3    0    0 -0.28399128065E+02 -0.86108391644E+01  0.42546793403E+01  0.29979314911E+02  0.51100000000E-03 0. -1.
        -11    1    3    3    0    0  0.46546492587E+01 -0.55471085932E+01  0.24140618687E+01  0.76330772584E+01  0.51100000000E-03 0.  1.
         12    1    3    3    0    0 -0.90399110545E+01 -0.91837573372E+01 -0.87955606012E+00  0.12916462734E+02  0.00000000000E+00 0. -1.
</event>
<event>
 7    1  0.5068291E-011  0.5052886E+02  0.7816164E-02  0.1300439E+00
        -11   -1    0    0    0    0  0.00000000000E+00  0.00000000000E+00  0.45593999997E+02  0.45594000000E+02  0.51100000000E-03 0.  1.
         11   -1    0    0    0    0 -0.00000000000E+00 -0.00000000000E+00 -0.45593999997E+02  0.45594000000E+02  0.51100000000E-03 0. -1.
    9900012    2    1    2    0    0 -0.12038584389E+02 -0.34284036342E+01 -0.38684421695E+02  0.50528856533E+02  0.29999989918E+02 0.  0.
        -12    1    1    2    0    0  0.12038584389E+02  0.34284036342E+01  0.38684421695E+02  0.40659143467E+02  0.00000000000E+00 0.  1.
         11    1    3    3    0    0  0.28798297913E+01  0.44928198838E+01 -0.37338602866E+00  0.53496044267E+01  0.51100000000E-03 0.  1.
        -11    1    3    3    0    0 -0.15105981525E+02 -0.11722464725E+02 -0.35898361077E+02  0.40673076911E+02  0.51100000000E-03 0. -1.
         12    1    3    3    0    0  0.18756734455E+00  0.38012412070E+01 -0.24126745889E+01  0.45061751957E+01  0.00000000000E+00 0. -1.
</event>
<event>
 7    1  0.5068291E-011  0.5052886E+02  0.7816164E-02  0.1300439E+00
        -11   -1    0    0    0    0  0.00000000000E+00  0.00000000000E+00  0.45593999997E+02  0.45594000000E+02  0.51100000000E-03 0.  1.
         11   -1    0    0    0    0 -0.00000000000E+00 -0.00000000000E+00 -0.45593999997E+02  0.45594000000E+02  0.51100000000E-03 0. -1.
    9900012    2    1    2    0    0 -0.16759023711E+02 -0.17368997527E+02 -0.32720312692E+02  0.50528858181E+02  0.29999994927E+02 0.  0.
        -12    1    1    2    0    0  0.16759023711E+02  0.17368997527E+02  0.32720312692E+02  0.40659141819E+02  0.00000000000E+00 0.  1.
         11    1    3    3    0    0 -0.21090920920E+02 -0.12265241543E+02 -0.24872216659E+02  0.34840927903E+02  0.51100000000E-03 0.  1.
        -11    1    3    3    0    0  0.71104663445E+01 -0.32602131552E+00 -0.71977015461E+01  0.10122841960E+02  0.51100000000E-03 0. -1.
        -12    1    3    3    0    0 -0.27785691356E+01 -0.47777346683E+01 -0.65039448668E+00  0.55650883183E+01  0.00000000000E+00 0.  1.
</event>
<event>
 7    1  0.5068291E-011  0.5052888E+02  0.7816164E-02  0.1300439E+00
        -11   -1    0    0    0    0  0.00000000000E+00  0.00000000000E+00  0.45593999997E+02  0.45594000000E+02  0.51100000000E-03 0.  1.
         11   -1    0    0    0    0 -0.00000000000E+00 -0.00000000000E+00 -0.45593999997E+02  0.45594000000E+02  0.51100000000E-03 0. -1.
    9900012    2    1    2    0    0 -0.29634771378E+02  0.10869820874E+01 -0.27816600023E+02  0.50528875052E+02  0.30000046208E+02 0.  0.
        -12    1    1    2    0    0  0.29634771378E+02 -0.10869820874E+01  0.27816600023E+02  0.40659124948E+02  0.00000000000E+00 0.  1.
         11    1    3    3    0    0 -0.17262216552E+02  0.87030544904E+01 -0.16903391403E+02  0.25679795929E+02  0.51100000000E-03 0. -1.
        -11    1    3    3    0    0 -0.35739648096E+01 -0.11113950461E+02 -0.99362340066E+01  0.15330422884E+02  0.51100000000E-03 0.  1.
        -12    1    3    3    0    0 -0.87985900169E+01  0.34978780584E+01 -0.97697461326E+00  0.95186562388E+01  0.00000000000E+00 0.  1.
</event>
<event>
 7    1  0.5068291E-011  0.5052887E+02  0.7816164E-02  0.1300439E+00
        -11   -1    0    0    0    0  0.00000000000E+00  0.00000000000E+00  0.45593999997E+02  0.45594000000E+02  0.51100000000E-03 0.  1.
         11   -1    0    0    0    0 -0.00000000000E+00 -0.00000000000E+00 -0.45593999997E+02  0.45594000000E+02  0.51100000000E-03 0. -1.
    9900012    2    1    2    0    0 -0.11565381536E+02 -0.16817157683E+02 -0.35165183957E+02  0.50528868118E+02  0.30000025133E+02 0.  0.
        -12    1    1    2    0    0  0.11565381536E+02  0.16817157683E+02  0.35165183957E+02  0.40659131882E+02  0.00000000000E+00 0.  1.
         11    1    3    3    0    0 -0.34326080212E+01 -0.79067510478E+01 -0.11255112077E+02  0.14176637757E+02  0.51100000000E-03 0. -1.
        -11    1    3    3    0    0 -0.88016251207E+01  0.58824785138E+01 -0.35278798661E+01  0.11158767622E+02  0.51100000000E-03 0.  1.
        -12    1    3    3    0    0  0.66885160593E+00 -0.14792885149E+02 -0.20382192014E+02  0.25193462740E+02  0.00000000000E+00 0.  1.
</event>
<event>
 7    1  0.5068291E-011  0.5052887E+02  0.7816164E-02  0.1300439E+00
        -11   -1    0    0    0    0  0.00000000000E+00  0.00000000000E+00  0.45593999997E+02  0.45594000000E+02  0.51100000000E-03 0.  1.
         11   -1    0    0    0    0 -0.00000000000E+00 -0.00000000000E+00 -0.45593999997E+02  0.45594000000E+02  0.51100000000E-03 0. -1.
    9900012    2    1    2    0    0  0.10815863687E+02  0.15646813081E+02 -0.35935490260E+02  0.50528866621E+02  0.30000020581E+02 0.  0.
        -12    1    1    2    0    0 -0.10815863687E+02 -0.15646813081E+02  0.35935490260E+02  0.40659133379E+02  0.00000000000E+00 0.  1.
         11    1    3    3    0    0  0.15806412426E+02  0.17178836256E+02 -0.36786121769E+02  0.43568036953E+02  0.51100000000E-03 0. -1.
        -11    1    3    3    0    0 -0.43350640521E+01 -0.11239914105E+01 -0.13102548130E+01  0.46661445501E+01  0.51100000000E-03 0.  1.
         12    1    3    3    0    0 -0.65548468670E+00 -0.40803176465E+00  0.21608863215E+01  0.22946851179E+01  0.00000000000E+00 0. -1.
</event>
<event>
 7    1  0.5068291E-011  0.5052886E+02  0.7816164E-02  0.1300439E+00
        -11   -1    0    0    0    0  0.00000000000E+00  0.00000000000E+00  0.45593999997E+02  0.45594000000E+02  0.51100000000E-03 0. -1.
         11   -1    0    0    0    0 -0.00000000000E+00 -0.00000000000E+00 -0.45593999997E+02  0.45594000000E+02  0.51100000000E-03 0.  1.
    9900012    2    1    2    0    0 -0.24273648830E+02 -0.32614031641E+02  0.52985613033E+00  0.50528857917E+02  0.29999994125E+02 0.  0.
        -12    1    1    2    0    0  0.24273648830E+02  0.32614031641E+02 -0.52985613033E+00  0.40659142083E+02  0.00000000000E+00 0.  1.
         11    1    3    3    0    0 -0.83240523283E+01 -0.24298472885E+02 -0.39527887505E+01  0.25987115479E+02  0.51100000000E-03 0. -1.
        -11    1    3    3    0    0 -0.23475690800E+01  0.45017386416E+01 -0.75324575873E+00  0.51326514412E+01  0.51100000000E-03 0.  1.
         12    1    3    3    0    0 -0.13602027422E+02 -0.12817297397E+02  0.52358906395E+01  0.19409090997E+02  0.00000000000E+00 0. -1.
</event>
<event>
 7    1  0.5068291E-011  0.5052886E+02  0.7816164E-02  0.1300439E+00
        -11   -1    0    0    0    0  0.00000000000E+00  0.00000000000E+00  0.45593999997E+02  0.45594000000E+02  0.51100000000E-03 0. -1.
         11   -1    0    0    0    0 -0.00000000000E+00 -0.00000000000E+00 -0.45593999997E+02  0.45594000000E+02  0.51100000000E-03 0.  1.
    9900012    2    1    2    0    0 -0.34895805284E+02  0.11446406130E+02  0.17447864282E+02  0.50528863170E+02  0.30000010092E+02 0.  0.
        -12    1    1    2    0    0  0.34895805284E+02 -0.11446406130E+02 -0.17447864282E+02  0.40659136830E+02  0.00000000000E+00 0.  1.
         11    1    3    3    0    0 -0.14407717317E+01 -0.81701845860E+01  0.49693455653E+01  0.96706843068E+01  0.51100000000E-03 0. -1.
        -11    1    3    3    0    0 -0.20900369074E+02  0.11312996453E+02  0.62945476501E+01  0.24585171274E+02  0.51100000000E-03 0.  1.
         12    1    3    3    0    0 -0.12554664479E+02  0.83035942628E+01  0.61839710670E+01  0.16273007590E+02  0.00000000000E+00 0. -1.
</event>
<event>
 7    1  0.5068291E-011  0.5052886E+02  0.7816164E-02  0.1300439E+00
        -11   -1    0    0    0    0  0.00000000000E+00  0.00000000000E+00  0.45593999997E+02  0.45594000000E+02  0.51100000000E-03 0.  1.
         11   -1    0    0    0    0 -0.00000000000E+00 -0.00000000000E+00 -0.45593999997E+02  0.45594000000E+02  0.51100000000E-03 0. -1.
    9900012    2    1    2    0    0 -0.35106684613E+02 -0.13868027557E+02 -0.15111718941E+02  0.50528861517E+02  0.30000005066E+02 0.  0.
        -12    1    1    2    0    0  0.35106684613E+02  0.13868027557E+02  0.15111718941E+02  0.40659138483E+02  0.00000000000E+00 0.  1.
         11    1    3    3    0    0 -0.22795540848E+02 -0.32493150426E+01 -0.22237420283E+02  0.32010898017E+02  0.51100000000E-03 0. -1.
        -11    1    3    3    0    0 -0.10573202069E+02 -0.91502010246E+01  0.38027340478E+01  0.14490671734E+02  0.51100000000E-03 0.  1.
         12    1    3    3    0    0 -0.17379416958E+01 -0.14685114896E+01  0.33229672933E+01  0.40272917657E+01  0.00000000000E+00 0. -1.
</event>
<event>
 7    1  0.5068291E-011  0.5052886E+02  0.7816164E-02  0.1300439E+00
        -11   -1    0    0    0    0  0.00000000000E+00  0.00000000000E+00  0.45593999997E+02  0.45594000000E+02  0.51100000000E-03 0.  1.
         11   -1    0    0    0    0 -0.00000000000E+00 -0.00000000000E+00 -0.45593999997E+02  0.45594000000E+02  0.51100000000E-03 0. -1.
    9900012    2    1    2    0    0 -0.62229378859E+01  0.39021196970E+02 -0.95805541185E+01  0.50528858517E+02  0.29999995949E+02 0.  0.
        -12    1    1    2    0    0  0.62229378859E+01 -0.39021196970E+02  0.95805541185E+01  0.40659141483E+02  0.00000000000E+00 0.  1.
         11    1    3    3    0    0  0.25475375070E+01  0.23090298507E+02 -0.10095182644E+02  0.25329124449E+02  0.51100000000E-03 0. -1.
        -11    1    3    3    0    0 -0.76126861533E+01  0.48830339982E+00 -0.45795965433E+01  0.88974229662E+01  0.51100000000E-03 0.  1.
         12    1    3    3    0    0 -0.11577892397E+01  0.15442595064E+02  0.50942250684E+01  0.16302311102E+02  0.00000000000E+00 0. -1.
</event>
<event>
 7    1  0.5068291E-011  0.5052886E+02  0.7816164E-02  0.1300439E+00
        -11   -1    0    0    0    0  0.00000000000E+00  0.00000000000E+00  0.45593999997E+02  0.45594000000E+02  0.51100000000E-03 0.  1.
         11   -1    0    0    0    0 -0.00000000000E+00 -0.00000000000E+00 -0.45593999997E+02  0.45594000000E+02  0.51100000000E-03 0. -1.
    9900012    2    1    2    0    0 -0.66935434417E+01 -0.37541232834E+02 -0.14107371902E+02  0.50528860456E+02  0.30000001842E+02 0.  0.
        -12    1    1    2    0    0  0.66935434417E+01  0.37541232834E+02  0.14107371902E+02  0.40659139544E+02  0.00000000000E+00 0.  1.
         11    1    3    3    0    0 -0.87072193644E+01 -0.17180045811E+02 -0.13847659577E+02  0.23721874276E+02  0.51100000000E-03 0. -1.
        -11    1    3    3    0    0  0.95736553885E+01 -0.11405034099E+02 -0.17468022203E+01  0.14992698175E+02  0.51100000000E-03 0.  1.
        -12    1    3    3    0    0 -0.75599794658E+01 -0.89561529240E+01  0.14870898957E+01  0.11814288006E+02  0.00000000000E+00 0.  1.
</event>
<event>
 7    1  0.5068291E-011  0.5052886E+02  0.7816164E-02  0.1300439E+00
        -11   -1    0    0    0    0  0.00000000000E+00  0.00000000000E+00  0.45593999997E+02  0.45594000000E+02  0.51100000000E-03 0.  1.
         11   -1    0    0    0    0 -0.00000000000E+00 -0.00000000000E+00 -0.45593999997E+02  0.45594000000E+02  0.51100000000E-03 0. -1.
    9900012    2    1    2    0    0  0.59502789520E+01 -0.39940577155E+02 -0.47445083335E+01  0.50528857333E+02  0.29999992349E+02 0.  0.
        -12    1    1    2    0    0 -0.59502789520E+01  0.39940577155E+02  0.47445083335E+01  0.40659142667E+02  0.00000000000E+00 0.  1.
         11    1    3    3    0    0  0.51798350395E+01 -0.22022903346E+02  0.81542879651E+01  0.24048521270E+02  0.51100000000E-03 0. -1.
        -11    1    3    3    0    0 -0.53930007324E+00 -0.16391758112E+02 -0.15916347159E+02  0.22854117478E+02  0.51100000000E-03 0.  1.
         12    1    3    3    0    0  0.13097439858E+01 -0.15259156978E+01  0.30175508604E+01  0.36262185842E+01  0.00000000000E+00 0. -1.
</event>
<event>
 7    1  0.5068291E-011  0.5052886E+02  0.7816164E-02  0.1300439E+00
        -11   -1    0    0    0    0  0.00000000000E+00  0.00000000000E+00  0.45593999997E+02  0.45594000000E+02  0.51100000000E-03 0. -1.
         11   -1    0    0    0    0 -0.00000000000E+00 -0.00000000000E+00 -0.45593999997E+02  0.45594000000E+02  0.51100000000E-03 0.  1.
    9900012    2    1    2    0    0  0.13887394428E+02 -0.37504124876E+02  0.73312097968E+01  0.50528859038E+02  0.29999997530E+02 0.  0.
        -12    1    1    2    0    0 -0.13887394428E+02  0.37504124876E+02 -0.73312097968E+01  0.40659140962E+02  0.00000000000E+00 0.  1.
         11    1    3    3    0    0  0.22123578640E+01 -0.41389364642E+01  0.13427545668E+02  0.14224074849E+02  0.51100000000E-03 0. -1.
        -11    1    3    3    0    0  0.48282690814E+01 -0.13747486489E+02  0.26989690046E+00  0.14573208695E+02  0.51100000000E-03 0.  1.
         12    1    3    3    0    0  0.68467674822E+01 -0.19617701924E+02 -0.63662327720E+01  0.21731575493E+02  0.00000000000E+00 0. -1.
</event>
<event>
 7    1  0.5068291E-011  0.5052873E+02  0.7816164E-02  0.1300439E+00
        -11   -1    0    0    0    0  0.00000000000E+00  0.00000000000E+00  0.45593999997E+02  0.45594000000E+02  0.51100000000E-03 0. -1.
         11   -1    0    0    0    0 -0.00000000000E+00 -0.00000000000E+00 -0.45593999997E+02  0.45594000000E+02  0.51100000000E-03 0.  1.
    9900012    2    1    2    0    0 -0.35230534512E+02 -0.19216331218E+02  0.65358928530E+01  0.50528734846E+02  0.29999620035E+02 0.  0.
        -12    1    1    2    0    0  0.35230534512E+02  0.19216331218E+02 -0.65358928530E+01  0.40659265154E+02  0.00000000000E+00 0.  1.
         11    1    3    3    0    0 -0.93426694896E+01 -0.42916314499E+01 -0.10095122115E+02  0.14408853683E+02  0.51100000000E-03 0. -1.
        -11    1    3    3    0    0 -0.79943306563E+01 -0.18481900501E+01  0.10104625563E+02  0.13016473682E+02  0.51100000000E-03 0.  1.
         12    1    3    3    0    0 -0.17893534366E+02 -0.13076509718E+02  0.65263894048E+01  0.23103407480E+02  0.00000000000E+00 0. -1.
</event>
<event>
 7    1  0.5068291E-011  0.5052886E+02  0.7816164E-02  0.1300439E+00
        -11   -1    0    0    0    0  0.00000000000E+00  0.00000000000E+00  0.45593999997E+02  0.45594000000E+02  0.51100000000E-03 0.  1.
         11   -1    0    0    0    0 -0.00000000000E+00 -0.00000000000E+00 -0.45593999997E+02  0.45594000000E+02  0.51100000000E-03 0. -1.
    9900012    2    1    2    0    0 -0.10647745412E+02 -0.43524719552E+01 -0.38998044346E+02  0.50528856412E+02  0.29999989551E+02 0.  0.
        -12    1    1    2    0    0  0.10647745412E+02  0.43524719552E+01  0.38998044346E+02  0.40659143588E+02  0.00000000000E+00 0.  1.
         11    1    3    3    0    0 -0.16442995486E+02 -0.53431677677E+01 -0.12213074724E+02  0.21167917631E+02  0.51100000000E-03 0. -1.
        -11    1    3    3    0    0  0.34505911899E+01  0.56161241514E+01 -0.17877041743E+02  0.19053504974E+02  0.51100000000E-03 0.  1.
        -12    1    3    3    0    0  0.23446588846E+01 -0.46254283389E+01 -0.89079278789E+01  0.10307433808E+02  0.00000000000E+00 0.  1.
</event>
<event>
 7    1  0.5068291E-011  0.5052887E+02  0.7816164E-02  0.1300439E+00
        -11   -1    0    0    0    0  0.00000000000E+00  0.00000000000E+00  0.45593999997E+02  0.45594000000E+02  0.51100000000E-03 0.  1.
         11   -1    0    0    0    0 -0.00000000000E+00 -0.00000000000E+00 -0.45593999997E+02  0.45594000000E+02  0.51100000000E-03 0. -1.
    9900012    2    1    2    0    0 -0.22586755501E+02 -0.31414683152E+02 -0.12494844752E+02  0.50528868345E+02  0.30000025821E+02 0.  0.
        -12    1    1    2    0    0  0.22586755501E+02  0.31414683152E+02  0.12494844752E+02  0.40659131655E+02  0.00000000000E+00 0.  1.
         11    1    3    3    0    0  0.75686353623E+00 -0.76883937106E+01  0.60713061977E+01  0.98257314980E+01  0.51100000000E-03 0. -1.
        -11    1    3    3    0    0 -0.92011507721E+01 -0.20651319653E+01 -0.92449325626E+01  0.13205859454E+02  0.51100000000E-03 0.  1.
         12    1    3    3    0    0 -0.14142468265E+02 -0.21661157476E+02 -0.93212183866E+01  0.27497277393E+02  0.00000000000E+00 0. -1.
</event>
<event>
 7    1  0.5068291E-011  0.5052888E+02  0.7816164E-02  0.1300439E+00
        -11   -1    0    0    0    0  0.00000000000E+00  0.00000000000E+00  0.45593999997E+02  0.45594000000E+02  0.51100000000E-03 0.  1.
         11   -1    0    0    0    0 -0.00000000000E+00 -0.00000000000E+00 -0.45593999997E+02  0.45594000000E+02  0.51100000000E-03 0. -1.
    9900012    2    1    2    0    0  0.40656040768E+02  0.22431039433E+00  0.44731589366E+00  0.50528879774E+02  0.30000060561E+02 0.  0.
        -12    1    1    2    0    0 -0.40656040768E+02 -0.22431039433E+00 -0.44731589366E+00  0.40659120226E+02  0.00000000000E+00 0.  1.
         11    1    3    3    0    0  0.16026600976E+02 -0.39270110292E+00 -0.43734109830E+01  0.16617246369E+02  0.51100000000E-03 0. -1.
        -11    1    3    3    0    0  0.12757129294E+02 -0.52865156824E+00 -0.90258622663E+01  0.15636176330E+02  0.51100000000E-03 0.  1.
        -12    1    3    3    0    0  0.11872310497E+02  0.11456630655E+01  0.13846589143E+02  0.18275457075E+02  0.00000000000E+00 0.  1.
</event>
<event>
 7    1  0.5068291E-011  0.5052886E+02  0.7816164E-02  0.1300439E+00
        -11   -1    0    0    0    0  0.00000000000E+00  0.00000000000E+00  0.45593999997E+02  0.45594000000E+02  0.51100000000E-03 0.  1.
         11   -1    0    0    0    0 -0.00000000000E+00 -0.00000000000E+00 -0.45593999997E+02  0.45594000000E+02  0.51100000000E-03 0. -1.
    9900012    2    1    2    0    0 -0.14811588595E+02 -0.35822252425E+01 -0.37695491168E+02  0.50528861435E+02  0.30000004818E+02 0.  0.
        -12    1    1    2    0    0  0.14811588595E+02  0.35822252425E+01  0.37695491168E+02  0.40659138565E+02  0.00000000000E+00 0.  1.
         11    1    3    3    0    0 -0.36936224844E+01 -0.12907623397E+02 -0.17271179069E+02  0.21875630631E+02  0.51100000000E-03 0. -1.
        -11    1    3    3    0    0 -0.51827345615E+01  0.95032807318E+01 -0.19948674888E+02  0.22696314948E+02  0.51100000000E-03 0.  1.
        -12    1    3    3    0    0 -0.59352315491E+01 -0.17788257754E+00 -0.47563721150E+00  0.59569158556E+01  0.00000000000E+00 0.  1.
</event>
<event>
 7    1  0.5068291E-011  0.5052886E+02  0.7816164E-02  0.1300439E+00
        -11   -1    0    0    0    0  0.00000000000E+00  0.00000000000E+00  0.45593999997E+02  0.45594000000E+02  0.51100000000E-03 0. -1.
         11   -1    0    0    0    0 -0.00000000000E+00 -0.00000000000E+00 -0.45593999997E+02  0.45594000000E+02  0.51100000000E-03 0.  1.
    9900012    2    1    2    0    0 -0.89021218042E+01 -0.30619075209E+02  0.25226777387E+02  0.50528857897E+02  0.29999994063E+02 0.  0.
        -12    1    1    2    0    0  0.89021218042E+01  0.30619075209E+02 -0.25226777387E+02  0.40659142103E+02  0.00000000000E+00 0.  1.
         11    1    3    3    0    0 -0.13091325665E+02 -0.13837993057E+02  0.11240650622E+02  0.22118433177E+02  0.51100000000E-03 0. -1.
        -11    1    3    3    0    0  0.18694339875E+01 -0.54432531957E+01  0.15690630504E+02  0.16712859559E+02  0.51100000000E-03 0.  1.
        -12    1    3    3    0    0  0.23197698732E+01 -0.11337828956E+02 -0.17045037388E+01  0.11697565161E+02  0.00000000000E+00 0.  1.
</event>
<event>
 7    1  0.5068291E-011  0.5052883E+02  0.7816164E-02  0.1300439E+00
        -11   -1    0    0    0    0  0.00000000000E+00  0.00000000000E+00  0.45593999997E+02  0.45594000000E+02  0.51100000000E-03 0.  1.
         11   -1    0    0    0    0 -0.00000000000E+00 -0.00000000000E+00 -0.45593999997E+02  0.45594000000E+02  0.51100000000E-03 0. -1.
    9900012    2    1    2    0    0  0.16504124268E+02 -0.17480280474E+02 -0.32790572049E+02  0.50528832047E+02  0.29999915490E+02 0.  0.
        -12    1    1    2    0    0 -0.16504124268E+02  0.17480280474E+02  0.32790572049E+02  0.40659167953E+02  0.00000000000E+00 0.  1.
         11    1    3    3    0    0  0.97398787491E+01 -0.17479343188E+02 -0.22389113023E+02  0.30027738153E+02  0.51100000000E-03 0.  1.
        -11    1    3    3    0    0  0.36144504292E+01  0.78695166689E+01 -0.27627316833E+01  0.90898972008E+01  0.51100000000E-03 0. -1.
        -12    1    3    3    0    0  0.31497950894E+01 -0.78704539547E+01 -0.76387273426E+01  0.11411196693E+02  0.00000000000E+00 0.  1.
</event>
<event>
 7    1  0.5068291E-011  0.5052887E+02  0.7816164E-02  0.1300439E+00
        -11   -1    0    0    0    0  0.00000000000E+00  0.00000000000E+00  0.45593999997E+02  0.45594000000E+02  0.51100000000E-03 0. -1.
         11   -1    0    0    0    0 -0.00000000000E+00 -0.00000000000E+00 -0.45593999997E+02  0.45594000000E+02  0.51100000000E-03 0.  1.
    9900012    2    1    2    0    0 -0.35471967433E+02  0.82099322878E+01  0.18097003019E+02  0.50528868430E+02  0.30000026080E+02 0.  0.
        -12    1    1    2    0    0  0.35471967433E+02 -0.82099322878E+01 -0.18097003019E+02  0.40659131570E+02  0.00000000000E+00 0.  1.
         11    1    3    3    0    0 -0.13842843547E+02  0.13242832781E+02  0.35499976407E+01  0.19483311347E+02  0.51100000000E-03 0. -1.
        -11    1    3    3    0    0 -0.13663375246E+02  0.81592107163E+00  0.16001047323E+02  0.21056758203E+02  0.51100000000E-03 0.  1.
         12    1    3    3    0    0 -0.79657486401E+01 -0.58488215651E+01 -0.14540419444E+01  0.99887988805E+01  0.00000000000E+00 0. -1.
</event>
<event>
 7    1  0.5068291E-011  0.5052886E+02  0.7816164E-02  0.1300439E+00
        -11   -1    0    0    0    0  0.00000000000E+00  0.00000000000E+00  0.45593999997E+02  0.45594000000E+02  0.51100000000E-03 0.  1.
         11   -1    0    0    0    0 -0.00000000000E+00 -0.00000000000E+00 -0.45593999997E+02  0.45594000000E+02  0.51100000000E-03 0. -1.
    9900012    2    1    2    0    0  0.18544935956E+02  0.28116853413E+02 -0.22774841919E+02  0.50528861791E+02  0.30000005901E+02 0.  0.
        -12    1    1    2    0    0 -0.18544935956E+02 -0.28116853413E+02  0.22774841919E+02  0.40659138209E+02  0.00000000000E+00 0.  1.
         11    1    3    3    0    0  0.71379578348E+01  0.33191011545E+01  0.36498286290E+01  0.86768729279E+01  0.51100000000E-03 0.  1.
        -11    1    3    3    0    0  0.59059754902E+00  0.81870063847E+01 -0.18978592268E+02  0.20677592794E+02  0.51100000000E-03 0. -1.
        -12    1    3    3    0    0  0.10816380572E+02  0.16610745874E+02 -0.74460782792E+01  0.21174396069E+02  0.00000000000E+00 0.  1.
</event>
<event>
 7    1  0.5068291E-011  0.5052886E+02  0.7816164E-02  0.1300439E+00
        -11   -1    0    0    0    0  0.00000000000E+00  0.00000000000E+00  0.45593999997E+02  0.45594000000E+02  0.51100000000E-03 0.  1.
         11   -1    0    0    0    0 -0.00000000000E+00 -0.00000000000E+00 -0.45593999997E+02  0.45594000000E+02  0.51100000000E-03 0. -1.
    9900012    2    1    2    0    0 -0.34862643680E+02  0.20546468889E+02  0.39502591864E+01  0.50528857661E+02  0.29999993346E+02 0.  0.
        -12    1    1    2    0    0  0.34862643680E+02 -0.20546468889E+02 -0.39502591864E+01  0.40659142339E+02  0.00000000000E+00 0.  1.
         11    1    3    3    0    0 -0.21424654161E+02  0.74413508623E+01 -0.52628620221E+01  0.23282766707E+02  0.51100000000E-03 0. -1.
        -11    1    3    3    0    0 -0.83047730646E+00  0.43326954355E+00  0.93235490221E+01  0.93704846024E+01  0.51100000000E-03 0.  1.
        -12    1    3    3    0    0 -0.12607512212E+02  0.12671848483E+02 -0.11042781360E+00  0.17875606352E+02  0.00000000000E+00 0.  1.
</event>
<event>
 7    1  0.5068291E-011  0.5052886E+02  0.7816164E-02  0.1300439E+00
        -11   -1    0    0    0    0  0.00000000000E+00  0.00000000000E+00  0.45593999997E+02  0.45594000000E+02  0.51100000000E-03 0.  1.
         11   -1    0    0    0    0 -0.00000000000E+00 -0.00000000000E+00 -0.45593999997E+02  0.45594000000E+02  0.51100000000E-03 0. -1.
    9900012    2    1    2    0    0  0.11978492034E+02  0.28497087996E+02 -0.26412069324E+02  0.50528859555E+02  0.29999999105E+02 0.  0.
        -12    1    1    2    0    0 -0.11978492034E+02 -0.28497087996E+02  0.26412069324E+02  0.40659140445E+02  0.00000000000E+00 0.  1.
         11    1    3    3    0    0  0.72230591132E+01  0.14046248375E+02 -0.14757167819E+02  0.21615820102E+02  0.51100000000E-03 0. -1.
        -11    1    3    3    0    0 -0.77580474290E+01  0.31615611949E+01 -0.81728062757E+01  0.11703740077E+02  0.51100000000E-03 0.  1.
        -12    1    3    3    0    0  0.12513480350E+02  0.11289278426E+02 -0.34820952296E+01  0.17209299377E+02  0.00000000000E+00 0.  1.
</event>
<event>
 7    1  0.5068291E-011  0.5052886E+02  0.7816164E-02  0.1300439E+00
        -11   -1    0    0    0    0  0.00000000000E+00  0.00000000000E+00  0.45593999997E+02  0.45594000000E+02  0.51100000000E-03 0. -1.
         11   -1    0    0    0    0 -0.00000000000E+00 -0.00000000000E+00 -0.45593999997E+02  0.45594000000E+02  0.51100000000E-03 0.  1.
    9900012    2    1    2    0    0 -0.87793895141E+01 -0.26814293472E+02  0.29275958018E+02  0.50528859176E+02  0.29999997952E+02 0.  0.
        -12    1    1    2    0    0  0.87793895141E+01  0.26814293472E+02 -0.29275958018E+02  0.40659140824E+02  0.00000000000E+00 0.  1.
         11    1    3    3    0    0 -0.65173443392E+01  0.49272052844E+01  0.42193503493E+01  0.91954361931E+01  0.51100000000E-03 0. -1.
        -11    1    3    3    0    0 -0.72658426045E+00 -0.18102977284E+02  0.90619293361E+01  0.20257449859E+02  0.51100000000E-03 0.  1.
         12    1    3    3    0    0 -0.15354609144E+01 -0.13638521472E+02  0.15994678333E+02  0.21075973124E+02  0.00000000000E+00 0. -1.
</event>
<event>
 7    1  0.5068291E-011  0.5052886E+02  0.7816164E-02  0.1300439E+00
        -11   -1    0    0    0    0  0.00000000000E+00  0.00000000000E+00  0.45593999997E+02  0.45594000000E+02  0.51100000000E-03 0.  1.
         11   -1    0    0    0    0 -0.00000000000E+00 -0.00000000000E+00 -0.45593999997E+02  0.45594000000E+02  0.51100000000E-03 0. -1.
    9900012    2    1    2    0    0  0.27028682389E+02 -0.28532096218E+00  0.30373248760E+02  0.50528864250E+02  0.30000013373E+02 0.  0.
        -12    1    1    2    0    0 -0.27028682389E+02  0.28532096218E+00 -0.30373248760E+02  0.40659135750E+02  0.00000000000E+00 0.  1.
         11    1    3    3    0    0 -0.43197996678E+01 -0.44228827614E+01  0.11299726475E+02  0.12880465045E+02  0.51100000000E-03 0.  1.
        -11    1    3    3    0    0  0.24069540549E+02  0.43676070554E-01  0.14950826612E+02  0.28334994379E+02  0.51100000000E-03 0. -1.
         12    1    3    3    0    0  0.72789415074E+01  0.40938857286E+01  0.41226956732E+01  0.93134048254E+01  0.00000000000E+00 0. -1.
</event>
<event>
 7    1  0.5068291E-011  0.5052886E+02  0.7816164E-02  0.1300439E+00
        -11   -1    0    0    0    0  0.00000000000E+00  0.00000000000E+00  0.45593999997E+02  0.45594000000E+02  0.51100000000E-03 0.  1.
         11   -1    0    0    0    0 -0.00000000000E+00 -0.00000000000E+00 -0.45593999997E+02  0.45594000000E+02  0.51100000000E-03 0. -1.
    9900012    2    1    2    0    0 -0.18031818086E+02  0.19033447740E+02 -0.31076465841E+02  0.50528864181E+02  0.30000013164E+02 0.  0.
        -12    1    1    2    0    0  0.18031818086E+02 -0.19033447740E+02  0.31076465841E+02  0.40659135819E+02  0.00000000000E+00 0.  1.
         11    1    3    3    0    0  0.18321127624E+01 -0.31600531223E+01 -0.89432535655E+01  0.96604532765E+01  0.51100000000E-03 0.  1.
        -11    1    3    3    0    0 -0.21501155135E+02  0.21287813927E+02 -0.15538600152E+02  0.34013508917E+02  0.51100000000E-03 0. -1.
         12    1    3    3    0    0  0.16372242864E+01  0.90568693543E+00 -0.65946121237E+01  0.68549019870E+01  0.00000000000E+00 0. -1.
</event>
<event>
 7    1  0.5068291E-011  0.5052886E+02  0.7816164E-02  0.1300439E+00
        -11   -1    0    0    0    0  0.00000000000E+00  0.00000000000E+00  0.45593999997E+02  0.45594000000E+02  0.51100000000E-03 0.  1.
         11   -1    0    0    0    0 -0.00000000000E+00 -0.00000000000E+00 -0.45593999997E+02  0.45594000000E+02  0.51100000000E-03 0. -1.
    9900012    2    1    2    0    0  0.31650338012E+02 -0.50173502503E+01 -0.25024944905E+02  0.50528861208E+02  0.30000004127E+02 0.  0.
        -12    1    1    2    0    0 -0.31650338012E+02  0.50173502503E+01  0.25024944905E+02  0.40659138792E+02  0.00000000000E+00 0.  1.
         11    1    3    3    0    0  0.16010722051E+02  0.70321679748E+01 -0.37845902387E+01  0.17891834187E+02  0.51100000000E-03 0. -1.
        -11    1    3    3    0    0 -0.17779290059E+00 -0.76883495224E+01 -0.10544560389E+02  0.13051056768E+02  0.51100000000E-03 0.  1.
         12    1    3    3    0    0  0.15817408861E+02 -0.43611687027E+01 -0.10695794277E+02  0.19585970253E+02  0.00000000000E+00 0. -1.
</event>
<event>
 7    1  0.5068291E-011  0.5052886E+02  0.7816164E-02  0.1300439E+00
        -11   -1    0    0    0    0  0.00000000000E+00  0.00000000000E+00  0.45593999997E+02  0.45594000000E+02  0.51100000000E-03 0.  1.
         11   -1    0    0    0    0 -0.00000000000E+00 -0.00000000000E+00 -0.45593999997E+02  0.45594000000E+02  0.51100000000E-03 0. -1.
    9900012    2    1    2    0    0  0.25555428507E+02 -0.17745987857E+02 -0.26175670684E+02  0.50528858999E+02  0.29999997413E+02 0.  0.
        -12    1    1    2    0    0 -0.25555428507E+02  0.17745987857E+02  0.26175670684E+02  0.40659141001E+02  0.00000000000E+00 0.  1.
         11    1    3    3    0    0 -0.30898779648E+01 -0.30783766651E+00 -0.50191862206E+01  0.59020623891E+01  0.51100000000E-03 0. -1.
        -11    1    3    3    0    0  0.25023217076E+02 -0.22092456653E+02 -0.18419634274E+02  0.38125069978E+02  0.51100000000E-03 0.  1.
        -12    1    3    3    0    0  0.36220893953E+01  0.46543064621E+01 -0.27368501892E+01  0.65017266314E+01  0.00000000000E+00 0.  1.
</event>
<event>
 7    1  0.5068291E-011  0.5052886E+02  0.7816164E-02  0.1300439E+00
        -11   -1    0    0    0    0  0.00000000000E+00  0.00000000000E+00  0.45593999997E+02  0.45594000000E+02  0.51100000000E-03 0. -1.
         11   -1    0    0    0    0 -0.00000000000E+00 -0.00000000000E+00 -0.45593999997E+02  0.45594000000E+02  0.51100000000E-03 0.  1.
    9900012    2    1    2    0    0  0.16908923683E+01 -0.31171421329E+02  0.26050886379E+02  0.50528864423E+02  0.30000013901E+02 0.  0.
        -12    1    1    2    0    0 -0.16908923683E+01  0.31171421329E+02 -0.26050886379E+02  0.40659135577E+02  0.00000000000E+00 0.  1.
         11    1    3    3    0    0  0.18716007567E+01 -0.25344574855E+02  0.32406002718E+02  0.41182512993E+02  0.51100000000E-03 0. -1.
        -11    1    3    3    0    0 -0.12692542146E+01 -0.55648373515E+01 -0.55980551181E+01  0.79947884510E+01  0.51100000000E-03 0.  1.
         12    1    3    3    0    0  0.10885458261E+01 -0.26200912313E+00 -0.75706122067E+00  0.13515629797E+01  0.00000000000E+00 0. -1.
</event>
<event>
 7    1  0.5068291E-011  0.5052886E+02  0.7816164E-02  0.1300439E+00
        -11   -1    0    0    0    0  0.00000000000E+00  0.00000000000E+00  0.45593999997E+02  0.45594000000E+02  0.51100000000E-03 0.  1.
         11   -1    0    0    0    0 -0.00000000000E+00 -0.00000000000E+00 -0.45593999997E+02  0.45594000000E+02  0.51100000000E-03 0. -1.
    9900012    2    1    2    0    0  0.38817180269E+02 -0.51736407847E+01 -0.10937349356E+02  0.50528860143E+02  0.30000000891E+02 0.  0.
        -12    1    1    2    0    0 -0.38817180269E+02  0.51736407847E+01  0.10937349356E+02  0.40659139857E+02  0.00000000000E+00 0.  1.
         11    1    3    3    0    0  0.21694744112E+02  0.71399552378E+01  0.37419625759E+01  0.23143966105E+02  0.51100000000E-03 0. -1.
        -11    1    3    3    0    0  0.35716315899E+01 -0.22658590453E+01  0.10083988370E+01  0.43482798786E+01  0.51100000000E-03 0.  1.
         12    1    3    3    0    0  0.13550804567E+02 -0.10047736977E+02 -0.15687710769E+02  0.23036614159E+02  0.00000000000E+00 0. -1.
</event>
<event>
 7    1  0.5068291E-011  0.5052886E+02  0.7816164E-02  0.1300439E+00
        -11   -1    0    0    0    0  0.00000000000E+00  0.00000000000E+00  0.45593999997E+02  0.45594000000E+02  0.51100000000E-03 0.  1.
         11   -1    0    0    0    0 -0.00000000000E+00 -0.00000000000E+00 -0.45593999997E+02  0.45594000000E+02  0.51100000000E-03 0. -1.
    9900012    2    1    2    0    0  0.37444918070E+02  0.15275938662E+02 -0.42059135476E+01  0.50528857116E+02  0.29999991689E+02 0.  0.
        -12    1    1    2    0    0 -0.37444918070E+02 -0.15275938662E+02  0.42059135476E+01  0.40659142884E+02  0.00000000000E+00 0.  1.
         11    1    3    3    0    0  0.37127959857E+01  0.13345550134E+02 -0.55890164958E+01  0.14937391609E+02  0.51100000000E-03 0. -1.
        -11    1    3    3    0    0  0.20884233704E+02  0.65642379191E+01  0.34838081043E+00  0.21894332744E+02  0.51100000000E-03 0.  1.
         12    1    3    3    0    0  0.12847888381E+02 -0.46338493916E+01  0.10347221377E+01  0.13697132764E+02  0.00000000000E+00 0. -1.
</event>
<event>
 7    1  0.5068291E-011  0.5052892E+02  0.7816164E-02  0.1300439E+00
        -11   -1    0    0    0    0  0.00000000000E+00  0.00000000000E+00  0.45593999997E+02  0.45594000000E+02  0.51100000000E-03 0.  1.
         11   -1    0    0    0    0 -0.00000000000E+00 -0.00000000000E+00 -0.45593999997E+02  0.45594000000E+02  0.51100000000E-03 0. -1.
    9900012    2    1    2    0    0  0.57459447288E+01  0.26786947495E+02 -0.30043378626E+02  0.50528916929E+02  0.30000173497E+02 0.  0.
        -12    1    1    2    0    0 -0.57459447288E+01 -0.26786947495E+02  0.30043378626E+02  0.40659083071E+02  0.00000000000E+00 0.  1.
         11    1    3    3    0    0  0.47336541442E+01 -0.46315454018E+01 -0.61012146472E+01  0.90046385157E+01  0.51100000000E-03 0. -1.
        -11    1    3    3    0    0  0.59076739475E+01  0.91261954250E+01 -0.55139398345E+01  0.12189814895E+02  0.51100000000E-03 0.  1.
         12    1    3    3    0    0 -0.48953833629E+01  0.22292297471E+02 -0.18428224144E+02  0.29334463519E+02  0.00000000000E+00 0. -1.
</event>
<event>
 7    1  0.5068291E-011  0.5052886E+02  0.7816164E-02  0.1300439E+00
        -11   -1    0    0    0    0  0.00000000000E+00  0.00000000000E+00  0.45593999997E+02  0.45594000000E+02  0.51100000000E-03 0. -1.
         11   -1    0    0    0    0 -0.00000000000E+00 -0.00000000000E+00 -0.45593999997E+02  0.45594000000E+02  0.51100000000E-03 0.  1.
    9900012    2    1    2    0    0  0.17298673278E+02  0.34812912945E+02  0.11915647524E+02  0.50528860058E+02  0.30000000633E+02 0.  0.
        -12    1    1    2    0    0 -0.17298673278E+02 -0.34812912945E+02 -0.11915647524E+02  0.40659139942E+02  0.00000000000E+00 0.  1.
         11    1    3    3    0    0  0.10083561493E+02  0.38633398016E+02  0.13053375562E+02  0.42007240667E+02  0.51100000000E-03 0. -1.
        -11    1    3    3    0    0  0.25354425374E+01 -0.24789520784E+01 -0.11857326279E+00  0.35479194110E+01  0.51100000000E-03 0.  1.
         12    1    3    3    0    0  0.46796692470E+01 -0.13415329927E+01 -0.10191547757E+01  0.49736999798E+01  0.00000000000E+00 0. -1.
</event>
<event>
 7    1  0.5068291E-011  0.5052888E+02  0.7816164E-02  0.1300439E+00
        -11   -1    0    0    0    0  0.00000000000E+00  0.00000000000E+00  0.45593999997E+02  0.45594000000E+02  0.51100000000E-03 0.  1.
         11   -1    0    0    0    0 -0.00000000000E+00 -0.00000000000E+00 -0.45593999997E+02  0.45594000000E+02  0.51100000000E-03 0. -1.
    9900012    2    1    2    0    0 -0.37296139698E+02  0.10637707473E+02 -0.12206588637E+02  0.50528884629E+02  0.30000075317E+02 0.  0.
        -12    1    1    2    0    0  0.37296139698E+02 -0.10637707473E+02  0.12206588637E+02  0.40659115371E+02  0.00000000000E+00 0.  1.
         11    1    3    3    0    0 -0.27614873038E+02 -0.26407994306E+01 -0.18480473595E+00  0.27741470538E+02  0.51100000000E-03 0. -1.
        -11    1    3    3    0    0 -0.25715922809E+01  0.10788735183E+02 -0.10129072525E+02  0.15020253133E+02  0.51100000000E-03 0.  1.
        -12    1    3    3    0    0 -0.71096743789E+01  0.24897717203E+01 -0.18927113764E+01  0.77671609580E+01  0.00000000000E+00 0.  1.
</event>
<event>
 7    1  0.5068291E-011  0.5052892E+02  0.7816164E-02  0.1300439E+00
        -11   -1    0    0    0    0  0.00000000000E+00  0.00000000000E+00  0.45593999997E+02  0.45594000000E+02  0.51100000000E-03 0.  1.
         11   -1    0    0    0    0 -0.00000000000E+00 -0.00000000000E+00 -0.45593999997E+02  0.45594000000E+02  0.51100000000E-03 0. -1.
    9900012    2    1    2    0    0 -0.77950235121E+01  0.27484928500E+02 -0.28930556104E+02  0.50528920292E+02  0.30000183718E+02 0.  0.
        -12    1    1    2    0    0  0.77950235121E+01 -0.27484928500E+02  0.28930556104E+02  0.40659079708E+02  0.00000000000E+00 0.  1.
         11    1    3    3    0    0 -0.92848954025E+01  0.25635543666E+02 -0.11022323194E+02  0.29408876050E+02  0.51100000000E-03 0. -1.
        -11    1    3    3    0    0 -0.27019255150E+01 -0.31746129878E+01 -0.10139501550E+02  0.10963031563E+02  0.51100000000E-03 0.  1.
         12    1    3    3    0    0  0.41917974053E+01  0.50239978218E+01 -0.77687313602E+01  0.10157012678E+02  0.00000000000E+00 0. -1.
</event>
<event>
 7    1  0.5068291E-011  0.5052886E+02  0.7816164E-02  0.1300439E+00
        -11   -1    0    0    0    0  0.00000000000E+00  0.00000000000E+00  0.45593999997E+02  0.45594000000E+02  0.51100000000E-03 0. -1.
         11   -1    0    0    0    0 -0.00000000000E+00 -0.00000000000E+00 -0.45593999997E+02  0.45594000000E+02  0.51100000000E-03 0.  1.
    9900012    2    1    2    0    0 -0.24959746973E+02  0.13708774267E+02  0.29021484121E+02  0.50528855869E+02  0.29999987899E+02 0.  0.
        -12    1    1    2    0    0  0.24959746973E+02 -0.13708774267E+02 -0.29021484121E+02  0.40659144131E+02  0.00000000000E+00 0.  1.
         11    1    3    3    0    0 -0.35362119211E+01 -0.53941272628E+01  0.11943883094E+02  0.13574157333E+02  0.51100000000E-03 0.  1.
        -11    1    3    3    0    0 -0.14348440922E+02  0.66274800607E+01  0.16509215041E+01  0.15891091559E+02  0.51100000000E-03 0. -1.
        -12    1    3    3    0    0 -0.70750941299E+01  0.12475421469E+02  0.15426679523E+02  0.21063606977E+02  0.00000000000E+00 0.  1.
</event>
<event>
 7    1  0.5068291E-011  0.5052886E+02  0.7816164E-02  0.1300439E+00
        -11   -1    0    0    0    0  0.00000000000E+00  0.00000000000E+00  0.45593999997E+02  0.45594000000E+02  0.51100000000E-03 0.  1.
         11   -1    0    0    0    0 -0.00000000000E+00 -0.00000000000E+00 -0.45593999997E+02  0.45594000000E+02  0.51100000000E-03 0. -1.
    9900012    2    1    2    0    0  0.29301776482E+01 -0.79393773645E+01 -0.39768654619E+02  0.50528861492E+02  0.30000004991E+02 0.  0.
        -12    1    1    2    0    0 -0.29301776482E+01  0.79393773645E+01  0.39768654619E+02  0.40659138508E+02  0.00000000000E+00 0.  1.
         11    1    3    3    0    0  0.19890947520E+01 -0.21901566505E+01 -0.26851236791E+02  0.27013740977E+02  0.51100000000E-03 0. -1.
        -11    1    3    3    0    0  0.65725041798E+01  0.34053080629E+01 -0.10042147837E+01  0.74700991821E+01  0.51100000000E-03 0.  1.
        -12    1    3    3    0    0 -0.56314212835E+01 -0.91545287770E+01 -0.11913203045E+02  0.16045021333E+02  0.00000000000E+00 0.  1.
</event>
<event>
 7    1  0.5068291E-011  0.5052887E+02  0.7816164E-02  0.1300439E+00
        -11   -1    0    0    0    0  0.00000000000E+00  0.00000000000E+00  0.45593999997E+02  0.45594000000E+02  0.51100000000E-03 0.  1.
         11   -1    0    0    0    0 -0.00000000000E+00 -0.00000000000E+00 -0.45593999997E+02  0.45594000000E+02  0.51100000000E-03 0. -1.
    9900012    2    1    2    0    0  0.26260543000E+01 -0.35329295509E+02 -0.19952688798E+02  0.50528867291E+02  0.30000022618E+02 0.  0.
        -12    1    1    2    0    0 -0.26260543000E+01  0.35329295509E+02  0.19952688798E+02  0.40659132709E+02  0.00000000000E+00 0.  1.
         11    1    3    3    0    0  0.29445855384E+01 -0.28126669202E+02 -0.18747583788E+02  0.33930104665E+02  0.51100000000E-03 0. -1.
        -11    1    3    3    0    0 -0.69532492741E+01 -0.51442242715E+01 -0.34298085545E+01  0.93045314662E+01  0.51100000000E-03 0.  1.
         12    1    3    3    0    0  0.66347180357E+01 -0.20584020358E+01  0.22247035452E+01  0.72942311602E+01  0.00000000000E+00 0. -1.
</event>
<event>
 7    1  0.5068291E-011  0.5052884E+02  0.7816164E-02  0.1300439E+00
        -11   -1    0    0    0    0  0.00000000000E+00  0.00000000000E+00  0.45593999997E+02  0.45594000000E+02  0.51100000000E-03 0.  1.
         11   -1    0    0    0    0 -0.00000000000E+00 -0.00000000000E+00 -0.45593999997E+02  0.45594000000E+02  0.51100000000E-03 0. -1.
    9900012    2    1    2    0    0 -0.93841170926E+01  0.38491298168E+02  0.91392310799E+01  0.50528840725E+02  0.29999941867E+02 0.  0.
        -12    1    1    2    0    0  0.93841170926E+01 -0.38491298168E+02 -0.91392310799E+01  0.40659159275E+02  0.00000000000E+00 0.  1.
         11    1    3    3    0    0 -0.16425111571E+02  0.20305552703E+02 -0.42508807453E+01  0.26460720853E+02  0.51100000000E-03 0. -1.
        -11    1    3    3    0    0  0.36173279911E+01  0.41929048379E+01  0.45431434824E+01  0.71627973403E+01  0.51100000000E-03 0.  1.
         12    1    3    3    0    0  0.34236664874E+01  0.13992840627E+02  0.88469683428E+01  0.16905322531E+02  0.00000000000E+00 0. -1.
</event>
<event>
 7    1  0.5068291E-011  0.5052895E+02  0.7816164E-02  0.1300438E+00
        -11   -1    0    0    0    0  0.00000000000E+00  0.00000000000E+00  0.45593999997E+02  0.45594000000E+02  0.51100000000E-03 0.  1.
         11   -1    0    0    0    0 -0.00000000000E+00 -0.00000000000E+00 -0.45593999997E+02  0.45594000000E+02  0.51100000000E-03 0. -1.
    9900012    2    1    2    0    0 -0.10790614548E+02  0.12039102821E+02 -0.37306580520E+02  0.50528950464E+02  0.30000275430E+02 0.  0.
        -12    1    1    2    0    0  0.10790614548E+02 -0.12039102821E+02  0.37306580520E+02  0.40659049536E+02  0.00000000000E+00 0.  1.
         11    1    3    3    0    0 -0.19802045587E+02  0.82553905681E+01 -0.23313529522E+02  0.31682694675E+02  0.51100000000E-03 0. -1.
        -11    1    3    3    0    0  0.44103032643E+01 -0.31775931473E+00 -0.11272584367E+02  0.12108794508E+02  0.51100000000E-03 0.  1.
         12    1    3    3    0    0  0.46011277749E+01  0.41014715680E+01 -0.27204666308E+01  0.67374612811E+01  0.00000000000E+00 0. -1.
</event>
<event>
 7    1  0.5068291E-011  0.5052886E+02  0.7816164E-02  0.1300439E+00
        -11   -1    0    0    0    0  0.00000000000E+00  0.00000000000E+00  0.45593999997E+02  0.45594000000E+02  0.51100000000E-03 0. -1.
         11   -1    0    0    0    0 -0.00000000000E+00 -0.00000000000E+00 -0.45593999997E+02  0.45594000000E+02  0.51100000000E-03 0.  1.
    9900012    2    1    2    0    0  0.42356834780E+01 -0.34924903911E+02  0.20383220630E+02  0.50528860671E+02  0.30000002495E+02 0.  0.
        -12    1    1    2    0    0 -0.42356834780E+01  0.34924903911E+02 -0.20383220630E+02  0.40659139329E+02  0.00000000000E+00 0.  1.
         11    1    3    3    0    0  0.50376581102E+01 -0.61501708568E+01  0.13322021068E+02  0.15513827587E+02  0.51100000000E-03 0.  1.
        -11    1    3    3    0    0 -0.51383678437E+01 -0.22672768217E+02 -0.19156005540E+01  0.23326524997E+02  0.51100000000E-03 0. -1.
         12    1    3    3    0    0  0.43363932114E+01 -0.61019648375E+01  0.89768001163E+01  0.11688508087E+02  0.00000000000E+00 0. -1.
</event>
<event>
 7    1  0.5068291E-011  0.5052886E+02  0.7816164E-02  0.1300439E+00
        -11   -1    0    0    0    0  0.00000000000E+00  0.00000000000E+00  0.45593999997E+02  0.45594000000E+02  0.51100000000E-03 0.  1.
         11   -1    0    0    0    0 -0.00000000000E+00 -0.00000000000E+00 -0.45593999997E+02  0.45594000000E+02  0.51100000000E-03 0. -1.
    9900012    2    1    2    0    0  0.16261749467E+02  0.37070199248E+02  0.38107356669E+01  0.50528857432E+02  0.29999992651E+02 0.  0.
        -12    1    1    2    0    0 -0.16261749467E+02 -0.37070199248E+02 -0.38107356669E+01  0.40659142568E+02  0.00000000000E+00 0.  1.
         11    1    3    3    0    0 -0.39472745222E+00  0.22439854216E+02 -0.53117080269E+01  0.23063328238E+02  0.51100000000E-03 0. -1.
        -11    1    3    3    0    0  0.11195615012E+02  0.91812783159E+01  0.12419820403E+02  0.19075890703E+02  0.51100000000E-03 0.  1.
         12    1    3    3    0    0  0.54608619076E+01  0.54490667164E+01 -0.32973767095E+01  0.83896384915E+01  0.00000000000E+00 0. -1.
</event>
<event>
 7    1  0.5068291E-011  0.5052886E+02  0.7816164E-02  0.1300439E+00
        -11   -1    0    0    0    0  0.00000000000E+00  0.00000000000E+00  0.45593999997E+02  0.45594000000E+02  0.51100000000E-03 0.  1.
         11   -1    0    0    0    0 -0.00000000000E+00 -0.00000000000E+00 -0.45593999997E+02  0.45594000000E+02  0.51100000000E-03 0. -1.
    9900012    2    1    2    0    0 -0.23796083528E+01 -0.38290950699E+02  0.13465007937E+02  0.50528857362E+02  0.29999992438E+02 0.  0.
        -12    1    1    2    0    0  0.23796083528E+01  0.38290950699E+02 -0.13465007937E+02  0.40659142638E+02  0.00000000000E+00 0.  1.
         11    1    3    3    0    0 -0.85040408626E+01 -0.39315367367E+02  0.12426134577E+02  0.42100185783E+02  0.51100000000E-03 0. -1.
        -11    1    3    3    0    0  0.70786561782E+01  0.57257190292E+00  0.24198789871E+00  0.71058968666E+01  0.51100000000E-03 0.  1.
         12    1    3    3    0    0 -0.95422366844E+00  0.45184476532E+00  0.79688546150E+00  0.13227747125E+01  0.00000000000E+00 0. -1.
</event>
<event>
 7    1  0.5068291E-011  0.5052886E+02  0.7816164E-02  0.1300439E+00
        -11   -1    0    0    0    0  0.00000000000E+00  0.00000000000E+00  0.45593999997E+02  0.45594000000E+02  0.51100000000E-03 0.  1.
         11   -1    0    0    0    0 -0.00000000000E+00 -0.00000000000E+00 -0.45593999997E+02  0.45594000000E+02  0.51100000000E-03 0. -1.
    9900012    2    1    2    0    0 -0.32945266111E+02 -0.21026883239E+02 -0.11209177018E+02  0.50528855551E+02  0.29999986933E+02 0.  0.
        -12    1    1    2    0    0  0.32945266111E+02  0.21026883239E+02  0.11209177018E+02  0.40659144449E+02  0.00000000000E+00 0.  1.
         11    1    3    3    0    0 -0.10799374869E+02 -0.21405080793E+02 -0.79590181385E+01  0.25261630021E+02  0.51100000000E-03 0. -1.
        -11    1    3    3    0    0 -0.12003469330E+01  0.25756135577E+01 -0.31012142551E+01  0.42062035228E+01  0.51100000000E-03 0.  1.
         12    1    3    3    0    0 -0.20945544309E+02 -0.21974160042E+01 -0.14894462470E+00  0.21061022008E+02  0.00000000000E+00 0. -1.
</event>
<event>
 7    1  0.5068291E-011  0.5052882E+02  0.7816164E-02  0.1300439E+00
        -11   -1    0    0    0    0  0.00000000000E+00  0.00000000000E+00  0.45593999997E+02  0.45594000000E+02  0.51100000000E-03 0. -1.
         11   -1    0    0    0    0 -0.00000000000E+00 -0.00000000000E+00 -0.45593999997E+02  0.45594000000E+02  0.51100000000E-03 0.  1.
    9900012    2    1    2    0    0 -0.16551842802E+01 -0.39133328612E+02  0.10909246235E+02  0.50528822725E+02  0.29999887155E+02 0.  0.
        -12    1    1    2    0    0  0.16551842802E+01  0.39133328612E+02 -0.10909246235E+02  0.40659177275E+02  0.00000000000E+00 0.  1.
         11    1    3    3    0    0 -0.67429686198E+01 -0.32726979838E+02  0.58420970806E+01  0.33921275532E+02  0.51100000000E-03 0. -1.
        -11    1    3    3    0    0  0.33995440102E+01  0.27890173710E+01  0.57441571347E+01  0.72340071069E+01  0.51100000000E-03 0.  1.
        -12    1    3    3    0    0  0.16882403294E+01 -0.91953661445E+01 -0.67700797998E+00  0.93735400862E+01  0.00000000000E+00 0.  1.
</event>
<event>
 7    1  0.5068291E-011  0.5052887E+02  0.7816164E-02  0.1300439E+00
        -11   -1    0    0    0    0  0.00000000000E+00  0.00000000000E+00  0.45593999997E+02  0.45594000000E+02  0.51100000000E-03 0.  1.
         11   -1    0    0    0    0 -0.00000000000E+00 -0.00000000000E+00 -0.45593999997E+02  0.45594000000E+02  0.51100000000E-03 0. -1.
    9900012    2    1    2    0    0 -0.42097249992E+01 -0.18001286216E+02 -0.36213218110E+02  0.50528865037E+02  0.30000015767E+02 0.  0.
        -12    1    1    2    0    0  0.42097249992E+01  0.18001286216E+02  0.36213218110E+02  0.40659134963E+02  0.00000000000E+00 0.  1.
         11    1    3    3    0    0  0.83515665160E+01  0.72930981260E+00 -0.69910233874E+01  0.10915812583E+02  0.51100000000E-03 0.  1.
        -11    1    3    3    0    0 -0.14258029317E+02 -0.91544504803E+01 -0.19971988805E+02  0.26191137828E+02  0.51100000000E-03 0. -1.
         12    1    3    3    0    0  0.16967378020E+01 -0.95761455485E+01 -0.92502059177E+01  0.13421914627E+02  0.00000000000E+00 0. -1.
</event>
<event>
 7    1  0.5068291E-011  0.5052886E+02  0.7816164E-02  0.1300439E+00
        -11   -1    0    0    0    0  0.00000000000E+00  0.00000000000E+00  0.45593999997E+02  0.45594000000E+02  0.51100000000E-03 0.  1.
         11   -1    0    0    0    0 -0.00000000000E+00 -0.00000000000E+00 -0.45593999997E+02  0.45594000000E+02  0.51100000000E-03 0. -1.
    9900012    2    1    2    0    0  0.70136774289E+00  0.31696735080E+02 -0.25455665573E+02  0.50528857839E+02  0.29999993888E+02 0.  0.
        -12    1    1    2    0    0 -0.70136774289E+00 -0.31696735080E+02  0.25455665573E+02  0.40659142161E+02  0.00000000000E+00 0.  1.
         11    1    3    3    0    0  0.90784124072E+01  0.14620325325E+02 -0.20834397326E+02  0.27023019754E+02  0.51100000000E-03 0. -1.
        -11    1    3    3    0    0 -0.42777517361E+01  0.21028236383E+01  0.35676230149E+01  0.59539030397E+01  0.51100000000E-03 0.  1.
         12    1    3    3    0    0 -0.40992929283E+01  0.14973586118E+02 -0.81888912616E+01  0.17551935045E+02  0.00000000000E+00 0. -1.
</event>
<event>
 7    1  0.5068291E-011  0.5052886E+02  0.7816164E-02  0.1300439E+00
        -11   -1    0    0    0    0  0.00000000000E+00  0.00000000000E+00  0.45593999997E+02  0.45594000000E+02  0.51100000000E-03 0.  1.
         11   -1    0    0    0    0 -0.00000000000E+00 -0.00000000000E+00 -0.45593999997E+02  0.45594000000E+02  0.51100000000E-03 0. -1.
    9900012    2    1    2    0    0  0.29559196919E+02  0.15676521836E+02 -0.23101209482E+02  0.50528864017E+02  0.30000012666E+02 0.  0.
        -12    1    1    2    0    0 -0.29559196919E+02 -0.15676521836E+02  0.23101209482E+02  0.40659135983E+02  0.00000000000E+00 0.  1.
         11    1    3    3    0    0  0.13869123665E+02  0.30083539685E+01 -0.23849268617E+02  0.27752304385E+02  0.51100000000E-03 0. -1.
        -11    1    3    3    0    0  0.59986824629E+01  0.11106052677E+02  0.23230646271E+01  0.12834532593E+02  0.51100000000E-03 0.  1.
         12    1    3    3    0    0  0.96913907915E+01  0.15621151904E+01 -0.15750054915E+01  0.99420270388E+01  0.00000000000E+00 0. -1.
</event>
<event>
 7    1  0.5068291E-011  0.5052887E+02  0.7816164E-02  0.1300439E+00
        -11   -1    0    0    0    0  0.00000000000E+00  0.00000000000E+00  0.45593999997E+02  0.45594000000E+02  0.51100000000E-03 0. -1.
         11   -1    0    0    0    0 -0.00000000000E+00 -0.00000000000E+00 -0.45593999997E+02  0.45594000000E+02  0.51100000000E-03 0.  1.
    9900012    2    1    2    0    0  0.28175646616E+02  0.11298724336E+02  0.27048776821E+02  0.50528873578E+02  0.30000041727E+02 0.  0.
        -12    1    1    2    0    0 -0.28175646616E+02 -0.11298724336E+02 -0.27048776821E+02  0.40659126422E+02  0.00000000000E+00 0.  1.
         11    1    3    3    0    0  0.14310490436E+02  0.13922739793E+02  0.28543167550E+02  0.34833105431E+02  0.51100000000E-03 0. -1.
        -11    1    3    3    0    0  0.64688132381E+01  0.20206208279E+01  0.28311659343E+00  0.67829645810E+01  0.51100000000E-03 0.  1.
         12    1    3    3    0    0  0.73963429420E+01 -0.46446362845E+01 -0.17775073225E+01  0.89128035663E+01  0.00000000000E+00 0. -1.
</event>
<event>
 7    1  0.5068291E-011  0.5052889E+02  0.7816164E-02  0.1300439E+00
        -11   -1    0    0    0    0  0.00000000000E+00  0.00000000000E+00  0.45593999997E+02  0.45594000000E+02  0.51100000000E-03 0. -1.
         11   -1    0    0    0    0 -0.00000000000E+00 -0.00000000000E+00 -0.45593999997E+02  0.45594000000E+02  0.51100000000E-03 0.  1.
    9900012    2    1    2    0    0  0.20822418377E+02 -0.27637323320E+02  0.21348736148E+02  0.50528889306E+02  0.30000089534E+02 0.  0.
        -12    1    1    2    0    0 -0.20822418377E+02  0.27637323320E+02 -0.21348736148E+02  0.40659110694E+02  0.00000000000E+00 0.  1.
         11    1    3    3    0    0  0.81315262410E+01 -0.44183243178E+01  0.69648692324E+01  0.11582431199E+02  0.51100000000E-03 0. -1.
        -11    1    3    3    0    0 -0.62523699295E+01 -0.48507213760E+01  0.90582079000E+01  0.12027998929E+02  0.51100000000E-03 0.  1.
        -12    1    3    3    0    0  0.18943262065E+02 -0.18368277626E+02  0.53256590151E+01  0.26918459179E+02  0.00000000000E+00 0.  1.
</event>
<event>
 7    1  0.5068291E-011  0.5052886E+02  0.7816164E-02  0.1300439E+00
        -11   -1    0    0    0    0  0.00000000000E+00  0.00000000000E+00  0.45593999997E+02  0.45594000000E+02  0.51100000000E-03 0.  1.
         11   -1    0    0    0    0 -0.00000000000E+00 -0.00000000000E+00 -0.45593999997E+02  0.45594000000E+02  0.51100000000E-03 0. -1.
    9900012    2    1    2    0    0 -0.24423694880E+02 -0.14870269993E+02 -0.28905435440E+02  0.50528855897E+02  0.29999987984E+02 0.  0.
        -12    1    1    2    0    0  0.24423694880E+02  0.14870269993E+02  0.28905435440E+02  0.40659144103E+02  0.00000000000E+00 0.  1.
         11    1    3    3    0    0 -0.22120260806E+02 -0.87775239629E+01 -0.24690787059E+02  0.34292649809E+02  0.51100000000E-03 0. -1.
        -11    1    3    3    0    0  0.48009310317E+01 -0.70169919649E+01 -0.26191259006E+01  0.88964563591E+01  0.51100000000E-03 0.  1.
         12    1    3    3    0    0 -0.71043651054E+01  0.92424593495E+00 -0.15955224801E+01  0.73397497289E+01  0.00000000000E+00 0. -1.
</event>
<event>
 7    1  0.5068291E-011  0.5052887E+02  0.7816164E-02  0.1300439E+00
        -11   -1    0    0    0    0  0.00000000000E+00  0.00000000000E+00  0.45593999997E+02  0.45594000000E+02  0.51100000000E-03 0. -1.
         11   -1    0    0    0    0 -0.00000000000E+00 -0.00000000000E+00 -0.45593999997E+02  0.45594000000E+02  0.51100000000E-03 0.  1.
    9900012    2    1    2    0    0 -0.28234721857E+02  0.25902927857E+02 -0.13601605646E+02  0.50528869831E+02  0.30000030339E+02 0.  0.
        -12    1    1    2    0    0  0.28234721857E+02 -0.25902927857E+02  0.13601605646E+02  0.40659130169E+02  0.00000000000E+00 0.  1.
         11    1    3    3    0    0 -0.12246956528E+02  0.78475790549E+01  0.53748000553E+01  0.15506802285E+02  0.51100000000E-03 0. -1.
        -11    1    3    3    0    0 -0.47144894337E+01  0.56835351518E+01 -0.16532827079E+02  0.18106997374E+02  0.51100000000E-03 0.  1.
        -12    1    3    3    0    0 -0.11273275896E+02  0.12371813650E+02 -0.24435786231E+01  0.16915070172E+02  0.00000000000E+00 0.  1.
</event>
<event>
 7    1  0.5068291E-011  0.5052886E+02  0.7816164E-02  0.1300439E+00
        -11   -1    0    0    0    0  0.00000000000E+00  0.00000000000E+00  0.45593999997E+02  0.45594000000E+02  0.51100000000E-03 0. -1.
         11   -1    0    0    0    0 -0.00000000000E+00 -0.00000000000E+00 -0.45593999997E+02  0.45594000000E+02  0.51100000000E-03 0.  1.
    9900012    2    1    2    0    0  0.18914575040E+02  0.55053221373E+01  0.35568187787E+02  0.50528859537E+02  0.29999999048E+02 0.  0.
        -12    1    1    2    0    0 -0.18914575040E+02 -0.55053221373E+01 -0.35568187787E+02  0.40659140463E+02  0.00000000000E+00 0.  1.
         11    1    3    3    0    0  0.16853731417E+02 -0.47050719747E+01  0.83386668450E+01  0.19383480853E+02  0.51100000000E-03 0. -1.
        -11    1    3    3    0    0 -0.26068126238E+01  0.62037203455E+00  0.10524491943E+01  0.28788857367E+01  0.51100000000E-03 0.  1.
         12    1    3    3    0    0  0.46676562474E+01  0.95900220774E+01  0.26177071747E+02  0.28266492948E+02  0.00000000000E+00 0. -1.
</event>
<event>
 7    1  0.5068291E-011  0.5052886E+02  0.7816164E-02  0.1300439E+00
        -11   -1    0    0    0    0  0.00000000000E+00  0.00000000000E+00  0.45593999997E+02  0.45594000000E+02  0.51100000000E-03 0.  1.
         11   -1    0    0    0    0 -0.00000000000E+00 -0.00000000000E+00 -0.45593999997E+02  0.45594000000E+02  0.51100000000E-03 0. -1.
    9900012    2    1    2    0    0 -0.24706523075E+02 -0.21916694477E+02 -0.23715228687E+02  0.50528857721E+02  0.29999993528E+02 0.  0.
        -12    1    1    2    0    0  0.24706523075E+02  0.21916694477E+02  0.23715228687E+02  0.40659142279E+02  0.00000000000E+00 0.  1.
         11    1    3    3    0    0 -0.30756075348E+02 -0.15007144595E+02 -0.14197625176E+02  0.37050278280E+02  0.51100000000E-03 0. -1.
        -11    1    3    3    0    0  0.11153397436E+01 -0.25313920833E+01 -0.16881014121E+01  0.32406195799E+01  0.51100000000E-03 0.  1.
         12    1    3    3    0    0  0.49342125301E+01 -0.43781577986E+01 -0.78295020985E+01  0.10237959861E+02  0.00000000000E+00 0. -1.
</event>
<event>
 7    1  0.5068291E-011  0.5052885E+02  0.7816164E-02  0.1300439E+00
        -11   -1    0    0    0    0  0.00000000000E+00  0.00000000000E+00  0.45593999997E+02  0.45594000000E+02  0.51100000000E-03 0.  1.
         11   -1    0    0    0    0 -0.00000000000E+00 -0.00000000000E+00 -0.45593999997E+02  0.45594000000E+02  0.51100000000E-03 0. -1.
    9900012    2    1    2    0    0 -0.39577918331E+01 -0.92730430275E+01 -0.39389247548E+02  0.50528852621E+02  0.29999978026E+02 0.  0.
        -12    1    1    2    0    0  0.39577918331E+01  0.92730430275E+01  0.39389247548E+02  0.40659147379E+02  0.00000000000E+00 0.  1.
         11    1    3    3    0    0  0.52265390847E+01 -0.58938654662E+01 -0.14038595730E+02  0.16097718201E+02  0.51100000000E-03 0. -1.
        -11    1    3    3    0    0 -0.63687717064E+01  0.58559182063E+01 -0.22886000789E+02  0.24466754248E+02  0.51100000000E-03 0.  1.
        -12    1    3    3    0    0 -0.28155592114E+01 -0.92350957677E+01 -0.24646510297E+01  0.99643801719E+01  0.00000000000E+00 0.  1.
</event>
<event>
 7    1  0.5068291E-011  0.5052886E+02  0.7816164E-02  0.1300439E+00
        -11   -1    0    0    0    0  0.00000000000E+00  0.00000000000E+00  0.45593999997E+02  0.45594000000E+02  0.51100000000E-03 0.  1.
         11   -1    0    0    0    0 -0.00000000000E+00 -0.00000000000E+00 -0.45593999997E+02  0.45594000000E+02  0.51100000000E-03 0. -1.
    9900012    2    1    2    0    0 -0.96878955581E+01 -0.69746071749E+01 -0.38867276024E+02  0.50528860670E+02  0.30000002491E+02 0.  0.
        -12    1    1    2    0    0  0.96878955581E+01  0.69746071749E+01  0.38867276024E+02  0.40659139330E+02  0.00000000000E+00 0.  1.
         11    1    3    3    0    0 -0.99010018749E+01 -0.10201724316E+02 -0.10488180023E+02  0.17666548548E+02  0.51100000000E-03 0. -1.
        -11    1    3    3    0    0  0.29466272200E+01  0.37062424183E+01 -0.29493927573E+02  0.29871568569E+02  0.51100000000E-03 0.  1.
         12    1    3    3    0    0 -0.27335209031E+01 -0.47912527736E+00  0.11148315726E+01  0.29907435521E+01  0.00000000000E+00 0. -1.
</event>
<event>
 7    1  0.5068291E-011  0.5052888E+02  0.7816164E-02  0.1300439E+00
        -11   -1    0    0    0    0  0.00000000000E+00  0.00000000000E+00  0.45593999997E+02  0.45594000000E+02  0.51100000000E-03 0. -1.
         11   -1    0    0    0    0 -0.00000000000E+00 -0.00000000000E+00 -0.45593999997E+02  0.45594000000E+02  0.51100000000E-03 0.  1.
    9900012    2    1    2    0    0  0.58934376772E+01  0.56267998334E+01  0.39834290383E+02  0.50528878338E+02  0.30000056197E+02 0.  0.
        -12    1    1    2    0    0 -0.58934376772E+01 -0.56267998334E+01 -0.39834290383E+02  0.40659121662E+02  0.00000000000E+00 0.  1.
         11    1    3    3    0    0 -0.87679606197E+00 -0.49368393778E+01  0.20473780276E+02  0.21078824290E+02  0.51100000000E-03 0. -1.
        -11    1    3    3    0    0 -0.32142794998E+01  0.11320732777E+02  0.76216022260E+01  0.14020677732E+02  0.51100000000E-03 0.  1.
         12    1    3    3    0    0  0.99845132389E+01 -0.75709356629E+00  0.11738907880E+02  0.15429376316E+02  0.00000000000E+00 0. -1.
</event>
<event>
 7    1  0.5068291E-011  0.5052886E+02  0.7816164E-02  0.1300439E+00
        -11   -1    0    0    0    0  0.00000000000E+00  0.00000000000E+00  0.45593999997E+02  0.45594000000E+02  0.51100000000E-03 0.  1.
         11   -1    0    0    0    0 -0.00000000000E+00 -0.00000000000E+00 -0.45593999997E+02  0.45594000000E+02  0.51100000000E-03 0. -1.
    9900012    2    1    2    0    0  0.10406492673E+02  0.36097851822E+02 -0.15550434811E+02  0.50528855657E+02  0.29999987255E+02 0.  0.
        -12    1    1    2    0    0 -0.10406492673E+02 -0.36097851822E+02  0.15550434811E+02  0.40659144343E+02  0.00000000000E+00 0.  1.
         11    1    3    3    0    0  0.74802351732E+01  0.90997218926E+01 -0.18340087157E+01  0.11921511859E+02  0.51100000000E-03 0.  1.
        -11    1    3    3    0    0  0.37118405814E+01  0.20643676120E+02 -0.20465109918E+02  0.29304604561E+02  0.51100000000E-03 0. -1.
        -12    1    3    3    0    0 -0.78558308149E+00  0.63544538089E+01  0.67486838223E+01  0.93027392375E+01  0.00000000000E+00 0.  1.
</event>
<event>
 7    1  0.5068291E-011  0.5052886E+02  0.7816164E-02  0.1300439E+00
        -11   -1    0    0    0    0  0.00000000000E+00  0.00000000000E+00  0.45593999997E+02  0.45594000000E+02  0.51100000000E-03 0.  1.
         11   -1    0    0    0    0 -0.00000000000E+00 -0.00000000000E+00 -0.45593999997E+02  0.45594000000E+02  0.51100000000E-03 0. -1.
    9900012    2    1    2    0    0  0.36188025216E+01 -0.36512506565E+02 -0.17518746512E+02  0.50528863920E+02  0.30000012373E+02 0.  0.
        -12    1    1    2    0    0 -0.36188025216E+01  0.36512506565E+02  0.17518746512E+02  0.40659136080E+02  0.00000000000E+00 0.  1.
         11    1    3    3    0    0 -0.10501035415E+02 -0.29044750540E+02 -0.82325791788E+01  0.31963176296E+02  0.51100000000E-03 0. -1.
        -11    1    3    3    0    0  0.77244791090E+01 -0.43068081047E+01 -0.61545096610E+01  0.10774700134E+02  0.51100000000E-03 0.  1.
         12    1    3    3    0    0  0.63953588278E+01 -0.31609479203E+01 -0.31316576724E+01  0.77909874900E+01  0.00000000000E+00 0. -1.
</event>
<event>
 7    1  0.5068291E-011  0.5052885E+02  0.7816164E-02  0.1300439E+00
        -11   -1    0    0    0    0  0.00000000000E+00  0.00000000000E+00  0.45593999997E+02  0.45594000000E+02  0.51100000000E-03 0.  1.
         11   -1    0    0    0    0 -0.00000000000E+00 -0.00000000000E+00 -0.45593999997E+02  0.45594000000E+02  0.51100000000E-03 0. -1.
    9900012    2    1    2    0    0 -0.19770940915E+02 -0.15194138904E+02 -0.32115642784E+02  0.50528850069E+02  0.29999970268E+02 0.  0.
        -12    1    1    2    0    0  0.19770940915E+02  0.15194138904E+02  0.32115642784E+02  0.40659149931E+02  0.00000000000E+00 0.  1.
         11    1    3    3    0    0  0.10909311430E+01 -0.13998601168E+02 -0.40090138887E+01  0.14602162786E+02  0.51100000000E-03 0. -1.
        -11    1    3    3    0    0 -0.59941305620E+01  0.16148203740E+01 -0.13669560870E+02  0.15013132274E+02  0.51100000000E-03 0.  1.
         12    1    3    3    0    0 -0.14867741496E+02 -0.28103581098E+01 -0.14437068025E+02  0.20913555008E+02  0.00000000000E+00 0. -1.
</event>
<event>
 7    1  0.5068291E-011  0.5052886E+02  0.7816164E-02  0.1300439E+00
        -11   -1    0    0    0    0  0.00000000000E+00  0.00000000000E+00  0.45593999997E+02  0.45594000000E+02  0.51100000000E-03 0. -1.
         11   -1    0    0    0    0 -0.00000000000E+00 -0.00000000000E+00 -0.45593999997E+02  0.45594000000E+02  0.51100000000E-03 0.  1.
    9900012    2    1    2    0    0 -0.21368152919E+02 -0.29169881129E+02  0.18592635352E+02  0.50528855720E+02  0.29999987447E+02 0.  0.
        -12    1    1    2    0    0  0.21368152919E+02  0.29169881129E+02 -0.18592635352E+02  0.40659144280E+02  0.00000000000E+00 0.  1.
         11    1    3    3    0    0 -0.88692959760E+01  0.26501335510E+01 -0.23929841101E+01  0.95610664761E+01  0.51100000000E-03 0. -1.
        -11    1    3    3    0    0 -0.13862483961E+00 -0.10758983950E+02  0.61108177830E+01  0.12374047305E+02  0.51100000000E-03 0.  1.
         12    1    3    3    0    0 -0.12360232104E+02 -0.21061030730E+02  0.14874801679E+02  0.28593741939E+02  0.00000000000E+00 0. -1.
</event>
<event>
 7    1  0.5068291E-011  0.5052898E+02  0.7816164E-02  0.1300438E+00
        -11   -1    0    0    0    0  0.00000000000E+00  0.00000000000E+00  0.45593999997E+02  0.45594000000E+02  0.51100000000E-03 0. -1.
         11   -1    0    0    0    0 -0.00000000000E+00 -0.00000000000E+00 -0.45593999997E+02  0.45594000000E+02  0.51100000000E-03 0.  1.
    9900012    2    1    2    0    0  0.12669304456E+02  0.14670086120E+02  0.35741193564E+02  0.50528983539E+02  0.30000375963E+02 0.  0.
        -12    1    1    2    0    0 -0.12669304456E+02 -0.14670086120E+02 -0.35741193564E+02  0.40659016461E+02  0.00000000000E+00 0.  1.
         11    1    3    3    0    0 -0.39153447861E+01  0.87898551846E+01  0.13300870077E+02  0.16416595994E+02  0.51100000000E-03 0. -1.
        -11    1    3    3    0    0  0.36422745850E+01 -0.29388167643E+01 -0.19960802372E+01  0.50879411063E+01  0.51100000000E-03 0.  1.
        -12    1    3    3    0    0  0.12942374657E+02  0.88190477002E+01  0.24436403724E+02  0.29024446439E+02  0.00000000000E+00 0.  1.
</event>
<event>
 7    1  0.5068291E-011  0.5052886E+02  0.7816164E-02  0.1300439E+00
        -11   -1    0    0    0    0  0.00000000000E+00  0.00000000000E+00  0.45593999997E+02  0.45594000000E+02  0.51100000000E-03 0. -1.
         11   -1    0    0    0    0 -0.00000000000E+00 -0.00000000000E+00 -0.45593999997E+02  0.45594000000E+02  0.51100000000E-03 0.  1.
    9900012    2    1    2    0    0 -0.74046352070E+01  0.16302263756E+02  0.36504428052E+02  0.50528859656E+02  0.29999999409E+02 0.  0.
        -12    1    1    2    0    0  0.74046352070E+01 -0.16302263756E+02 -0.36504428052E+02  0.40659140344E+02  0.00000000000E+00 0.  1.
         11    1    3    3    0    0  0.38334060591E+01 -0.17622224743E+01  0.23358941747E+01  0.48225337655E+01  0.51100000000E-03 0. -1.
        -11    1    3    3    0    0 -0.12899891024E+02  0.23932381000E+01  0.22689553577E+02  0.26209742822E+02  0.51100000000E-03 0.  1.
        -12    1    3    3    0    0  0.16618497575E+01  0.15671248130E+02  0.11478980301E+02  0.19496583068E+02  0.00000000000E+00 0.  1.
</event>
<event>
 7    1  0.5068291E-011  0.5052887E+02  0.7816164E-02  0.1300439E+00
        -11   -1    0    0    0    0  0.00000000000E+00  0.00000000000E+00  0.45593999997E+02  0.45594000000E+02  0.51100000000E-03 0.  1.
         11   -1    0    0    0    0 -0.00000000000E+00 -0.00000000000E+00 -0.45593999997E+02  0.45594000000E+02  0.51100000000E-03 0. -1.
    9900012    2    1    2    0    0 -0.24738359565E+02  0.18931962391E+02 -0.26129667816E+02  0.50528866043E+02  0.30000018825E+02 0.  0.
        -12    1    1    2    0    0  0.24738359565E+02 -0.18931962391E+02  0.26129667816E+02  0.40659133957E+02  0.00000000000E+00 0.  1.
         11    1    3    3    0    0 -0.54365791006E+01 -0.26663827929E+01 -0.57600850976E+01  0.83573063907E+01  0.51100000000E-03 0. -1.
        -11    1    3    3    0    0 -0.18264381883E+02  0.25916367436E+02 -0.14639923720E+02  0.34922386995E+02  0.51100000000E-03 0.  1.
        -12    1    3    3    0    0 -0.10373985817E+01 -0.43180222521E+01 -0.57296589980E+01  0.72491726576E+01  0.00000000000E+00 0.  1.
</event>
<event>
 7    1  0.5068291E-011  0.5052886E+02  0.7816164E-02  0.1300439E+00
        -11   -1    0    0    0    0  0.00000000000E+00  0.00000000000E+00  0.45593999997E+02  0.45594000000E+02  0.51100000000E-03 0. -1.
         11   -1    0    0    0    0 -0.00000000000E+00 -0.00000000000E+00 -0.45593999997E+02  0.45594000000E+02  0.51100000000E-03 0.  1.
    9900012    2    1    2    0    0 -0.16007114155E+02  0.36563923651E+02  0.77471081280E+01  0.50528857108E+02  0.29999991667E+02 0.  0.
        -12    1    1    2    0    0  0.16007114155E+02 -0.36563923651E+02 -0.77471081280E+01  0.40659142892E+02  0.00000000000E+00 0.  1.
         11    1    3    3    0    0 -0.20275542814E+02  0.24882081473E+02 -0.29259919696E+01  0.32230064289E+02  0.51100000000E-03 0. -1.
        -11    1    3    3    0    0  0.35668083159E+01  0.94340986994E+01  0.33833980715E+01  0.10638219898E+02  0.51100000000E-03 0.  1.
         12    1    3    3    0    0  0.70162034273E+00  0.22477434787E+01  0.72897020261E+01  0.76605729212E+01  0.00000000000E+00 0. -1.
</event>
<event>
 7    1  0.6610836E-011  0.5052886E+02  0.7816164E-02  0.1300439E+00
        -11   -1    0    0    0    0  0.00000000000E+00  0.00000000000E+00  0.45593999997E+02  0.45594000000E+02  0.51100000000E-03 0. -1.
         11   -1    0    0    0    0 -0.00000000000E+00 -0.00000000000E+00 -0.45593999997E+02  0.45594000000E+02  0.51100000000E-03 0.  1.
    9900012    2    1    2    0    0  0.13677613520E+02  0.33867676089E+02  0.17862505744E+02  0.50528859493E+02  0.29999998916E+02 0.  0.
        -12    1    1    2    0    0 -0.13677613520E+02 -0.33867676089E+02 -0.17862505744E+02  0.40659140507E+02  0.00000000000E+00 0.  1.
         11    1    3    3    0    0  0.16501441197E+02  0.24032469369E+02  0.13154361302E+02  0.31982719820E+02  0.51100000000E-03 0. -1.
        -11    1    3    3    0    0 -0.28747565517E+01  0.56341218751E+01  0.99734393184E+01  0.11810040078E+02  0.51100000000E-03 0.  1.
         12    1    3    3    0    0  0.50928874448E-01  0.42010848445E+01 -0.52652948765E+01  0.67360995952E+01  0.00000000000E+00 0. -1.
</event>
<event>
 7    1  0.5068291E-011  0.5052886E+02  0.7816164E-02  0.1300439E+00
        -11   -1    0    0    0    0  0.00000000000E+00  0.00000000000E+00  0.45593999997E+02  0.45594000000E+02  0.51100000000E-03 0. -1.
         11   -1    0    0    0    0 -0.00000000000E+00 -0.00000000000E+00 -0.45593999997E+02  0.45594000000E+02  0.51100000000E-03 0.  1.
    9900012    2    1    2    0    0 -0.20119381757E+02 -0.29327762875E+02  0.19704281599E+02  0.50528856983E+02  0.29999991285E+02 0.  0.
        -12    1    1    2    0    0  0.20119381757E+02  0.29327762875E+02 -0.19704281599E+02  0.40659143017E+02  0.00000000000E+00 0.  1.
         11    1    3    3    0    0 -0.21283315597E+02 -0.24545044211E+02  0.79815204254E+01  0.33453600504E+02  0.51100000000E-03 0.  1.
        -11    1    3    3    0    0 -0.18694254100E+01  0.25584136168E+01  0.73594237536E+01  0.80125744829E+01  0.51100000000E-03 0. -1.
         12    1    3    3    0    0  0.30333592505E+01 -0.73411322813E+01  0.43633374204E+01  0.90626819959E+01  0.00000000000E+00 0. -1.
</event>
<event>
 7    1  0.5068291E-011  0.5052886E+02  0.7816164E-02  0.1300439E+00
        -11   -1    0    0    0    0  0.00000000000E+00  0.00000000000E+00  0.45593999997E+02  0.45594000000E+02  0.51100000000E-03 0. -1.
         11   -1    0    0    0    0 -0.00000000000E+00 -0.00000000000E+00 -0.45593999997E+02  0.45594000000E+02  0.51100000000E-03 0.  1.
    9900012    2    1    2    0    0 -0.85458708282E+01 -0.81310241379E+01  0.38910407724E+02  0.50528864606E+02  0.30000014455E+02 0.  0.
        -12    1    1    2    0    0  0.85458708282E+01  0.81310241379E+01 -0.38910407724E+02  0.40659135394E+02  0.00000000000E+00 0.  1.
         11    1    3    3    0    0  0.11000373778E+01  0.14589566072E+01  0.22318031737E+01  0.28843686105E+01  0.51100000000E-03 0. -1.
        -11    1    3    3    0    0 -0.55166267558E+01  0.94228043521E+01  0.12121891886E+02  0.16314492814E+02  0.51100000000E-03 0.  1.
        -12    1    3    3    0    0 -0.41292814502E+01 -0.19012785097E+02  0.24556712664E+02  0.31330003181E+02  0.00000000000E+00 0.  1.
</event>
<event>
 7    1  0.5068291E-011  0.5052886E+02  0.7816164E-02  0.1300439E+00
        -11   -1    0    0    0    0  0.00000000000E+00  0.00000000000E+00  0.45593999997E+02  0.45594000000E+02  0.51100000000E-03 0.  1.
         11   -1    0    0    0    0 -0.00000000000E+00 -0.00000000000E+00 -0.45593999997E+02  0.45594000000E+02  0.51100000000E-03 0. -1.
    9900012    2    1    2    0    0  0.25377203209E+02  0.21864599899E+02 -0.23045657946E+02  0.50528861770E+02  0.30000005836E+02 0.  0.
        -12    1    1    2    0    0 -0.25377203209E+02 -0.21864599899E+02  0.23045657946E+02  0.40659138230E+02  0.00000000000E+00 0.  1.
         11    1    3    3    0    0 -0.48184895976E+01  0.57017355461E+01 -0.10558425584E+02  0.12930892518E+02  0.51100000000E-03 0. -1.
        -11    1    3    3    0    0  0.21994543313E+01  0.40401011162E+01  0.85085275575E-01  0.46007886443E+01  0.51100000000E-03 0.  1.
         12    1    3    3    0    0  0.27996238476E+02  0.12122763236E+02 -0.12572317637E+02  0.32997180607E+02  0.00000000000E+00 0. -1.
</event>
<event>
 7    1  0.5068291E-011  0.5052889E+02  0.7816164E-02  0.1300439E+00
        -11   -1    0    0    0    0  0.00000000000E+00  0.00000000000E+00  0.45593999997E+02  0.45594000000E+02  0.51100000000E-03 0.  1.
         11   -1    0    0    0    0 -0.00000000000E+00 -0.00000000000E+00 -0.45593999997E+02  0.45594000000E+02  0.51100000000E-03 0. -1.
    9900012    2    1    2    0    0  0.47976047681E+01 -0.40364500916E+02  0.92385310322E+00  0.50528887242E+02  0.30000083262E+02 0.  0.
        -12    1    1    2    0    0 -0.47976047681E+01  0.40364500916E+02 -0.92385310322E+00  0.40659112758E+02  0.00000000000E+00 0.  1.
         11    1    3    3    0    0 -0.26115426860E+01 -0.20860014581E+02  0.88871036791E+01  0.22824131431E+02  0.51100000000E-03 0. -1.
        -11    1    3    3    0    0 -0.60734197713E+00 -0.13117930398E+02 -0.10874267729E+02  0.17049887422E+02  0.51100000000E-03 0.  1.
        -12    1    3    3    0    0  0.80164894312E+01 -0.63865559366E+01  0.29110171527E+01  0.10654868389E+02  0.00000000000E+00 0.  1.
</event>
<event>
 7    1  0.5068291E-011  0.5052886E+02  0.7816164E-02  0.1300439E+00
        -11   -1    0    0    0    0  0.00000000000E+00  0.00000000000E+00  0.45593999997E+02  0.45594000000E+02  0.51100000000E-03 0.  1.
         11   -1    0    0    0    0 -0.00000000000E+00 -0.00000000000E+00 -0.45593999997E+02  0.45594000000E+02  0.51100000000E-03 0. -1.
    9900012    2    1    2    0    0 -0.63416776167E+01  0.32609356836E+02  0.23443095691E+02  0.50528858791E+02  0.29999996782E+02 0.  0.
        -12    1    1    2    0    0  0.63416776167E+01 -0.32609356836E+02 -0.23443095691E+02  0.40659141209E+02  0.00000000000E+00 0.  1.
         11    1    3    3    0    0  0.41064594473E+01  0.25170627235E+02  0.81381505788E+01  0.26770375039E+02  0.51100000000E-03 0. -1.
        -11    1    3    3    0    0 -0.58823066581E+01  0.22971188966E+01  0.15647471200E+02  0.16873696752E+02  0.51100000000E-03 0.  1.
         12    1    3    3    0    0 -0.45658304059E+01  0.51416107043E+01 -0.34252608791E+00  0.68847870011E+01  0.00000000000E+00 0. -1.
</event>
<event>
 7    1  0.5068291E-011  0.5052886E+02  0.7816164E-02  0.1300439E+00
        -11   -1    0    0    0    0  0.00000000000E+00  0.00000000000E+00  0.45593999997E+02  0.45594000000E+02  0.51100000000E-03 0.  1.
         11   -1    0    0    0    0 -0.00000000000E+00 -0.00000000000E+00 -0.45593999997E+02  0.45594000000E+02  0.51100000000E-03 0. -1.
    9900012    2    1    2    0    0 -0.38869341802E+02 -0.28617890620E+00 -0.11927200895E+02  0.50528858941E+02  0.29999997236E+02 0.  0.
        -12    1    1    2    0    0  0.38869341802E+02  0.28617890620E+00  0.11927200895E+02  0.40659141059E+02  0.00000000000E+00 0.  1.
         11    1    3    3    0    0 -0.42094948983E+02 -0.29409072011E+01 -0.11720168864E+02  0.43794931482E+02  0.51100000000E-03 0. -1.
        -11    1    3    3    0    0  0.45515605406E+01  0.21621676314E+01 -0.96283816563E+00  0.51301783415E+01  0.51100000000E-03 0.  1.
         12    1    3    3    0    0 -0.13259533591E+01  0.49256066342E+00  0.75580613420E+00  0.16037491170E+01  0.00000000000E+00 0. -1.
</event>
<event>
 7    1  0.5068291E-011  0.5052886E+02  0.7816164E-02  0.1300439E+00
        -11   -1    0    0    0    0  0.00000000000E+00  0.00000000000E+00  0.45593999997E+02  0.45594000000E+02  0.51100000000E-03 0.  1.
         11   -1    0    0    0    0 -0.00000000000E+00 -0.00000000000E+00 -0.45593999997E+02  0.45594000000E+02  0.51100000000E-03 0. -1.
    9900012    2    1    2    0    0  0.39034924634E+02  0.10073927686E+02 -0.52874081110E+01  0.50528855337E+02  0.29999986282E+02 0.  0.
        -12    1    1    2    0    0 -0.39034924634E+02 -0.10073927686E+02  0.52874081110E+01  0.40659144663E+02  0.00000000000E+00 0.  1.
         11    1    3    3    0    0  0.29605745064E+02 -0.31135156214E+01 -0.11818645630E+02  0.32029275751E+02  0.51100000000E-03 0. -1.
        -11    1    3    3    0    0  0.69156416825E+01  0.44927609930E+01  0.27889886623E+01  0.87057141718E+01  0.51100000000E-03 0.  1.
         12    1    3    3    0    0  0.25135378871E+01  0.86946823144E+01  0.37422488562E+01  0.97938654146E+01  0.00000000000E+00 0. -1.
</event>
<event>
 7    1  0.5068291E-011  0.5052886E+02  0.7816164E-02  0.1300439E+00
        -11   -1    0    0    0    0  0.00000000000E+00  0.00000000000E+00  0.45593999997E+02  0.45594000000E+02  0.51100000000E-03 0. -1.
         11   -1    0    0    0    0 -0.00000000000E+00 -0.00000000000E+00 -0.45593999997E+02  0.45594000000E+02  0.51100000000E-03 0.  1.
    9900012    2    1    2    0    0 -0.27923591524E+02  0.20378555741E+01  0.29483649076E+02  0.50528863489E+02  0.30000011062E+02 0.  0.
        -12    1    1    2    0    0  0.27923591524E+02 -0.20378555741E+01 -0.29483649076E+02  0.40659136511E+02  0.00000000000E+00 0.  1.
         11    1    3    3    0    0 -0.20517698404E+02  0.55920362285E+01  0.27413769399E+02  0.34695267255E+02  0.51100000000E-03 0. -1.
        -11    1    3    3    0    0  0.27538778459E+00 -0.69725586680E+01  0.25069560844E+01  0.74146639762E+01  0.51100000000E-03 0.  1.
        -12    1    3    3    0    0 -0.76812809051E+01  0.34183780136E+01 -0.43707640703E+00  0.84189322584E+01  0.00000000000E+00 0.  1.
</event>
<event>
 7    1  0.5068291E-011  0.5052886E+02  0.7816164E-02  0.1300439E+00
        -11   -1    0    0    0    0  0.00000000000E+00  0.00000000000E+00  0.45593999997E+02  0.45594000000E+02  0.51100000000E-03 0. -1.
         11   -1    0    0    0    0 -0.00000000000E+00 -0.00000000000E+00 -0.45593999997E+02  0.45594000000E+02  0.51100000000E-03 0.  1.
    9900012    2    1    2    0    0 -0.27286986869E+02  0.91133272718E+01  0.28732089151E+02  0.50528864085E+02  0.30000012873E+02 0.  0.
        -12    1    1    2    0    0  0.27286986869E+02 -0.91133272718E+01 -0.28732089151E+02  0.40659135915E+02  0.00000000000E+00 0.  1.
         11    1    3    3    0    0 -0.70407909509E+01 -0.23443873643E+01 -0.38446888444E+01  0.83576624662E+01  0.51100000000E-03 0. -1.
        -11    1    3    3    0    0 -0.17259851707E+02  0.32613877951E+01  0.25362254388E+02  0.30850981820E+02  0.51100000000E-03 0.  1.
        -12    1    3    3    0    0 -0.29863442108E+01  0.81963268410E+01  0.72145236070E+01  0.11320219799E+02  0.00000000000E+00 0.  1.
</event>
<event>
 7    1  0.5068291E-011  0.5052885E+02  0.7816164E-02  0.1300439E+00
        -11   -1    0    0    0    0  0.00000000000E+00  0.00000000000E+00  0.45593999997E+02  0.45594000000E+02  0.51100000000E-03 0. -1.
         11   -1    0    0    0    0 -0.00000000000E+00 -0.00000000000E+00 -0.45593999997E+02  0.45594000000E+02  0.51100000000E-03 0.  1.
    9900012    2    1    2    0    0  0.11464026225E+02  0.26367501523E+02  0.28748867933E+02  0.50528850460E+02  0.29999971459E+02 0.  0.
        -12    1    1    2    0    0 -0.11464026225E+02 -0.26367501523E+02 -0.28748867933E+02  0.40659149540E+02  0.00000000000E+00 0.  1.
         11    1    3    3    0    0  0.15142465487E+02  0.13911383983E+02  0.14280484452E+02  0.25035037483E+02  0.51100000000E-03 0. -1.
        -11    1    3    3    0    0 -0.35625623077E+01  0.48098617388E+00  0.12929138724E+02  0.13419606041E+02  0.51100000000E-03 0.  1.
         12    1    3    3    0    0 -0.11587695423E+00  0.11975131366E+02  0.15392447573E+01  0.12074206936E+02  0.00000000000E+00 0. -1.
</event>
<event>
 7    1  0.5068291E-011  0.5052886E+02  0.7816164E-02  0.1300439E+00
        -11   -1    0    0    0    0  0.00000000000E+00  0.00000000000E+00  0.45593999997E+02  0.45594000000E+02  0.51100000000E-03 0. -1.
         11   -1    0    0    0    0 -0.00000000000E+00 -0.00000000000E+00 -0.45593999997E+02  0.45594000000E+02  0.51100000000E-03 0.  1.
    9900012    2    1    2    0    0 -0.66749277594E+01  0.23063483553E+02  0.32812902488E+02  0.50528861988E+02  0.30000006498E+02 0.  0.
        -12    1    1    2    0    0  0.66749277594E+01 -0.23063483553E+02 -0.32812902488E+02  0.40659138012E+02  0.00000000000E+00 0.  1.
         11    1    3    3    0    0  0.11214946002E+02  0.11330979866E+02  0.17172573723E+02  0.23432102064E+02  0.51100000000E-03 0. -1.
        -11    1    3    3    0    0 -0.72647625521E+01  0.67601295608E+01  0.44189063354E+01  0.10862912136E+02  0.51100000000E-03 0.  1.
         12    1    3    3    0    0 -0.10625111210E+02  0.49723741256E+01  0.11221422430E+02  0.16233847788E+02  0.00000000000E+00 0. -1.
</event>
<event>
 7    1  0.5068291E-011  0.5052886E+02  0.7816164E-02  0.1300439E+00
        -11   -1    0    0    0    0  0.00000000000E+00  0.00000000000E+00  0.45593999997E+02  0.45594000000E+02  0.51100000000E-03 0.  1.
         11   -1    0    0    0    0 -0.00000000000E+00 -0.00000000000E+00 -0.45593999997E+02  0.45594000000E+02  0.51100000000E-03 0. -1.
    9900012    2    1    2    0    0 -0.16604812709E+02 -0.31222706269E+02 -0.20064607987E+02  0.50528859754E+02  0.29999999709E+02 0.  0.
        -12    1    1    2    0    0  0.16604812709E+02  0.31222706269E+02  0.20064607987E+02  0.40659140246E+02  0.00000000000E+00 0.  1.
         11    1    3    3    0    0 -0.14587590793E+02 -0.41242283275E+01 -0.14382708716E+02  0.20896635488E+02  0.51100000000E-03 0. -1.
        -11    1    3    3    0    0 -0.29869182400E+01 -0.27579846169E+02 -0.46339315676E+01  0.28125485193E+02  0.51100000000E-03 0.  1.
         12    1    3    3    0    0  0.96969632385E+00  0.48136822755E+00 -0.10479677028E+01  0.15067390740E+01  0.00000000000E+00 0. -1.
</event>
<event>
 7    1  0.5068291E-011  0.5052887E+02  0.7816164E-02  0.1300439E+00
        -11   -1    0    0    0    0  0.00000000000E+00  0.00000000000E+00  0.45593999997E+02  0.45594000000E+02  0.51100000000E-03 0.  1.
         11   -1    0    0    0    0 -0.00000000000E+00 -0.00000000000E+00 -0.45593999997E+02  0.45594000000E+02  0.51100000000E-03 0. -1.
    9900012    2    1    2    0    0  0.24533421018E+02  0.32289532199E+02 -0.29432162497E+01  0.50528866237E+02  0.30000019413E+02 0.  0.
        -12    1    1    2    0    0 -0.24533421018E+02 -0.32289532199E+02  0.29432162497E+01  0.40659133763E+02  0.00000000000E+00 0.  1.
         11    1    3    3    0    0  0.19021529073E+02  0.11346044919E+02  0.76331479439E+01  0.23426827599E+02  0.51100000000E-03 0. -1.
        -11    1    3    3    0    0 -0.79611823557E+00  0.49470942908E-01 -0.43264190499E+01  0.43993355948E+01  0.51100000000E-03 0.  1.
        -12    1    3    3    0    0  0.63080101811E+01  0.20894016337E+02 -0.62499451437E+01  0.22702703043E+02  0.00000000000E+00 0.  1.
</event>
<event>
 7    1  0.5068291E-011  0.5052886E+02  0.7816164E-02  0.1300439E+00
        -11   -1    0    0    0    0  0.00000000000E+00  0.00000000000E+00  0.45593999997E+02  0.45594000000E+02  0.51100000000E-03 0. -1.
         11   -1    0    0    0    0 -0.00000000000E+00 -0.00000000000E+00 -0.45593999997E+02  0.45594000000E+02  0.51100000000E-03 0.  1.
    9900012    2    1    2    0    0  0.17529893216E+02  0.17351275801E+02  0.32323391013E+02  0.50528861610E+02  0.30000005349E+02 0.  0.
        -12    1    1    2    0    0 -0.17529893216E+02 -0.17351275801E+02 -0.32323391013E+02  0.40659138390E+02  0.00000000000E+00 0.  1.
         11    1    3    3    0    0  0.69219317460E+01  0.17831832691E+02  0.29894982444E+02  0.35490806863E+02  0.51100000000E-03 0. -1.
        -11    1    3    3    0    0  0.80629748621E+01 -0.48812134046E+01  0.49775360619E-01  0.94255124941E+01  0.51100000000E-03 0.  1.
        -12    1    3    3    0    0  0.25449866082E+01  0.44006565148E+01  0.23786332080E+01  0.56125422524E+01  0.00000000000E+00 0.  1.
</event>
<event>
 7    1  0.5068291E-011  0.5052887E+02  0.7816164E-02  0.1300439E+00
        -11   -1    0    0    0    0  0.00000000000E+00  0.00000000000E+00  0.45593999997E+02  0.45594000000E+02  0.51100000000E-03 0.  1.
         11   -1    0    0    0    0 -0.00000000000E+00 -0.00000000000E+00 -0.45593999997E+02  0.45594000000E+02  0.51100000000E-03 0. -1.
    9900012    2    1    2    0    0 -0.28883627439E+02 -0.13009591237E+02 -0.25488268225E+02  0.50528865536E+02  0.30000017284E+02 0.  0.
        -12    1    1    2    0    0  0.28883627439E+02  0.13009591237E+02  0.25488268225E+02  0.40659134464E+02  0.00000000000E+00 0.  1.
         11    1    3    3    0    0 -0.94284913386E+01 -0.16751705298E+02 -0.32029878014E+01  0.19487822106E+02  0.51100000000E-03 0. -1.
        -11    1    3    3    0    0 -0.57011824236E+01  0.28313256846E+01 -0.23105048802E+01  0.67718770826E+01  0.51100000000E-03 0.  1.
         12    1    3    3    0    0 -0.13753953677E+02  0.91078837599E+00 -0.19974775544E+02  0.24269166348E+02  0.00000000000E+00 0. -1.
</event>
<event>
 7    1  0.5068291E-011  0.5052886E+02  0.7816164E-02  0.1300439E+00
        -11   -1    0    0    0    0  0.00000000000E+00  0.00000000000E+00  0.45593999997E+02  0.45594000000E+02  0.51100000000E-03 0.  1.
         11   -1    0    0    0    0 -0.00000000000E+00 -0.00000000000E+00 -0.45593999997E+02  0.45594000000E+02  0.51100000000E-03 0. -1.
    9900012    2    1    2    0    0 -0.66303918299E+01  0.11309765572E+02 -0.38487562499E+02  0.50528863754E+02  0.30000011867E+02 0.  0.
        -12    1    1    2    0    0  0.66303918299E+01 -0.11309765572E+02  0.38487562499E+02  0.40659136246E+02  0.00000000000E+00 0.  1.
         11    1    3    3    0    0  0.55580006596E+01 -0.13887534651E+01 -0.24998402326E+02  0.25646444717E+02  0.51100000000E-03 0. -1.
        -11    1    3    3    0    0 -0.40206114873E+01  0.86916946223E+01 -0.12879494534E+01  0.96627990869E+01  0.51100000000E-03 0.  1.
        -12    1    3    3    0    0 -0.81677810022E+01  0.40068244148E+01 -0.12201210720E+02  0.15219619950E+02  0.00000000000E+00 0.  1.
</event>
<event>
 7    1  0.5068291E-011  0.5052886E+02  0.7816164E-02  0.1300439E+00
        -11   -1    0    0    0    0  0.00000000000E+00  0.00000000000E+00  0.45593999997E+02  0.45594000000E+02  0.51100000000E-03 0.  1.
         11   -1    0    0    0    0 -0.00000000000E+00 -0.00000000000E+00 -0.45593999997E+02  0.45594000000E+02  0.51100000000E-03 0. -1.
    9900012    2    1    2    0    0  0.26644626373E+02  0.95882591969E+01 -0.29176959405E+02  0.50528858481E+02  0.29999995838E+02 0.  0.
        -12    1    1    2    0    0 -0.26644626373E+02 -0.95882591969E+01  0.29176959405E+02  0.40659141519E+02  0.00000000000E+00 0.  1.
         11    1    3    3    0    0  0.11143827701E+02  0.58567005247E+01 -0.17367080629E+02  0.21449972650E+02  0.51100000000E-03 0. -1.
        -11    1    3    3    0    0  0.10950775381E+02 -0.82241538031E+01 -0.49413496544E+01  0.14559296820E+02  0.51100000000E-03 0.  1.
        -12    1    3    3    0    0  0.45500232917E+01  0.11955712475E+02 -0.68685291211E+01  0.14519589011E+02  0.00000000000E+00 0.  1.
</event>
<event>
 7    1  0.5068291E-011  0.5052888E+02  0.7816164E-02  0.1300439E+00
        -11   -1    0    0    0    0  0.00000000000E+00  0.00000000000E+00  0.45593999997E+02  0.45594000000E+02  0.51100000000E-03 0.  1.
         11   -1    0    0    0    0 -0.00000000000E+00 -0.00000000000E+00 -0.45593999997E+02  0.45594000000E+02  0.51100000000E-03 0. -1.
    9900012    2    1    2    0    0  0.35367149755E+02  0.12224784960E+02 -0.15902300755E+02  0.50528882714E+02  0.30000069498E+02 0.  0.
        -12    1    1    2    0    0 -0.35367149755E+02 -0.12224784960E+02  0.15902300755E+02  0.40659117286E+02  0.00000000000E+00 0.  1.
         11    1    3    3    0    0  0.21428282846E+02  0.46909806935E+01 -0.95299929206E+01  0.23916466523E+02  0.51100000000E-03 0. -1.
        -11    1    3    3    0    0 -0.25358820235E+01  0.84875849814E+01  0.17154305782E+00  0.88599787661E+01  0.51100000000E-03 0.  1.
        -12    1    3    3    0    0  0.16474748933E+02 -0.95378071437E+00 -0.65438508926E+01  0.17752437426E+02  0.00000000000E+00 0.  1.
</event>
<event>
 7    1  0.5068291E-011  0.5052887E+02  0.7816164E-02  0.1300439E+00
        -11   -1    0    0    0    0  0.00000000000E+00  0.00000000000E+00  0.45593999997E+02  0.45594000000E+02  0.51100000000E-03 0. -1.
         11   -1    0    0    0    0 -0.00000000000E+00 -0.00000000000E+00 -0.45593999997E+02  0.45594000000E+02  0.51100000000E-03 0.  1.
    9900012    2    1    2    0    0 -0.24099426319E+02 -0.32039146518E+02  0.67731587948E+01  0.50528868939E+02  0.30000027628E+02 0.  0.
        -12    1    1    2    0    0  0.24099426319E+02  0.32039146518E+02 -0.67731587948E+01  0.40659131061E+02  0.00000000000E+00 0.  1.
         11    1    3    3    0    0 -0.12123012781E+02 -0.15971445060E+02  0.16294705419E+02  0.25837413206E+02  0.51100000000E-03 0. -1.
        -11    1    3    3    0    0 -0.69794782702E+01 -0.15069170126E+02 -0.10292298866E+02  0.19537769100E+02  0.51100000000E-03 0.  1.
         12    1    3    3    0    0 -0.49969352684E+01 -0.99853133184E+00  0.77075224168E+00  0.51536866334E+01  0.00000000000E+00 0. -1.
</event>
<event>
 7    1  0.5068291E-011  0.5052885E+02  0.7816164E-02  0.1300439E+00
        -11   -1    0    0    0    0  0.00000000000E+00  0.00000000000E+00  0.45593999997E+02  0.45594000000E+02  0.51100000000E-03 0. -1.
         11   -1    0    0    0    0 -0.00000000000E+00 -0.00000000000E+00 -0.45593999997E+02  0.45594000000E+02  0.51100000000E-03 0.  1.
    9900012    2    1    2    0    0 -0.31444582378E+02  0.24819462997E+02 -0.69569154522E+01  0.50528853710E+02  0.29999981338E+02 0.  0.
        -12    1    1    2    0    0  0.31444582378E+02 -0.24819462997E+02  0.69569154522E+01  0.40659146290E+02  0.00000000000E+00 0.  1.
         11    1    3    3    0    0 -0.92854507970E+01  0.30317155629E+01 -0.31705335226E+01  0.10269526709E+02  0.51100000000E-03 0. -1.
        -11    1    3    3    0    0 -0.24441270595E+01  0.20047417986E+02 -0.53925975985E+00  0.20203057351E+02  0.51100000000E-03 0.  1.
        -12    1    3    3    0    0 -0.19715004522E+02  0.17403294484E+01 -0.32471221697E+01  0.20056269650E+02  0.00000000000E+00 0.  1.
</event>
<event>
 7    1  0.5068291E-011  0.5052885E+02  0.7816164E-02  0.1300439E+00
        -11   -1    0    0    0    0  0.00000000000E+00  0.00000000000E+00  0.45593999997E+02  0.45594000000E+02  0.51100000000E-03 0. -1.
         11   -1    0    0    0    0 -0.00000000000E+00 -0.00000000000E+00 -0.45593999997E+02  0.45594000000E+02  0.51100000000E-03 0.  1.
    9900012    2    1    2    0    0  0.28780893069E+02 -0.21521741176E+02  0.19016879104E+02  0.50528845558E+02  0.29999956559E+02 0.  0.
        -12    1    1    2    0    0 -0.28780893069E+02  0.21521741176E+02 -0.19016879104E+02  0.40659154442E+02  0.00000000000E+00 0.  1.
         11    1    3    3    0    0  0.11056360001E+02 -0.42232561330E+01 -0.70406994794E+01  0.13771362977E+02  0.51100000000E-03 0. -1.
        -11    1    3    3    0    0  0.99692193338E+01 -0.57509141921E+01  0.15443594684E+02  0.19260398884E+02  0.51100000000E-03 0.  1.
         12    1    3    3    0    0  0.77553137344E+01 -0.11547570851E+02  0.10613983899E+02  0.17497083697E+02  0.00000000000E+00 0. -1.
</event>
<event>
 7    1  0.5068291E-011  0.5052885E+02  0.7816164E-02  0.1300439E+00
        -11   -1    0    0    0    0  0.00000000000E+00  0.00000000000E+00  0.45593999997E+02  0.45594000000E+02  0.51100000000E-03 0.  1.
         11   -1    0    0    0    0 -0.00000000000E+00 -0.00000000000E+00 -0.45593999997E+02  0.45594000000E+02  0.51100000000E-03 0. -1.
    9900012    2    1    2    0    0  0.28472693749E+02 -0.14852476505E+02 -0.24937438114E+02  0.50528853829E+02  0.29999981699E+02 0.  0.
        -12    1    1    2    0    0 -0.28472693749E+02  0.14852476505E+02  0.24937438114E+02  0.40659146171E+02  0.00000000000E+00 0.  1.
         11    1    3    3    0    0  0.17305440918E+02 -0.21277873152E+02 -0.18125245697E+02  0.32874773050E+02  0.51100000000E-03 0. -1.
        -11    1    3    3    0    0  0.42318095401E+01  0.40410016760E+01  0.20051733293E+01  0.61853558403E+01  0.51100000000E-03 0.  1.
         12    1    3    3    0    0  0.69354432909E+01  0.23843949711E+01 -0.88173657464E+01  0.11468724939E+02  0.00000000000E+00 0. -1.
</event>
<event>
 7    1  0.5068291E-011  0.5052886E+02  0.7816164E-02  0.1300439E+00
        -11   -1    0    0    0    0  0.00000000000E+00  0.00000000000E+00  0.45593999997E+02  0.45594000000E+02  0.51100000000E-03 0. -1.
         11   -1    0    0    0    0 -0.00000000000E+00 -0.00000000000E+00 -0.45593999997E+02  0.45594000000E+02  0.51100000000E-03 0.  1.
    9900012    2    1    2    0    0 -0.34855655569E+02  0.10252449186E+02  0.18252015703E+02  0.50528861831E+02  0.30000006021E+02 0.  0.
        -12    1    1    2    0    0  0.34855655569E+02 -0.10252449186E+02 -0.18252015703E+02  0.40659138169E+02  0.00000000000E+00 0.  1.
         11    1    3    3    0    0 -0.32126314549E+02  0.89360476689E+01  0.20958903624E+02  0.39385640478E+02  0.51100000000E-03 0. -1.
        -11    1    3    3    0    0 -0.40861712902E+01  0.13219042053E+01 -0.61164303387E+01  0.74736167208E+01  0.51100000000E-03 0.  1.
        -12    1    3    3    0    0  0.13568302706E+01 -0.55026885322E-02  0.34095424169E+01  0.36696046320E+01  0.00000000000E+00 0.  1.
</event>
<event>
 7    1  0.5068291E-011  0.5052886E+02  0.7816164E-02  0.1300439E+00
        -11   -1    0    0    0    0  0.00000000000E+00  0.00000000000E+00  0.45593999997E+02  0.45594000000E+02  0.51100000000E-03 0.  1.
         11   -1    0    0    0    0 -0.00000000000E+00 -0.00000000000E+00 -0.45593999997E+02  0.45594000000E+02  0.51100000000E-03 0. -1.
    9900012    2    1    2    0    0  0.13212904029E+01 -0.38487357756E+02  0.13043893600E+02  0.50528859876E+02  0.30000000078E+02 0.  0.
        -12    1    1    2    0    0 -0.13212904029E+01  0.38487357756E+02 -0.13043893600E+02  0.40659140124E+02  0.00000000000E+00 0.  1.
         11    1    3    3    0    0  0.41336102671E+00 -0.10996696980E+02 -0.10454434301E+01  0.11054011219E+02  0.51100000000E-03 0. -1.
        -11    1    3    3    0    0  0.33717383767E+01 -0.39940605044E+01  0.14946268551E+02  0.15833890326E+02  0.51100000000E-03 0.  1.
        -12    1    3    3    0    0 -0.24638090005E+01 -0.23496600272E+02 -0.85693152068E+00  0.23640958330E+02  0.00000000000E+00 0.  1.
</event>
<event>
 7    1  0.5068291E-011  0.5052887E+02  0.7816164E-02  0.1300439E+00
        -11   -1    0    0    0    0  0.00000000000E+00  0.00000000000E+00  0.45593999997E+02  0.45594000000E+02  0.51100000000E-03 0.  1.
         11   -1    0    0    0    0 -0.00000000000E+00 -0.00000000000E+00 -0.45593999997E+02  0.45594000000E+02  0.51100000000E-03 0. -1.
    9900012    2    1    2    0    0 -0.24165320285E+02  0.32059484588E+02  0.64336535904E+01  0.50528866277E+02  0.30000019536E+02 0.  0.
        -12    1    1    2    0    0  0.24165320285E+02 -0.32059484588E+02 -0.64336535904E+01  0.40659133723E+02  0.00000000000E+00 0.  1.
         11    1    3    3    0    0 -0.11152843241E+02  0.28018232589E+02 -0.23591393087E+01  0.30248517456E+02  0.51100000000E-03 0. -1.
        -11    1    3    3    0    0  0.23944445783E+00 -0.25291685668E+01 -0.78480229417E+00  0.26589362891E+01  0.51100000000E-03 0.  1.
         12    1    3    3    0    0 -0.13251921503E+02  0.65704205666E+01  0.95775951933E+01  0.17621412532E+02  0.00000000000E+00 0. -1.
</event>
<event>
 7    1  0.5068291E-011  0.5052885E+02  0.7816164E-02  0.1300439E+00
        -11   -1    0    0    0    0  0.00000000000E+00  0.00000000000E+00  0.45593999997E+02  0.45594000000E+02  0.51100000000E-03 0.  1.
         11   -1    0    0    0    0 -0.00000000000E+00 -0.00000000000E+00 -0.45593999997E+02  0.45594000000E+02  0.51100000000E-03 0. -1.
    9900012    2    1    2    0    0 -0.16632503279E+02 -0.50045301332E+01 -0.36762492305E+02  0.50528851858E+02  0.29999975706E+02 0.  0.
        -12    1    1    2    0    0  0.16632503279E+02  0.50045301332E+01  0.36762492305E+02  0.40659148142E+02  0.00000000000E+00 0.  1.
         11    1    3    3    0    0 -0.21125000295E+01 -0.19893057157E+01 -0.23792654909E+02  0.23968947025E+02  0.51100000000E-03 0. -1.
        -11    1    3    3    0    0 -0.14093382122E+02 -0.63746791349E+01 -0.15826115126E+02  0.22129750879E+02  0.51100000000E-03 0.  1.
         12    1    3    3    0    0 -0.42662112677E+00  0.33594547173E+01  0.28562777297E+01  0.44301539536E+01  0.00000000000E+00 0. -1.
</event>
<event>
 7    1  0.5068291E-011  0.5052888E+02  0.7816164E-02  0.1300439E+00
        -11   -1    0    0    0    0  0.00000000000E+00  0.00000000000E+00  0.45593999997E+02  0.45594000000E+02  0.51100000000E-03 0.  1.
         11   -1    0    0    0    0 -0.00000000000E+00 -0.00000000000E+00 -0.45593999997E+02  0.45594000000E+02  0.51100000000E-03 0. -1.
    9900012    2    1    2    0    0  0.21994105226E+02  0.15356258571E+02 -0.30555015213E+02  0.50528876834E+02  0.30000051625E+02 0.  0.
        -12    1    1    2    0    0 -0.21994105226E+02 -0.15356258571E+02  0.30555015213E+02  0.40659123166E+02  0.00000000000E+00 0.  1.
         11    1    3    3    0    0  0.11700367103E+02  0.16834706623E+02 -0.19190026307E+02  0.28081364771E+02  0.51100000000E-03 0. -1.
        -11    1    3    3    0    0 -0.17732493095E+01 -0.59244856116E+01 -0.56435944240E+01  0.83722219965E+01  0.51100000000E-03 0.  1.
        -12    1    3    3    0    0  0.12066987432E+02  0.44460375590E+01 -0.57213944815E+01  0.14075290067E+02  0.00000000000E+00 0.  1.
</event>
<event>
 7    1  0.5068291E-011  0.5052886E+02  0.7816164E-02  0.1300439E+00
        -11   -1    0    0    0    0  0.00000000000E+00  0.00000000000E+00  0.45593999997E+02  0.45594000000E+02  0.51100000000E-03 0. -1.
         11   -1    0    0    0    0 -0.00000000000E+00 -0.00000000000E+00 -0.45593999997E+02  0.45594000000E+02  0.51100000000E-03 0.  1.
    9900012    2    1    2    0    0 -0.97962807130E+01  0.14350567093E+02  0.36759484412E+02  0.50528860979E+02  0.30000003430E+02 0.  0.
        -12    1    1    2    0    0  0.97962807130E+01 -0.14350567093E+02 -0.36759484412E+02  0.40659139021E+02  0.00000000000E+00 0.  1.
         11    1    3    3    0    0 -0.57237015249E+01  0.88208840361E+01  0.24080958248E+02  0.26276630391E+02  0.51100000000E-03 0. -1.
        -11    1    3    3    0    0 -0.44417804781E+01 -0.51062823700E+01 -0.10848476185E+01  0.68542270224E+01  0.51100000000E-03 0.  1.
        -12    1    3    3    0    0  0.36920128996E+00  0.10635965427E+02  0.13763373783E+02  0.17398003565E+02  0.00000000000E+00 0.  1.
</event>
<event>
 7    1  0.5068291E-011  0.5052883E+02  0.7816164E-02  0.1300439E+00
        -11   -1    0    0    0    0  0.00000000000E+00  0.00000000000E+00  0.45593999997E+02  0.45594000000E+02  0.51100000000E-03 0. -1.
         11   -1    0    0    0    0 -0.00000000000E+00 -0.00000000000E+00 -0.45593999997E+02  0.45594000000E+02  0.51100000000E-03 0.  1.
    9900012    2    1    2    0    0 -0.26418580209E+02 -0.24301234615E+02  0.19096513278E+02  0.50528828791E+02  0.29999905592E+02 0.  0.
        -12    1    1    2    0    0  0.26418580209E+02  0.24301234615E+02 -0.19096513278E+02  0.40659171209E+02  0.00000000000E+00 0.  1.
         11    1    3    3    0    0 -0.22366660848E+02 -0.82836808068E+01  0.28961787202E+01  0.24026542337E+02  0.51100000000E-03 0. -1.
        -11    1    3    3    0    0 -0.27911783469E+01 -0.15024247702E+02  0.18311581399E+02  0.23850214028E+02  0.51100000000E-03 0.  1.
        -12    1    3    3    0    0 -0.12607410137E+01 -0.99330610575E+00 -0.21112468421E+01  0.26520724258E+01  0.00000000000E+00 0.  1.
</event>
<event>
 7    1  0.5068291E-011  0.5052887E+02  0.7816164E-02  0.1300439E+00
        -11   -1    0    0    0    0  0.00000000000E+00  0.00000000000E+00  0.45593999997E+02  0.45594000000E+02  0.51100000000E-03 0.  1.
         11   -1    0    0    0    0 -0.00000000000E+00 -0.00000000000E+00 -0.45593999997E+02  0.45594000000E+02  0.51100000000E-03 0. -1.
    9900012    2    1    2    0    0  0.29073407331E+02 -0.21229903967E+02 -0.18899561225E+02  0.50528865100E+02  0.30000015959E+02 0.  0.
        -12    1    1    2    0    0 -0.29073407331E+02  0.21229903967E+02  0.18899561225E+02  0.40659134900E+02  0.00000000000E+00 0.  1.
         11    1    3    3    0    0  0.30970962894E+02 -0.21124016247E+02 -0.18030631157E+02  0.41599618570E+02  0.51100000000E-03 0. -1.
        -11    1    3    3    0    0 -0.16527400639E+01 -0.11328796864E+00  0.38566121342E+01  0.41973612303E+01  0.51100000000E-03 0.  1.
        -12    1    3    3    0    0 -0.24481549861E+00  0.74002488863E-02 -0.47255422022E+01  0.47318853004E+01  0.00000000000E+00 0.  1.
</event>
<event>
 7    1  0.5068291E-011  0.5052886E+02  0.7816164E-02  0.1300439E+00
        -11   -1    0    0    0    0  0.00000000000E+00  0.00000000000E+00  0.45593999997E+02  0.45594000000E+02  0.51100000000E-03 0.  1.
         11   -1    0    0    0    0 -0.00000000000E+00 -0.00000000000E+00 -0.45593999997E+02  0.45594000000E+02  0.51100000000E-03 0. -1.
    9900012    2    1    2    0    0  0.34745384209E+02 -0.18965300372E+02  0.92866237700E+01  0.50528859292E+02  0.29999998305E+02 0.  0.
        -12    1    1    2    0    0 -0.34745384209E+02  0.18965300372E+02 -0.92866237700E+01  0.40659140708E+02  0.00000000000E+00 0.  1.
         11    1    3    3    0    0  0.48039243424E+00 -0.33203467805E+01 -0.23516604471E+01  0.40970461009E+01  0.51100000000E-03 0. -1.
        -11    1    3    3    0    0  0.13683509940E+02 -0.91431824771E+00  0.15647150109E+02  0.20806434796E+02  0.51100000000E-03 0.  1.
        -12    1    3    3    0    0  0.20581481835E+02 -0.14730635344E+02 -0.40088658918E+01  0.25625378395E+02  0.00000000000E+00 0.  1.
</event>
<event>
 7    1  0.5068291E-011  0.5052886E+02  0.7816164E-02  0.1300439E+00
        -11   -1    0    0    0    0  0.00000000000E+00  0.00000000000E+00  0.45593999997E+02  0.45594000000E+02  0.51100000000E-03 0.  1.
         11   -1    0    0    0    0 -0.00000000000E+00 -0.00000000000E+00 -0.45593999997E+02  0.45594000000E+02  0.51100000000E-03 0. -1.
    9900012    2    1    2    0    0  0.58371915941E+01  0.32764292613E+01 -0.40104339860E+02  0.50528857486E+02  0.29999992814E+02 0.  0.
        -12    1    1    2    0    0 -0.58371915941E+01 -0.32764292613E+01  0.40104339860E+02  0.40659142514E+02  0.00000000000E+00 0.  1.
         11    1    3    3    0    0  0.35998503406E+01  0.84355385633E+01 -0.26998373034E+02  0.28513670056E+02  0.51100000000E-03 0. -1.
        -11    1    3    3    0    0 -0.67583177955E+01 -0.54517996701E+01 -0.67093273642E+01  0.10973242593E+02  0.51100000000E-03 0.  1.
        -12    1    3    3    0    0  0.89956590489E+01  0.29269036813E+00 -0.63966394615E+01  0.11041944837E+02  0.00000000000E+00 0.  1.
</event>
<event>
 7    1  0.5068291E-011  0.5052886E+02  0.7816164E-02  0.1300439E+00
        -11   -1    0    0    0    0  0.00000000000E+00  0.00000000000E+00  0.45593999997E+02  0.45594000000E+02  0.51100000000E-03 0. -1.
         11   -1    0    0    0    0 -0.00000000000E+00 -0.00000000000E+00 -0.45593999997E+02  0.45594000000E+02  0.51100000000E-03 0.  1.
    9900012    2    1    2    0    0  0.29780715773E+02  0.25346669871E+02 -0.11127481405E+02  0.50528861446E+02  0.30000004851E+02 0.  0.
        -12    1    1    2    0    0 -0.29780715773E+02 -0.25346669871E+02  0.11127481405E+02  0.40659138554E+02  0.00000000000E+00 0.  1.
         11    1    3    3    0    0  0.11854437612E+02  0.18091481128E+02 -0.85694676415E+01  0.23265105983E+02  0.51100000000E-03 0. -1.
        -11    1    3    3    0    0  0.78951505124E+00 -0.20422835787E+01  0.56882280381E+01  0.60950959555E+01  0.51100000000E-03 0.  1.
        -12    1    3    3    0    0  0.17136763110E+02  0.92974723221E+01 -0.82462418020E+01  0.21168659507E+02  0.00000000000E+00 0.  1.
</event>
<event>
 7    1  0.5068291E-011  0.5052886E+02  0.7816164E-02  0.1300439E+00
        -11   -1    0    0    0    0  0.00000000000E+00  0.00000000000E+00  0.45593999997E+02  0.45594000000E+02  0.51100000000E-03 0.  1.
         11   -1    0    0    0    0 -0.00000000000E+00 -0.00000000000E+00 -0.45593999997E+02  0.45594000000E+02  0.51100000000E-03 0. -1.
    9900012    2    1    2    0    0  0.25505236828E+02  0.13582454051E+01 -0.31635480846E+02  0.50528860995E+02  0.30000003481E+02 0.  0.
        -12    1    1    2    0    0 -0.25505236828E+02 -0.13582454051E+01  0.31635480846E+02  0.40659139005E+02  0.00000000000E+00 0.  1.
         11    1    3    3    0    0  0.11354531430E+01 -0.71578919328E+01 -0.14503961362E+02  0.16213869564E+02  0.51100000000E-03 0. -1.
        -11    1    3    3    0    0  0.25949521714E+02  0.58937796503E+01 -0.14666710713E+02  0.30384646109E+02  0.51100000000E-03 0.  1.
        -12    1    3    3    0    0 -0.15797380287E+01  0.26223576876E+01 -0.24648087706E+01  0.39303453228E+01  0.00000000000E+00 0.  1.
</event>
<event>
 7    1  0.5068291E-011  0.5052886E+02  0.7816164E-02  0.1300439E+00
        -11   -1    0    0    0    0  0.00000000000E+00  0.00000000000E+00  0.45593999997E+02  0.45594000000E+02  0.51100000000E-03 0.  1.
         11   -1    0    0    0    0 -0.00000000000E+00 -0.00000000000E+00 -0.45593999997E+02  0.45594000000E+02  0.51100000000E-03 0. -1.
    9900012    2    1    2    0    0  0.27092059466E+02 -0.67678828017E+01 -0.29553034010E+02  0.50528859049E+02  0.29999997564E+02 0.  0.
        -12    1    1    2    0    0 -0.27092059466E+02  0.67678828017E+01  0.29553034010E+02  0.40659140951E+02  0.00000000000E+00 0.  1.
         11    1    3    3    0    0  0.18967186452E+02 -0.80870958391E+01 -0.22129163647E+02  0.30246572781E+02  0.51100000000E-03 0. -1.
        -11    1    3    3    0    0  0.10453597858E+02  0.58547994867E+01 -0.91796442210E+00  0.12016615337E+02  0.51100000000E-03 0.  1.
         12    1    3    3    0    0 -0.23287248439E+01 -0.45355864493E+01 -0.65059059401E+01  0.82656709310E+01  0.00000000000E+00 0. -1.
</event>
<event>
 7    1  0.5068291E-011  0.5052886E+02  0.7816164E-02  0.1300439E+00
        -11   -1    0    0    0    0  0.00000000000E+00  0.00000000000E+00  0.45593999997E+02  0.45594000000E+02  0.51100000000E-03 0. -1.
         11   -1    0    0    0    0 -0.00000000000E+00 -0.00000000000E+00 -0.45593999997E+02  0.45594000000E+02  0.51100000000E-03 0.  1.
    9900012    2    1    2    0    0 -0.27733647195E+01  0.21958961892E+02 -0.34106864315E+02  0.50528858929E+02  0.29999997200E+02 0.  0.
        -12    1    1    2    0    0  0.27733647195E+01 -0.21958961892E+02  0.34106864315E+02  0.40659141071E+02  0.00000000000E+00 0.  1.
         11    1    3    3    0    0 -0.11577786810E+02  0.25675267707E+01 -0.12871696900E+02  0.17501940535E+02  0.51100000000E-03 0. -1.
        -11    1    3    3    0    0  0.39264503924E+01  0.89247912571E+01 -0.18869236975E+02  0.21239515435E+02  0.51100000000E-03 0.  1.
         12    1    3    3    0    0  0.48779716977E+01  0.10466643864E+02 -0.23659304406E+01  0.11787402959E+02  0.00000000000E+00 0. -1.
</event>
<event>
 7    1  0.5068291E-011  0.5052886E+02  0.7816164E-02  0.1300439E+00
        -11   -1    0    0    0    0  0.00000000000E+00  0.00000000000E+00  0.45593999997E+02  0.45594000000E+02  0.51100000000E-03 0. -1.
         11   -1    0    0    0    0 -0.00000000000E+00 -0.00000000000E+00 -0.45593999997E+02  0.45594000000E+02  0.51100000000E-03 0.  1.
    9900012    2    1    2    0    0 -0.20356472593E+02 -0.90689314538E+01  0.34007852444E+02  0.50528861766E+02  0.30000005823E+02 0.  0.
        -12    1    1    2    0    0  0.20356472593E+02  0.90689314538E+01 -0.34007852444E+02  0.40659138234E+02  0.00000000000E+00 0.  1.
         11    1    3    3    0    0 -0.61952376456E+01  0.57871620664E+01  0.20580550014E+02  0.22258285051E+02  0.51100000000E-03 0. -1.
        -11    1    3    3    0    0 -0.26231989931E+01 -0.12772565470E+02  0.84198180544E+01  0.15521370364E+02  0.51100000000E-03 0.  1.
         12    1    3    3    0    0 -0.11538035954E+02 -0.20835280507E+01  0.50074843751E+01  0.12749206351E+02  0.00000000000E+00 0. -1.
</event>
<event>
 7    1  0.5068291E-011  0.5052885E+02  0.7816164E-02  0.1300439E+00
        -11   -1    0    0    0    0  0.00000000000E+00  0.00000000000E+00  0.45593999997E+02  0.45594000000E+02  0.51100000000E-03 0. -1.
         11   -1    0    0    0    0 -0.00000000000E+00 -0.00000000000E+00 -0.45593999997E+02  0.45594000000E+02  0.51100000000E-03 0.  1.
    9900012    2    1    2    0    0  0.14787399697E+02  0.30494658077E+02  0.22462743507E+02  0.50528853343E+02  0.29999980221E+02 0.  0.
        -12    1    1    2    0    0 -0.14787399697E+02 -0.30494658077E+02 -0.22462743507E+02  0.40659146657E+02  0.00000000000E+00 0.  1.
         11    1    3    3    0    0 -0.52420779425E+01 -0.50687139902E+00  0.13832914918E+01  0.54451625671E+01  0.51100000000E-03 0.  1.
        -11    1    3    3    0    0  0.17021298374E+02  0.29672636296E+02  0.13416670754E+02  0.36745026840E+02  0.51100000000E-03 0. -1.
         12    1    3    3    0    0  0.30081792657E+01  0.13288931796E+01  0.76627812612E+01  0.83386639358E+01  0.00000000000E+00 0. -1.
</event>
<event>
 7    1  0.5068291E-011  0.5052886E+02  0.7816164E-02  0.1300439E+00
        -11   -1    0    0    0    0  0.00000000000E+00  0.00000000000E+00  0.45593999997E+02  0.45594000000E+02  0.51100000000E-03 0. -1.
         11   -1    0    0    0    0 -0.00000000000E+00 -0.00000000000E+00 -0.45593999997E+02  0.45594000000E+02  0.51100000000E-03 0.  1.
    9900012    2    1    2    0    0 -0.64453672952E+01  0.52694178684E+01  0.39797688539E+02  0.50528861577E+02  0.30000005250E+02 0.  0.
        -12    1    1    2    0    0  0.64453672952E+01 -0.52694178684E+01 -0.39797688539E+02  0.40659138423E+02  0.00000000000E+00 0.  1.
         11    1    3    3    0    0 -0.13400451265E+02  0.79030780340E+01  0.33445310272E+02  0.36886576366E+02  0.51100000000E-03 0. -1.
        -11    1    3    3    0    0  0.71713477923E+01 -0.11926866115E+01  0.15036806753E+00  0.72714057326E+01  0.51100000000E-03 0.  1.
         12    1    3    3    0    0 -0.21626382271E+00 -0.14409735541E+01  0.62020101992E+01  0.63708794790E+01  0.00000000000E+00 0. -1.
</event>
<event>
 7    1  0.5068291E-011  0.5052886E+02  0.7816164E-02  0.1300439E+00
        -11   -1    0    0    0    0  0.00000000000E+00  0.00000000000E+00  0.45593999997E+02  0.45594000000E+02  0.51100000000E-03 0.  1.
         11   -1    0    0    0    0 -0.00000000000E+00 -0.00000000000E+00 -0.45593999997E+02  0.45594000000E+02  0.51100000000E-03 0. -1.
    9900012    2    1    2    0    0 -0.27181213406E+02  0.15345785291E+02 -0.26054834271E+02  0.50528857395E+02  0.29999992539E+02 0.  0.
        -12    1    1    2    0    0  0.27181213406E+02 -0.15345785291E+02  0.26054834271E+02  0.40659142605E+02  0.00000000000E+00 0.  1.
         11    1    3    3    0    0 -0.62774986893E+01 -0.67405779803E+00 -0.15670821048E+01  0.65051587446E+01  0.51100000000E-03 0. -1.
        -11    1    3    3    0    0 -0.98453760220E+01  0.19668274394E+02 -0.71296612191E+01  0.23121516300E+02  0.51100000000E-03 0.  1.
        -12    1    3    3    0    0 -0.11058338695E+02 -0.36484313051E+01 -0.17358090947E+02  0.20902182351E+02  0.00000000000E+00 0.  1.
</event>
<event>
 7    1  0.5068291E-011  0.5052886E+02  0.7816164E-02  0.1300439E+00
        -11   -1    0    0    0    0  0.00000000000E+00  0.00000000000E+00  0.45593999997E+02  0.45594000000E+02  0.51100000000E-03 0.  1.
         11   -1    0    0    0    0 -0.00000000000E+00 -0.00000000000E+00 -0.45593999997E+02  0.45594000000E+02  0.51100000000E-03 0. -1.
    9900012    2    1    2    0    0  0.36317488753E+02  0.10484604728E+02 -0.14975944755E+02  0.50528857770E+02  0.29999993676E+02 0.  0.
        -12    1    1    2    0    0 -0.36317488753E+02 -0.10484604728E+02  0.14975944755E+02  0.40659142230E+02  0.00000000000E+00 0.  1.
         11    1    3    3    0    0  0.21004120461E+02  0.93689426678E+01 -0.10728748691E+02  0.25378262584E+02  0.51100000000E-03 0. -1.
        -11    1    3    3    0    0 -0.18744458589E+01 -0.33345680676E+01 -0.62039762298E+01  0.72884986654E+01  0.51100000000E-03 0.  1.
        -12    1    3    3    0    0  0.17187814151E+02  0.44502301280E+01  0.19567801658E+01  0.17862096520E+02  0.00000000000E+00 0.  1.
</event>
<event>
 7    1  0.5068291E-011  0.5052887E+02  0.7816164E-02  0.1300439E+00
        -11   -1    0    0    0    0  0.00000000000E+00  0.00000000000E+00  0.45593999997E+02  0.45594000000E+02  0.51100000000E-03 0.  1.
         11   -1    0    0    0    0 -0.00000000000E+00 -0.00000000000E+00 -0.45593999997E+02  0.45594000000E+02  0.51100000000E-03 0. -1.
    9900012    2    1    2    0    0 -0.69126406067E+01 -0.28727586203E+02 -0.27930376519E+02  0.50528871360E+02  0.30000034987E+02 0.  0.
        -12    1    1    2    0    0  0.69126406067E+01  0.28727586203E+02  0.27930376519E+02  0.40659128640E+02  0.00000000000E+00 0.  1.
         11    1    3    3    0    0 -0.81929994415E+01 -0.10367327600E+02 -0.54647326850E+01  0.14299301556E+02  0.51100000000E-03 0. -1.
        -11    1    3    3    0    0  0.21406903734E+01 -0.76828203080E+01 -0.24107424438E+02  0.25392443688E+02  0.51100000000E-03 0.  1.
        -12    1    3    3    0    0 -0.86033153856E+00 -0.10677438296E+02  0.16417806038E+01  0.10837126117E+02  0.00000000000E+00 0.  1.
</event>
<event>
 7    1  0.5068291E-011  0.5052886E+02  0.7816164E-02  0.1300439E+00
        -11   -1    0    0    0    0  0.00000000000E+00  0.00000000000E+00  0.45593999997E+02  0.45594000000E+02  0.51100000000E-03 0.  1.
         11   -1    0    0    0    0 -0.00000000000E+00 -0.00000000000E+00 -0.45593999997E+02  0.45594000000E+02  0.51100000000E-03 0. -1.
    9900012    2    1    2    0    0  0.13945782112E+02 -0.15797268459E+02 -0.34772506250E+02  0.50528859325E+02  0.29999998405E+02 0.  0.
        -12    1    1    2    0    0 -0.13945782112E+02  0.15797268459E+02  0.34772506250E+02  0.40659140675E+02  0.00000000000E+00 0.  1.
         11    1    3    3    0    0  0.91444760276E+00  0.80780178252E+01 -0.85347569476E+01  0.11786970044E+02  0.51100000000E-03 0. -1.
        -11    1    3    3    0    0  0.66346724660E+01 -0.17050258198E+02 -0.12639679708E+02  0.22237169036E+02  0.51100000000E-03 0.  1.
         12    1    3    3    0    0  0.63966620434E+01 -0.68250280864E+01 -0.13598069595E+02  0.16504720245E+02  0.00000000000E+00 0. -1.
</event>
<event>
 7    1  0.5068291E-011  0.5052886E+02  0.7816164E-02  0.1300439E+00
        -11   -1    0    0    0    0  0.00000000000E+00  0.00000000000E+00  0.45593999997E+02  0.45594000000E+02  0.51100000000E-03 0. -1.
         11   -1    0    0    0    0 -0.00000000000E+00 -0.00000000000E+00 -0.45593999997E+02  0.45594000000E+02  0.51100000000E-03 0.  1.
    9900012    2    1    2    0    0 -0.30806196935E+02  0.76114814867E+01  0.25420640441E+02  0.50528863505E+02  0.30000011111E+02 0.  0.
        -12    1    1    2    0    0  0.30806196935E+02 -0.76114814867E+01 -0.25420640441E+02  0.40659136495E+02  0.00000000000E+00 0.  1.
         11    1    3    3    0    0 -0.56355437413E+01  0.12655144073E+02  0.18200292423E+02  0.22872749492E+02  0.51100000000E-03 0. -1.
        -11    1    3    3    0    0 -0.32730025563E+00  0.10401636071E+01  0.45426663772E-01  0.10913888536E+01  0.51100000000E-03 0.  1.
         12    1    3    3    0    0 -0.24843352938E+02 -0.60838261937E+01  0.71749213545E+01  0.26564725160E+02  0.00000000000E+00 0. -1.
</event>
<event>
 7    1  0.5068291E-011  0.5052886E+02  0.7816164E-02  0.1300439E+00
        -11   -1    0    0    0    0  0.00000000000E+00  0.00000000000E+00  0.45593999997E+02  0.45594000000E+02  0.51100000000E-03 0. -1.
         11   -1    0    0    0    0 -0.00000000000E+00 -0.00000000000E+00 -0.45593999997E+02  0.45594000000E+02  0.51100000000E-03 0.  1.
    9900012    2    1    2    0    0 -0.29453540033E+02  0.13482254554E+02  0.24574040958E+02  0.50528859609E+02  0.29999999267E+02 0.  0.
        -12    1    1    2    0    0  0.29453540033E+02 -0.13482254554E+02 -0.24574040958E+02  0.40659140391E+02  0.00000000000E+00 0.  1.
         11    1    3    3    0    0 -0.10889468094E+02  0.10080113161E+02  0.27990879562E+01  0.15100466560E+02  0.51100000000E-03 0.  1.
        -11    1    3    3    0    0 -0.17948931980E+02  0.99949578139E+00  0.25350123243E+02  0.31077192598E+02  0.51100000000E-03 0. -1.
        -12    1    3    3    0    0 -0.61513995977E+00  0.24026456116E+01 -0.35751702416E+01  0.43512004507E+01  0.00000000000E+00 0.  1.
</event>
<event>
 7    1  0.5068291E-011  0.5052886E+02  0.7816164E-02  0.1300439E+00
        -11   -1    0    0    0    0  0.00000000000E+00  0.00000000000E+00  0.45593999997E+02  0.45594000000E+02  0.51100000000E-03 0.  1.
         11   -1    0    0    0    0 -0.00000000000E+00 -0.00000000000E+00 -0.45593999997E+02  0.45594000000E+02  0.51100000000E-03 0. -1.
    9900012    2    1    2    0    0  0.46039959157E+01  0.34841454251E+02 -0.20446078058E+02  0.50528858092E+02  0.29999994657E+02 0.  0.
        -12    1    1    2    0    0 -0.46039959157E+01 -0.34841454251E+02  0.20446078058E+02  0.40659141908E+02  0.00000000000E+00 0.  1.
         11    1    3    3    0    0  0.12695088053E+01  0.30054131613E+02 -0.22387685094E+02  0.37497612240E+02  0.51100000000E-03 0. -1.
        -11    1    3    3    0    0  0.19738754497E+01 -0.37311096944E+01  0.16805966023E+00  0.42244062486E+01  0.51100000000E-03 0.  1.
         12    1    3    3    0    0  0.13606116608E+01  0.85184323329E+01  0.17735473758E+01  0.88068396032E+01  0.00000000000E+00 0. -1.
</event>
<event>
 7    1  0.5068291E-011  0.5052887E+02  0.7816164E-02  0.1300439E+00
        -11   -1    0    0    0    0  0.00000000000E+00  0.00000000000E+00  0.45593999997E+02  0.45594000000E+02  0.51100000000E-03 0. -1.
         11   -1    0    0    0    0 -0.00000000000E+00 -0.00000000000E+00 -0.45593999997E+02  0.45594000000E+02  0.51100000000E-03 0.  1.
    9900012    2    1    2    0    0  0.94017456541E+01  0.23944769942E+01  0.39484663449E+02  0.50528868318E+02  0.30000025739E+02 0.  0.
        -12    1    1    2    0    0 -0.94017456541E+01 -0.23944769942E+01 -0.39484663449E+02  0.40659131682E+02  0.00000000000E+00 0.  1.
         11    1    3    3    0    0  0.80999424295E+01 -0.12797843361E+02  0.24775331561E+02  0.29038094225E+02  0.51100000000E-03 0. -1.
        -11    1    3    3    0    0 -0.99721588440E+00  0.69728333844E+01  0.55179656262E+01  0.89477812803E+01  0.51100000000E-03 0.  1.
         12    1    3    3    0    0  0.22990191090E+01  0.82194869703E+01  0.91913662626E+01  0.12542992812E+02  0.00000000000E+00 0. -1.
</event>
<event>
 7    1  0.5068291E-011  0.5052886E+02  0.7816164E-02  0.1300439E+00
        -11   -1    0    0    0    0  0.00000000000E+00  0.00000000000E+00  0.45593999997E+02  0.45594000000E+02  0.51100000000E-03 0.  1.
         11   -1    0    0    0    0 -0.00000000000E+00 -0.00000000000E+00 -0.45593999997E+02  0.45594000000E+02  0.51100000000E-03 0. -1.
    9900012    2    1    2    0    0 -0.82414022281E+00  0.31398066534E+02 -0.25819525153E+02  0.50528859966E+02  0.30000000352E+02 0.  0.
        -12    1    1    2    0    0  0.82414022281E+00 -0.31398066534E+02  0.25819525153E+02  0.40659140034E+02  0.00000000000E+00 0.  1.
         11    1    3    3    0    0  0.52615247644E+01  0.89195634935E+01 -0.17800616917E+02  0.20593790779E+02  0.51100000000E-03 0. -1.
        -11    1    3    3    0    0 -0.68806529097E+01  0.24579814051E+02 -0.47412242135E+01  0.25961314500E+02  0.51100000000E-03 0.  1.
        -12    1    3    3    0    0  0.79498792251E+00 -0.21013110105E+01 -0.32776840221E+01  0.39737546865E+01  0.00000000000E+00 0.  1.
</event>
<event>
 7    1  0.5068291E-011  0.5052886E+02  0.7816164E-02  0.1300439E+00
        -11   -1    0    0    0    0  0.00000000000E+00  0.00000000000E+00  0.45593999997E+02  0.45594000000E+02  0.51100000000E-03 0.  1.
         11   -1    0    0    0    0 -0.00000000000E+00 -0.00000000000E+00 -0.45593999997E+02  0.45594000000E+02  0.51100000000E-03 0. -1.
    9900012    2    1    2    0    0  0.35266775777E+02  0.13135511610E+02  0.15390864511E+02  0.50528857740E+02  0.29999993585E+02 0.  0.
        -12    1    1    2    0    0 -0.35266775777E+02 -0.13135511610E+02 -0.15390864511E+02  0.40659142260E+02  0.00000000000E+00 0.  1.
         11    1    3    3    0    0 -0.30295990005E+01  0.34811655856E+01 -0.24061423729E+00  0.46211339961E+01  0.51100000000E-03 0.  1.
        -11    1    3    3    0    0  0.35541738152E+02  0.80992219246E+01  0.19149519341E+02  0.41176651611E+02  0.51100000000E-03 0. -1.
         12    1    3    3    0    0  0.27546366254E+01  0.15551240996E+01 -0.35180405931E+01  0.47310721320E+01  0.00000000000E+00 0. -1.
</event>
<event>
 7    1  0.5068291E-011  0.5052886E+02  0.7816164E-02  0.1300439E+00
        -11   -1    0    0    0    0  0.00000000000E+00  0.00000000000E+00  0.45593999997E+02  0.45594000000E+02  0.51100000000E-03 0. -1.
         11   -1    0    0    0    0 -0.00000000000E+00 -0.00000000000E+00 -0.45593999997E+02  0.45594000000E+02  0.51100000000E-03 0.  1.
    9900012    2    1    2    0    0 -0.49032401582E+01 -0.35831601036E+02  0.18580102939E+02  0.50528860534E+02  0.30000002080E+02 0.  0.
        -12    1    1    2    0    0  0.49032401582E+01  0.35831601036E+02 -0.18580102939E+02  0.40659139466E+02  0.00000000000E+00 0.  1.
         11    1    3    3    0    0 -0.77378959375E+01 -0.33725850441E+02  0.18520212235E+02  0.39246735954E+02  0.51100000000E-03 0. -1.
        -11    1    3    3    0    0 -0.22238529065E+01 -0.59507251768E+00 -0.40048347440E+01  0.46193435290E+01  0.51100000000E-03 0.  1.
         12    1    3    3    0    0  0.50585086859E+01 -0.15106780773E+01  0.40647254479E+01  0.66627810518E+01  0.00000000000E+00 0. -1.
</event>
<event>
 7    1  0.5068291E-011  0.5052886E+02  0.7816164E-02  0.1300439E+00
        -11   -1    0    0    0    0  0.00000000000E+00  0.00000000000E+00  0.45593999997E+02  0.45594000000E+02  0.51100000000E-03 0.  1.
         11   -1    0    0    0    0 -0.00000000000E+00 -0.00000000000E+00 -0.45593999997E+02  0.45594000000E+02  0.51100000000E-03 0. -1.
    9900012    2    1    2    0    0 -0.24556321506E+02 -0.27804720499E+02 -0.16644818113E+02  0.50528863537E+02  0.30000011207E+02 0.  0.
        -12    1    1    2    0    0  0.24556321506E+02  0.27804720499E+02  0.16644818113E+02  0.40659136463E+02  0.00000000000E+00 0.  1.
         11    1    3    3    0    0 -0.12152397269E+02 -0.22377283900E+02 -0.17886506178E+02  0.31118333786E+02  0.51100000000E-03 0. -1.
        -11    1    3    3    0    0 -0.69447156086E+01 -0.32539499131E+01  0.75692164310E+01  0.10775449065E+02  0.51100000000E-03 0.  1.
        -12    1    3    3    0    0 -0.54592086280E+01 -0.21734866855E+01 -0.63275283661E+01  0.86350806852E+01  0.00000000000E+00 0.  1.
</event>
<event>
 7    1  0.5068291E-011  0.5052887E+02  0.7816164E-02  0.1300439E+00
        -11   -1    0    0    0    0  0.00000000000E+00  0.00000000000E+00  0.45593999997E+02  0.45594000000E+02  0.51100000000E-03 0. -1.
         11   -1    0    0    0    0 -0.00000000000E+00 -0.00000000000E+00 -0.45593999997E+02  0.45594000000E+02  0.51100000000E-03 0.  1.
    9900012    2    1    2    0    0 -0.32319590030E+02 -0.19986676960E+01  0.24588906541E+02  0.50528869449E+02  0.30000029176E+02 0.  0.
        -12    1    1    2    0    0  0.32319590030E+02  0.19986676960E+01 -0.24588906541E+02  0.40659130551E+02  0.00000000000E+00 0.  1.
         11    1    3    3    0    0 -0.12888944851E+02 -0.12780761817E+02  0.14719560197E+02  0.23369600439E+02  0.51100000000E-03 0. -1.
        -11    1    3    3    0    0 -0.39748705026E+01  0.71654927090E+01  0.75035225862E+01  0.11110658520E+02  0.51100000000E-03 0.  1.
         12    1    3    3    0    0 -0.15455774677E+02  0.36166014118E+01  0.23658237576E+01  0.16048610491E+02  0.00000000000E+00 0. -1.
</event>
<event>
 7    1  0.5068291E-011  0.5052886E+02  0.7816164E-02  0.1300439E+00
        -11   -1    0    0    0    0  0.00000000000E+00  0.00000000000E+00  0.45593999997E+02  0.45594000000E+02  0.51100000000E-03 0.  1.
         11   -1    0    0    0    0 -0.00000000000E+00 -0.00000000000E+00 -0.45593999997E+02  0.45594000000E+02  0.51100000000E-03 0. -1.
    9900012    2    1    2    0    0  0.30715320547E+02 -0.12327499935E+02 -0.23617104799E+02  0.50528858224E+02  0.29999995056E+02 0.  0.
        -12    1    1    2    0    0 -0.30715320547E+02  0.12327499935E+02  0.23617104799E+02  0.40659141776E+02  0.00000000000E+00 0.  1.
         11    1    3    3    0    0  0.23476601031E+01 -0.78643066248E+00 -0.14526433225E+02  0.14735916790E+02  0.51100000000E-03 0. -1.
        -11    1    3    3    0    0  0.18859136780E+02  0.76993706931E+00 -0.31201117315E+01  0.19130994242E+02  0.51100000000E-03 0.  1.
         12    1    3    3    0    0  0.95085236631E+01 -0.12311006342E+02 -0.59705598424E+01  0.16661947192E+02  0.00000000000E+00 0. -1.
</event>
<event>
 7    1  0.5068291E-011  0.5052887E+02  0.7816164E-02  0.1300439E+00
        -11   -1    0    0    0    0  0.00000000000E+00  0.00000000000E+00  0.45593999997E+02  0.45594000000E+02  0.51100000000E-03 0.  1.
         11   -1    0    0    0    0 -0.00000000000E+00 -0.00000000000E+00 -0.45593999997E+02  0.45594000000E+02  0.51100000000E-03 0. -1.
    9900012    2    1    2    0    0  0.21806203196E+02  0.45365808049E+01 -0.34015785517E+02  0.50528871535E+02  0.30000035517E+02 0.  0.
        -12    1    1    2    0    0 -0.21806203196E+02 -0.45365808049E+01  0.34015785517E+02  0.40659128465E+02  0.00000000000E+00 0.  1.
         11    1    3    3    0    0  0.15673955028E+02 -0.71378864872E+00 -0.31276088192E+01  0.15998884262E+02  0.51100000000E-03 0.  1.
        -11    1    3    3    0    0  0.70699302490E+01  0.14215991218E+01 -0.29471915293E+02  0.30341368609E+02  0.51100000000E-03 0. -1.
        -12    1    3    3    0    0 -0.93768208052E+00  0.38287703319E+01 -0.14162614045E+01  0.41886186630E+01  0.00000000000E+00 0.  1.
</event>
<event>
 7    1  0.5068291E-011  0.5052883E+02  0.7816164E-02  0.1300439E+00
        -11   -1    0    0    0    0  0.00000000000E+00  0.00000000000E+00  0.45593999997E+02  0.45594000000E+02  0.51100000000E-03 0.  1.
         11   -1    0    0    0    0 -0.00000000000E+00 -0.00000000000E+00 -0.45593999997E+02  0.45594000000E+02  0.51100000000E-03 0. -1.
    9900012    2    1    2    0    0 -0.36491401865E+02 -0.14328585465E+01 -0.17874365409E+02  0.50528825974E+02  0.29999897031E+02 0.  0.
        -12    1    1    2    0    0  0.36491401865E+02  0.14328585465E+01  0.17874365409E+02  0.40659174026E+02  0.00000000000E+00 0.  1.
         11    1    3    3    0    0 -0.17725172532E+02  0.72260893341E+01 -0.21638007563E+02  0.28889470053E+02  0.51100000000E-03 0. -1.
        -11    1    3    3    0    0 -0.43600425150E+01 -0.45021397410E+01  0.17773050725E+01  0.65144490605E+01  0.51100000000E-03 0.  1.
         12    1    3    3    0    0 -0.14406186818E+02 -0.41568081397E+01  0.19863370816E+01  0.15124906861E+02  0.00000000000E+00 0. -1.
</event>
<event>
 7    1  0.5068291E-011  0.5052885E+02  0.7816164E-02  0.1300439E+00
        -11   -1    0    0    0    0  0.00000000000E+00  0.00000000000E+00  0.45593999997E+02  0.45594000000E+02  0.51100000000E-03 0.  1.
         11   -1    0    0    0    0 -0.00000000000E+00 -0.00000000000E+00 -0.45593999997E+02  0.45594000000E+02  0.51100000000E-03 0. -1.
    9900012    2    1    2    0    0  0.29207308514E+02 -0.98912279812E+01 -0.26500245075E+02  0.50528852805E+02  0.29999978585E+02 0.  0.
        -12    1    1    2    0    0 -0.29207308514E+02  0.98912279812E+01  0.26500245075E+02  0.40659147195E+02  0.00000000000E+00 0.  1.
         11    1    3    3    0    0 -0.91404338761E+00 -0.59947726319E+01 -0.27909956380E+01  0.66755098033E+01  0.51100000000E-03 0. -1.
        -11    1    3    3    0    0  0.13579204683E+02  0.14402594185E+01 -0.22639314260E+02  0.26438753704E+02  0.51100000000E-03 0.  1.
        -12    1    3    3    0    0  0.16542147218E+02 -0.53367147679E+01 -0.10699351775E+01  0.17414589297E+02  0.00000000000E+00 0.  1.
</event>
<event>
 7    1  0.5068291E-011  0.5052887E+02  0.7816164E-02  0.1300439E+00
        -11   -1    0    0    0    0  0.00000000000E+00  0.00000000000E+00  0.45593999997E+02  0.45594000000E+02  0.51100000000E-03 0.  1.
         11   -1    0    0    0    0 -0.00000000000E+00 -0.00000000000E+00 -0.45593999997E+02  0.45594000000E+02  0.51100000000E-03 0. -1.
    9900012    2    1    2    0    0  0.32728476440E+02 -0.22179566038E+02 -0.94909808472E+01  0.50528867728E+02  0.30000023946E+02 0.  0.
        -12    1    1    2    0    0 -0.32728476440E+02  0.22179566038E+02  0.94909808472E+01  0.40659132272E+02  0.00000000000E+00 0.  1.
         11    1    3    3    0    0  0.14780197936E+02 -0.23990171139E+02 -0.57110663424E+01  0.28750632017E+02  0.51100000000E-03 0.  1.
        -11    1    3    3    0    0  0.14598349624E+02  0.33470968162E+01  0.18064367265E+01  0.15085691325E+02  0.51100000000E-03 0. -1.
         12    1    3    3    0    0  0.33499288788E+01 -0.15364917144E+01 -0.55863512313E+01  0.66925443862E+01  0.00000000000E+00 0. -1.
</event>
<event>
 7    1  0.5068291E-011  0.5052886E+02  0.7816164E-02  0.1300439E+00
        -11   -1    0    0    0    0  0.00000000000E+00  0.00000000000E+00  0.45593999997E+02  0.45594000000E+02  0.51100000000E-03 0.  1.
         11   -1    0    0    0    0 -0.00000000000E+00 -0.00000000000E+00 -0.45593999997E+02  0.45594000000E+02  0.51100000000E-03 0. -1.
    9900012    2    1    2    0    0  0.28777194140E+02 -0.14538968336E+02 -0.24772101726E+02  0.50528861707E+02  0.30000005645E+02 0.  0.
        -12    1    1    2    0    0 -0.28777194140E+02  0.14538968336E+02  0.24772101726E+02  0.40659138293E+02  0.00000000000E+00 0.  1.
         11    1    3    3    0    0  0.19969963316E+02 -0.15465832362E+02 -0.90070158419E+01  0.26816370748E+02  0.51100000000E-03 0. -1.
        -11    1    3    3    0    0 -0.43746236957E+01 -0.13591936041E+00 -0.28193757633E+01  0.52062161410E+01  0.51100000000E-03 0.  1.
        -12    1    3    3    0    0  0.13181854519E+02  0.10627833861E+01 -0.12945710120E+02  0.18506274817E+02  0.00000000000E+00 0.  1.
</event>
<event>
 7    1  0.5068291E-011  0.5052886E+02  0.7816164E-02  0.1300439E+00
        -11   -1    0    0    0    0  0.00000000000E+00  0.00000000000E+00  0.45593999997E+02  0.45594000000E+02  0.51100000000E-03 0.  1.
         11   -1    0    0    0    0 -0.00000000000E+00 -0.00000000000E+00 -0.45593999997E+02  0.45594000000E+02  0.51100000000E-03 0. -1.
    9900012    2    1    2    0    0 -0.48359758475E+01  0.22869487285E+02 -0.33268083940E+02  0.50528861788E+02  0.30000005891E+02 0.  0.
        -12    1    1    2    0    0  0.48359758475E+01 -0.22869487285E+02  0.33268083940E+02  0.40659138212E+02  0.00000000000E+00 0.  1.
         11    1    3    3    0    0 -0.52396567459E+01  0.10051408851E+02 -0.18596873344E+02  0.21779084488E+02  0.51100000000E-03 0. -1.
        -11    1    3    3    0    0 -0.76456962680E+01 -0.95597385269E+00 -0.10580556219E+01  0.77775342744E+01  0.51100000000E-03 0.  1.
        -12    1    3    3    0    0  0.80493771663E+01  0.13774052287E+02 -0.13613154975E+02  0.20972243026E+02  0.00000000000E+00 0.  1.
</event>
<event>
 7    1  0.5068291E-011  0.5052886E+02  0.7816164E-02  0.1300439E+00
        -11   -1    0    0    0    0  0.00000000000E+00  0.00000000000E+00  0.45593999997E+02  0.45594000000E+02  0.51100000000E-03 0.  1.
         11   -1    0    0    0    0 -0.00000000000E+00 -0.00000000000E+00 -0.45593999997E+02  0.45594000000E+02  0.51100000000E-03 0. -1.
    9900012    2    1    2    0    0  0.38831396277E+02  0.95803887215E+01  0.73146732702E+01  0.50528860438E+02  0.30000001788E+02 0.  0.
        -12    1    1    2    0    0 -0.38831396277E+02 -0.95803887215E+01 -0.73146732702E+01  0.40659139562E+02  0.00000000000E+00 0.  1.
         11    1    3    3    0    0  0.15057633020E+02 -0.24263708425E+01 -0.42441082058E+01  0.15831362618E+02  0.51100000000E-03 0. -1.
        -11    1    3    3    0    0  0.20622881921E+02  0.16927718040E+02  0.79927133451E+01  0.27852008252E+02  0.51100000000E-03 0.  1.
        -12    1    3    3    0    0  0.31508813358E+01 -0.49209584762E+01  0.35660681310E+01  0.68454895684E+01  0.00000000000E+00 0.  1.
</event>
<event>
 7    1  0.5068291E-011  0.5052886E+02  0.7816164E-02  0.1300439E+00
        -11   -1    0    0    0    0  0.00000000000E+00  0.00000000000E+00  0.45593999997E+02  0.45594000000E+02  0.51100000000E-03 0.  1.
         11   -1    0    0    0    0 -0.00000000000E+00 -0.00000000000E+00 -0.45593999997E+02  0.45594000000E+02  0.51100000000E-03 0. -1.
    9900012    2    1    2    0    0  0.15249325291E+01  0.40597736955E+02 -0.16320885730E+01  0.50528863534E+02  0.30000011198E+02 0.  0.
        -12    1    1    2    0    0 -0.15249325291E+01 -0.40597736955E+02  0.16320885730E+01  0.40659136466E+02  0.00000000000E+00 0.  1.
         11    1    3    3    0    0 -0.14925710303E+01  0.12587230034E+01 -0.86984805402E+01  0.89149153585E+01  0.51100000000E-03 0. -1.
        -11    1    3    3    0    0 -0.41749596775E+00  0.31885550492E+02  0.19607708940E+01  0.31948509446E+02  0.51100000000E-03 0.  1.
        -12    1    3    3    0    0  0.34349995272E+01  0.74534634594E+01  0.51056210732E+01  0.96654387296E+01  0.00000000000E+00 0.  1.
</event>
<event>
 7    1  0.5068291E-011  0.5052888E+02  0.7816164E-02  0.1300439E+00
        -11   -1    0    0    0    0  0.00000000000E+00  0.00000000000E+00  0.45593999997E+02  0.45594000000E+02  0.51100000000E-03 0.  1.
         11   -1    0    0    0    0 -0.00000000000E+00 -0.00000000000E+00 -0.45593999997E+02  0.45594000000E+02  0.51100000000E-03 0. -1.
    9900012    2    1    2    0    0 -0.17914299454E+01  0.20612510711E+02 -0.35001132913E+02  0.50528878954E+02  0.30000058067E+02 0.  0.
        -12    1    1    2    0    0  0.17914299454E+01 -0.20612510711E+02  0.35001132913E+02  0.40659121046E+02  0.00000000000E+00 0.  1.
         11    1    3    3    0    0 -0.67661392140E+01  0.13545393886E+02 -0.31811167041E+02  0.35230791705E+02  0.51100000000E-03 0. -1.
        -11    1    3    3    0    0  0.67733515014E+01 -0.63369346804E+00 -0.88294190908E-01  0.68035030755E+01  0.51100000000E-03 0.  1.
        -12    1    3    3    0    0 -0.17986422328E+01  0.77008102928E+01 -0.31016716810E+01  0.84945841725E+01  0.00000000000E+00 0.  1.
</event>
<event>
 7    1  0.5068291E-011  0.5052886E+02  0.7816164E-02  0.1300439E+00
        -11   -1    0    0    0    0  0.00000000000E+00  0.00000000000E+00  0.45593999997E+02  0.45594000000E+02  0.51100000000E-03 0.  1.
         11   -1    0    0    0    0 -0.00000000000E+00 -0.00000000000E+00 -0.45593999997E+02  0.45594000000E+02  0.51100000000E-03 0. -1.
    9900012    2    1    2    0    0  0.74954037687E+00  0.35610780583E+02 -0.19608057710E+02  0.50528862876E+02  0.30000009197E+02 0.  0.
        -12    1    1    2    0    0 -0.74954037687E+00 -0.35610780583E+02  0.19608057710E+02  0.40659137124E+02  0.00000000000E+00 0.  1.
         11    1    3    3    0    0  0.10838820702E+02  0.27629127846E+02 -0.75627220250E+01  0.30627495889E+02  0.51100000000E-03 0. -1.
        -11    1    3    3    0    0 -0.90441234800E+01  0.58677318085E+01 -0.13386937283E+02  0.17188267399E+02  0.51100000000E-03 0.  1.
         12    1    3    3    0    0 -0.10451568448E+01  0.21139209292E+01  0.13416015985E+01  0.27130995880E+01  0.00000000000E+00 0. -1.
</event>
<event>
 7    1  0.5068291E-011  0.5052885E+02  0.7816164E-02  0.1300439E+00
        -11   -1    0    0    0    0  0.00000000000E+00  0.00000000000E+00  0.45593999997E+02  0.45594000000E+02  0.51100000000E-03 0.  1.
         11   -1    0    0    0    0 -0.00000000000E+00 -0.00000000000E+00 -0.45593999997E+02  0.45594000000E+02  0.51100000000E-03 0. -1.
    9900012    2    1    2    0    0 -0.38121569130E+02 -0.13118533071E+02 -0.52741420574E+01  0.50528849526E+02  0.29999968619E+02 0.  0.
        -12    1    1    2    0    0  0.38121569130E+02  0.13118533071E+02  0.52741420574E+01  0.40659150474E+02  0.00000000000E+00 0.  1.
         11    1    3    3    0    0 -0.20013291611E+02 -0.14406926982E+02 -0.55909650717E+01  0.25285376740E+02  0.51100000000E-03 0. -1.
        -11    1    3    3    0    0  0.34848917122E+01  0.91551837028E+00 -0.46446702619E+00  0.36329566487E+01  0.51100000000E-03 0.  1.
        -12    1    3    3    0    0 -0.21593169231E+02  0.37287554080E+00  0.78129004047E+00  0.21610516137E+02  0.00000000000E+00 0.  1.
</event>
<event>
 7    1  0.5068291E-011  0.5052887E+02  0.7816164E-02  0.1300439E+00
        -11   -1    0    0    0    0  0.00000000000E+00  0.00000000000E+00  0.45593999997E+02  0.45594000000E+02  0.51100000000E-03 0.  1.
         11   -1    0    0    0    0 -0.00000000000E+00 -0.00000000000E+00 -0.45593999997E+02  0.45594000000E+02  0.51100000000E-03 0. -1.
    9900012    2    1    2    0    0 -0.28495440801E+02  0.27406775326E+02  0.94891345325E+01  0.50528866286E+02  0.30000019564E+02 0.  0.
        -12    1    1    2    0    0  0.28495440801E+02 -0.27406775326E+02 -0.94891345325E+01  0.40659133714E+02  0.00000000000E+00 0.  1.
         11    1    3    3    0    0 -0.13142769828E+02  0.47014156710E+01 -0.28515393390E+01  0.14246648200E+02  0.51100000000E-03 0. -1.
        -11    1    3    3    0    0 -0.31187262412E+01  0.20605623262E+02  0.37205342038E+01  0.21169802512E+02  0.51100000000E-03 0.  1.
        -12    1    3    3    0    0 -0.12233944731E+02  0.20997363928E+01  0.86201396677E+01  0.15112415574E+02  0.00000000000E+00 0.  1.
</event>
<event>
 7    1  0.5068291E-011  0.5052886E+02  0.7816164E-02  0.1300439E+00
        -11   -1    0    0    0    0  0.00000000000E+00  0.00000000000E+00  0.45593999997E+02  0.45594000000E+02  0.51100000000E-03 0.  1.
         11   -1    0    0    0    0 -0.00000000000E+00 -0.00000000000E+00 -0.45593999997E+02  0.45594000000E+02  0.51100000000E-03 0. -1.
    9900012    2    1    2    0    0 -0.33851590936E+02  0.19564642532E+02 -0.11156157322E+02  0.50528864588E+02  0.30000014400E+02 0.  0.
        -12    1    1    2    0    0  0.33851590936E+02 -0.19564642532E+02  0.11156157322E+02  0.40659135412E+02  0.00000000000E+00 0.  1.
         11    1    3    3    0    0 -0.14596356443E+02 -0.69088299298E+01 -0.50574841528E+01  0.16922284084E+02  0.51100000000E-03 0. -1.
        -11    1    3    3    0    0 -0.13037529594E+02  0.21130742167E+02 -0.40578565367E+01  0.25158530211E+02  0.51100000000E-03 0.  1.
         12    1    3    3    0    0 -0.62177048986E+01  0.53427302950E+01 -0.20408166323E+01  0.84480502921E+01  0.00000000000E+00 0. -1.
</event>
<event>
 7    1  0.5068291E-011  0.5052886E+02  0.7816164E-02  0.1300439E+00
        -11   -1    0    0    0    0  0.00000000000E+00  0.00000000000E+00  0.45593999997E+02  0.45594000000E+02  0.51100000000E-03 0.  1.
         11   -1    0    0    0    0 -0.00000000000E+00 -0.00000000000E+00 -0.45593999997E+02  0.45594000000E+02  0.51100000000E-03 0. -1.
    9900012    2    1    2    0    0 -0.12553156264E+02 -0.31610370644E+02 -0.22279324485E+02  0.50528861249E+02  0.30000004254E+02 0.  0.
        -12    1    1    2    0    0  0.12553156264E+02  0.31610370644E+02  0.22279324485E+02  0.40659138751E+02  0.00000000000E+00 0.  1.
         11    1    3    3    0    0  0.21487219109E+01  0.38752268330E+01 -0.69539910964E+01  0.82457492860E+01  0.51100000000E-03 0. -1.
        -11    1    3    3    0    0 -0.13049808046E+02 -0.31980403613E+02 -0.10513745896E+02  0.36105159719E+02  0.51100000000E-03 0.  1.
        -12    1    3    3    0    0 -0.16520701289E+01 -0.35051938634E+01 -0.48115874932E+01  0.61779522445E+01  0.00000000000E+00 0.  1.
</event>
<event>
 7    1  0.5068291E-011  0.5052888E+02  0.7816164E-02  0.1300439E+00
        -11   -1    0    0    0    0  0.00000000000E+00  0.00000000000E+00  0.45593999997E+02  0.45594000000E+02  0.51100000000E-03 0.  1.
         11   -1    0    0    0    0 -0.00000000000E+00 -0.00000000000E+00 -0.45593999997E+02  0.45594000000E+02  0.51100000000E-03 0. -1.
    9900012    2    1    2    0    0  0.14564035863E+02 -0.37499768509E+02 -0.59008727749E+01  0.50528879518E+02  0.30000059784E+02 0.  0.
        -12    1    1    2    0    0 -0.14564035863E+02  0.37499768509E+02  0.59008727749E+01  0.40659120482E+02  0.00000000000E+00 0.  1.
         11    1    3    3    0    0 -0.57128032234E+01 -0.34962081893E+01 -0.74707758806E+01  0.10033547971E+02  0.51100000000E-03 0.  1.
        -11    1    3    3    0    0  0.10519596218E+02 -0.23857556845E+02 -0.13909141564E+01  0.26110908940E+02  0.51100000000E-03 0. -1.
         12    1    3    3    0    0  0.97572428680E+01 -0.10146003475E+02  0.29608172621E+01  0.14384422607E+02  0.00000000000E+00 0. -1.
</event>
<event>
 7    1  0.5068291E-011  0.5052887E+02  0.7816164E-02  0.1300439E+00
        -11   -1    0    0    0    0  0.00000000000E+00  0.00000000000E+00  0.45593999997E+02  0.45594000000E+02  0.51100000000E-03 0.  1.
         11   -1    0    0    0    0 -0.00000000000E+00 -0.00000000000E+00 -0.45593999997E+02  0.45594000000E+02  0.51100000000E-03 0. -1.
    9900012    2    1    2    0    0 -0.55185611636E+01  0.23164902999E+02 -0.32956001108E+02  0.50528865021E+02  0.30000015717E+02 0.  0.
        -12    1    1    2    0    0  0.55185611636E+01 -0.23164902999E+02  0.32956001108E+02  0.40659134979E+02  0.00000000000E+00 0.  1.
         11    1    3    3    0    0 -0.89921984660E+01  0.22028071685E+02 -0.32849665088E+02  0.40561016654E+02  0.51100000000E-03 0. -1.
        -11    1    3    3    0    0  0.11251721688E+01 -0.13841778164E+01  0.41350543100E+01  0.45034026074E+01  0.51100000000E-03 0.  1.
        -12    1    3    3    0    0  0.23484651336E+01  0.25210091305E+01 -0.42413903298E+01  0.54644457587E+01  0.00000000000E+00 0.  1.
</event>
<event>
 7    1  0.5068291E-011  0.5052887E+02  0.7816164E-02  0.1300439E+00
        -11   -1    0    0    0    0  0.00000000000E+00  0.00000000000E+00  0.45593999997E+02  0.45594000000E+02  0.51100000000E-03 0.  1.
         11   -1    0    0    0    0 -0.00000000000E+00 -0.00000000000E+00 -0.45593999997E+02  0.45594000000E+02  0.51100000000E-03 0. -1.
    9900012    2    1    2    0    0 -0.18752017878E+02 -0.14370821554E+01 -0.36048042232E+02  0.50528871525E+02  0.30000035487E+02 0.  0.
        -12    1    1    2    0    0  0.18752017878E+02  0.14370821554E+01  0.36048042232E+02  0.40659128475E+02  0.00000000000E+00 0.  1.
         11    1    3    3    0    0 -0.15433811426E+02 -0.98942649047E+01 -0.30491809458E+02  0.35578778189E+02  0.51100000000E-03 0. -1.
        -11    1    3    3    0    0 -0.29714905370E+01  0.70131757405E+01  0.14797248120E+01  0.77591220998E+01  0.51100000000E-03 0.  1.
        -12    1    3    3    0    0 -0.34671591484E+00  0.14440070088E+01 -0.70359575859E+01  0.71909712361E+01  0.00000000000E+00 0.  1.
</event>
<event>
 7    1  0.5068291E-011  0.5052885E+02  0.7816164E-02  0.1300439E+00
        -11   -1    0    0    0    0  0.00000000000E+00  0.00000000000E+00  0.45593999997E+02  0.45594000000E+02  0.51100000000E-03 0. -1.
         11   -1    0    0    0    0 -0.00000000000E+00 -0.00000000000E+00 -0.45593999997E+02  0.45594000000E+02  0.51100000000E-03 0.  1.
    9900012    2    1    2    0    0 -0.30497217073E+02 -0.19937448286E+02  0.18043946148E+02  0.50528854830E+02  0.29999984741E+02 0.  0.
        -12    1    1    2    0    0  0.30497217073E+02  0.19937448286E+02 -0.18043946148E+02  0.40659145170E+02  0.00000000000E+00 0.  1.
         11    1    3    3    0    0 -0.24020474224E+02 -0.94069605443E+01  0.13039104769E+02  0.28904884398E+02  0.51100000000E-03 0. -1.
        -11    1    3    3    0    0  0.25861427951E+01 -0.92437193065E+01  0.74484462575E+01  0.12149643332E+02  0.51100000000E-03 0.  1.
        -12    1    3    3    0    0 -0.90628856440E+01 -0.12867684349E+01 -0.24436048778E+01  0.94743271001E+01  0.00000000000E+00 0.  1.
</event>
<event>
 7    1  0.5068291E-011  0.5052890E+02  0.7816164E-02  0.1300439E+00
        -11   -1    0    0    0    0  0.00000000000E+00  0.00000000000E+00  0.45593999997E+02  0.45594000000E+02  0.51100000000E-03 0. -1.
         11   -1    0    0    0    0 -0.00000000000E+00 -0.00000000000E+00 -0.45593999997E+02  0.45594000000E+02  0.51100000000E-03 0.  1.
    9900012    2    1    2    0    0 -0.15971133519E+02  0.12955196143E+02  0.35074896901E+02  0.50528897629E+02  0.30000114834E+02 0.  0.
        -12    1    1    2    0    0  0.15971133519E+02 -0.12955196143E+02 -0.35074896901E+02  0.40659102371E+02  0.00000000000E+00 0.  1.
         11    1    3    3    0    0 -0.10183692674E+02 -0.47638951759E+01  0.11408131239E+02  0.16017108114E+02  0.51100000000E-03 0. -1.
        -11    1    3    3    0    0 -0.64455955322E+01  0.17296333927E+02  0.10330291389E+02  0.21152394416E+02  0.51100000000E-03 0.  1.
        -12    1    3    3    0    0  0.65815468696E+00  0.42275739245E+00  0.13336474272E+02  0.13359395099E+02  0.00000000000E+00 0.  1.
</event>
<event>
 7    1  0.5068291E-011  0.5052888E+02  0.7816164E-02  0.1300439E+00
        -11   -1    0    0    0    0  0.00000000000E+00  0.00000000000E+00  0.45593999997E+02  0.45594000000E+02  0.51100000000E-03 0.  1.
         11   -1    0    0    0    0 -0.00000000000E+00 -0.00000000000E+00 -0.45593999997E+02  0.45594000000E+02  0.51100000000E-03 0. -1.
    9900012    2    1    2    0    0  0.11305383243E+02  0.30200236706E+02 -0.24764862767E+02  0.50528875375E+02  0.30000047191E+02 0.  0.
        -12    1    1    2    0    0 -0.11305383243E+02 -0.30200236706E+02  0.24764862767E+02  0.40659124625E+02  0.00000000000E+00 0.  1.
         11    1    3    3    0    0  0.83565715577E+01  0.26313217310E+02 -0.50194958380E+01  0.28060880815E+02  0.51100000000E-03 0. -1.
        -11    1    3    3    0    0 -0.68134478929E+00 -0.29006955674E+01 -0.46379620143E+01  0.55126180172E+01  0.51100000000E-03 0.  1.
         12    1    3    3    0    0  0.36301564744E+01  0.67877149635E+01 -0.15107404915E+02  0.16955376543E+02  0.00000000000E+00 0. -1.
</event>
<event>
 7    1  0.5068291E-011  0.5052886E+02  0.7816164E-02  0.1300439E+00
        -11   -1    0    0    0    0  0.00000000000E+00  0.00000000000E+00  0.45593999997E+02  0.45594000000E+02  0.51100000000E-03 0.  1.
         11   -1    0    0    0    0 -0.00000000000E+00 -0.00000000000E+00 -0.45593999997E+02  0.45594000000E+02  0.51100000000E-03 0. -1.
    9900012    2    1    2    0    0  0.25381456087E+02 -0.26597426804E+02 -0.17364443394E+02  0.50528864248E+02  0.30000013369E+02 0.  0.
        -12    1    1    2    0    0 -0.25381456087E+02  0.26597426804E+02  0.17364443394E+02  0.40659135752E+02  0.00000000000E+00 0.  1.
         11    1    3    3    0    0  0.11298037020E+02  0.26703488199E+01 -0.59101461484E+01  0.13027134416E+02  0.51100000000E-03 0. -1.
        -11    1    3    3    0    0  0.13040842178E+02 -0.30503454771E+02 -0.86803187369E+01  0.34290993735E+02  0.51100000000E-03 0.  1.
        -12    1    3    3    0    0  0.10425768885E+01  0.12356791471E+01 -0.27739785087E+01  0.32107360978E+01  0.00000000000E+00 0.  1.
</event>
<event>
 7    1  0.5068291E-011  0.5052886E+02  0.7816164E-02  0.1300439E+00
        -11   -1    0    0    0    0  0.00000000000E+00  0.00000000000E+00  0.45593999997E+02  0.45594000000E+02  0.51100000000E-03 0. -1.
         11   -1    0    0    0    0 -0.00000000000E+00 -0.00000000000E+00 -0.45593999997E+02  0.45594000000E+02  0.51100000000E-03 0.  1.
    9900012    2    1    2    0    0  0.23102757525E+02  0.31520334673E+02  0.11220370824E+02  0.50528860504E+02  0.30000001988E+02 0.  0.
        -12    1    1    2    0    0 -0.23102757525E+02 -0.31520334673E+02 -0.11220370824E+02  0.40659139496E+02  0.00000000000E+00 0.  1.
         11    1    3    3    0    0  0.24337660817E+02  0.35455191287E+02  0.14089810308E+02  0.45253895722E+02  0.51100000000E-03 0.  1.
        -11    1    3    3    0    0 -0.81687825427E+00 -0.38679480534E+01 -0.28036888013E+01  0.48465434468E+01  0.51100000000E-03 0. -1.
        -12    1    3    3    0    0 -0.41802503808E+00 -0.66908560572E-01 -0.65750683350E-01  0.42842133502E+00  0.00000000000E+00 0.  1.
</event>
<event>
 7    1  0.5068291E-011  0.5052886E+02  0.7816164E-02  0.1300439E+00
        -11   -1    0    0    0    0  0.00000000000E+00  0.00000000000E+00  0.45593999997E+02  0.45594000000E+02  0.51100000000E-03 0.  1.
         11   -1    0    0    0    0 -0.00000000000E+00 -0.00000000000E+00 -0.45593999997E+02  0.45594000000E+02  0.51100000000E-03 0. -1.
    9900012    2    1    2    0    0 -0.16478409045E+02 -0.76369863649E+01 -0.36377251399E+02  0.50528856566E+02  0.29999990019E+02 0.  0.
        -12    1    1    2    0    0  0.16478409045E+02  0.76369863649E+01  0.36377251399E+02  0.40659143434E+02  0.00000000000E+00 0.  1.
         11    1    3    3    0    0 -0.18006400303E+02  0.40123702292E+01 -0.12498680209E+02  0.22283325020E+02  0.51100000000E-03 0. -1.
        -11    1    3    3    0    0  0.54979306368E+01 -0.55725204142E+01 -0.12291615870E+02  0.14572715807E+02  0.51100000000E-03 0.  1.
         12    1    3    3    0    0 -0.39699393788E+01 -0.60768361799E+01 -0.11586955320E+02  0.13672815739E+02  0.00000000000E+00 0. -1.
</event>
<event>
 7    1  0.5068291E-011  0.5052885E+02  0.7816164E-02  0.1300439E+00
        -11   -1    0    0    0    0  0.00000000000E+00  0.00000000000E+00  0.45593999997E+02  0.45594000000E+02  0.51100000000E-03 0.  1.
         11   -1    0    0    0    0 -0.00000000000E+00 -0.00000000000E+00 -0.45593999997E+02  0.45594000000E+02  0.51100000000E-03 0. -1.
    9900012    2    1    2    0    0  0.20303375079E+02 -0.34807800684E+02  0.54181651690E+01  0.50528849224E+02  0.29999967700E+02 0.  0.
        -12    1    1    2    0    0 -0.20303375079E+02  0.34807800684E+02 -0.54181651690E+01  0.40659150776E+02  0.00000000000E+00 0.  1.
         11    1    3    3    0    0 -0.17855097915E+01 -0.17885942561E+02  0.59058919071E+01  0.18920215273E+02  0.51100000000E-03 0. -1.
        -11    1    3    3    0    0  0.16184806917E+02 -0.51059405220E+01  0.43870158031E+01  0.17528962077E+02  0.51100000000E-03 0.  1.
        -12    1    3    3    0    0  0.59040779530E+01 -0.11815917601E+02 -0.48747425412E+01  0.14079671874E+02  0.00000000000E+00 0.  1.
</event>
<event>
 7    1  0.5068291E-011  0.5052886E+02  0.7816164E-02  0.1300439E+00
        -11   -1    0    0    0    0  0.00000000000E+00  0.00000000000E+00  0.45593999997E+02  0.45594000000E+02  0.51100000000E-03 0.  1.
         11   -1    0    0    0    0 -0.00000000000E+00 -0.00000000000E+00 -0.45593999997E+02  0.45594000000E+02  0.51100000000E-03 0. -1.
    9900012    2    1    2    0    0  0.10505764582E+02 -0.37502089361E+02 -0.11678526753E+02  0.50528858555E+02  0.29999996064E+02 0.  0.
        -12    1    1    2    0    0 -0.10505764582E+02  0.37502089361E+02  0.11678526753E+02  0.40659141445E+02  0.00000000000E+00 0.  1.
         11    1    3    3    0    0  0.13323079253E+02 -0.14304612860E+02 -0.53930417059E+01  0.20278345321E+02  0.51100000000E-03 0. -1.
        -11    1    3    3    0    0 -0.22950727791E+01  0.26977961410E+01 -0.17689693278E+01  0.39591306904E+01  0.51100000000E-03 0.  1.
         12    1    3    3    0    0 -0.52224189167E+00 -0.25895272642E+02 -0.45165157195E+01  0.26291382544E+02  0.00000000000E+00 0. -1.
</event>
<event>
 7    1  0.5068291E-011  0.5052890E+02  0.7816164E-02  0.1300439E+00
        -11   -1    0    0    0    0  0.00000000000E+00  0.00000000000E+00  0.45593999997E+02  0.45594000000E+02  0.51100000000E-03 0.  1.
         11   -1    0    0    0    0 -0.00000000000E+00 -0.00000000000E+00 -0.45593999997E+02  0.45594000000E+02  0.51100000000E-03 0. -1.
    9900012    2    1    2    0    0  0.69249963176E+01 -0.25752506198E+02 -0.30692270757E+02  0.50528897284E+02  0.30000113784E+02 0.  0.
        -12    1    1    2    0    0 -0.69249963176E+01  0.25752506198E+02  0.30692270757E+02  0.40659102716E+02  0.00000000000E+00 0.  1.
         11    1    3    3    0    0  0.85949297414E+01 -0.16263362221E+02 -0.29356909773E+02  0.34643872758E+02  0.51100000000E-03 0. -1.
        -11    1    3    3    0    0 -0.21540300656E+01 -0.41525280420E+01  0.54866244316E+01  0.72101582908E+01  0.51100000000E-03 0.  1.
        -12    1    3    3    0    0  0.48409664180E+00 -0.53366159342E+01 -0.68219854158E+01  0.86748662354E+01  0.00000000000E+00 0.  1.
</event>
<event>
 7    1  0.5068291E-011  0.5052891E+02  0.7816164E-02  0.1300439E+00
        -11   -1    0    0    0    0  0.00000000000E+00  0.00000000000E+00  0.45593999997E+02  0.45594000000E+02  0.51100000000E-03 0.  1.
         11   -1    0    0    0    0 -0.00000000000E+00 -0.00000000000E+00 -0.45593999997E+02  0.45594000000E+02  0.51100000000E-03 0. -1.
    9900012    2    1    2    0    0 -0.14415133067E+02 -0.26034869602E+02 -0.27704705504E+02  0.50528914870E+02  0.30000167238E+02 0.  0.
        -12    1    1    2    0    0  0.14415133067E+02  0.26034869602E+02  0.27704705504E+02  0.40659085130E+02  0.00000000000E+00 0.  1.
         11    1    3    3    0    0 -0.20947846152E+02 -0.83291186367E+01 -0.15895964647E+02  0.27583838891E+02  0.51100000000E-03 0. -1.
        -11    1    3    3    0    0  0.63470526618E+01 -0.13139048590E+02 -0.11069081313E+02  0.18315136819E+02  0.51100000000E-03 0.  1.
        -12    1    3    3    0    0  0.18566042270E+00 -0.45667023756E+01 -0.73965954452E+00  0.46299391596E+01  0.00000000000E+00 0.  1.
</event>
<event>
 7    1  0.5068291E-011  0.5052882E+02  0.7816164E-02  0.1300439E+00
        -11   -1    0    0    0    0  0.00000000000E+00  0.00000000000E+00  0.45593999997E+02  0.45594000000E+02  0.51100000000E-03 0. -1.
         11   -1    0    0    0    0 -0.00000000000E+00 -0.00000000000E+00 -0.45593999997E+02  0.45594000000E+02  0.51100000000E-03 0.  1.
    9900012    2    1    2    0    0 -0.38572425040E+02  0.45393646918E+01  0.12030427904E+02  0.50528818985E+02  0.29999875787E+02 0.  0.
        -12    1    1    2    0    0  0.38572425040E+02 -0.45393646918E+01 -0.12030427904E+02  0.40659181015E+02  0.00000000000E+00 0.  1.
         11    1    3    3    0    0 -0.20270267060E+02  0.11988349370E+01 -0.68814959618E+01  0.21440054077E+02  0.51100000000E-03 0. -1.
        -11    1    3    3    0    0 -0.15519071630E+02  0.31256042142E+01  0.20481520105E+02  0.25886360347E+02  0.51100000000E-03 0.  1.
        -12    1    3    3    0    0 -0.27830863490E+01  0.21492554058E+00 -0.15695962393E+01  0.32024045604E+01  0.00000000000E+00 0.  1.
</event>
<event>
 7    1  0.5068291E-011  0.5052887E+02  0.7816164E-02  0.1300439E+00
        -11   -1    0    0    0    0  0.00000000000E+00  0.00000000000E+00  0.45593999997E+02  0.45594000000E+02  0.51100000000E-03 0. -1.
         11   -1    0    0    0    0 -0.00000000000E+00 -0.00000000000E+00 -0.45593999997E+02  0.45594000000E+02  0.51100000000E-03 0.  1.
    9900012    2    1    2    0    0 -0.51985525438E+01 -0.16901871207E+02 -0.36612387499E+02  0.50528866743E+02  0.30000020951E+02 0.  0.
        -12    1    1    2    0    0  0.51985525438E+01  0.16901871207E+02  0.36612387499E+02  0.40659133257E+02  0.00000000000E+00 0.  1.
         11    1    3    3    0    0 -0.13065436801E+02 -0.30656477007E+01 -0.22591545840E+02  0.26277019967E+02  0.51100000000E-03 0. -1.
        -11    1    3    3    0    0  0.42883777719E+01 -0.12226858141E+02 -0.15369831513E+02  0.20102685515E+02  0.51100000000E-03 0.  1.
         12    1    3    3    0    0  0.35785064851E+01 -0.16093653649E+01  0.13489898541E+01  0.41491612608E+01  0.00000000000E+00 0. -1.
</event>
<event>
 7    1  0.5068291E-011  0.5052886E+02  0.7816164E-02  0.1300439E+00
        -11   -1    0    0    0    0  0.00000000000E+00  0.00000000000E+00  0.45593999997E+02  0.45594000000E+02  0.51100000000E-03 0.  1.
         11   -1    0    0    0    0 -0.00000000000E+00 -0.00000000000E+00 -0.45593999997E+02  0.45594000000E+02  0.51100000000E-03 0. -1.
    9900012    2    1    2    0    0  0.15864019135E+02 -0.31350643728E+02 -0.20460580010E+02  0.50528864500E+02  0.30000014134E+02 0.  0.
        -12    1    1    2    0    0 -0.15864019135E+02  0.31350643728E+02  0.20460580010E+02  0.40659135500E+02  0.00000000000E+00 0.  1.
         11    1    3    3    0    0  0.36064939106E+01 -0.21748498355E+02 -0.12807291302E+02  0.25495699437E+02  0.51100000000E-03 0. -1.
        -11    1    3    3    0    0  0.70481727446E+01  0.36588846719E+01  0.15233722975E+01  0.80860892586E+01  0.51100000000E-03 0.  1.
        -12    1    3    3    0    0  0.52093524796E+01 -0.13261030045E+02 -0.91766610055E+01  0.16947075805E+02  0.00000000000E+00 0.  1.
</event>
<event>
 7    1  0.5068291E-011  0.5052886E+02  0.7816164E-02  0.1300439E+00
        -11   -1    0    0    0    0  0.00000000000E+00  0.00000000000E+00  0.45593999997E+02  0.45594000000E+02  0.51100000000E-03 0.  1.
         11   -1    0    0    0    0 -0.00000000000E+00 -0.00000000000E+00 -0.45593999997E+02  0.45594000000E+02  0.51100000000E-03 0. -1.
    9900012    2    1    2    0    0 -0.73503032341E+01 -0.22809017543E+02 -0.32846419550E+02  0.50528861837E+02  0.30000006041E+02 0.  0.
        -12    1    1    2    0    0  0.73503032341E+01  0.22809017543E+02  0.32846419550E+02  0.40659138163E+02  0.00000000000E+00 0.  1.
         11    1    3    3    0    0 -0.11428331004E+02 -0.28047123527E+01 -0.10012271237E+02  0.15450525444E+02  0.51100000000E-03 0. -1.
        -11    1    3    3    0    0  0.39879864288E+01 -0.17833055578E+02 -0.25667352178E+02  0.31507695490E+02  0.51100000000E-03 0.  1.
         12    1    3    3    0    0  0.90041341203E-01 -0.21712496120E+01  0.28332038648E+01  0.35706409033E+01  0.00000000000E+00 0. -1.
</event>
<event>
 7    1  0.5068291E-011  0.5052886E+02  0.7816164E-02  0.1300439E+00
        -11   -1    0    0    0    0  0.00000000000E+00  0.00000000000E+00  0.45593999997E+02  0.45594000000E+02  0.51100000000E-03 0.  1.
         11   -1    0    0    0    0 -0.00000000000E+00 -0.00000000000E+00 -0.45593999997E+02  0.45594000000E+02  0.51100000000E-03 0. -1.
    9900012    2    1    2    0    0  0.17147887500E+02 -0.27199219321E+01 -0.36765709642E+02  0.50528862940E+02  0.30000009392E+02 0.  0.
        -12    1    1    2    0    0 -0.17147887500E+02  0.27199219321E+01  0.36765709642E+02  0.40659137060E+02  0.00000000000E+00 0.  1.
         11    1    3    3    0    0  0.20813793059E+01  0.55933253555E+01  0.26940223300E+01  0.65479145476E+01  0.51100000000E-03 0. -1.
        -11    1    3    3    0    0  0.10114782838E+02 -0.83118830417E+01 -0.20021220338E+02  0.23921653279E+02  0.51100000000E-03 0.  1.
         12    1    3    3    0    0  0.49517253561E+01 -0.13642459196E-02 -0.19438511634E+02  0.20059295113E+02  0.00000000000E+00 0. -1.
</event>
<event>
 7    1  0.5068291E-011  0.5052886E+02  0.7816164E-02  0.1300439E+00
        -11   -1    0    0    0    0  0.00000000000E+00  0.00000000000E+00  0.45593999997E+02  0.45594000000E+02  0.51100000000E-03 0.  1.
         11   -1    0    0    0    0 -0.00000000000E+00 -0.00000000000E+00 -0.45593999997E+02  0.45594000000E+02  0.51100000000E-03 0. -1.
    9900012    2    1    2    0    0 -0.21434505437E+02 -0.25923102509E+02 -0.22841206306E+02  0.50528856225E+02  0.29999988982E+02 0.  0.
        -12    1    1    2    0    0  0.21434505437E+02  0.25923102509E+02  0.22841206306E+02  0.40659143775E+02  0.00000000000E+00 0.  1.
         11    1    3    3    0    0 -0.17792214747E+02 -0.13972094800E+02 -0.17246680851E+01  0.22688252885E+02  0.51100000000E-03 0. -1.
        -11    1    3    3    0    0  0.46726105391E+01 -0.69363505650E+01 -0.85575128678E+01  0.11965670694E+02  0.51100000000E-03 0.  1.
        -12    1    3    3    0    0 -0.83149012282E+01 -0.50146571445E+01 -0.12559025353E+02  0.15874932646E+02  0.00000000000E+00 0.  1.
</event>
<event>
 7    1  0.5068291E-011  0.5052886E+02  0.7816164E-02  0.1300439E+00
        -11   -1    0    0    0    0  0.00000000000E+00  0.00000000000E+00  0.45593999997E+02  0.45594000000E+02  0.51100000000E-03 0.  1.
         11   -1    0    0    0    0 -0.00000000000E+00 -0.00000000000E+00 -0.45593999997E+02  0.45594000000E+02  0.51100000000E-03 0. -1.
    9900012    2    1    2    0    0 -0.11661867168E+02  0.34214031228E+02 -0.18616309400E+02  0.50528855218E+02  0.29999985920E+02 0.  0.
        -12    1    1    2    0    0  0.11661867168E+02 -0.34214031228E+02  0.18616309400E+02  0.40659144782E+02  0.00000000000E+00 0.  1.
         11    1    3    3    0    0 -0.32966612616E+01  0.20874583381E+02 -0.19184149168E+02  0.28542035428E+02  0.51100000000E-03 0. -1.
        -11    1    3    3    0    0 -0.27047106106E+01  0.14223868722E+02  0.43544620685E+01  0.15119366425E+02  0.51100000000E-03 0.  1.
        -12    1    3    3    0    0 -0.56604952956E+01 -0.88442087483E+00 -0.37866223009E+01  0.68674533653E+01  0.00000000000E+00 0.  1.
</event>
<event>
 7    1  0.5068291E-011  0.5052886E+02  0.7816164E-02  0.1300439E+00
        -11   -1    0    0    0    0  0.00000000000E+00  0.00000000000E+00  0.45593999997E+02  0.45594000000E+02  0.51100000000E-03 0.  1.
         11   -1    0    0    0    0 -0.00000000000E+00 -0.00000000000E+00 -0.45593999997E+02  0.45594000000E+02  0.51100000000E-03 0. -1.
    9900012    2    1    2    0    0 -0.16126090291E+00 -0.73294076005E+01 -0.39992741586E+02  0.50528860801E+02  0.30000002890E+02 0.  0.
        -12    1    1    2    0    0  0.16126090291E+00  0.73294076005E+01  0.39992741586E+02  0.40659139199E+02  0.00000000000E+00 0.  1.
         11    1    3    3    0    0  0.17813842934E+01 -0.16315302643E+02 -0.23760714044E+02  0.28877914788E+02  0.51100000000E-03 0. -1.
        -11    1    3    3    0    0  0.34235525538E+01  0.76925332676E+01 -0.72640618432E+01  0.11120358577E+02  0.51100000000E-03 0.  1.
        -12    1    3    3    0    0 -0.53661977501E+01  0.12933617749E+01 -0.89679656984E+01  0.10530587436E+02  0.00000000000E+00 0.  1.
</event>
<event>
 7    1  0.5068291E-011  0.5052886E+02  0.7816164E-02  0.1300439E+00
        -11   -1    0    0    0    0  0.00000000000E+00  0.00000000000E+00  0.45593999997E+02  0.45594000000E+02  0.51100000000E-03 0. -1.
         11   -1    0    0    0    0 -0.00000000000E+00 -0.00000000000E+00 -0.45593999997E+02  0.45594000000E+02  0.51100000000E-03 0.  1.
    9900012    2    1    2    0    0  0.60931350355E+01  0.40109047722E+02 -0.27025848681E+01  0.50528856272E+02  0.29999989124E+02 0.  0.
        -12    1    1    2    0    0 -0.60931350355E+01 -0.40109047722E+02  0.27025848681E+01  0.40659143728E+02  0.00000000000E+00 0.  1.
         11    1    3    3    0    0  0.17043809003E+02  0.21018729491E+02 -0.86780333819E+00  0.27074554431E+02  0.51100000000E-03 0. -1.
        -11    1    3    3    0    0 -0.70992976187E+01  0.17902567395E+02 -0.71853542399E+00  0.19272214180E+02  0.51100000000E-03 0.  1.
         12    1    3    3    0    0 -0.38513763486E+01  0.11877508361E+01 -0.11162461059E+01  0.41820876601E+01  0.00000000000E+00 0. -1.
</event>
<event>
 7    1  0.5068291E-011  0.5052885E+02  0.7816164E-02  0.1300439E+00
        -11   -1    0    0    0    0  0.00000000000E+00  0.00000000000E+00  0.45593999997E+02  0.45594000000E+02  0.51100000000E-03 0. -1.
         11   -1    0    0    0    0 -0.00000000000E+00 -0.00000000000E+00 -0.45593999997E+02  0.45594000000E+02  0.51100000000E-03 0.  1.
    9900012    2    1    2    0    0 -0.31863588636E+02 -0.12758593396E+02  0.21796712414E+02  0.50528847792E+02  0.29999963350E+02 0.  0.
        -12    1    1    2    0    0  0.31863588636E+02  0.12758593396E+02 -0.21796712414E+02  0.40659152208E+02  0.00000000000E+00 0.  1.
         11    1    3    3    0    0 -0.15233618221E+02 -0.86015454418E+00 -0.21732653969E+01  0.15411880894E+02  0.51100000000E-03 0.  1.
        -11    1    3    3    0    0 -0.10753239865E+02 -0.61776096171E+01  0.23887813780E+02  0.26915101256E+02  0.51100000000E-03 0. -1.
         12    1    3    3    0    0 -0.58767305498E+01 -0.57208292347E+01  0.82164030682E-01  0.82018656424E+01  0.00000000000E+00 0. -1.
</event>
<event>
 7    1  0.5068291E-011  0.5052886E+02  0.7816164E-02  0.1300439E+00
        -11   -1    0    0    0    0  0.00000000000E+00  0.00000000000E+00  0.45593999997E+02  0.45594000000E+02  0.51100000000E-03 0.  1.
         11   -1    0    0    0    0 -0.00000000000E+00 -0.00000000000E+00 -0.45593999997E+02  0.45594000000E+02  0.51100000000E-03 0. -1.
    9900012    2    1    2    0    0 -0.67448325545E+01 -0.28969430799E+02 -0.27720837400E+02  0.50528861874E+02  0.30000006151E+02 0.  0.
        -12    1    1    2    0    0  0.67448325545E+01  0.28969430799E+02  0.27720837400E+02  0.40659138126E+02  0.00000000000E+00 0.  1.
         11    1    3    3    0    0 -0.79067123368E+01 -0.26577704810E+02 -0.18360080188E+02  0.33256323274E+02  0.51100000000E-03 0. -1.
        -11    1    3    3    0    0 -0.55994765122E+01  0.12537235486E+01 -0.73642156437E+01  0.93358252048E+01  0.51100000000E-03 0.  1.
        -12    1    3    3    0    0  0.67613562945E+01 -0.36454495377E+01 -0.19965415685E+01  0.79367133946E+01  0.00000000000E+00 0.  1.
</event>
<event>
 7    1  0.5068291E-011  0.5052886E+02  0.7816164E-02  0.1300439E+00
        -11   -1    0    0    0    0  0.00000000000E+00  0.00000000000E+00  0.45593999997E+02  0.45594000000E+02  0.51100000000E-03 0.  1.
         11   -1    0    0    0    0 -0.00000000000E+00 -0.00000000000E+00 -0.45593999997E+02  0.45594000000E+02  0.51100000000E-03 0. -1.
    9900012    2    1    2    0    0  0.75212085408E+00 -0.69629144038E+01 -0.40051436003E+02  0.50528863405E+02  0.30000010805E+02 0.  0.
        -12    1    1    2    0    0 -0.75212085408E+00  0.69629144038E+01  0.40051436003E+02  0.40659136595E+02  0.00000000000E+00 0.  1.
         11    1    3    3    0    0 -0.21252662148E+01 -0.57096794261E+01 -0.15492574062E+02  0.16647433645E+02  0.51100000000E-03 0. -1.
        -11    1    3    3    0    0  0.81890162142E+01  0.74435051333E+01 -0.57064568744E+01  0.12451080497E+02  0.51100000000E-03 0.  1.
        -12    1    3    3    0    0 -0.53116291453E+01 -0.86967401110E+01 -0.18852405066E+02  0.21430349262E+02  0.00000000000E+00 0.  1.
</event>
<event>
 7    1  0.5068291E-011  0.5052886E+02  0.7816164E-02  0.1300439E+00
        -11   -1    0    0    0    0  0.00000000000E+00  0.00000000000E+00  0.45593999997E+02  0.45594000000E+02  0.51100000000E-03 0.  1.
         11   -1    0    0    0    0 -0.00000000000E+00 -0.00000000000E+00 -0.45593999997E+02  0.45594000000E+02  0.51100000000E-03 0. -1.
    9900012    2    1    2    0    0  0.65486117778E+01  0.33874088936E+02 -0.21513415816E+02  0.50528864772E+02  0.30000014960E+02 0.  0.
        -12    1    1    2    0    0 -0.65486117778E+01 -0.33874088936E+02  0.21513415816E+02  0.40659135228E+02  0.00000000000E+00 0.  1.
         11    1    3    3    0    0  0.14451042080E+01  0.12860777369E+02 -0.13342547273E+02  0.18587939335E+02  0.51100000000E-03 0. -1.
        -11    1    3    3    0    0  0.10740657409E+02  0.17208738404E+02  0.12474342667E+01  0.20323840473E+02  0.51100000000E-03 0.  1.
        -12    1    3    3    0    0 -0.56371498395E+01  0.38045731629E+01 -0.94183028088E+01  0.11617084964E+02  0.00000000000E+00 0.  1.
</event>
<event>
 7    1  0.5068291E-011  0.5052886E+02  0.7816164E-02  0.1300439E+00
        -11   -1    0    0    0    0  0.00000000000E+00  0.00000000000E+00  0.45593999997E+02  0.45594000000E+02  0.51100000000E-03 0.  1.
         11   -1    0    0    0    0 -0.00000000000E+00 -0.00000000000E+00 -0.45593999997E+02  0.45594000000E+02  0.51100000000E-03 0. -1.
    9900012    2    1    2    0    0  0.28147637005E+02  0.16526421190E+02 -0.24243635761E+02  0.50528856609E+02  0.29999990150E+02 0.  0.
        -12    1    1    2    0    0 -0.28147637005E+02 -0.16526421190E+02  0.24243635761E+02  0.40659143391E+02  0.00000000000E+00 0.  1.
         11    1    3    3    0    0  0.65460505935E+01 -0.24437882576E+01 -0.75787222128E+01  0.10308244761E+02  0.51100000000E-03 0. -1.
        -11    1    3    3    0    0  0.19032712604E+02  0.17382833714E+02 -0.26818947153E+01  0.25915239079E+02  0.51100000000E-03 0.  1.
        -12    1    3    3    0    0  0.25688738076E+01  0.15873757330E+01 -0.13983018833E+02  0.14305372769E+02  0.00000000000E+00 0.  1.
</event>
<event>
 7    1  0.5068291E-011  0.5052886E+02  0.7816164E-02  0.1300439E+00
        -11   -1    0    0    0    0  0.00000000000E+00  0.00000000000E+00  0.45593999997E+02  0.45594000000E+02  0.51100000000E-03 0.  1.
         11   -1    0    0    0    0 -0.00000000000E+00 -0.00000000000E+00 -0.45593999997E+02  0.45594000000E+02  0.51100000000E-03 0. -1.
    9900012    2    1    2    0    0  0.12357694801E+01  0.71809357000E+01 -0.40000907139E+02  0.50528861597E+02  0.30000005311E+02 0.  0.
        -12    1    1    2    0    0 -0.12357694801E+01 -0.71809357000E+01  0.40000907139E+02  0.40659138403E+02  0.00000000000E+00 0.  1.
         11    1    3    3    0    0  0.15921299336E+01  0.54546896373E+01 -0.14870787790E+02  0.15919448688E+02  0.51100000000E-03 0. -1.
        -11    1    3    3    0    0 -0.11958276835E+02 -0.45193561980E+00 -0.13449747054E+02  0.18002786638E+02  0.51100000000E-03 0.  1.
        -12    1    3    3    0    0  0.11601916381E+02  0.21781816824E+01 -0.11680372295E+02  0.16606626271E+02  0.00000000000E+00 0.  1.
</event>
<event>
 7    1  0.5068291E-011  0.5052885E+02  0.7816164E-02  0.1300439E+00
        -11   -1    0    0    0    0  0.00000000000E+00  0.00000000000E+00  0.45593999997E+02  0.45594000000E+02  0.51100000000E-03 0.  1.
         11   -1    0    0    0    0 -0.00000000000E+00 -0.00000000000E+00 -0.45593999997E+02  0.45594000000E+02  0.51100000000E-03 0. -1.
    9900012    2    1    2    0    0 -0.26034420961E+02  0.23134486089E+02 -0.20980255976E+02  0.50528847744E+02  0.29999963202E+02 0.  0.
        -12    1    1    2    0    0  0.26034420961E+02 -0.23134486089E+02  0.20980255976E+02  0.40659152256E+02  0.00000000000E+00 0.  1.
         11    1    3    3    0    0  0.19593064927E+01  0.48579833806E+01 -0.85752870383E+00  0.53079412391E+01  0.51100000000E-03 0.  1.
        -11    1    3    3    0    0 -0.22156358826E+02  0.18322546820E+02 -0.52271473125E+01  0.29222303600E+02  0.51100000000E-03 0. -1.
        -12    1    3    3    0    0 -0.58373686277E+01 -0.46044112225E-01 -0.14895579960E+02  0.15998602904E+02  0.00000000000E+00 0.  1.
</event>
<event>
 7    1  0.5068291E-011  0.5052885E+02  0.7816164E-02  0.1300439E+00
        -11   -1    0    0    0    0  0.00000000000E+00  0.00000000000E+00  0.45593999997E+02  0.45594000000E+02  0.51100000000E-03 0.  1.
         11   -1    0    0    0    0 -0.00000000000E+00 -0.00000000000E+00 -0.45593999997E+02  0.45594000000E+02  0.51100000000E-03 0. -1.
    9900012    2    1    2    0    0 -0.23845312984E+02  0.30783117211E+02 -0.11703288506E+02  0.50528853201E+02  0.29999979791E+02 0.  0.
        -12    1    1    2    0    0  0.23845312984E+02 -0.30783117211E+02  0.11703288506E+02  0.40659146799E+02  0.00000000000E+00 0.  1.
         11    1    3    3    0    0  0.10946014598E+01  0.41735081741E+01  0.52419259454E+01  0.67892643721E+01  0.51100000000E-03 0. -1.
        -11    1    3    3    0    0 -0.84663648874E+01  0.18273086312E+02 -0.15126888469E+02  0.25187452685E+02  0.51100000000E-03 0.  1.
         12    1    3    3    0    0 -0.16473549556E+02  0.83365227254E+01 -0.18183259826E+01  0.18552136144E+02  0.00000000000E+00 0. -1.
</event>
<event>
 7    1  0.5068291E-011  0.5052886E+02  0.7816164E-02  0.1300439E+00
        -11   -1    0    0    0    0  0.00000000000E+00  0.00000000000E+00  0.45593999997E+02  0.45594000000E+02  0.51100000000E-03 0.  1.
         11   -1    0    0    0    0 -0.00000000000E+00 -0.00000000000E+00 -0.45593999997E+02  0.45594000000E+02  0.51100000000E-03 0. -1.
    9900012    2    1    2    0    0  0.16015225340E+02 -0.19194743820E+02 -0.32066180387E+02  0.50528861327E+02  0.30000004490E+02 0.  0.
        -12    1    1    2    0    0 -0.16015225340E+02  0.19194743820E+02  0.32066180387E+02  0.40659138673E+02  0.00000000000E+00 0.  1.
         11    1    3    3    0    0  0.36057198834E+00  0.50386606860E+01 -0.13065586885E+02  0.14008128875E+02  0.51100000000E-03 0. -1.
        -11    1    3    3    0    0  0.93900385432E+01 -0.19707069540E+02 -0.18767979995E+02  0.28788513109E+02  0.51100000000E-03 0.  1.
        -12    1    3    3    0    0  0.62646148082E+01 -0.45263349658E+01 -0.23261350744E+00  0.77322193425E+01  0.00000000000E+00 0.  1.
</event>
<event>
 7    1  0.5068291E-011  0.5052886E+02  0.7816164E-02  0.1300439E+00
        -11   -1    0    0    0    0  0.00000000000E+00  0.00000000000E+00  0.45593999997E+02  0.45594000000E+02  0.51100000000E-03 0.  1.
         11   -1    0    0    0    0 -0.00000000000E+00 -0.00000000000E+00 -0.45593999997E+02  0.45594000000E+02  0.51100000000E-03 0. -1.
    9900012    2    1    2    0    0  0.14441906633E+01  0.89524820750E+01 -0.39634997061E+02  0.50528860634E+02  0.30000002383E+02 0.  0.
        -12    1    1    2    0    0 -0.14441906633E+01 -0.89524820750E+01  0.39634997061E+02  0.40659139366E+02  0.00000000000E+00 0.  1.
         11    1    3    3    0    0  0.11802775555E+02  0.81675396777E+01 -0.15255413534E+02  0.20946165700E+02  0.51100000000E-03 0.  1.
        -11    1    3    3    0    0 -0.61306184010E+01  0.51690715517E+01 -0.54456293753E+01  0.96932276481E+01  0.51100000000E-03 0. -1.
         12    1    3    3    0    0 -0.42279664909E+01 -0.43841291544E+01 -0.18933954152E+02  0.19889467286E+02  0.00000000000E+00 0. -1.
</event>
<event>
 7    1  0.5068291E-011  0.5052887E+02  0.7816164E-02  0.1300439E+00
        -11   -1    0    0    0    0  0.00000000000E+00  0.00000000000E+00  0.45593999997E+02  0.45594000000E+02  0.51100000000E-03 0.  1.
         11   -1    0    0    0    0 -0.00000000000E+00 -0.00000000000E+00 -0.45593999997E+02  0.45594000000E+02  0.51100000000E-03 0. -1.
    9900012    2    1    2    0    0 -0.23587716971E+01  0.34087007021E+02  0.22038089463E+02  0.50528865248E+02  0.30000016409E+02 0.  0.
        -12    1    1    2    0    0  0.23587716971E+01 -0.34087007021E+02 -0.22038089463E+02  0.40659134752E+02  0.00000000000E+00 0.  1.
         11    1    3    3    0    0 -0.30278437970E+00  0.23175576148E+02  0.22092471317E+02  0.32019935936E+02  0.51100000000E-03 0. -1.
        -11    1    3    3    0    0 -0.29960528158E+01 -0.31657721464E+01 -0.53983618364E+00  0.43920233520E+01  0.51100000000E-03 0.  1.
         12    1    3    3    0    0  0.94006549839E+00  0.14077203020E+02  0.48545432966E+00  0.14116905961E+02  0.00000000000E+00 0. -1.
</event>
<event>
 7    1  0.5068291E-011  0.5052885E+02  0.7816164E-02  0.1300439E+00
        -11   -1    0    0    0    0  0.00000000000E+00  0.00000000000E+00  0.45593999997E+02  0.45594000000E+02  0.51100000000E-03 0.  1.
         11   -1    0    0    0    0 -0.00000000000E+00 -0.00000000000E+00 -0.45593999997E+02  0.45594000000E+02  0.51100000000E-03 0. -1.
    9900012    2    1    2    0    0 -0.25733080575E+02 -0.31933723220E+01 -0.31317362012E+02  0.50528853107E+02  0.29999979504E+02 0.  0.
        -12    1    1    2    0    0  0.25733080575E+02  0.31933723220E+01  0.31317362012E+02  0.40659146893E+02  0.00000000000E+00 0.  1.
         11    1    3    3    0    0  0.75522349052E+00  0.62937422444E+00 -0.19991913080E+01  0.22278331585E+01  0.51100000000E-03 0. -1.
        -11    1    3    3    0    0 -0.19846668505E+02  0.39944425662E+01 -0.31846339109E+02  0.37736390090E+02  0.51100000000E-03 0.  1.
        -12    1    3    3    0    0 -0.66416355614E+01 -0.78171891126E+01  0.25281684056E+01  0.10564629858E+02  0.00000000000E+00 0.  1.
</event>
<event>
 7    1  0.5068291E-011  0.5052886E+02  0.7816164E-02  0.1300439E+00
        -11   -1    0    0    0    0  0.00000000000E+00  0.00000000000E+00  0.45593999997E+02  0.45594000000E+02  0.51100000000E-03 0. -1.
         11   -1    0    0    0    0 -0.00000000000E+00 -0.00000000000E+00 -0.45593999997E+02  0.45594000000E+02  0.51100000000E-03 0.  1.
    9900012    2    1    2    0    0  0.62977710966E+01 -0.34485239315E+02  0.20597872373E+02  0.50528855915E+02  0.29999988039E+02 0.  0.
        -12    1    1    2    0    0 -0.62977710966E+01  0.34485239315E+02 -0.20597872373E+02  0.40659144085E+02  0.00000000000E+00 0.  1.
         11    1    3    3    0    0  0.98202221101E+00 -0.16861359416E+02  0.21767520186E+02  0.27551674074E+02  0.51100000000E-03 0. -1.
        -11    1    3    3    0    0  0.64466982813E+01 -0.34249787368E+01 -0.41893899871E+01  0.84167325491E+01  0.51100000000E-03 0.  1.
         12    1    3    3    0    0 -0.11309493957E+01 -0.14198901163E+02  0.30197421742E+01  0.14560449292E+02  0.00000000000E+00 0. -1.
</event>
<event>
 7    1  0.5068291E-011  0.5052886E+02  0.7816164E-02  0.1300439E+00
        -11   -1    0    0    0    0  0.00000000000E+00  0.00000000000E+00  0.45593999997E+02  0.45594000000E+02  0.51100000000E-03 0. -1.
         11   -1    0    0    0    0 -0.00000000000E+00 -0.00000000000E+00 -0.45593999997E+02  0.45594000000E+02  0.51100000000E-03 0.  1.
    9900012    2    1    2    0    0 -0.26986939231E+02  0.17457100621E+02  0.24902213012E+02  0.50528862478E+02  0.30000007987E+02 0.  0.
        -12    1    1    2    0    0  0.26986939231E+02 -0.17457100621E+02 -0.24902213012E+02  0.40659137522E+02  0.00000000000E+00 0.  1.
         11    1    3    3    0    0 -0.12061498138E+01  0.13288493352E+02  0.14817902399E+02  0.19940137530E+02  0.51100000000E-03 0. -1.
        -11    1    3    3    0    0 -0.24927393803E+02  0.32426589160E+01  0.53640170422E+01  0.25703355380E+02  0.51100000000E-03 0.  1.
        -12    1    3    3    0    0 -0.85339561429E+00  0.92594835341E+00  0.47202935705E+01  0.48853695684E+01  0.00000000000E+00 0.  1.
</event>
<event>
 7    1  0.5068291E-011  0.5052886E+02  0.7816164E-02  0.1300439E+00
        -11   -1    0    0    0    0  0.00000000000E+00  0.00000000000E+00  0.45593999997E+02  0.45594000000E+02  0.51100000000E-03 0.  1.
         11   -1    0    0    0    0 -0.00000000000E+00 -0.00000000000E+00 -0.45593999997E+02  0.45594000000E+02  0.51100000000E-03 0. -1.
    9900012    2    1    2    0    0 -0.19006224736E+01  0.82638108698E+01 -0.39765092718E+02  0.50528861608E+02  0.30000005344E+02 0.  0.
        -12    1    1    2    0    0  0.19006224736E+01 -0.82638108698E+01  0.39765092718E+02  0.40659138392E+02  0.00000000000E+00 0.  1.
         11    1    3    3    0    0 -0.87357994040E+00  0.15043741416E+02 -0.24074081642E+02  0.28401385615E+02  0.51100000000E-03 0.  1.
        -11    1    3    3    0    0  0.61037830740E+01 -0.57651847802E+01 -0.86664891394E+01  0.12066547047E+02  0.51100000000E-03 0. -1.
        -12    1    3    3    0    0 -0.71308256072E+01 -0.10147457661E+01 -0.70245219369E+01  0.10060928946E+02  0.00000000000E+00 0.  1.
</event>
<event>
 7    1  0.5068291E-011  0.5052886E+02  0.7816164E-02  0.1300439E+00
        -11   -1    0    0    0    0  0.00000000000E+00  0.00000000000E+00  0.45593999997E+02  0.45594000000E+02  0.51100000000E-03 0. -1.
         11   -1    0    0    0    0 -0.00000000000E+00 -0.00000000000E+00 -0.45593999997E+02  0.45594000000E+02  0.51100000000E-03 0.  1.
    9900012    2    1    2    0    0  0.98816480988E+01 -0.17191626013E+02  0.35496010678E+02  0.50528858984E+02  0.29999997368E+02 0.  0.
        -12    1    1    2    0    0 -0.98816480988E+01  0.17191626013E+02 -0.35496010678E+02  0.40659141016E+02  0.00000000000E+00 0.  1.
         11    1    3    3    0    0  0.11332221571E+02 -0.14037590134E+02  0.56057655474E+01  0.18891738675E+02  0.51100000000E-03 0. -1.
        -11    1    3    3    0    0 -0.31082379525E+01 -0.36533775831E+01  0.59882635786E+01  0.76725231757E+01  0.51100000000E-03 0.  1.
         12    1    3    3    0    0  0.16576644799E+01  0.49934170425E+00  0.23901981552E+02  0.23964597134E+02  0.00000000000E+00 0. -1.
</event>
<event>
 7    1  0.5068291E-011  0.5052877E+02  0.7816164E-02  0.1300439E+00
        -11   -1    0    0    0    0  0.00000000000E+00  0.00000000000E+00  0.45593999997E+02  0.45594000000E+02  0.51100000000E-03 0.  1.
         11   -1    0    0    0    0 -0.00000000000E+00 -0.00000000000E+00 -0.45593999997E+02  0.45594000000E+02  0.51100000000E-03 0. -1.
    9900012    2    1    2    0    0 -0.12656699866E+02 -0.13302043179E+02 -0.36277216117E+02  0.50528772100E+02  0.29999733275E+02 0.  0.
        -12    1    1    2    0    0  0.12656699866E+02  0.13302043179E+02  0.36277216117E+02  0.40659227900E+02  0.00000000000E+00 0.  1.
         11    1    3    3    0    0 -0.78734700337E+01 -0.20363428477E+02 -0.20238779628E+02  0.29770269579E+02  0.51100000000E-03 0. -1.
        -11    1    3    3    0    0 -0.12644898247E+01  0.86542975183E+01 -0.13667371812E+02  0.16226301259E+02  0.51100000000E-03 0.  1.
        -12    1    3    3    0    0 -0.35187400074E+01 -0.15929122199E+01 -0.23710646775E+01  0.45322012626E+01  0.00000000000E+00 0.  1.
</event>
<event>
 7    1  0.5068291E-011  0.5052886E+02  0.7816164E-02  0.1300439E+00
        -11   -1    0    0    0    0  0.00000000000E+00  0.00000000000E+00  0.45593999997E+02  0.45594000000E+02  0.51100000000E-03 0.  1.
         11   -1    0    0    0    0 -0.00000000000E+00 -0.00000000000E+00 -0.45593999997E+02  0.45594000000E+02  0.51100000000E-03 0. -1.
    9900012    2    1    2    0    0  0.49985754885E+01  0.16776838661E+00 -0.40350364911E+02  0.50528857712E+02  0.29999993502E+02 0.  0.
        -12    1    1    2    0    0 -0.49985754885E+01 -0.16776838661E+00  0.40350364911E+02  0.40659142288E+02  0.00000000000E+00 0.  1.
         11    1    3    3    0    0 -0.59587020190E+01 -0.18147596223E+01 -0.87929455211E+01  0.10775684360E+02  0.51100000000E-03 0. -1.
        -11    1    3    3    0    0  0.96312070235E+01 -0.89583776711E+01 -0.17002001764E+02  0.21496063441E+02  0.51100000000E-03 0.  1.
        -12    1    3    3    0    0  0.13260704841E+01  0.10940905680E+02 -0.14555417626E+02  0.18257109910E+02  0.00000000000E+00 0.  1.
</event>
<event>
 7    1  0.5068291E-011  0.5052885E+02  0.7816164E-02  0.1300439E+00
        -11   -1    0    0    0    0  0.00000000000E+00  0.00000000000E+00  0.45593999997E+02  0.45594000000E+02  0.51100000000E-03 0. -1.
         11   -1    0    0    0    0 -0.00000000000E+00 -0.00000000000E+00 -0.45593999997E+02  0.45594000000E+02  0.51100000000E-03 0.  1.
    9900012    2    1    2    0    0 -0.38611309350E+02 -0.72607631761E+01  0.10469702228E+02  0.50528849045E+02  0.29999967158E+02 0.  0.
        -12    1    1    2    0    0  0.38611309350E+02  0.72607631761E+01 -0.10469702228E+02  0.40659150955E+02  0.00000000000E+00 0.  1.
         11    1    3    3    0    0 -0.11988121135E+02  0.54422982646E+01  0.13284554015E+00  0.13166294352E+02  0.51100000000E-03 0. -1.
        -11    1    3    3    0    0 -0.13205884505E+02 -0.13166070495E+02 -0.24673112116E+01  0.18810327554E+02  0.51100000000E-03 0.  1.
        -12    1    3    3    0    0 -0.13417303710E+02  0.46300905407E+00  0.12804167900E+02  0.18552227139E+02  0.00000000000E+00 0.  1.
</event>
<event>
 7    1  0.5068291E-011  0.5052886E+02  0.7816164E-02  0.1300439E+00
        -11   -1    0    0    0    0  0.00000000000E+00  0.00000000000E+00  0.45593999997E+02  0.45594000000E+02  0.51100000000E-03 0.  1.
         11   -1    0    0    0    0 -0.00000000000E+00 -0.00000000000E+00 -0.45593999997E+02  0.45594000000E+02  0.51100000000E-03 0. -1.
    9900012    2    1    2    0    0 -0.17084805607E+02  0.36402551696E+02 -0.60107449458E+01  0.50528863174E+02  0.30000010105E+02 0.  0.
        -12    1    1    2    0    0  0.17084805607E+02 -0.36402551696E+02  0.60107449458E+01  0.40659136826E+02  0.00000000000E+00 0.  1.
         11    1    3    3    0    0 -0.19171104178E+01  0.28610888362E+02 -0.61022521873E+01  0.29317157558E+02  0.51100000000E-03 0. -1.
        -11    1    3    3    0    0 -0.16264561454E+02  0.93370352946E+01  0.15533593444E+01  0.18818318546E+02  0.51100000000E-03 0.  1.
         12    1    3    3    0    0  0.10968662643E+01 -0.15453719614E+01 -0.14618521029E+01  0.23933870710E+01  0.00000000000E+00 0. -1.
</event>
<event>
 7    1  0.5068291E-011  0.5052885E+02  0.7816164E-02  0.1300439E+00
        -11   -1    0    0    0    0  0.00000000000E+00  0.00000000000E+00  0.45593999997E+02  0.45594000000E+02  0.51100000000E-03 0.  1.
         11   -1    0    0    0    0 -0.00000000000E+00 -0.00000000000E+00 -0.45593999997E+02  0.45594000000E+02  0.51100000000E-03 0. -1.
    9900012    2    1    2    0    0  0.20508793670E+02 -0.16894850413E+02 -0.30775310341E+02  0.50528852015E+02  0.29999976185E+02 0.  0.
        -12    1    1    2    0    0 -0.20508793670E+02  0.16894850413E+02  0.30775310341E+02  0.40659147985E+02  0.00000000000E+00 0.  1.
         11    1    3    3    0    0  0.18732705168E+01 -0.96650831036E+01 -0.22644569110E+02  0.24692093558E+02  0.51100000000E-03 0. -1.
        -11    1    3    3    0    0  0.32841884832E+00  0.15029943369E+01  0.25007664819E+01  0.29361001643E+01  0.51100000000E-03 0.  1.
         12    1    3    3    0    0  0.18307104305E+02 -0.87327616465E+01 -0.10631507713E+02  0.22900658293E+02  0.00000000000E+00 0. -1.
</event>
<event>
 7    1  0.5068291E-011  0.5052886E+02  0.7816164E-02  0.1300439E+00
        -11   -1    0    0    0    0  0.00000000000E+00  0.00000000000E+00  0.45593999997E+02  0.45594000000E+02  0.51100000000E-03 0.  1.
         11   -1    0    0    0    0 -0.00000000000E+00 -0.00000000000E+00 -0.45593999997E+02  0.45594000000E+02  0.51100000000E-03 0. -1.
    9900012    2    1    2    0    0  0.17535691871E+02 -0.21242396098E+02 -0.29906958217E+02  0.50528855504E+02  0.29999986790E+02 0.  0.
        -12    1    1    2    0    0 -0.17535691871E+02  0.21242396098E+02  0.29906958217E+02  0.40659144496E+02  0.00000000000E+00 0.  1.
         11    1    3    3    0    0  0.87594291790E+01 -0.24185311596E+02 -0.14933348776E+02  0.29743264825E+02  0.51100000000E-03 0.  1.
        -11    1    3    3    0    0  0.64839086306E+01 -0.11660237647E+01 -0.14657394860E+02  0.16069844644E+02  0.51100000000E-03 0. -1.
        -12    1    3    3    0    0  0.22923540612E+01  0.41089392626E+01 -0.31621458138E+00  0.47157460351E+01  0.00000000000E+00 0.  1.
</event>
<event>
 7    1  0.5068291E-011  0.5052886E+02  0.7816164E-02  0.1300439E+00
        -11   -1    0    0    0    0  0.00000000000E+00  0.00000000000E+00  0.45593999997E+02  0.45594000000E+02  0.51100000000E-03 0.  1.
         11   -1    0    0    0    0 -0.00000000000E+00 -0.00000000000E+00 -0.45593999997E+02  0.45594000000E+02  0.51100000000E-03 0. -1.
    9900012    2    1    2    0    0 -0.27650486203E+02  0.11105685331E+02 -0.27663697415E+02  0.50528858486E+02  0.29999995855E+02 0.  0.
        -12    1    1    2    0    0  0.27650486203E+02 -0.11105685331E+02  0.27663697415E+02  0.40659141514E+02  0.00000000000E+00 0.  1.
         11    1    3    3    0    0 -0.17295741494E+02  0.97346248282E+01 -0.30531882687E+02  0.36415675952E+02  0.51100000000E-03 0. -1.
        -11    1    3    3    0    0 -0.11787923936E+01 -0.24458889927E+01  0.31656999003E+01  0.41705611843E+01  0.51100000000E-03 0.  1.
         12    1    3    3    0    0 -0.91759523154E+01  0.38169494960E+01 -0.29751462812E+00  0.99426213497E+01  0.00000000000E+00 0. -1.
</event>
<event>
 7    1  0.5068291E-011  0.5052886E+02  0.7816164E-02  0.1300439E+00
        -11   -1    0    0    0    0  0.00000000000E+00  0.00000000000E+00  0.45593999997E+02  0.45594000000E+02  0.51100000000E-03 0. -1.
         11   -1    0    0    0    0 -0.00000000000E+00 -0.00000000000E+00 -0.45593999997E+02  0.45594000000E+02  0.51100000000E-03 0.  1.
    9900012    2    1    2    0    0  0.86450719521E+01 -0.19768659510E+02  0.34461983665E+02  0.50528862208E+02  0.30000007168E+02 0.  0.
        -12    1    1    2    0    0 -0.86450719521E+01  0.19768659510E+02 -0.34461983665E+02  0.40659137792E+02  0.00000000000E+00 0.  1.
         11    1    3    3    0    0 -0.65073506193E+01 -0.26992814289E+01  0.17120719702E+02  0.18513529531E+02  0.51100000000E-03 0. -1.
        -11    1    3    3    0    0  0.49635030050E+01 -0.82018150760E+00 -0.13767652856E+01  0.52157974173E+01  0.51100000000E-03 0.  1.
         12    1    3    3    0    0  0.10188919566E+02 -0.16249196573E+02  0.18718029249E+02  0.26799535260E+02  0.00000000000E+00 0. -1.
</event>
<event>
 7    1  0.5068291E-011  0.5052883E+02  0.7816164E-02  0.1300439E+00
        -11   -1    0    0    0    0  0.00000000000E+00  0.00000000000E+00  0.45593999997E+02  0.45594000000E+02  0.51100000000E-03 0.  1.
         11   -1    0    0    0    0 -0.00000000000E+00 -0.00000000000E+00 -0.45593999997E+02  0.45594000000E+02  0.51100000000E-03 0. -1.
    9900012    2    1    2    0    0 -0.38358477255E+02 -0.55009958411E+01 -0.12309937300E+02  0.50528827740E+02  0.29999902397E+02 0.  0.
        -12    1    1    2    0    0  0.38358477255E+02  0.55009958411E+01  0.12309937300E+02  0.40659172260E+02  0.00000000000E+00 0.  1.
         11    1    3    3    0    0 -0.16976010397E+02  0.45321086360E+01 -0.58519145169E+01  0.18519444955E+02  0.51100000000E-03 0. -1.
        -11    1    3    3    0    0 -0.23033258667E+02 -0.14040200508E+02 -0.61319827654E+01  0.27663323156E+02  0.51100000000E-03 0.  1.
        -12    1    3    3    0    0  0.16507918092E+01  0.40070960310E+01 -0.32604001823E+00  0.43460596283E+01  0.00000000000E+00 0.  1.
</event>
<event>
 7    1  0.5068291E-011  0.5052887E+02  0.7816164E-02  0.1300439E+00
        -11   -1    0    0    0    0  0.00000000000E+00  0.00000000000E+00  0.45593999997E+02  0.45594000000E+02  0.51100000000E-03 0. -1.
         11   -1    0    0    0    0 -0.00000000000E+00 -0.00000000000E+00 -0.45593999997E+02  0.45594000000E+02  0.51100000000E-03 0.  1.
    9900012    2    1    2    0    0 -0.33503317440E+02 -0.22730198789E+02  0.37457648610E+01  0.50528868542E+02  0.30000026421E+02 0.  0.
        -12    1    1    2    0    0  0.33503317440E+02  0.22730198789E+02 -0.37457648610E+01  0.40659131458E+02  0.00000000000E+00 0.  1.
         11    1    3    3    0    0 -0.42557430097E+01 -0.42980661569E+00 -0.69492034475E+01  0.81601171013E+01  0.51100000000E-03 0. -1.
        -11    1    3    3    0    0 -0.30809501190E+02 -0.16497784176E+02  0.97728244474E+01  0.36289259351E+02  0.51100000000E-03 0.  1.
         12    1    3    3    0    0  0.15619267595E+01 -0.58026079973E+01  0.92214386107E+00  0.60794920900E+01  0.00000000000E+00 0. -1.
</event>
<event>
 7    1  0.5068291E-011  0.5052886E+02  0.7816164E-02  0.1300439E+00
        -11   -1    0    0    0    0  0.00000000000E+00  0.00000000000E+00  0.45593999997E+02  0.45594000000E+02  0.51100000000E-03 0.  1.
         11   -1    0    0    0    0 -0.00000000000E+00 -0.00000000000E+00 -0.45593999997E+02  0.45594000000E+02  0.51100000000E-03 0. -1.
    9900012    2    1    2    0    0  0.35322823383E+02  0.19567948887E+02  0.47496814264E+01  0.50528856513E+02  0.29999989857E+02 0.  0.
        -12    1    1    2    0    0 -0.35322823383E+02 -0.19567948887E+02 -0.47496814264E+01  0.40659143487E+02  0.00000000000E+00 0.  1.
         11    1    3    3    0    0  0.63058126490E+00  0.13996935438E+02  0.62886927000E+00  0.14025238365E+02  0.51100000000E-03 0. -1.
        -11    1    3    3    0    0  0.24019789201E+02  0.48571816256E+01  0.68872011880E+01  0.25455373245E+02  0.51100000000E-03 0.  1.
        -12    1    3    3    0    0  0.10672452918E+02  0.71383182428E+00 -0.27663890317E+01  0.11048244903E+02  0.00000000000E+00 0.  1.
</event>
<event>
 7    1  0.5068291E-011  0.5052887E+02  0.7816164E-02  0.1300439E+00
        -11   -1    0    0    0    0  0.00000000000E+00  0.00000000000E+00  0.45593999997E+02  0.45594000000E+02  0.51100000000E-03 0. -1.
         11   -1    0    0    0    0 -0.00000000000E+00 -0.00000000000E+00 -0.45593999997E+02  0.45594000000E+02  0.51100000000E-03 0.  1.
    9900012    2    1    2    0    0 -0.12535361465E+02  0.37893763227E+02  0.77519422445E+01  0.50528865883E+02  0.30000018339E+02 0.  0.
        -12    1    1    2    0    0  0.12535361465E+02 -0.37893763227E+02 -0.77519422445E+01  0.40659134117E+02  0.00000000000E+00 0.  1.
         11    1    3    3    0    0  0.33832246560E+01  0.18417528724E+02  0.64288485544E+01  0.19798526899E+02  0.51100000000E-03 0. -1.
        -11    1    3    3    0    0 -0.49818649830E+01 -0.23171040536E+01 -0.25217726539E+01  0.60454352600E+01  0.51100000000E-03 0.  1.
        -12    1    3    3    0    0 -0.10936721138E+02  0.21793338556E+02  0.38448663441E+01  0.24684903724E+02  0.00000000000E+00 0.  1.
</event>
<event>
 7    1  0.5068291E-011  0.5052890E+02  0.7816164E-02  0.1300439E+00
        -11   -1    0    0    0    0  0.00000000000E+00  0.00000000000E+00  0.45593999997E+02  0.45594000000E+02  0.51100000000E-03 0.  1.
         11   -1    0    0    0    0 -0.00000000000E+00 -0.00000000000E+00 -0.45593999997E+02  0.45594000000E+02  0.51100000000E-03 0. -1.
    9900012    2    1    2    0    0  0.36417382405E+02  0.13074280426E+02 -0.12489986401E+02  0.50528901262E+02  0.30000125877E+02 0.  0.
        -12    1    1    2    0    0 -0.36417382405E+02 -0.13074280426E+02  0.12489986401E+02  0.40659098738E+02  0.00000000000E+00 0.  1.
         11    1    3    3    0    0  0.16517267572E+02  0.16179962304E+02 -0.11394921811E+02  0.25777035352E+02  0.51100000000E-03 0. -1.
        -11    1    3    3    0    0  0.12520728523E+02 -0.79950778544E+01 -0.40872276051E+01  0.15407639093E+02  0.51100000000E-03 0.  1.
        -12    1    3    3    0    0  0.73793863089E+01  0.48893959762E+01  0.29921630147E+01  0.93442268174E+01  0.00000000000E+00 0.  1.
</event>
<event>
 7    1  0.5068291E-011  0.5052887E+02  0.7816164E-02  0.1300439E+00
        -11   -1    0    0    0    0  0.00000000000E+00  0.00000000000E+00  0.45593999997E+02  0.45594000000E+02  0.51100000000E-03 0. -1.
         11   -1    0    0    0    0 -0.00000000000E+00 -0.00000000000E+00 -0.45593999997E+02  0.45594000000E+02  0.51100000000E-03 0.  1.
    9900012    2    1    2    0    0 -0.31393690756E+02 -0.10032755376E+02  0.23810609083E+02  0.50528866898E+02  0.30000021422E+02 0.  0.
        -12    1    1    2    0    0  0.31393690756E+02  0.10032755376E+02 -0.23810609083E+02  0.40659133102E+02  0.00000000000E+00 0.  1.
         11    1    3    3    0    0  0.68398841024E+00 -0.99370528203E+01 -0.39908443865E+00  0.99685569441E+01  0.51100000000E-03 0. -1.
        -11    1    3    3    0    0 -0.15040758844E+02  0.17269154022E+01  0.13966468374E+02  0.20597788777E+02  0.51100000000E-03 0.  1.
         12    1    3    3    0    0 -0.17036920323E+02 -0.18226179578E+01  0.10243225148E+02  0.19962521177E+02  0.00000000000E+00 0. -1.
</event>
<event>
 7    1  0.5068291E-011  0.5052886E+02  0.7816164E-02  0.1300439E+00
        -11   -1    0    0    0    0  0.00000000000E+00  0.00000000000E+00  0.45593999997E+02  0.45594000000E+02  0.51100000000E-03 0.  1.
         11   -1    0    0    0    0 -0.00000000000E+00 -0.00000000000E+00 -0.45593999997E+02  0.45594000000E+02  0.51100000000E-03 0. -1.
    9900012    2    1    2    0    0 -0.12714090985E+02  0.10587412652E+02 -0.37140597232E+02  0.50528863524E+02  0.30000011167E+02 0.  0.
        -12    1    1    2    0    0  0.12714090985E+02 -0.10587412652E+02  0.37140597232E+02  0.40659136476E+02  0.00000000000E+00 0.  1.
         11    1    3    3    0    0 -0.50789828348E+01  0.10117004764E+02 -0.22762163399E+02  0.25421761050E+02  0.51100000000E-03 0. -1.
        -11    1    3    3    0    0 -0.10368359345E+02  0.49365004735E+00  0.92267383931E-01  0.10380514410E+02  0.51100000000E-03 0.  1.
        -12    1    3    3    0    0  0.27332511952E+01 -0.23242159463E-01 -0.14470701217E+02  0.14726588064E+02  0.00000000000E+00 0.  1.
</event>
<event>
 7    1  0.5068291E-011  0.5052885E+02  0.7816164E-02  0.1300439E+00
        -11   -1    0    0    0    0  0.00000000000E+00  0.00000000000E+00  0.45593999997E+02  0.45594000000E+02  0.51100000000E-03 0. -1.
         11   -1    0    0    0    0 -0.00000000000E+00 -0.00000000000E+00 -0.45593999997E+02  0.45594000000E+02  0.51100000000E-03 0.  1.
    9900012    2    1    2    0    0  0.62943655265E+01 -0.35669932460E+02 -0.18471685419E+02  0.50528852428E+02  0.29999977440E+02 0.  0.
        -12    1    1    2    0    0 -0.62943655265E+01  0.35669932460E+02  0.18471685419E+02  0.40659147572E+02  0.00000000000E+00 0.  1.
         11    1    3    3    0    0 -0.66295022804E+01 -0.10436223574E+02  0.88606822553E+00  0.12395570989E+02  0.51100000000E-03 0. -1.
        -11    1    3    3    0    0  0.10427193631E+02 -0.35311627583E+01 -0.65112785058E+01  0.12790317646E+02  0.51100000000E-03 0.  1.
         12    1    3    3    0    0  0.24966741762E+01 -0.21702546127E+02 -0.12846475139E+02  0.25342963793E+02  0.00000000000E+00 0. -1.
</event>
<event>
 7    1  0.5068291E-011  0.5052885E+02  0.7816164E-02  0.1300439E+00
        -11   -1    0    0    0    0  0.00000000000E+00  0.00000000000E+00  0.45593999997E+02  0.45594000000E+02  0.51100000000E-03 0. -1.
         11   -1    0    0    0    0 -0.00000000000E+00 -0.00000000000E+00 -0.45593999997E+02  0.45594000000E+02  0.51100000000E-03 0.  1.
    9900012    2    1    2    0    0  0.16621136642E+02 -0.35305080263E+02  0.11421717892E+02  0.50528849551E+02  0.29999968695E+02 0.  0.
        -12    1    1    2    0    0 -0.16621136642E+02  0.35305080263E+02 -0.11421717892E+02  0.40659150449E+02  0.00000000000E+00 0.  1.
         11    1    3    3    0    0  0.57744927997E+01 -0.10061022719E+02  0.36061498827E+00  0.11605989345E+02  0.51100000000E-03 0. -1.
        -11    1    3    3    0    0 -0.42751470072E+01 -0.75357936081E+01 -0.55765921957E+01  0.10303564821E+02  0.51100000000E-03 0.  1.
        -12    1    3    3    0    0  0.15121790850E+02 -0.17708263936E+02  0.16637695100E+02  0.28619295385E+02  0.00000000000E+00 0.  1.
</event>
<event>
 7    1  0.5231840E-011  0.5052886E+02  0.7816164E-02  0.1300439E+00
        -11   -1    0    0    0    0  0.00000000000E+00  0.00000000000E+00  0.45593999997E+02  0.45594000000E+02  0.51100000000E-03 0. -1.
         11   -1    0    0    0    0 -0.00000000000E+00 -0.00000000000E+00 -0.45593999997E+02  0.45594000000E+02  0.51100000000E-03 0.  1.
    9900012    2    1    2    0    0 -0.28400010507E+02 -0.22700402376E+02  0.18201551260E+02  0.50528864088E+02  0.30000012882E+02 0.  0.
        -12    1    1    2    0    0  0.28400010507E+02  0.22700402376E+02 -0.18201551260E+02  0.40659135912E+02  0.00000000000E+00 0.  1.
         11    1    3    3    0    0 -0.14431588705E+02 -0.94072773330E+01  0.21972951084E+02  0.27920927616E+02  0.51100000000E-03 0. -1.
        -11    1    3    3    0    0 -0.12518066783E+02 -0.47809867123E+01 -0.39540274383E+01  0.13971190471E+02  0.51100000000E-03 0.  1.
         12    1    3    3    0    0 -0.14503550192E+01 -0.85121383308E+01  0.18262761505E+00  0.86367460012E+01  0.00000000000E+00 0. -1.
</event>
<event>
 7    1  0.5068291E-011  0.5052885E+02  0.7816164E-02  0.1300439E+00
        -11   -1    0    0    0    0  0.00000000000E+00  0.00000000000E+00  0.45593999997E+02  0.45594000000E+02  0.51100000000E-03 0.  1.
         11   -1    0    0    0    0 -0.00000000000E+00 -0.00000000000E+00 -0.45593999997E+02  0.45594000000E+02  0.51100000000E-03 0. -1.
    9900012    2    1    2    0    0  0.19014644227E+02  0.24080090438E+02  0.26678807184E+02  0.50528853386E+02  0.29999980352E+02 0.  0.
        -12    1    1    2    0    0 -0.19014644227E+02 -0.24080090438E+02 -0.26678807184E+02  0.40659146614E+02  0.00000000000E+00 0.  1.
         11    1    3    3    0    0  0.12110591889E+02  0.27544989458E+02  0.23532731520E+02  0.38199245191E+02  0.51100000000E-03 0. -1.
        -11    1    3    3    0    0  0.86401894986E+01 -0.45947325275E+01  0.30723797024E+01  0.10256898111E+02  0.51100000000E-03 0.  1.
         12    1    3    3    0    0 -0.17361371604E+01  0.11298335081E+01  0.73695962127E-01  0.20727100836E+01  0.00000000000E+00 0. -1.
</event>
<event>
 7    1  0.5068291E-011  0.5052886E+02  0.7816164E-02  0.1300439E+00
        -11   -1    0    0    0    0  0.00000000000E+00  0.00000000000E+00  0.45593999997E+02  0.45594000000E+02  0.51100000000E-03 0.  1.
         11   -1    0    0    0    0 -0.00000000000E+00 -0.00000000000E+00 -0.45593999997E+02  0.45594000000E+02  0.51100000000E-03 0. -1.
    9900012    2    1    2    0    0 -0.24267226995E+02  0.16884123349E+02 -0.27914046132E+02  0.50528857132E+02  0.29999991738E+02 0.  0.
        -12    1    1    2    0    0  0.24267226995E+02 -0.16884123349E+02  0.27914046132E+02  0.40659142868E+02  0.00000000000E+00 0.  1.
         11    1    3    3    0    0 -0.77725838061E+01  0.18314922358E+01 -0.19030591976E+01  0.82090838346E+01  0.51100000000E-03 0. -1.
        -11    1    3    3    0    0  0.48912141514E+01 -0.26990752332E+01 -0.41604450554E+01  0.69655068954E+01  0.51100000000E-03 0.  1.
        -12    1    3    3    0    0 -0.21385857340E+02  0.17751706347E+02 -0.21850541879E+02  0.35354266402E+02  0.00000000000E+00 0.  1.
</event>
<event>
 7    1  0.5068291E-011  0.5052886E+02  0.7816164E-02  0.1300439E+00
        -11   -1    0    0    0    0  0.00000000000E+00  0.00000000000E+00  0.45593999997E+02  0.45594000000E+02  0.51100000000E-03 0.  1.
         11   -1    0    0    0    0 -0.00000000000E+00 -0.00000000000E+00 -0.45593999997E+02  0.45594000000E+02  0.51100000000E-03 0. -1.
    9900012    2    1    2    0    0 -0.28325956314E+02 -0.26203144897E+02 -0.12814105828E+02  0.50528856972E+02  0.29999991253E+02 0.  0.
        -12    1    1    2    0    0  0.28325956314E+02  0.26203144897E+02  0.12814105828E+02  0.40659143028E+02  0.00000000000E+00 0.  1.
         11    1    3    3    0    0 -0.11459159506E+02 -0.10405942329E+02 -0.98040333305E+01  0.18322528269E+02  0.51100000000E-03 0. -1.
        -11    1    3    3    0    0 -0.60176661968E+01 -0.14840245545E+02  0.69411387149E+01  0.17453498251E+02  0.51100000000E-03 0.  1.
        -12    1    3    3    0    0 -0.10849130611E+02 -0.95695702271E+00 -0.99512112128E+01  0.14752830453E+02  0.00000000000E+00 0.  1.
</event>
<event>
 7    1  0.5068291E-011  0.5052890E+02  0.7816164E-02  0.1300439E+00
        -11   -1    0    0    0    0  0.00000000000E+00  0.00000000000E+00  0.45593999997E+02  0.45594000000E+02  0.51100000000E-03 0. -1.
         11   -1    0    0    0    0 -0.00000000000E+00 -0.00000000000E+00 -0.45593999997E+02  0.45594000000E+02  0.51100000000E-03 0.  1.
    9900012    2    1    2    0    0  0.25777902436E+01 -0.22146664480E+02  0.34000624218E+02  0.50528902649E+02  0.30000130093E+02 0.  0.
        -12    1    1    2    0    0 -0.25777902436E+01  0.22146664480E+02 -0.34000624218E+02  0.40659097351E+02  0.00000000000E+00 0.  1.
         11    1    3    3    0    0  0.14030656082E+02 -0.68171111471E+01  0.15818481981E+02  0.22216135734E+02  0.51100000000E-03 0. -1.
        -11    1    3    3    0    0 -0.29162552352E+01 -0.12297251872E+02  0.10906214374E+02  0.16693485569E+02  0.51100000000E-03 0.  1.
         12    1    3    3    0    0 -0.85366106036E+01 -0.30323014611E+01  0.72759278623E+01  0.11619281346E+02  0.00000000000E+00 0. -1.
</event>
<event>
 7    1  0.5068291E-011  0.5052885E+02  0.7816164E-02  0.1300439E+00
        -11   -1    0    0    0    0  0.00000000000E+00  0.00000000000E+00  0.45593999997E+02  0.45594000000E+02  0.51100000000E-03 0.  1.
         11   -1    0    0    0    0 -0.00000000000E+00 -0.00000000000E+00 -0.45593999997E+02  0.45594000000E+02  0.51100000000E-03 0. -1.
    9900012    2    1    2    0    0 -0.19183222714E+01  0.36397587020E+02 -0.18019495349E+02  0.50528849568E+02  0.29999968748E+02 0.  0.
        -12    1    1    2    0    0  0.19183222714E+01 -0.36397587020E+02  0.18019495349E+02  0.40659150432E+02  0.00000000000E+00 0.  1.
         11    1    3    3    0    0 -0.10998050297E+02  0.22859508297E+02 -0.21970192504E+02  0.33558956909E+02  0.51100000000E-03 0. -1.
        -11    1    3    3    0    0  0.17870110355E+01  0.29170249222E+01  0.19326586445E+01  0.39290727322E+01  0.51100000000E-03 0.  1.
         12    1    3    3    0    0  0.72927169901E+01  0.10621053801E+02  0.20180385108E+01  0.13040819927E+02  0.00000000000E+00 0. -1.
</event>
<event>
 7    1  0.5068291E-011  0.5052886E+02  0.7816164E-02  0.1300439E+00
        -11   -1    0    0    0    0  0.00000000000E+00  0.00000000000E+00  0.45593999997E+02  0.45594000000E+02  0.51100000000E-03 0.  1.
         11   -1    0    0    0    0 -0.00000000000E+00 -0.00000000000E+00 -0.45593999997E+02  0.45594000000E+02  0.51100000000E-03 0. -1.
    9900012    2    1    2    0    0 -0.39166430421E+01  0.18083287411E+02 -0.36205253621E+02  0.50528858763E+02  0.29999996697E+02 0.  0.
        -12    1    1    2    0    0  0.39166430421E+01 -0.18083287411E+02  0.36205253621E+02  0.40659141237E+02  0.00000000000E+00 0.  1.
         11    1    3    3    0    0  0.45093273223E+01  0.10306220371E+02 -0.12686714143E+02  0.16955970253E+02  0.51100000000E-03 0. -1.
        -11    1    3    3    0    0 -0.36726690869E+01 -0.71924952363E+00  0.33326607653E+01  0.50112319979E+01  0.51100000000E-03 0.  1.
        -12    1    3    3    0    0 -0.47533012776E+01  0.84963165640E+01 -0.26851200244E+02  0.28561656512E+02  0.00000000000E+00 0.  1.
</event>
<event>
 7    1  0.5068291E-011  0.5052886E+02  0.7816164E-02  0.1300439E+00
        -11   -1    0    0    0    0  0.00000000000E+00  0.00000000000E+00  0.45593999997E+02  0.45594000000E+02  0.51100000000E-03 0. -1.
         11   -1    0    0    0    0 -0.00000000000E+00 -0.00000000000E+00 -0.45593999997E+02  0.45594000000E+02  0.51100000000E-03 0.  1.
    9900012    2    1    2    0    0  0.53305884851E+01 -0.26166948096E+02  0.30660096723E+02  0.50528857396E+02  0.29999992540E+02 0.  0.
        -12    1    1    2    0    0 -0.53305884851E+01  0.26166948096E+02 -0.30660096723E+02  0.40659142604E+02  0.00000000000E+00 0.  1.
         11    1    3    3    0    0  0.20823017225E+01 -0.10697846587E+02  0.81041833923E+01  0.13581520194E+02  0.51100000000E-03 0. -1.
        -11    1    3    3    0    0 -0.38753687791E+01  0.22174225238E+01 -0.27638483021E+01  0.52511240246E+01  0.51100000000E-03 0.  1.
        -12    1    3    3    0    0  0.71236555417E+01 -0.17686524033E+02  0.25319761632E+02  0.31696213177E+02  0.00000000000E+00 0.  1.
</event>
<event>
 7    1  0.5068291E-011  0.5052886E+02  0.7816164E-02  0.1300439E+00
        -11   -1    0    0    0    0  0.00000000000E+00  0.00000000000E+00  0.45593999997E+02  0.45594000000E+02  0.51100000000E-03 0. -1.
         11   -1    0    0    0    0 -0.00000000000E+00 -0.00000000000E+00 -0.45593999997E+02  0.45594000000E+02  0.51100000000E-03 0.  1.
    9900012    2    1    2    0    0 -0.34179942353E+02 -0.10279249032E+02 -0.19473928376E+02  0.50528864417E+02  0.30000013883E+02 0.  0.
        -12    1    1    2    0    0  0.34179942353E+02  0.10279249032E+02  0.19473928376E+02  0.40659135583E+02  0.00000000000E+00 0.  1.
         11    1    3    3    0    0 -0.30334600654E+02 -0.12457470935E+02 -0.21536860546E+02  0.39232804404E+02  0.51100000000E-03 0. -1.
        -11    1    3    3    0    0 -0.11038972722E+01 -0.20519460598E+01 -0.32326783693E+01  0.39848816194E+01  0.51100000000E-03 0.  1.
         12    1    3    3    0    0 -0.27414444264E+01  0.42301679622E+01  0.52956105388E+01  0.73111783941E+01  0.00000000000E+00 0. -1.
</event>
<event>
 7    1  0.5068291E-011  0.5052886E+02  0.7816164E-02  0.1300439E+00
        -11   -1    0    0    0    0  0.00000000000E+00  0.00000000000E+00  0.45593999997E+02  0.45594000000E+02  0.51100000000E-03 0. -1.
         11   -1    0    0    0    0 -0.00000000000E+00 -0.00000000000E+00 -0.45593999997E+02  0.45594000000E+02  0.51100000000E-03 0.  1.
    9900012    2    1    2    0    0 -0.32820066292E+02 -0.17518362789E+02  0.16404751743E+02  0.50528859994E+02  0.30000000439E+02 0.  0.
        -12    1    1    2    0    0  0.32820066292E+02  0.17518362789E+02 -0.16404751743E+02  0.40659140006E+02  0.00000000000E+00 0.  1.
         11    1    3    3    0    0 -0.22541386312E+02 -0.13295800273E+02  0.14586714126E+02  0.29961051901E+02  0.51100000000E-03 0. -1.
        -11    1    3    3    0    0  0.29201170070E+01  0.36046280963E+01  0.23769149855E+01  0.52124996074E+01  0.51100000000E-03 0.  1.
        -12    1    3    3    0    0 -0.13198796987E+02 -0.78271906128E+01 -0.55887736779E+00  0.15355308486E+02  0.00000000000E+00 0.  1.
</event>
<event>
 7    1  0.5068291E-011  0.5052884E+02  0.7816164E-02  0.1300439E+00
        -11   -1    0    0    0    0  0.00000000000E+00  0.00000000000E+00  0.45593999997E+02  0.45594000000E+02  0.51100000000E-03 0.  1.
         11   -1    0    0    0    0 -0.00000000000E+00 -0.00000000000E+00 -0.45593999997E+02  0.45594000000E+02  0.51100000000E-03 0. -1.
    9900012    2    1    2    0    0  0.52584051623E+00  0.39048747757E+02 -0.11317509339E+02  0.50528840795E+02  0.29999942080E+02 0.  0.
        -12    1    1    2    0    0 -0.52584051623E+00 -0.39048747757E+02  0.11317509339E+02  0.40659159205E+02  0.00000000000E+00 0.  1.
         11    1    3    3    0    0 -0.12476985921E+02  0.19787798345E+02 -0.89349582051E+01  0.25041278310E+02  0.51100000000E-03 0. -1.
        -11    1    3    3    0    0  0.10622418338E+02  0.73204788223E+01 -0.31776923444E+01  0.13286192473E+02  0.51100000000E-03 0.  1.
         12    1    3    3    0    0  0.23804080991E+01  0.11940470589E+02  0.79514121007E+00  0.12201370011E+02  0.00000000000E+00 0. -1.
</event>
<event>
 7    1  0.5068291E-011  0.5052886E+02  0.7816164E-02  0.1300439E+00
        -11   -1    0    0    0    0  0.00000000000E+00  0.00000000000E+00  0.45593999997E+02  0.45594000000E+02  0.51100000000E-03 0. -1.
         11   -1    0    0    0    0 -0.00000000000E+00 -0.00000000000E+00 -0.45593999997E+02  0.45594000000E+02  0.51100000000E-03 0.  1.
    9900012    2    1    2    0    0  0.21503579947E+02  0.26165294277E+02  0.22497541130E+02  0.50528856723E+02  0.29999990494E+02 0.  0.
        -12    1    1    2    0    0 -0.21503579947E+02 -0.26165294277E+02 -0.22497541130E+02  0.40659143277E+02  0.00000000000E+00 0.  1.
         11    1    3    3    0    0  0.48729435768E+01 -0.58627496198E+01  0.40600803504E+01  0.86372255337E+01  0.51100000000E-03 0. -1.
        -11    1    3    3    0    0  0.53233985988E+01  0.19983390421E+02  0.71422102355E+01  0.21878885544E+02  0.51100000000E-03 0.  1.
         12    1    3    3    0    0  0.11307237771E+02  0.12044653476E+02  0.11295250544E+02  0.20012745645E+02  0.00000000000E+00 0. -1.
</event>
<event>
 7    1  0.5068291E-011  0.5052887E+02  0.7816164E-02  0.1300439E+00
        -11   -1    0    0    0    0  0.00000000000E+00  0.00000000000E+00  0.45593999997E+02  0.45594000000E+02  0.51100000000E-03 0.  1.
         11   -1    0    0    0    0 -0.00000000000E+00 -0.00000000000E+00 -0.45593999997E+02  0.45594000000E+02  0.51100000000E-03 0. -1.
    9900012    2    1    2    0    0 -0.76640335413E+01  0.81234757414E+01 -0.39095228394E+02  0.50528866323E+02  0.30000019674E+02 0.  0.
        -12    1    1    2    0    0  0.76640335413E+01 -0.81234757414E+01  0.39095228394E+02  0.40659133677E+02  0.00000000000E+00 0.  1.
         11    1    3    3    0    0 -0.71924759285E+01  0.54926208949E+01 -0.20205201563E+02  0.22139348788E+02  0.51100000000E-03 0. -1.
        -11    1    3    3    0    0  0.98099847485E+01  0.37272762065E+01 -0.12113081741E+02  0.16026700790E+02  0.51100000000E-03 0.  1.
        -12    1    3    3    0    0 -0.10281542361E+02 -0.10964213600E+01 -0.67769450891E+01  0.12362816745E+02  0.00000000000E+00 0.  1.
</event>
<event>
 7    1  0.5068291E-011  0.5052890E+02  0.7816164E-02  0.1300439E+00
        -11   -1    0    0    0    0  0.00000000000E+00  0.00000000000E+00  0.45593999997E+02  0.45594000000E+02  0.51100000000E-03 0. -1.
         11   -1    0    0    0    0 -0.00000000000E+00 -0.00000000000E+00 -0.45593999997E+02  0.45594000000E+02  0.51100000000E-03 0.  1.
    9900012    2    1    2    0    0  0.86627936687E+01  0.39528781667E+02  0.39488728501E+01  0.50528902973E+02  0.30000131078E+02 0.  0.
        -12    1    1    2    0    0 -0.86627936687E+01 -0.39528781667E+02 -0.39488728501E+01  0.40659097027E+02  0.00000000000E+00 0.  1.
         11    1    3    3    0    0  0.97992802307E+01  0.33526030254E+02  0.13731212711E+02  0.37530877960E+02  0.51100000000E-03 0. -1.
        -11    1    3    3    0    0 -0.29236551977E+01  0.58301167170E+01 -0.87935724404E+01  0.10948284668E+02  0.51100000000E-03 0.  1.
         12    1    3    3    0    0  0.17871686357E+01  0.17263469576E+00 -0.98876742080E+00  0.20497403453E+01  0.00000000000E+00 0. -1.
</event>
<event>
 7    1  0.5068291E-011  0.5052887E+02  0.7816164E-02  0.1300439E+00
        -11   -1    0    0    0    0  0.00000000000E+00  0.00000000000E+00  0.45593999997E+02  0.45594000000E+02  0.51100000000E-03 0.  1.
         11   -1    0    0    0    0 -0.00000000000E+00 -0.00000000000E+00 -0.45593999997E+02  0.45594000000E+02  0.51100000000E-03 0. -1.
    9900012    2    1    2    0    0  0.19945613177E+02  0.34071665343E+02 -0.97189900857E+01  0.50528872703E+02  0.30000039068E+02 0.  0.
        -12    1    1    2    0    0 -0.19945613177E+02 -0.34071665343E+02  0.97189900857E+01  0.40659127297E+02  0.00000000000E+00 0.  1.
         11    1    3    3    0    0  0.12371792005E+02  0.21512587809E+02 -0.20384152367E+02  0.32114892801E+02  0.51100000000E-03 0. -1.
        -11    1    3    3    0    0  0.68450137812E+01  0.89601577461E+01  0.72934135206E+01  0.13428794493E+02  0.51100000000E-03 0.  1.
         12    1    3    3    0    0  0.72880739018E+00  0.35989197883E+01  0.33717487602E+01  0.49851854085E+01  0.00000000000E+00 0. -1.
</event>
<event>
 7    1  0.5068291E-011  0.5052890E+02  0.7816164E-02  0.1300439E+00
        -11   -1    0    0    0    0  0.00000000000E+00  0.00000000000E+00  0.45593999997E+02  0.45594000000E+02  0.51100000000E-03 0. -1.
         11   -1    0    0    0    0 -0.00000000000E+00 -0.00000000000E+00 -0.45593999997E+02  0.45594000000E+02  0.51100000000E-03 0.  1.
    9900012    2    1    2    0    0 -0.18296011274E+02  0.26131783001E+02  0.25210077000E+02  0.50528903924E+02  0.30000133968E+02 0.  0.
        -12    1    1    2    0    0  0.18296011274E+02 -0.26131783001E+02 -0.25210077000E+02  0.40659096076E+02  0.00000000000E+00 0.  1.
         11    1    3    3    0    0 -0.10989011824E+02  0.14424730189E+01 -0.11817877641E+01  0.11146108373E+02  0.51100000000E-03 0. -1.
        -11    1    3    3    0    0 -0.64157173013E+01  0.16275044884E+02  0.82020233651E+01  0.19321275890E+02  0.51100000000E-03 0.  1.
         12    1    3    3    0    0 -0.89128214916E+00  0.84142650978E+01  0.18189841399E+02  0.20061519661E+02  0.00000000000E+00 0. -1.
</event>
<event>
 7    1  0.5068291E-011  0.5052886E+02  0.7816164E-02  0.1300439E+00
        -11   -1    0    0    0    0  0.00000000000E+00  0.00000000000E+00  0.45593999997E+02  0.45594000000E+02  0.51100000000E-03 0.  1.
         11   -1    0    0    0    0 -0.00000000000E+00 -0.00000000000E+00 -0.45593999997E+02  0.45594000000E+02  0.51100000000E-03 0. -1.
    9900012    2    1    2    0    0  0.19724259941E+01 -0.17918219606E+02 -0.36444654439E+02  0.50528857174E+02  0.29999991866E+02 0.  0.
        -12    1    1    2    0    0 -0.19724259941E+01  0.17918219606E+02  0.36444654439E+02  0.40659142826E+02  0.00000000000E+00 0.  1.
         11    1    3    3    0    0  0.56183658343E+01 -0.15054420167E+02 -0.18655594517E+02  0.24621795391E+02  0.51100000000E-03 0. -1.
        -11    1    3    3    0    0  0.49170030497E+01  0.42156148204E+01 -0.23586435041E+01  0.68928605633E+01  0.51100000000E-03 0.  1.
        -12    1    3    3    0    0 -0.85629428899E+01 -0.70794142593E+01 -0.15430416418E+02  0.19014201220E+02  0.00000000000E+00 0.  1.
</event>
<event>
 7    1  0.5068291E-011  0.5052886E+02  0.7816164E-02  0.1300439E+00
        -11   -1    0    0    0    0  0.00000000000E+00  0.00000000000E+00  0.45593999997E+02  0.45594000000E+02  0.51100000000E-03 0. -1.
         11   -1    0    0    0    0 -0.00000000000E+00 -0.00000000000E+00 -0.45593999997E+02  0.45594000000E+02  0.51100000000E-03 0.  1.
    9900012    2    1    2    0    0  0.37693861817E+02  0.15121185637E+02 -0.19205076530E+01  0.50528858059E+02  0.29999994556E+02 0.  0.
        -12    1    1    2    0    0 -0.37693861817E+02 -0.15121185637E+02  0.19205076530E+01  0.40659141941E+02  0.00000000000E+00 0.  1.
         11    1    3    3    0    0  0.83116978906E+01  0.12528328070E+02  0.51195172308E+01  0.15882467787E+02  0.51100000000E-03 0. -1.
        -11    1    3    3    0    0  0.28498629514E+02 -0.25797283031E+01 -0.51879492015E+01  0.29081638528E+02  0.51100000000E-03 0.  1.
        -12    1    3    3    0    0  0.88353441211E+00  0.51725858704E+01 -0.18520756823E+01  0.55647517444E+01  0.00000000000E+00 0.  1.
</event>
<event>
 7    1  0.5068291E-011  0.5052886E+02  0.7816164E-02  0.1300439E+00
        -11   -1    0    0    0    0  0.00000000000E+00  0.00000000000E+00  0.45593999997E+02  0.45594000000E+02  0.51100000000E-03 0. -1.
         11   -1    0    0    0    0 -0.00000000000E+00 -0.00000000000E+00 -0.45593999997E+02  0.45594000000E+02  0.51100000000E-03 0.  1.
    9900012    2    1    2    0    0  0.23925155121E+02 -0.24860091751E+02  0.21511121020E+02  0.50528861581E+02  0.30000005261E+02 0.  0.
        -12    1    1    2    0    0 -0.23925155121E+02  0.24860091751E+02 -0.21511121020E+02  0.40659138419E+02  0.00000000000E+00 0.  1.
         11    1    3    3    0    0  0.12306223979E+02 -0.34706802378E+01 -0.29024815922E+01  0.13111566252E+02  0.51100000000E-03 0. -1.
        -11    1    3    3    0    0  0.12368045268E+02 -0.11481973045E+02  0.20935240228E+02  0.26890305547E+02  0.51100000000E-03 0.  1.
        -12    1    3    3    0    0 -0.74911412579E+00 -0.99074384689E+01  0.34783623836E+01  0.10526989781E+02  0.00000000000E+00 0.  1.
</event>
<event>
 7    1  0.5068291E-011  0.5052886E+02  0.7816164E-02  0.1300439E+00
        -11   -1    0    0    0    0  0.00000000000E+00  0.00000000000E+00  0.45593999997E+02  0.45594000000E+02  0.51100000000E-03 0.  1.
         11   -1    0    0    0    0 -0.00000000000E+00 -0.00000000000E+00 -0.45593999997E+02  0.45594000000E+02  0.51100000000E-03 0. -1.
    9900012    2    1    2    0    0 -0.39760545136E+02  0.77777088114E+00  0.84651954592E+01  0.50528863127E+02  0.30000009962E+02 0.  0.
        -12    1    1    2    0    0  0.39760545136E+02 -0.77777088114E+00 -0.84651954592E+01  0.40659136873E+02  0.00000000000E+00 0.  1.
         11    1    3    3    0    0  0.21019938997E+01  0.36475157153E+00  0.36820974662E+01  0.42554980996E+01  0.51100000000E-03 0. -1.
        -11    1    3    3    0    0 -0.41978223301E+02 -0.73804947810E+00  0.81013913344E+01  0.42759191881E+02  0.51100000000E-03 0.  1.
        -12    1    3    3    0    0  0.11568426490E+00  0.11510687877E+01 -0.33182933414E+01  0.35141731464E+01  0.00000000000E+00 0.  1.
</event>
<event>
 7    1  0.5068291E-011  0.5052886E+02  0.7816164E-02  0.1300439E+00
        -11   -1    0    0    0    0  0.00000000000E+00  0.00000000000E+00  0.45593999997E+02  0.45594000000E+02  0.51100000000E-03 0. -1.
         11   -1    0    0    0    0 -0.00000000000E+00 -0.00000000000E+00 -0.45593999997E+02  0.45594000000E+02  0.51100000000E-03 0.  1.
    9900012    2    1    2    0    0  0.94095607868E+01 -0.37151604228E+02  0.13578824410E+02  0.50528855847E+02  0.29999987832E+02 0.  0.
        -12    1    1    2    0    0 -0.94095607868E+01  0.37151604228E+02 -0.13578824410E+02  0.40659144153E+02  0.00000000000E+00 0.  1.
         11    1    3    3    0    0  0.11121342553E+02 -0.19998345042E+02  0.31467713612E-01  0.22882723944E+02  0.51100000000E-03 0. -1.
        -11    1    3    3    0    0 -0.68372673696E+01 -0.13019799704E+02  0.26925657310E+01  0.14950361865E+02  0.51100000000E-03 0.  1.
         12    1    3    3    0    0  0.51254856030E+01 -0.41334594813E+01  0.10854790965E+02  0.12695770038E+02  0.00000000000E+00 0. -1.
</event>
<event>
 7    1  0.5068291E-011  0.5052889E+02  0.7816164E-02  0.1300439E+00
        -11   -1    0    0    0    0  0.00000000000E+00  0.00000000000E+00  0.45593999997E+02  0.45594000000E+02  0.51100000000E-03 0.  1.
         11   -1    0    0    0    0 -0.00000000000E+00 -0.00000000000E+00 -0.45593999997E+02  0.45594000000E+02  0.51100000000E-03 0. -1.
    9900012    2    1    2    0    0  0.25341931203E+01  0.30908662989E+02 -0.26294409008E+02  0.50528886291E+02  0.30000080369E+02 0.  0.
        -12    1    1    2    0    0 -0.25341931203E+01 -0.30908662989E+02  0.26294409008E+02  0.40659113709E+02  0.00000000000E+00 0.  1.
         11    1    3    3    0    0  0.23401521196E+01  0.18596531191E+02 -0.85790762428E+01  0.20613292646E+02  0.51100000000E-03 0. -1.
        -11    1    3    3    0    0 -0.41629022183E+01 -0.44490532095E+01 -0.80077301304E+01  0.10062185222E+02  0.51100000000E-03 0.  1.
        -12    1    3    3    0    0  0.43569432190E+01  0.16761185008E+02 -0.97076026345E+01  0.19853408422E+02  0.00000000000E+00 0.  1.
</event>
<event>
 7    1  0.5068291E-011  0.5052887E+02  0.7816164E-02  0.1300439E+00
        -11   -1    0    0    0    0  0.00000000000E+00  0.00000000000E+00  0.45593999997E+02  0.45594000000E+02  0.51100000000E-03 0.  1.
         11   -1    0    0    0    0 -0.00000000000E+00 -0.00000000000E+00 -0.45593999997E+02  0.45594000000E+02  0.51100000000E-03 0. -1.
    9900012    2    1    2    0    0 -0.30087416976E+02 -0.10684781999E+02  0.25174343512E+02  0.50528870670E+02  0.30000032887E+02 0.  0.
        -12    1    1    2    0    0  0.30087416976E+02  0.10684781999E+02 -0.25174343512E+02  0.40659129330E+02  0.00000000000E+00 0.  1.
         11    1    3    3    0    0 -0.29904708503E+02 -0.26365712226E+01  0.16611044299E+02  0.34309909523E+02  0.51100000000E-03 0. -1.
        -11    1    3    3    0    0  0.46863758240E+01 -0.31104048812E+01  0.59560885803E+00  0.56561017549E+01  0.51100000000E-03 0.  1.
         12    1    3    3    0    0 -0.48690842965E+01 -0.49378058951E+01  0.79676903546E+01  0.10562859392E+02  0.00000000000E+00 0. -1.
</event>
<event>
 7    1  0.5068291E-011  0.5052886E+02  0.7816164E-02  0.1300439E+00
        -11   -1    0    0    0    0  0.00000000000E+00  0.00000000000E+00  0.45593999997E+02  0.45594000000E+02  0.51100000000E-03 0.  1.
         11   -1    0    0    0    0 -0.00000000000E+00 -0.00000000000E+00 -0.45593999997E+02  0.45594000000E+02  0.51100000000E-03 0. -1.
    9900012    2    1    2    0    0 -0.12720096008E+02 -0.14034912718E+02 -0.35977574592E+02  0.50528862147E+02  0.30000006981E+02 0.  0.
        -12    1    1    2    0    0  0.12720096008E+02  0.14034912718E+02  0.35977574592E+02  0.40659137853E+02  0.00000000000E+00 0.  1.
         11    1    3    3    0    0 -0.50833940149E+01 -0.11196665531E+02 -0.29473965201E+02  0.31936199503E+02  0.51100000000E-03 0. -1.
        -11    1    3    3    0    0 -0.25176049433E+01 -0.64397810297E+01  0.27331317514E+01  0.74349931938E+01  0.51100000000E-03 0.  1.
        -12    1    3    3    0    0 -0.51190970503E+01  0.36015338434E+01 -0.92367411422E+01  0.11157669450E+02  0.00000000000E+00 0.  1.
</event>
<event>
 7    1  0.5068291E-011  0.5052886E+02  0.7816164E-02  0.1300439E+00
        -11   -1    0    0    0    0  0.00000000000E+00  0.00000000000E+00  0.45593999997E+02  0.45594000000E+02  0.51100000000E-03 0. -1.
         11   -1    0    0    0    0 -0.00000000000E+00 -0.00000000000E+00 -0.45593999997E+02  0.45594000000E+02  0.51100000000E-03 0.  1.
    9900012    2    1    2    0    0  0.52387947503E+01 -0.36444446824E+02  0.17248848687E+02  0.50528862580E+02  0.30000008298E+02 0.  0.
        -12    1    1    2    0    0 -0.52387947503E+01  0.36444446824E+02 -0.17248848687E+02  0.40659137420E+02  0.00000000000E+00 0.  1.
         11    1    3    3    0    0  0.56960264779E+01 -0.10412474955E+02 -0.26442861496E+01  0.12159630004E+02  0.51100000000E-03 0.  1.
        -11    1    3    3    0    0 -0.99758773333E+01 -0.14980509873E+02  0.13208305972E+02  0.22324720637E+02  0.51100000000E-03 0. -1.
        -12    1    3    3    0    0  0.95186456056E+01 -0.11051461996E+02  0.66848288639E+01  0.16044511938E+02  0.00000000000E+00 0.  1.
</event>
<event>
 7    1  0.5068291E-011  0.5052884E+02  0.7816164E-02  0.1300439E+00
        -11   -1    0    0    0    0  0.00000000000E+00  0.00000000000E+00  0.45593999997E+02  0.45594000000E+02  0.51100000000E-03 0.  1.
         11   -1    0    0    0    0 -0.00000000000E+00 -0.00000000000E+00 -0.45593999997E+02  0.45594000000E+02  0.51100000000E-03 0. -1.
    9900012    2    1    2    0    0 -0.42710027765E+01  0.26658797112E+02 -0.30401219722E+02  0.50528842498E+02  0.29999947256E+02 0.  0.
        -12    1    1    2    0    0  0.42710027765E+01 -0.26658797112E+02  0.30401219722E+02  0.40659157502E+02  0.00000000000E+00 0.  1.
         11    1    3    3    0    0  0.41949806300E+01  0.25159650454E+02 -0.11964009812E+02  0.28173452122E+02  0.51100000000E-03 0. -1.
        -11    1    3    3    0    0 -0.68656965047E+01 -0.22974617425E+01 -0.65089873853E+01  0.97356579642E+01  0.51100000000E-03 0.  1.
         12    1    3    3    0    0 -0.16002869018E+01  0.37966084010E+01 -0.11928222525E+02  0.12619732411E+02  0.00000000000E+00 0. -1.
</event>
<event>
 7    1  0.5068291E-011  0.5052886E+02  0.7816164E-02  0.1300439E+00
        -11   -1    0    0    0    0  0.00000000000E+00  0.00000000000E+00  0.45593999997E+02  0.45594000000E+02  0.51100000000E-03 0. -1.
         11   -1    0    0    0    0 -0.00000000000E+00 -0.00000000000E+00 -0.45593999997E+02  0.45594000000E+02  0.51100000000E-03 0.  1.
    9900012    2    1    2    0    0  0.13752415601E+02 -0.23797435458E+02 -0.29961951329E+02  0.50528863307E+02  0.30000010507E+02 0.  0.
        -12    1    1    2    0    0 -0.13752415601E+02  0.23797435458E+02  0.29961951329E+02  0.40659136693E+02  0.00000000000E+00 0.  1.
         11    1    3    3    0    0  0.13373451408E+02 -0.24115929303E+02 -0.33569097390E+02  0.43443199106E+02  0.51100000000E-03 0. -1.
        -11    1    3    3    0    0 -0.27877032746E+01  0.78909658902E+00  0.16930748883E+01  0.33556617547E+01  0.51100000000E-03 0.  1.
         12    1    3    3    0    0  0.31666674677E+01 -0.47060274389E+00  0.19140711730E+01  0.37300024462E+01  0.00000000000E+00 0. -1.
</event>
<event>
 7    1  0.5068291E-011  0.5052886E+02  0.7816164E-02  0.1300439E+00
        -11   -1    0    0    0    0  0.00000000000E+00  0.00000000000E+00  0.45593999997E+02  0.45594000000E+02  0.51100000000E-03 0.  1.
         11   -1    0    0    0    0 -0.00000000000E+00 -0.00000000000E+00 -0.45593999997E+02  0.45594000000E+02  0.51100000000E-03 0. -1.
    9900012    2    1    2    0    0  0.54045502320E+01  0.37758484537E+02 -0.14080247596E+02  0.50528859698E+02  0.29999999538E+02 0.  0.
        -12    1    1    2    0    0 -0.54045502320E+01 -0.37758484537E+02  0.14080247596E+02  0.40659140302E+02  0.00000000000E+00 0.  1.
         11    1    3    3    0    0  0.48284400836E+01 -0.37933961872E+01 -0.26188028172E+01  0.66754637839E+01  0.51100000000E-03 0. -1.
        -11    1    3    3    0    0  0.35062886383E+00 -0.24159114126E+00  0.18900058958E+00  0.46586303102E+00  0.51100000000E-03 0.  1.
         12    1    3    3    0    0  0.22548128454E+00  0.41793471866E+02 -0.11650445368E+02  0.43387532883E+02  0.00000000000E+00 0. -1.
</event>
<event>
 7    1  0.5068291E-011  0.5052885E+02  0.7816164E-02  0.1300439E+00
        -11   -1    0    0    0    0  0.00000000000E+00  0.00000000000E+00  0.45593999997E+02  0.45594000000E+02  0.51100000000E-03 0.  1.
         11   -1    0    0    0    0 -0.00000000000E+00 -0.00000000000E+00 -0.45593999997E+02  0.45594000000E+02  0.51100000000E-03 0. -1.
    9900012    2    1    2    0    0  0.16180699606E+02  0.23776405205E+02 -0.28740812681E+02  0.50528846077E+02  0.29999958134E+02 0.  0.
        -12    1    1    2    0    0 -0.16180699606E+02 -0.23776405205E+02  0.28740812681E+02  0.40659153923E+02  0.00000000000E+00 0.  1.
         11    1    3    3    0    0 -0.19549452316E+01  0.11696952494E+02 -0.12040850822E+02  0.16900372697E+02  0.51100000000E-03 0. -1.
        -11    1    3    3    0    0  0.21137588708E+02  0.65594970998E+01 -0.95348705139E+01  0.24098514779E+02  0.51100000000E-03 0.  1.
        -12    1    3    3    0    0 -0.30019438705E+01  0.55199556111E+01 -0.71650913447E+01  0.95299586005E+01  0.00000000000E+00 0.  1.
</event>
<event>
 7    1  0.5068291E-011  0.5052886E+02  0.7816164E-02  0.1300439E+00
        -11   -1    0    0    0    0  0.00000000000E+00  0.00000000000E+00  0.45593999997E+02  0.45594000000E+02  0.51100000000E-03 0. -1.
         11   -1    0    0    0    0 -0.00000000000E+00 -0.00000000000E+00 -0.45593999997E+02  0.45594000000E+02  0.51100000000E-03 0.  1.
    9900012    2    1    2    0    0  0.37153650964E+02 -0.16272279533E+02 -0.28257111283E+01  0.50528861980E+02  0.30000006474E+02 0.  0.
        -12    1    1    2    0    0 -0.37153650964E+02  0.16272279533E+02  0.28257111283E+01  0.40659138020E+02  0.00000000000E+00 0.  1.
         11    1    3    3    0    0  0.25580925969E+02 -0.36878533078E+00  0.44751562076E+01  0.25972038799E+02  0.51100000000E-03 0. -1.
        -11    1    3    3    0    0  0.14047738501E+02 -0.15529768223E+02 -0.66349950065E+01  0.21966697910E+02  0.51100000000E-03 0.  1.
        -12    1    3    3    0    0 -0.24750135060E+01 -0.37372597946E+00 -0.66587232936E+00  0.25901252714E+01  0.00000000000E+00 0.  1.
</event>
<event>
 7    1  0.5068291E-011  0.5052886E+02  0.7816164E-02  0.1300439E+00
        -11   -1    0    0    0    0  0.00000000000E+00  0.00000000000E+00  0.45593999997E+02  0.45594000000E+02  0.51100000000E-03 0.  1.
         11   -1    0    0    0    0 -0.00000000000E+00 -0.00000000000E+00 -0.45593999997E+02  0.45594000000E+02  0.51100000000E-03 0. -1.
    9900012    2    1    2    0    0  0.11437910546E+01  0.24551755728E+02 -0.32389330368E+02  0.50528859712E+02  0.29999999580E+02 0.  0.
        -12    1    1    2    0    0 -0.11437910546E+01 -0.24551755728E+02  0.32389330368E+02  0.40659140288E+02  0.00000000000E+00 0.  1.
         11    1    3    3    0    0  0.68080321130E+01  0.21286976309E+02 -0.11797517306E+02  0.25271843551E+02  0.51100000000E-03 0. -1.
        -11    1    3    3    0    0  0.40692668463E+01 -0.67235564843E+00 -0.56719134312E+01  0.70129592197E+01  0.51100000000E-03 0.  1.
         12    1    3    3    0    0 -0.97335079046E+01  0.39371350669E+01 -0.14919899631E+02  0.18244056941E+02  0.00000000000E+00 0. -1.
</event>
<event>
 7    1  0.5231120E-011  0.5052887E+02  0.7816164E-02  0.1300439E+00
        -11   -1    0    0    0    0  0.00000000000E+00  0.00000000000E+00  0.45593999997E+02  0.45594000000E+02  0.51100000000E-03 0.  1.
         11   -1    0    0    0    0 -0.00000000000E+00 -0.00000000000E+00 -0.45593999997E+02  0.45594000000E+02  0.51100000000E-03 0. -1.
    9900012    2    1    2    0    0 -0.31529962006E+02  0.22626559150E+02  0.12127049754E+02  0.50528867953E+02  0.30000024630E+02 0.  0.
        -12    1    1    2    0    0  0.31529962006E+02 -0.22626559150E+02 -0.12127049754E+02  0.40659132047E+02  0.00000000000E+00 0.  1.
         11    1    3    3    0    0 -0.14907959695E+02  0.17019062094E+02  0.16258764713E+02  0.27861140807E+02  0.51100000000E-03 0. -1.
        -11    1    3    3    0    0 -0.64488957324E+01 -0.40581475708E+01  0.10857347255E+01  0.76964691924E+01  0.51100000000E-03 0.  1.
         12    1    3    3    0    0 -0.10173106578E+02  0.96656446267E+01 -0.52174496837E+01  0.14971257953E+02  0.00000000000E+00 0. -1.
</event>
<event>
 7    1  0.5068291E-011  0.5052886E+02  0.7816164E-02  0.1300439E+00
        -11   -1    0    0    0    0  0.00000000000E+00  0.00000000000E+00  0.45593999997E+02  0.45594000000E+02  0.51100000000E-03 0.  1.
         11   -1    0    0    0    0 -0.00000000000E+00 -0.00000000000E+00 -0.45593999997E+02  0.45594000000E+02  0.51100000000E-03 0. -1.
    9900012    2    1    2    0    0  0.19750020111E+02 -0.32796754800E+02 -0.13692155064E+02  0.50528861666E+02  0.30000005519E+02 0.  0.
        -12    1    1    2    0    0 -0.19750020111E+02  0.32796754800E+02  0.13692155064E+02  0.40659138334E+02  0.00000000000E+00 0.  1.
         11    1    3    3    0    0  0.50305458266E+01 -0.24393696450E+02 -0.40358964477E+01  0.25231870288E+02  0.51100000000E-03 0.  1.
        -11    1    3    3    0    0  0.16583143853E+02 -0.50300537295E+01 -0.11725052371E+02  0.20923167875E+02  0.51100000000E-03 0. -1.
         12    1    3    3    0    0 -0.18636695687E+01 -0.33730046202E+01  0.20687937550E+01  0.43738235024E+01  0.00000000000E+00 0. -1.
</event>
<event>
 7    1  0.5068291E-011  0.5052886E+02  0.7816164E-02  0.1300439E+00
        -11   -1    0    0    0    0  0.00000000000E+00  0.00000000000E+00  0.45593999997E+02  0.45594000000E+02  0.51100000000E-03 0.  1.
         11   -1    0    0    0    0 -0.00000000000E+00 -0.00000000000E+00 -0.45593999997E+02  0.45594000000E+02  0.51100000000E-03 0. -1.
    9900012    2    1    2    0    0  0.12556062916E+02  0.38462638590E+02 -0.40169806566E+01  0.50528863058E+02  0.30000009752E+02 0.  0.
        -12    1    1    2    0    0 -0.12556062916E+02 -0.38462638590E+02  0.40169806566E+01  0.40659136942E+02  0.00000000000E+00 0.  1.
         11    1    3    3    0    0  0.35033441893E+00  0.15943474217E+02 -0.79408865989E+00  0.15967081179E+02  0.51100000000E-03 0. -1.
        -11    1    3    3    0    0 -0.17088352104E+01 -0.37394987538E+01  0.16819723867E+01  0.44421841561E+01  0.51100000000E-03 0.  1.
        -12    1    3    3    0    0  0.13914563708E+02  0.26258663127E+02 -0.49048643834E+01  0.30119597723E+02  0.00000000000E+00 0.  1.
</event>
<event>
 7    1  0.5068291E-011  0.5052886E+02  0.7816164E-02  0.1300439E+00
        -11   -1    0    0    0    0  0.00000000000E+00  0.00000000000E+00  0.45593999997E+02  0.45594000000E+02  0.51100000000E-03 0.  1.
         11   -1    0    0    0    0 -0.00000000000E+00 -0.00000000000E+00 -0.45593999997E+02  0.45594000000E+02  0.51100000000E-03 0. -1.
    9900012    2    1    2    0    0  0.31879078702E+02  0.19722350982E+01 -0.25159500342E+02  0.50528858006E+02  0.29999994396E+02 0.  0.
        -12    1    1    2    0    0 -0.31879078702E+02 -0.19722350982E+01  0.25159500342E+02  0.40659141994E+02  0.00000000000E+00 0.  1.
         11    1    3    3    0    0  0.28077801784E+02 -0.96688472858E+01 -0.19516790823E+02  0.35535259745E+02  0.51100000000E-03 0. -1.
        -11    1    3    3    0    0  0.43401172851E+00  0.12647361925E+00  0.11299595432E+01  0.12170335194E+01  0.51100000000E-03 0.  1.
         12    1    3    3    0    0  0.33672651902E+01  0.11514608765E+02 -0.67726690622E+01  0.13776564742E+02  0.00000000000E+00 0. -1.
</event>
<event>
 7    1  0.5068291E-011  0.5052885E+02  0.7816164E-02  0.1300439E+00
        -11   -1    0    0    0    0  0.00000000000E+00  0.00000000000E+00  0.45593999997E+02  0.45594000000E+02  0.51100000000E-03 0.  1.
         11   -1    0    0    0    0 -0.00000000000E+00 -0.00000000000E+00 -0.45593999997E+02  0.45594000000E+02  0.51100000000E-03 0. -1.
    9900012    2    1    2    0    0  0.18537336114E+02  0.14868404738E+02 -0.32991877569E+02  0.50528852503E+02  0.29999977667E+02 0.  0.
        -12    1    1    2    0    0 -0.18537336114E+02 -0.14868404738E+02  0.32991877569E+02  0.40659147497E+02  0.00000000000E+00 0.  1.
         11    1    3    3    0    0  0.11000391248E+02 -0.25258849410E+01 -0.14963195185E+02  0.18742622889E+02  0.51100000000E-03 0.  1.
        -11    1    3    3    0    0  0.22136565036E+01  0.19463990052E+02 -0.17093380186E+02  0.25998669780E+02  0.51100000000E-03 0. -1.
         12    1    3    3    0    0  0.53232883633E+01 -0.20697003731E+01 -0.93530219768E+00  0.57875598341E+01  0.00000000000E+00 0. -1.
</event>
<event>
 7    1  0.5068291E-011  0.5052886E+02  0.7816164E-02  0.1300439E+00
        -11   -1    0    0    0    0  0.00000000000E+00  0.00000000000E+00  0.45593999997E+02  0.45594000000E+02  0.51100000000E-03 0.  1.
         11   -1    0    0    0    0 -0.00000000000E+00 -0.00000000000E+00 -0.45593999997E+02  0.45594000000E+02  0.51100000000E-03 0. -1.
    9900012    2    1    2    0    0  0.12604183392E+02 -0.34906586952E+02 -0.16608137743E+02  0.50528862148E+02  0.30000006985E+02 0.  0.
        -12    1    1    2    0    0 -0.12604183392E+02  0.34906586952E+02  0.16608137743E+02  0.40659137852E+02  0.00000000000E+00 0.  1.
         11    1    3    3    0    0 -0.13201597558E+01 -0.25029400634E+02 -0.34336525766E+01  0.25298294175E+02  0.51100000000E-03 0.  1.
        -11    1    3    3    0    0  0.86985297945E+01 -0.67485724819E+01 -0.32911947689E+00  0.11014352955E+02  0.51100000000E-03 0. -1.
         12    1    3    3    0    0  0.52258133538E+01 -0.31286138353E+01 -0.12845365689E+02  0.14216215018E+02  0.00000000000E+00 0. -1.
</event>
<event>
 7    1  0.5068291E-011  0.5052886E+02  0.7816164E-02  0.1300439E+00
        -11   -1    0    0    0    0  0.00000000000E+00  0.00000000000E+00  0.45593999997E+02  0.45594000000E+02  0.51100000000E-03 0. -1.
         11   -1    0    0    0    0 -0.00000000000E+00 -0.00000000000E+00 -0.45593999997E+02  0.45594000000E+02  0.51100000000E-03 0.  1.
    9900012    2    1    2    0    0  0.36698496749E+02  0.17147152562E+02  0.35158431864E+01  0.50528860093E+02  0.30000000739E+02 0.  0.
        -12    1    1    2    0    0 -0.36698496749E+02 -0.17147152562E+02 -0.35158431864E+01  0.40659139907E+02  0.00000000000E+00 0.  1.
         11    1    3    3    0    0  0.20084508848E+02  0.11208580386E+01  0.69948381081E+00  0.20127918330E+02  0.51100000000E-03 0.  1.
        -11    1    3    3    0    0  0.27743102966E+01  0.15372009061E+02 -0.19661695802E+01  0.15743610872E+02  0.51100000000E-03 0. -1.
         12    1    3    3    0    0  0.13839677605E+02  0.65428546196E+00  0.47825289558E+01  0.14657330892E+02  0.00000000000E+00 0. -1.
</event>
<event>
 7    1  0.5068291E-011  0.5052879E+02  0.7816164E-02  0.1300439E+00
        -11   -1    0    0    0    0  0.00000000000E+00  0.00000000000E+00  0.45593999997E+02  0.45594000000E+02  0.51100000000E-03 0.  1.
         11   -1    0    0    0    0 -0.00000000000E+00 -0.00000000000E+00 -0.45593999997E+02  0.45594000000E+02  0.51100000000E-03 0. -1.
    9900012    2    1    2    0    0 -0.15440802959E+02  0.18560969471E+02 -0.32714574155E+02  0.50528790147E+02  0.29999788130E+02 0.  0.
        -12    1    1    2    0    0  0.15440802959E+02 -0.18560969471E+02  0.32714574155E+02  0.40659209853E+02  0.00000000000E+00 0.  1.
         11    1    3    3    0    0 -0.67801441381E+01 -0.22804488691E+01 -0.23497504971E+02  0.24562238125E+02  0.51100000000E-03 0. -1.
        -11    1    3    3    0    0 -0.10173944191E+02  0.18938466035E+02 -0.68245173910E+01  0.22555457744E+02  0.51100000000E-03 0.  1.
         12    1    3    3    0    0  0.15132853706E+01  0.19029523056E+01 -0.23925517930E+01  0.34110942778E+01  0.00000000000E+00 0. -1.
</event>
<event>
 7    1  0.5068291E-011  0.5052887E+02  0.7816164E-02  0.1300439E+00
        -11   -1    0    0    0    0  0.00000000000E+00  0.00000000000E+00  0.45593999997E+02  0.45594000000E+02  0.51100000000E-03 0. -1.
         11   -1    0    0    0    0 -0.00000000000E+00 -0.00000000000E+00 -0.45593999997E+02  0.45594000000E+02  0.51100000000E-03 0.  1.
    9900012    2    1    2    0    0 -0.18887674823E+02 -0.35489546215E+02 -0.60755499101E+01  0.50528874856E+02  0.30000045611E+02 0.  0.
        -12    1    1    2    0    0  0.18887674823E+02  0.35489546215E+02  0.60755499101E+01  0.40659125144E+02  0.00000000000E+00 0.  1.
         11    1    3    3    0    0 -0.13729719754E+02 -0.27591526070E+02 -0.14480651666E+02  0.34051237691E+02  0.51100000000E-03 0. -1.
        -11    1    3    3    0    0  0.96016374483E+00 -0.52110324656E+01  0.82360606395E+01  0.97933379853E+01  0.51100000000E-03 0.  1.
        -12    1    3    3    0    0 -0.61181188141E+01 -0.26869876801E+01  0.16904111622E+00  0.66842991791E+01  0.00000000000E+00 0.  1.
</event>
<event>
 7    1  0.5068291E-011  0.5052887E+02  0.7816164E-02  0.1300439E+00
        -11   -1    0    0    0    0  0.00000000000E+00  0.00000000000E+00  0.45593999997E+02  0.45594000000E+02  0.51100000000E-03 0.  1.
         11   -1    0    0    0    0 -0.00000000000E+00 -0.00000000000E+00 -0.45593999997E+02  0.45594000000E+02  0.51100000000E-03 0. -1.
    9900012    2    1    2    0    0 -0.20525837751E+02  0.35011737051E+02  0.24562754022E+01  0.50528867747E+02  0.30000024003E+02 0.  0.
        -12    1    1    2    0    0  0.20525837751E+02 -0.35011737051E+02 -0.24562754022E+01  0.40659132253E+02  0.00000000000E+00 0.  1.
         11    1    3    3    0    0 -0.28773646841E+01  0.14867786337E+02  0.12026667961E+02  0.19338330864E+02  0.51100000000E-03 0. -1.
        -11    1    3    3    0    0 -0.14555410848E+02  0.74250906294E+01 -0.32710998888E+01  0.16664094651E+02  0.51100000000E-03 0.  1.
         12    1    3    3    0    0 -0.30930622192E+01  0.12718860085E+02 -0.62992926705E+01  0.14526442231E+02  0.00000000000E+00 0. -1.
</event>
<event>
 7    1  0.5068291E-011  0.5052886E+02  0.7816164E-02  0.1300439E+00
        -11   -1    0    0    0    0  0.00000000000E+00  0.00000000000E+00  0.45593999997E+02  0.45594000000E+02  0.51100000000E-03 0. -1.
         11   -1    0    0    0    0 -0.00000000000E+00 -0.00000000000E+00 -0.45593999997E+02  0.45594000000E+02  0.51100000000E-03 0.  1.
    9900012    2    1    2    0    0 -0.32301207940E+02 -0.19410604552E+02 -0.15265195106E+02  0.50528858530E+02  0.29999995987E+02 0.  0.
        -12    1    1    2    0    0  0.32301207940E+02  0.19410604552E+02  0.15265195106E+02  0.40659141470E+02  0.00000000000E+00 0.  1.
         11    1    3    3    0    0 -0.59401740238E+01  0.23137760427E+01  0.46199083715E+00  0.63916087806E+01  0.51100000000E-03 0. -1.
        -11    1    3    3    0    0 -0.10151554644E+01 -0.14627445685E+02 -0.32956778158E+01  0.15028446374E+02  0.51100000000E-03 0.  1.
        -12    1    3    3    0    0 -0.25345878452E+02 -0.70969349099E+01 -0.12431508127E+02  0.29108803375E+02  0.00000000000E+00 0.  1.
</event>
<event>
 7    1  0.5068291E-011  0.5052888E+02  0.7816164E-02  0.1300439E+00
        -11   -1    0    0    0    0  0.00000000000E+00  0.00000000000E+00  0.45593999997E+02  0.45594000000E+02  0.51100000000E-03 0.  1.
         11   -1    0    0    0    0 -0.00000000000E+00 -0.00000000000E+00 -0.45593999997E+02  0.45594000000E+02  0.51100000000E-03 0. -1.
    9900012    2    1    2    0    0  0.99339770085E+01 -0.14668015952E+02 -0.36596852393E+02  0.50528878069E+02  0.30000055378E+02 0.  0.
        -12    1    1    2    0    0 -0.99339770085E+01  0.14668015952E+02  0.36596852393E+02  0.40659121931E+02  0.00000000000E+00 0.  1.
         11    1    3    3    0    0  0.69753167502E+01 -0.17240398791E+02 -0.18457816396E+02  0.26202621637E+02  0.51100000000E-03 0. -1.
        -11    1    3    3    0    0 -0.54665389550E+01  0.33238177427E+01 -0.12837931003E+02  0.14343754224E+02  0.51100000000E-03 0.  1.
         12    1    3    3    0    0  0.84251992133E+01 -0.75143490333E+00 -0.53011049933E+01  0.99825022087E+01  0.00000000000E+00 0. -1.
</event>
<event>
 7    1  0.5068291E-011  0.5052886E+02  0.7816164E-02  0.1300439E+00
        -11   -1    0    0    0    0  0.00000000000E+00  0.00000000000E+00  0.45593999997E+02  0.45594000000E+02  0.51100000000E-03 0. -1.
         11   -1    0    0    0    0 -0.00000000000E+00 -0.00000000000E+00 -0.45593999997E+02  0.45594000000E+02  0.51100000000E-03 0.  1.
    9900012    2    1    2    0    0 -0.36340036993E+02 -0.17850529217E+01  0.18148864803E+02  0.50528855934E+02  0.29999988096E+02 0.  0.
        -12    1    1    2    0    0  0.36340036993E+02  0.17850529217E+01 -0.18148864803E+02  0.40659144066E+02  0.00000000000E+00 0.  1.
         11    1    3    3    0    0 -0.24314494280E+02 -0.10020431617E+02  0.16778054757E+02  0.31194659857E+02  0.51100000000E-03 0. -1.
        -11    1    3    3    0    0 -0.13471079937E+02  0.50892411581E+01 -0.19559939795E+01  0.14532593814E+02  0.51100000000E-03 0.  1.
        -12    1    3    3    0    0  0.14455372246E+01  0.31461375373E+01  0.33268040250E+01  0.48016022630E+01  0.00000000000E+00 0.  1.
</event>
<event>
 7    1  0.5068291E-011  0.5052887E+02  0.7816164E-02  0.1300439E+00
        -11   -1    0    0    0    0  0.00000000000E+00  0.00000000000E+00  0.45593999997E+02  0.45594000000E+02  0.51100000000E-03 0.  1.
         11   -1    0    0    0    0 -0.00000000000E+00 -0.00000000000E+00 -0.45593999997E+02  0.45594000000E+02  0.51100000000E-03 0. -1.
    9900012    2    1    2    0    0  0.16357216192E+02  0.19965988776E+02 -0.31416007938E+02  0.50528870840E+02  0.30000033404E+02 0.  0.
        -12    1    1    2    0    0 -0.16357216192E+02 -0.19965988776E+02  0.31416007938E+02  0.40659129160E+02  0.00000000000E+00 0.  1.
         11    1    3    3    0    0  0.98682680483E+01  0.56877347171E+01 -0.68509043199E+00  0.11410626172E+02  0.51100000000E-03 0. -1.
        -11    1    3    3    0    0  0.43355022806E+01 -0.15195603018E+01 -0.18393035488E+02  0.18958095850E+02  0.51100000000E-03 0.  1.
        -12    1    3    3    0    0  0.21534458629E+01  0.15797814360E+02 -0.12337882018E+02  0.20160148817E+02  0.00000000000E+00 0.  1.
</event>
<event>
 7    1  0.5068291E-011  0.5052886E+02  0.7816164E-02  0.1300439E+00
        -11   -1    0    0    0    0  0.00000000000E+00  0.00000000000E+00  0.45593999997E+02  0.45594000000E+02  0.51100000000E-03 0.  1.
         11   -1    0    0    0    0 -0.00000000000E+00 -0.00000000000E+00 -0.45593999997E+02  0.45594000000E+02  0.51100000000E-03 0. -1.
    9900012    2    1    2    0    0 -0.15668345775E+02 -0.12982636849E+02 -0.35201136775E+02  0.50528856512E+02  0.29999989855E+02 0.  0.
        -12    1    1    2    0    0  0.15668345775E+02  0.12982636849E+02  0.35201136775E+02  0.40659143488E+02  0.00000000000E+00 0.  1.
         11    1    3    3    0    0 -0.15198084409E+02 -0.14146050256E+02 -0.35721521368E+02  0.41317303841E+02  0.51100000000E-03 0. -1.
        -11    1    3    3    0    0 -0.37638391630E+00  0.32215510492E+01  0.40109717529E+01  0.51582895109E+01  0.51100000000E-03 0.  1.
        -12    1    3    3    0    0 -0.93877449573E-01 -0.20581376423E+01 -0.34905871601E+01  0.40532631610E+01  0.00000000000E+00 0.  1.
</event>
<event>
 7    1  0.5068291E-011  0.5052886E+02  0.7816164E-02  0.1300439E+00
        -11   -1    0    0    0    0  0.00000000000E+00  0.00000000000E+00  0.45593999997E+02  0.45594000000E+02  0.51100000000E-03 0.  1.
         11   -1    0    0    0    0 -0.00000000000E+00 -0.00000000000E+00 -0.45593999997E+02  0.45594000000E+02  0.51100000000E-03 0. -1.
    9900012    2    1    2    0    0  0.23492279174E+02 -0.14772036683E+02 -0.29716417984E+02  0.50528859006E+02  0.29999997435E+02 0.  0.
        -12    1    1    2    0    0 -0.23492279174E+02  0.14772036683E+02  0.29716417984E+02  0.40659140994E+02  0.00000000000E+00 0.  1.
         11    1    3    3    0    0  0.13048705276E+02 -0.71392891351E+01 -0.24478400300E+02  0.28643153462E+02  0.51100000000E-03 0. -1.
        -11    1    3    3    0    0  0.91171611943E+01 -0.12892958910E+02 -0.44341072871E+01  0.16401595209E+02  0.51100000000E-03 0.  1.
         12    1    3    3    0    0  0.13264127037E+01  0.52602113627E+01 -0.80391039680E+00  0.54841103351E+01  0.00000000000E+00 0. -1.
</event>
<event>
 7    1  0.5068291E-011  0.5052887E+02  0.7816164E-02  0.1300439E+00
        -11   -1    0    0    0    0  0.00000000000E+00  0.00000000000E+00  0.45593999997E+02  0.45594000000E+02  0.51100000000E-03 0.  1.
         11   -1    0    0    0    0 -0.00000000000E+00 -0.00000000000E+00 -0.45593999997E+02  0.45594000000E+02  0.51100000000E-03 0. -1.
    9900012    2    1    2    0    0 -0.26197613162E+02  0.22268753448E+02 -0.21701436452E+02  0.50528872370E+02  0.30000038056E+02 0.  0.
        -12    1    1    2    0    0  0.26197613162E+02 -0.22268753448E+02  0.21701436452E+02  0.40659127630E+02  0.00000000000E+00 0.  1.
         11    1    3    3    0    0 -0.23839404031E+02  0.24793792000E+02 -0.21619757942E+02  0.40625893714E+02  0.51100000000E-03 0. -1.
        -11    1    3    3    0    0 -0.35242166220E+01 -0.53033080538E+01 -0.15466861313E+01  0.65526649054E+01  0.51100000000E-03 0.  1.
        -12    1    3    3    0    0  0.11660074910E+01  0.27782695028E+01  0.14650076214E+01  0.33503137510E+01  0.00000000000E+00 0.  1.
</event>
<event>
 7    1  0.5068291E-011  0.5052886E+02  0.7816164E-02  0.1300439E+00
        -11   -1    0    0    0    0  0.00000000000E+00  0.00000000000E+00  0.45593999997E+02  0.45594000000E+02  0.51100000000E-03 0. -1.
         11   -1    0    0    0    0 -0.00000000000E+00 -0.00000000000E+00 -0.45593999997E+02  0.45594000000E+02  0.51100000000E-03 0.  1.
    9900012    2    1    2    0    0  0.14763452941E+02  0.16587283997E+02  0.34059776048E+02  0.50528857393E+02  0.29999992532E+02 0.  0.
        -12    1    1    2    0    0 -0.14763452941E+02 -0.16587283997E+02 -0.34059776048E+02  0.40659142607E+02  0.00000000000E+00 0.  1.
         11    1    3    3    0    0  0.76690573883E+01 -0.54937505127E+01  0.58028667078E+01  0.11075603740E+02  0.51100000000E-03 0.  1.
        -11    1    3    3    0    0 -0.21610483780E+01  0.15141157121E+02  0.11705792097E+02  0.19260071078E+02  0.51100000000E-03 0. -1.
        -12    1    3    3    0    0  0.92554439305E+01  0.69398773883E+01  0.16551117243E+02  0.20193182575E+02  0.00000000000E+00 0.  1.
</event>
<event>
 7    1  0.5068291E-011  0.5052886E+02  0.7816164E-02  0.1300439E+00
        -11   -1    0    0    0    0  0.00000000000E+00  0.00000000000E+00  0.45593999997E+02  0.45594000000E+02  0.51100000000E-03 0.  1.
         11   -1    0    0    0    0 -0.00000000000E+00 -0.00000000000E+00 -0.45593999997E+02  0.45594000000E+02  0.51100000000E-03 0. -1.
    9900012    2    1    2    0    0  0.19110816147E+02 -0.43631518590E+01 -0.35621691256E+02  0.50528864791E+02  0.30000015019E+02 0.  0.
        -12    1    1    2    0    0 -0.19110816147E+02  0.43631518590E+01  0.35621691256E+02  0.40659135209E+02  0.00000000000E+00 0.  1.
         11    1    3    3    0    0  0.12957222492E+02 -0.16468629689E+01 -0.15498379196E+02  0.20268239448E+02  0.51100000000E-03 0. -1.
        -11    1    3    3    0    0 -0.10073151391E+01  0.38738071397E+01  0.31116946962E+01  0.50698826109E+01  0.51100000000E-03 0.  1.
         12    1    3    3    0    0  0.71609087947E+01 -0.65900960297E+01 -0.23235006756E+02  0.25190742732E+02  0.00000000000E+00 0. -1.
</event>
<event>
 7    1  0.5068291E-011  0.5052886E+02  0.7816164E-02  0.1300439E+00
        -11   -1    0    0    0    0  0.00000000000E+00  0.00000000000E+00  0.45593999997E+02  0.45594000000E+02  0.51100000000E-03 0. -1.
         11   -1    0    0    0    0 -0.00000000000E+00 -0.00000000000E+00 -0.45593999997E+02  0.45594000000E+02  0.51100000000E-03 0.  1.
    9900012    2    1    2    0    0  0.25227708739E+02 -0.61264934748E+01  0.31292076668E+02  0.50528864831E+02  0.30000015139E+02 0.  0.
        -12    1    1    2    0    0 -0.25227708739E+02  0.61264934748E+01 -0.31292076668E+02  0.40659135169E+02  0.00000000000E+00 0.  1.
         11    1    3    3    0    0 -0.10722069444E+01  0.23587335284E+01  0.19341978224E+02  0.19514747589E+02  0.51100000000E-03 0. -1.
        -11    1    3    3    0    0  0.14251576690E+02 -0.83886061075E+01  0.76525817496E+01  0.18221914232E+02  0.51100000000E-03 0.  1.
         12    1    3    3    0    0  0.12048338993E+02 -0.96620895783E-01  0.42975166946E+01  0.12792203009E+02  0.00000000000E+00 0. -1.
</event>
<event>
 7    1  0.5068291E-011  0.5052886E+02  0.7816164E-02  0.1300439E+00
        -11   -1    0    0    0    0  0.00000000000E+00  0.00000000000E+00  0.45593999997E+02  0.45594000000E+02  0.51100000000E-03 0.  1.
         11   -1    0    0    0    0 -0.00000000000E+00 -0.00000000000E+00 -0.45593999997E+02  0.45594000000E+02  0.51100000000E-03 0. -1.
    9900012    2    1    2    0    0 -0.39045787612E+02 -0.57691081145E+00 -0.11325171556E+02  0.50528857522E+02  0.29999992923E+02 0.  0.
        -12    1    1    2    0    0  0.39045787612E+02  0.57691081145E+00  0.11325171556E+02  0.40659142478E+02  0.00000000000E+00 0.  1.
         11    1    3    3    0    0 -0.99514054625E+01 -0.34581694099E+01 -0.88766423057E+01  0.13776218103E+02  0.51100000000E-03 0. -1.
        -11    1    3    3    0    0 -0.81115275286E+01  0.11066307902E+02 -0.36495747151E+01  0.14197867632E+02  0.51100000000E-03 0.  1.
        -12    1    3    3    0    0 -0.20982854621E+02 -0.81850493034E+01  0.12010454651E+01  0.22554771786E+02  0.00000000000E+00 0.  1.
</event>
<event>
 7    1  0.5068291E-011  0.5052881E+02  0.7816164E-02  0.1300439E+00
        -11   -1    0    0    0    0  0.00000000000E+00  0.00000000000E+00  0.45593999997E+02  0.45594000000E+02  0.51100000000E-03 0. -1.
         11   -1    0    0    0    0 -0.00000000000E+00 -0.00000000000E+00 -0.45593999997E+02  0.45594000000E+02  0.51100000000E-03 0.  1.
    9900012    2    1    2    0    0 -0.26213133753E+02 -0.29489940241E+02  0.98175617639E+01  0.50528813147E+02  0.29999858040E+02 0.  0.
        -12    1    1    2    0    0  0.26213133753E+02  0.29489940241E+02 -0.98175617639E+01  0.40659186853E+02  0.00000000000E+00 0.  1.
         11    1    3    3    0    0 -0.87379873784E+01 -0.25064286729E+02 -0.24109228566E+01  0.26653019377E+02  0.51100000000E-03 0. -1.
        -11    1    3    3    0    0 -0.68974682146E+01  0.17233583313E+01  0.83695157585E+00  0.71585976219E+01  0.51100000000E-03 0.  1.
         12    1    3    3    0    0 -0.10577678160E+02 -0.61490118435E+01  0.11391533045E+02  0.16717196147E+02  0.00000000000E+00 0. -1.
</event>
<event>
 7    1  0.5068291E-011  0.5052888E+02  0.7816164E-02  0.1300439E+00
        -11   -1    0    0    0    0  0.00000000000E+00  0.00000000000E+00  0.45593999997E+02  0.45594000000E+02  0.51100000000E-03 0. -1.
         11   -1    0    0    0    0 -0.00000000000E+00 -0.00000000000E+00 -0.45593999997E+02  0.45594000000E+02  0.51100000000E-03 0.  1.
    9900012    2    1    2    0    0 -0.32915239170E+02  0.23115831369E+02 -0.59506100154E+01  0.50528875698E+02  0.30000048171E+02 0.  0.
        -12    1    1    2    0    0  0.32915239170E+02 -0.23115831369E+02  0.59506100154E+01  0.40659124302E+02  0.00000000000E+00 0.  1.
         11    1    3    3    0    0 -0.22801872863E+02  0.13418692630E+02 -0.12445427180E+02  0.29238251930E+02  0.51100000000E-03 0. -1.
        -11    1    3    3    0    0 -0.81346246169E+01 -0.20288504208E+01  0.27334963702E+01  0.88181831664E+01  0.51100000000E-03 0.  1.
         12    1    3    3    0    0 -0.19787416901E+01  0.11725989159E+02  0.37613207943E+01  0.12472440602E+02  0.00000000000E+00 0. -1.
</event>
<event>
 7    1  0.5068291E-011  0.5052888E+02  0.7816164E-02  0.1300439E+00
        -11   -1    0    0    0    0  0.00000000000E+00  0.00000000000E+00  0.45593999997E+02  0.45594000000E+02  0.51100000000E-03 0.  1.
         11   -1    0    0    0    0 -0.00000000000E+00 -0.00000000000E+00 -0.45593999997E+02  0.45594000000E+02  0.51100000000E-03 0. -1.
    9900012    2    1    2    0    0 -0.34460533212E+02 -0.20917029045E+02 -0.53022512301E+01  0.50528876529E+02  0.30000050699E+02 0.  0.
        -12    1    1    2    0    0  0.34460533212E+02  0.20917029045E+02  0.53022512301E+01  0.40659123471E+02  0.00000000000E+00 0.  1.
         11    1    3    3    0    0 -0.13284515226E+02 -0.11936685553E+02  0.24250245755E+01  0.18023416747E+02  0.51100000000E-03 0. -1.
        -11    1    3    3    0    0 -0.75409890591E+01 -0.20084740174E+01 -0.13942735581E+02  0.15978121279E+02  0.51100000000E-03 0.  1.
        -12    1    3    3    0    0 -0.13635028927E+02 -0.69718694740E+01  0.62154597751E+01  0.16527338504E+02  0.00000000000E+00 0.  1.
</event>
<event>
 7    1  0.5068291E-011  0.5052887E+02  0.7816164E-02  0.1300439E+00
        -11   -1    0    0    0    0  0.00000000000E+00  0.00000000000E+00  0.45593999997E+02  0.45594000000E+02  0.51100000000E-03 0. -1.
         11   -1    0    0    0    0 -0.00000000000E+00 -0.00000000000E+00 -0.45593999997E+02  0.45594000000E+02  0.51100000000E-03 0.  1.
    9900012    2    1    2    0    0 -0.37971496470E+02  0.66512259487E+01  0.12926377182E+02  0.50528873376E+02  0.30000041113E+02 0.  0.
        -12    1    1    2    0    0  0.37971496470E+02 -0.66512259487E+01 -0.12926377182E+02  0.40659126624E+02  0.00000000000E+00 0.  1.
         11    1    3    3    0    0 -0.30818945715E+02  0.13432991439E+02  0.35297549419E+01  0.33804021125E+02  0.51100000000E-03 0. -1.
        -11    1    3    3    0    0 -0.92780720782E+01 -0.70390674654E+01  0.84230732669E+01  0.14372865260E+02  0.51100000000E-03 0.  1.
         12    1    3    3    0    0  0.21255213231E+01  0.25730197478E+00  0.97354897330E+00  0.23519869907E+01  0.00000000000E+00 0. -1.
</event>
<event>
 7    1  0.5068291E-011  0.5052886E+02  0.7816164E-02  0.1300439E+00
        -11   -1    0    0    0    0  0.00000000000E+00  0.00000000000E+00  0.45593999997E+02  0.45594000000E+02  0.51100000000E-03 0.  1.
         11   -1    0    0    0    0 -0.00000000000E+00 -0.00000000000E+00 -0.45593999997E+02  0.45594000000E+02  0.51100000000E-03 0. -1.
    9900012    2    1    2    0    0 -0.38604261410E+02  0.80498585853E+01 -0.99033582325E+01  0.50528859250E+02  0.29999998175E+02 0.  0.
        -12    1    1    2    0    0  0.38604261410E+02 -0.80498585853E+01  0.99033582325E+01  0.40659140750E+02  0.00000000000E+00 0.  1.
         11    1    3    3    0    0 -0.18978294425E+02 -0.10765602450E+02 -0.45182011160E+01  0.22282010613E+02  0.51100000000E-03 0. -1.
        -11    1    3    3    0    0 -0.87599975762E+01  0.80721965014E+01  0.37221855044E+00  0.11917905051E+02  0.51100000000E-03 0.  1.
         12    1    3    3    0    0 -0.10865969409E+02  0.10743264534E+02 -0.57573756670E+01  0.16328943586E+02  0.00000000000E+00 0. -1.
</event>
<event>
 7    1  0.5068291E-011  0.5052885E+02  0.7816164E-02  0.1300439E+00
        -11   -1    0    0    0    0  0.00000000000E+00  0.00000000000E+00  0.45593999997E+02  0.45594000000E+02  0.51100000000E-03 0.  1.
         11   -1    0    0    0    0 -0.00000000000E+00 -0.00000000000E+00 -0.45593999997E+02  0.45594000000E+02  0.51100000000E-03 0. -1.
    9900012    2    1    2    0    0 -0.81702448842E+00  0.32391614846E+02 -0.24561801735E+02  0.50528851635E+02  0.29999975029E+02 0.  0.
        -12    1    1    2    0    0  0.81702448842E+00 -0.32391614846E+02  0.24561801735E+02  0.40659148365E+02  0.00000000000E+00 0.  1.
         11    1    3    3    0    0 -0.71686272036E+00  0.24262317991E+01 -0.95682839061E+01  0.98970980632E+01  0.51100000000E-03 0. -1.
        -11    1    3    3    0    0  0.10500644826E+02  0.20825228127E+02 -0.63154930043E+01  0.24162763097E+02  0.51100000000E-03 0.  1.
        -12    1    3    3    0    0 -0.10600806594E+02  0.91401549191E+01 -0.86780248247E+01  0.16468990475E+02  0.00000000000E+00 0.  1.
</event>
<event>
 7    1  0.5068291E-011  0.5052887E+02  0.7816164E-02  0.1300439E+00
        -11   -1    0    0    0    0  0.00000000000E+00  0.00000000000E+00  0.45593999997E+02  0.45594000000E+02  0.51100000000E-03 0.  1.
         11   -1    0    0    0    0 -0.00000000000E+00 -0.00000000000E+00 -0.45593999997E+02  0.45594000000E+02  0.51100000000E-03 0. -1.
    9900012    2    1    2    0    0 -0.22671245616E+02 -0.28121735617E+02 -0.18664070259E+02  0.50528869284E+02  0.30000028676E+02 0.  0.
        -12    1    1    2    0    0  0.22671245616E+02  0.28121735617E+02  0.18664070259E+02  0.40659130716E+02  0.00000000000E+00 0.  1.
         11    1    3    3    0    0 -0.14907028177E+02 -0.16857110146E+02 -0.20366751585E+02  0.30351049766E+02  0.51100000000E-03 0. -1.
        -11    1    3    3    0    0 -0.88861149111E+01 -0.14152307183E+02  0.26908839905E+01  0.16926065512E+02  0.51100000000E-03 0.  1.
         12    1    3    3    0    0  0.11218974718E+01  0.28876817116E+01 -0.98820266490E+00  0.32517540054E+01  0.00000000000E+00 0. -1.
</event>
<event>
 7    1  0.5068291E-011  0.5052886E+02  0.7816164E-02  0.1300439E+00
        -11   -1    0    0    0    0  0.00000000000E+00  0.00000000000E+00  0.45593999997E+02  0.45594000000E+02  0.51100000000E-03 0.  1.
         11   -1    0    0    0    0 -0.00000000000E+00 -0.00000000000E+00 -0.45593999997E+02  0.45594000000E+02  0.51100000000E-03 0. -1.
    9900012    2    1    2    0    0  0.15365582055E+02  0.69298309816E+01 -0.37000570177E+02  0.50528857575E+02  0.29999993085E+02 0.  0.
        -12    1    1    2    0    0 -0.15365582055E+02 -0.69298309816E+01  0.37000570177E+02  0.40659142425E+02  0.00000000000E+00 0.  1.
         11    1    3    3    0    0  0.13871999124E+02 -0.55574559836E+01 -0.26244218645E+02  0.30200607432E+02  0.51100000000E-03 0. -1.
        -11    1    3    3    0    0 -0.86113630082E+00  0.11593707080E+02 -0.27657135482E+01  0.11950095033E+02  0.51100000000E-03 0.  1.
        -12    1    3    3    0    0  0.23547192324E+01  0.89357988472E+00 -0.79906379834E+01  0.83781551105E+01  0.00000000000E+00 0.  1.
</event>
<event>
 7    1  0.5068291E-011  0.5052885E+02  0.7816164E-02  0.1300439E+00
        -11   -1    0    0    0    0  0.00000000000E+00  0.00000000000E+00  0.45593999997E+02  0.45594000000E+02  0.51100000000E-03 0.  1.
         11   -1    0    0    0    0 -0.00000000000E+00 -0.00000000000E+00 -0.45593999997E+02  0.45594000000E+02  0.51100000000E-03 0. -1.
    9900012    2    1    2    0    0 -0.29852429116E+00 -0.32732318104E+02 -0.24117897335E+02  0.50528846823E+02  0.29999960402E+02 0.  0.
        -12    1    1    2    0    0  0.29852429116E+00  0.32732318104E+02  0.24117897335E+02  0.40659153177E+02  0.00000000000E+00 0.  1.
         11    1    3    3    0    0  0.11236561547E+02 -0.14241795609E+02 -0.11896348401E+02  0.21693597284E+02  0.51100000000E-03 0. -1.
        -11    1    3    3    0    0 -0.11665050057E+02 -0.15591308104E+02 -0.36834642685E+01  0.19817421389E+02  0.51100000000E-03 0.  1.
        -12    1    3    3    0    0  0.12996421853E+00 -0.28992143911E+01 -0.85380846658E+01  0.90178281500E+01  0.00000000000E+00 0.  1.
</event>
<event>
 7    1  0.5068291E-011  0.5052886E+02  0.7816164E-02  0.1300439E+00
        -11   -1    0    0    0    0  0.00000000000E+00  0.00000000000E+00  0.45593999997E+02  0.45594000000E+02  0.51100000000E-03 0.  1.
         11   -1    0    0    0    0 -0.00000000000E+00 -0.00000000000E+00 -0.45593999997E+02  0.45594000000E+02  0.51100000000E-03 0. -1.
    9900012    2    1    2    0    0  0.61551714514E+01  0.25405092615E+02 -0.31142587352E+02  0.50528860642E+02  0.30000002407E+02 0.  0.
        -12    1    1    2    0    0 -0.61551714514E+01 -0.25405092615E+02  0.31142587352E+02  0.40659139358E+02  0.00000000000E+00 0.  1.
         11    1    3    3    0    0 -0.20438301886E+01  0.61140124713E+01 -0.25487676196E+02  0.26290302936E+02  0.51100000000E-03 0. -1.
        -11    1    3    3    0    0  0.30538795915E+01  0.62417301747E+01  0.32002134517E+01  0.76502772845E+01  0.51100000000E-03 0.  1.
         12    1    3    3    0    0  0.51451220485E+01  0.13049349969E+02 -0.88551246076E+01  0.16588280421E+02  0.00000000000E+00 0. -1.
</event>
<event>
 7    1  0.5498209E-011  0.5052885E+02  0.7816164E-02  0.1300439E+00
        -11   -1    0    0    0    0  0.00000000000E+00  0.00000000000E+00  0.45593999997E+02  0.45594000000E+02  0.51100000000E-03 0. -1.
         11   -1    0    0    0    0 -0.00000000000E+00 -0.00000000000E+00 -0.45593999997E+02  0.45594000000E+02  0.51100000000E-03 0.  1.
    9900012    2    1    2    0    0 -0.32919565202E+02 -0.17694330761E+02  0.16011863263E+02  0.50528845074E+02  0.29999955086E+02 0.  0.
        -12    1    1    2    0    0  0.32919565202E+02  0.17694330761E+02 -0.16011863263E+02  0.40659154926E+02  0.00000000000E+00 0.  1.
         11    1    3    3    0    0 -0.25605723409E+02 -0.15679299347E+02  0.22440144902E+02  0.37484044642E+02  0.51100000000E-03 0. -1.
        -11    1    3    3    0    0 -0.35817491469E+01 -0.51486818506E+01 -0.48298087607E+01  0.79161167675E+01  0.51100000000E-03 0.  1.
         12    1    3    3    0    0 -0.37320926467E+01  0.31336504363E+01 -0.15984728781E+01  0.51286836637E+01  0.00000000000E+00 0. -1.
</event>
<event>
 7    1  0.5068291E-011  0.5052888E+02  0.7816164E-02  0.1300439E+00
        -11   -1    0    0    0    0  0.00000000000E+00  0.00000000000E+00  0.45593999997E+02  0.45594000000E+02  0.51100000000E-03 0.  1.
         11   -1    0    0    0    0 -0.00000000000E+00 -0.00000000000E+00 -0.45593999997E+02  0.45594000000E+02  0.51100000000E-03 0. -1.
    9900012    2    1    2    0    0 -0.11146986078E+02  0.38973120804E+02 -0.31630474053E+01  0.50528876636E+02  0.30000051022E+02 0.  0.
        -12    1    1    2    0    0  0.11146986078E+02 -0.38973120804E+02  0.31630474053E+01  0.40659123364E+02  0.00000000000E+00 0.  1.
         11    1    3    3    0    0 -0.80242829209E+00  0.27119247105E+02 -0.30089126367E+01  0.27297454281E+02  0.51100000000E-03 0. -1.
        -11    1    3    3    0    0 -0.13527292436E+02  0.78667065395E+01 -0.47619121125E+01  0.16356910455E+02  0.51100000000E-03 0.  1.
        -12    1    3    3    0    0  0.31827346493E+01  0.39871671600E+01  0.46077773438E+01  0.68745118997E+01  0.00000000000E+00 0.  1.
</event>
<event>
 7    1  0.5068291E-011  0.5052887E+02  0.7816164E-02  0.1300439E+00
        -11   -1    0    0    0    0  0.00000000000E+00  0.00000000000E+00  0.45593999997E+02  0.45594000000E+02  0.51100000000E-03 0.  1.
         11   -1    0    0    0    0 -0.00000000000E+00 -0.00000000000E+00 -0.45593999997E+02  0.45594000000E+02  0.51100000000E-03 0. -1.
    9900012    2    1    2    0    0  0.11324259238E+02  0.25716136649E+02 -0.29387177963E+02  0.50528871135E+02  0.30000034302E+02 0.  0.
        -12    1    1    2    0    0 -0.11324259238E+02 -0.25716136649E+02  0.29387177963E+02  0.40659128865E+02  0.00000000000E+00 0.  1.
         11    1    3    3    0    0 -0.17282142222E+01  0.89813898296E+01 -0.22336633896E+01  0.94149530040E+01  0.51100000000E-03 0. -1.
        -11    1    3    3    0    0  0.13450575306E+02  0.77092188699E+01 -0.28035637465E+02  0.32036650886E+02  0.51100000000E-03 0.  1.
        -12    1    3    3    0    0 -0.39810184519E+00  0.90255279491E+01  0.88212289184E+00  0.90772672449E+01  0.00000000000E+00 0.  1.
</event>
<event>
 7    1  0.5068291E-011  0.5052887E+02  0.7816164E-02  0.1300439E+00
        -11   -1    0    0    0    0  0.00000000000E+00  0.00000000000E+00  0.45593999997E+02  0.45594000000E+02  0.51100000000E-03 0.  1.
         11   -1    0    0    0    0 -0.00000000000E+00 -0.00000000000E+00 -0.45593999997E+02  0.45594000000E+02  0.51100000000E-03 0. -1.
    9900012    2    1    2    0    0  0.36774886078E+02  0.13443195188E+02 -0.10956885842E+02  0.50528867074E+02  0.30000021958E+02 0.  0.
        -12    1    1    2    0    0 -0.36774886078E+02 -0.13443195188E+02  0.10956885842E+02  0.40659132926E+02  0.00000000000E+00 0.  1.
         11    1    3    3    0    0  0.20376767541E+02  0.12160791447E+02 -0.17438985640E+02  0.29448526694E+02  0.51100000000E-03 0. -1.
        -11    1    3    3    0    0  0.17943619823E+02  0.59628653170E+00  0.70622942983E+01  0.19292616490E+02  0.51100000000E-03 0.  1.
        -12    1    3    3    0    0 -0.15455012861E+01  0.68611720983E+00 -0.58019450032E+00  0.17877238906E+01  0.00000000000E+00 0.  1.
</event>
<event>
 7    1  0.5068291E-011  0.5052886E+02  0.7816164E-02  0.1300439E+00
        -11   -1    0    0    0    0  0.00000000000E+00  0.00000000000E+00  0.45593999997E+02  0.45594000000E+02  0.51100000000E-03 0.  1.
         11   -1    0    0    0    0 -0.00000000000E+00 -0.00000000000E+00 -0.45593999997E+02  0.45594000000E+02  0.51100000000E-03 0. -1.
    9900012    2    1    2    0    0  0.39221478820E+02  0.86802533272E+01 -0.62844690746E+01  0.50528858959E+02  0.29999997293E+02 0.  0.
        -12    1    1    2    0    0 -0.39221478820E+02 -0.86802533272E+01  0.62844690746E+01  0.40659141041E+02  0.00000000000E+00 0.  1.
         11    1    3    3    0    0  0.23042563556E+02  0.16110325213E+02 -0.10616821740E+02  0.30053605737E+02  0.51100000000E-03 0. -1.
        -11    1    3    3    0    0  0.62030551832E+01  0.16950219290E+01  0.21504370193E+01  0.67805141826E+01  0.51100000000E-03 0.  1.
         12    1    3    3    0    0  0.99758600804E+01 -0.91250938145E+01  0.21819156463E+01  0.13694739039E+02  0.00000000000E+00 0. -1.
</event>
<event>
 7    1  0.5068291E-011  0.5052886E+02  0.7816164E-02  0.1300439E+00
        -11   -1    0    0    0    0  0.00000000000E+00  0.00000000000E+00  0.45593999997E+02  0.45594000000E+02  0.51100000000E-03 0.  1.
         11   -1    0    0    0    0 -0.00000000000E+00 -0.00000000000E+00 -0.45593999997E+02  0.45594000000E+02  0.51100000000E-03 0. -1.
    9900012    2    1    2    0    0  0.10671562162E+02 -0.62084196690E+01 -0.38739367345E+02  0.50528864544E+02  0.30000014267E+02 0.  0.
        -12    1    1    2    0    0 -0.10671562162E+02  0.62084196690E+01  0.38739367345E+02  0.40659135456E+02  0.00000000000E+00 0.  1.
         11    1    3    3    0    0  0.66823525368E+01 -0.11433432156E+02 -0.23278624879E+02  0.26781926421E+02  0.51100000000E-03 0. -1.
        -11    1    3    3    0    0  0.18953271046E+01  0.82099671553E+01 -0.17604682438E+02  0.19517189078E+02  0.51100000000E-03 0.  1.
        -12    1    3    3    0    0  0.20938825201E+01 -0.29849546686E+01  0.21439399713E+01  0.42297490448E+01  0.00000000000E+00 0.  1.
</event>
<event>
 7    1  0.5068291E-011  0.5052885E+02  0.7816164E-02  0.1300439E+00
        -11   -1    0    0    0    0  0.00000000000E+00  0.00000000000E+00  0.45593999997E+02  0.45594000000E+02  0.51100000000E-03 0.  1.
         11   -1    0    0    0    0 -0.00000000000E+00 -0.00000000000E+00 -0.45593999997E+02  0.45594000000E+02  0.51100000000E-03 0. -1.
    9900012    2    1    2    0    0 -0.27124654523E+02 -0.20911611412E+02 -0.21911735342E+02  0.50528849486E+02  0.29999968498E+02 0.  0.
        -12    1    1    2    0    0  0.27124654523E+02  0.20911611412E+02  0.21911735342E+02  0.40659150514E+02  0.00000000000E+00 0.  1.
         11    1    3    3    0    0 -0.23386177198E+02 -0.42052949055E+01 -0.12813246349E+02  0.26995871377E+02  0.51100000000E-03 0. -1.
        -11    1    3    3    0    0 -0.76464686660E+01 -0.12282986463E+02 -0.25055076934E+01  0.14683930284E+02  0.51100000000E-03 0.  1.
        -12    1    3    3    0    0  0.39079913407E+01 -0.44233300428E+01 -0.65929812999E+01  0.88490478249E+01  0.00000000000E+00 0.  1.
</event>
<event>
 7    1  0.5068291E-011  0.5052886E+02  0.7816164E-02  0.1300439E+00
        -11   -1    0    0    0    0  0.00000000000E+00  0.00000000000E+00  0.45593999997E+02  0.45594000000E+02  0.51100000000E-03 0. -1.
         11   -1    0    0    0    0 -0.00000000000E+00 -0.00000000000E+00 -0.45593999997E+02  0.45594000000E+02  0.51100000000E-03 0.  1.
    9900012    2    1    2    0    0 -0.13887052719E+02 -0.34788272851E+02 -0.15814280315E+02  0.50528860523E+02  0.30000002045E+02 0.  0.
        -12    1    1    2    0    0  0.13887052719E+02  0.34788272851E+02  0.15814280315E+02  0.40659139477E+02  0.00000000000E+00 0.  1.
         11    1    3    3    0    0 -0.15342527482E+02 -0.67082916391E+01  0.21344239129E+01  0.16880464803E+02  0.51100000000E-03 0. -1.
        -11    1    3    3    0    0 -0.11540218619E+01 -0.64789547741E+01 -0.55285715301E+01  0.85949825391E+01  0.51100000000E-03 0.  1.
         12    1    3    3    0    0  0.26094966254E+01 -0.21601026438E+02 -0.12420132697E+02  0.25053413181E+02  0.00000000000E+00 0. -1.
</event>
<event>
 7    1  0.5068291E-011  0.5052886E+02  0.7816164E-02  0.1300439E+00
        -11   -1    0    0    0    0  0.00000000000E+00  0.00000000000E+00  0.45593999997E+02  0.45594000000E+02  0.51100000000E-03 0.  1.
         11   -1    0    0    0    0 -0.00000000000E+00 -0.00000000000E+00 -0.45593999997E+02  0.45594000000E+02  0.51100000000E-03 0. -1.
    9900012    2    1    2    0    0  0.21826903961E+02  0.38999090733E+01 -0.34081414036E+02  0.50528858224E+02  0.29999995056E+02 0.  0.
        -12    1    1    2    0    0 -0.21826903961E+02 -0.38999090733E+01  0.34081414036E+02  0.40659141776E+02  0.00000000000E+00 0.  1.
         11    1    3    3    0    0 -0.71108385255E+00 -0.31920549519E+01 -0.17044426849E+02  0.17355326040E+02  0.51100000000E-03 0. -1.
        -11    1    3    3    0    0  0.22243665600E+02  0.94562579413E+00 -0.14119805024E+02  0.26363682627E+02  0.51100000000E-03 0.  1.
        -12    1    3    3    0    0  0.29432221298E+00  0.61463382310E+01 -0.29171821630E+01  0.68098495569E+01  0.00000000000E+00 0.  1.
</event>
<event>
 7    1  0.5068291E-011  0.5052886E+02  0.7816164E-02  0.1300439E+00
        -11   -1    0    0    0    0  0.00000000000E+00  0.00000000000E+00  0.45593999997E+02  0.45594000000E+02  0.51100000000E-03 0.  1.
         11   -1    0    0    0    0 -0.00000000000E+00 -0.00000000000E+00 -0.45593999997E+02  0.45594000000E+02  0.51100000000E-03 0. -1.
    9900012    2    1    2    0    0 -0.38121549388E+01 -0.38517360340E+02 -0.12451760662E+02  0.50528856915E+02  0.29999991078E+02 0.  0.
        -12    1    1    2    0    0  0.38121549388E+01  0.38517360340E+02  0.12451760662E+02  0.40659143085E+02  0.00000000000E+00 0.  1.
         11    1    3    3    0    0  0.87460710031E+00 -0.25173615750E+02 -0.20648270668E+02  0.32570338490E+02  0.51100000000E-03 0. -1.
        -11    1    3    3    0    0 -0.65056777031E+01 -0.10172027035E+02  0.48840532421E+01  0.13024897416E+02  0.51100000000E-03 0.  1.
        -12    1    3    3    0    0  0.18189156640E+01 -0.31717175556E+01  0.33124567640E+01  0.49336210088E+01  0.00000000000E+00 0.  1.
</event>
<event>
 7    1  0.5068291E-011  0.5052885E+02  0.7816164E-02  0.1300439E+00
        -11   -1    0    0    0    0  0.00000000000E+00  0.00000000000E+00  0.45593999997E+02  0.45594000000E+02  0.51100000000E-03 0. -1.
         11   -1    0    0    0    0 -0.00000000000E+00 -0.00000000000E+00 -0.45593999997E+02  0.45594000000E+02  0.51100000000E-03 0.  1.
    9900012    2    1    2    0    0  0.33869915048E+02  0.22080673039E+02  0.42940735386E+01  0.50528851770E+02  0.29999975440E+02 0.  0.
        -12    1    1    2    0    0 -0.33869915048E+02 -0.22080673039E+02 -0.42940735386E+01  0.40659148230E+02  0.00000000000E+00 0.  1.
         11    1    3    3    0    0  0.87931439666E+01  0.10126612597E+02  0.38285609288E+01  0.13947241396E+02  0.51100000000E-03 0. -1.
        -11    1    3    3    0    0  0.23110038532E+02  0.28123539639E+01 -0.73303084884E+01  0.24407307074E+02  0.51100000000E-03 0.  1.
        -12    1    3    3    0    0  0.19667325490E+01  0.91417064783E+01  0.77958210982E+01  0.12174303300E+02  0.00000000000E+00 0.  1.
</event>
<event>
 7    1  0.5068291E-011  0.5052889E+02  0.7816164E-02  0.1300439E+00
        -11   -1    0    0    0    0  0.00000000000E+00  0.00000000000E+00  0.45593999997E+02  0.45594000000E+02  0.51100000000E-03 0.  1.
         11   -1    0    0    0    0 -0.00000000000E+00 -0.00000000000E+00 -0.45593999997E+02  0.45594000000E+02  0.51100000000E-03 0. -1.
    9900012    2    1    2    0    0  0.33402067799E+02 -0.11847940214E+02 -0.19927155528E+02  0.50528888499E+02  0.30000087083E+02 0.  0.
        -12    1    1    2    0    0 -0.33402067799E+02  0.11847940214E+02  0.19927155528E+02  0.40659111501E+02  0.00000000000E+00 0.  1.
         11    1    3    3    0    0 -0.13643901332E+01  0.30163161037E+01 -0.42977182620E+01  0.54249521467E+01  0.51100000000E-03 0. -1.
        -11    1    3    3    0    0  0.26865834689E+02 -0.19117043304E+02 -0.97798509743E+01  0.34393021146E+02  0.51100000000E-03 0.  1.
         12    1    3    3    0    0  0.79006232433E+01  0.42527869860E+01 -0.58495862913E+01  0.10710915206E+02  0.00000000000E+00 0. -1.
</event>
<event>
 7    1  0.5068291E-011  0.5052886E+02  0.7816164E-02  0.1300439E+00
        -11   -1    0    0    0    0  0.00000000000E+00  0.00000000000E+00  0.45593999997E+02  0.45594000000E+02  0.51100000000E-03 0. -1.
         11   -1    0    0    0    0 -0.00000000000E+00 -0.00000000000E+00 -0.45593999997E+02  0.45594000000E+02  0.51100000000E-03 0.  1.
    9900012    2    1    2    0    0 -0.24053286295E+02  0.28014379034E+01  0.32661247059E+02  0.50528859633E+02  0.29999999340E+02 0.  0.
        -12    1    1    2    0    0  0.24053286295E+02 -0.28014379034E+01 -0.32661247059E+02  0.40659140367E+02  0.00000000000E+00 0.  1.
         11    1    3    3    0    0 -0.25749832404E+02  0.99450077243E+01  0.33027887846E+02  0.43044145052E+02  0.51100000000E-03 0. -1.
        -11    1    3    3    0    0  0.16231110945E+00 -0.15123215663E+01 -0.62045725286E+00  0.16426895264E+01  0.51100000000E-03 0.  1.
         12    1    3    3    0    0  0.15342349993E+01 -0.56312482546E+01  0.25381646644E+00  0.58420250544E+01  0.00000000000E+00 0. -1.
</event>
<event>
 7    1  0.5068291E-011  0.5052883E+02  0.7816164E-02  0.1300439E+00
        -11   -1    0    0    0    0  0.00000000000E+00  0.00000000000E+00  0.45593999997E+02  0.45594000000E+02  0.51100000000E-03 0.  1.
         11   -1    0    0    0    0 -0.00000000000E+00 -0.00000000000E+00 -0.45593999997E+02  0.45594000000E+02  0.51100000000E-03 0. -1.
    9900012    2    1    2    0    0 -0.40041509337E+02 -0.60935023955E+01  0.35657564717E+01  0.50528833006E+02  0.29999918406E+02 0.  0.
        -12    1    1    2    0    0  0.40041509337E+02  0.60935023955E+01 -0.35657564717E+01  0.40659166994E+02  0.00000000000E+00 0.  1.
         11    1    3    3    0    0  0.58236070062E+00 -0.82444407228E+01  0.87963395096E+00  0.83116606624E+01  0.51100000000E-03 0. -1.
        -11    1    3    3    0    0 -0.54343410673E+01  0.39031315176E+01 -0.11022533739E+01  0.67809631499E+01  0.51100000000E-03 0.  1.
         12    1    3    3    0    0 -0.35189528970E+02 -0.17521931903E+01  0.37883758946E+01  0.35436209194E+02  0.00000000000E+00 0. -1.
</event>
<event>
 7    1  0.5068291E-011  0.5052886E+02  0.7816164E-02  0.1300439E+00
        -11   -1    0    0    0    0  0.00000000000E+00  0.00000000000E+00  0.45593999997E+02  0.45594000000E+02  0.51100000000E-03 0. -1.
         11   -1    0    0    0    0 -0.00000000000E+00 -0.00000000000E+00 -0.45593999997E+02  0.45594000000E+02  0.51100000000E-03 0.  1.
    9900012    2    1    2    0    0  0.11664924360E+02 -0.27641956012E+02  0.27441166895E+02  0.50528857940E+02  0.29999994194E+02 0.  0.
        -12    1    1    2    0    0 -0.11664924360E+02  0.27641956012E+02 -0.27441166895E+02  0.40659142060E+02  0.00000000000E+00 0.  1.
         11    1    3    3    0    0  0.39146320808E+01 -0.56235127895E+00  0.88739446508E+01  0.97153217762E+01  0.51100000000E-03 0. -1.
        -11    1    3    3    0    0  0.84212089445E+01 -0.31125177164E+02  0.16404332044E+02  0.36177279108E+02  0.51100000000E-03 0.  1.
        -12    1    3    3    0    0 -0.67091666497E+00  0.40455724313E+01  0.21628902002E+01  0.46362570557E+01  0.00000000000E+00 0.  1.
</event>
<event>
 7    1  0.5068291E-011  0.5052886E+02  0.7816164E-02  0.1300439E+00
        -11   -1    0    0    0    0  0.00000000000E+00  0.00000000000E+00  0.45593999997E+02  0.45594000000E+02  0.51100000000E-03 0. -1.
         11   -1    0    0    0    0 -0.00000000000E+00 -0.00000000000E+00 -0.45593999997E+02  0.45594000000E+02  0.51100000000E-03 0.  1.
    9900012    2    1    2    0    0  0.24464577768E+02 -0.97894647685E+01  0.30964763053E+02  0.50528859125E+02  0.29999997795E+02 0.  0.
        -12    1    1    2    0    0 -0.24464577768E+02  0.97894647685E+01 -0.30964763053E+02  0.40659140875E+02  0.00000000000E+00 0.  1.
         11    1    3    3    0    0  0.10438011597E+02 -0.91160204091E+01  0.83169411555E+01  0.16162469633E+02  0.51100000000E-03 0. -1.
        -11    1    3    3    0    0  0.39182120380E+01  0.55209423467E+01  0.21400255154E+02  0.22445581099E+02  0.51100000000E-03 0.  1.
        -12    1    3    3    0    0  0.10108354133E+02 -0.61943867061E+01  0.12475667433E+01  0.11920808392E+02  0.00000000000E+00 0.  1.
</event>
<event>
 7    1  0.5068291E-011  0.5052885E+02  0.7816164E-02  0.1300439E+00
        -11   -1    0    0    0    0  0.00000000000E+00  0.00000000000E+00  0.45593999997E+02  0.45594000000E+02  0.51100000000E-03 0. -1.
         11   -1    0    0    0    0 -0.00000000000E+00 -0.00000000000E+00 -0.45593999997E+02  0.45594000000E+02  0.51100000000E-03 0.  1.
    9900012    2    1    2    0    0 -0.11052136190E+02 -0.38485919211E+02 -0.70605038796E+01  0.50528850883E+02  0.29999972745E+02 0.  0.
        -12    1    1    2    0    0  0.11052136190E+02  0.38485919211E+02  0.70605038796E+01  0.40659149117E+02  0.00000000000E+00 0.  1.
         11    1    3    3    0    0 -0.65211824925E+01 -0.24259242275E+00  0.55734888736E+01  0.85818675514E+01  0.51100000000E-03 0. -1.
        -11    1    3    3    0    0 -0.80943962224E+00 -0.95909996463E+00 -0.30101618347E+01  0.32613095186E+01  0.51100000000E-03 0.  1.
         12    1    3    3    0    0 -0.37215140748E+01 -0.37284226824E+02 -0.96238309185E+01  0.38685673813E+02  0.00000000000E+00 0. -1.
</event>
<event>
 7    1  0.5068291E-011  0.5052886E+02  0.7816164E-02  0.1300439E+00
        -11   -1    0    0    0    0  0.00000000000E+00  0.00000000000E+00  0.45593999997E+02  0.45594000000E+02  0.51100000000E-03 0. -1.
         11   -1    0    0    0    0 -0.00000000000E+00 -0.00000000000E+00 -0.45593999997E+02  0.45594000000E+02  0.51100000000E-03 0.  1.
    9900012    2    1    2    0    0 -0.35152564605E+02 -0.19538614712E+02  0.59754298725E+01  0.50528855575E+02  0.29999987006E+02 0.  0.
        -12    1    1    2    0    0  0.35152564605E+02  0.19538614712E+02 -0.59754298725E+01  0.40659144425E+02  0.00000000000E+00 0.  1.
         11    1    3    3    0    0 -0.16328623822E+02 -0.15521501009E+02  0.11136463165E+02  0.25130892574E+02  0.51100000000E-03 0. -1.
        -11    1    3    3    0    0 -0.70157015531E+00 -0.36524597159E+01 -0.62133153716E+01  0.72414053074E+01  0.51100000000E-03 0.  1.
        -12    1    3    3    0    0 -0.18122370628E+02 -0.36465398726E+00  0.10522820794E+01  0.18156557693E+02  0.00000000000E+00 0.  1.
</event>
<event>
 7    1  0.5068291E-011  0.5052885E+02  0.7816164E-02  0.1300439E+00
        -11   -1    0    0    0    0  0.00000000000E+00  0.00000000000E+00  0.45593999997E+02  0.45594000000E+02  0.51100000000E-03 0.  1.
         11   -1    0    0    0    0 -0.00000000000E+00 -0.00000000000E+00 -0.45593999997E+02  0.45594000000E+02  0.51100000000E-03 0. -1.
    9900012    2    1    2    0    0  0.24347126766E+02 -0.12423960388E+02 -0.30100312059E+02  0.50528853925E+02  0.29999981991E+02 0.  0.
        -12    1    1    2    0    0 -0.24347126766E+02  0.12423960388E+02  0.30100312059E+02  0.40659146075E+02  0.00000000000E+00 0.  1.
         11    1    3    3    0    0  0.20360603649E+02 -0.54381735645E+01 -0.19138620777E+02  0.28467783865E+02  0.51100000000E-03 0. -1.
        -11    1    3    3    0    0 -0.44588460300E+01 -0.65263772627E+00 -0.10578034863E+02  0.11497915713E+02  0.51100000000E-03 0.  1.
        -12    1    3    3    0    0  0.84453691469E+01 -0.63331490971E+01 -0.38365641887E+00  0.10563154347E+02  0.00000000000E+00 0.  1.
</event>
<event>
 7    1  0.5068291E-011  0.5052887E+02  0.7816164E-02  0.1300439E+00
        -11   -1    0    0    0    0  0.00000000000E+00  0.00000000000E+00  0.45593999997E+02  0.45594000000E+02  0.51100000000E-03 0.  1.
         11   -1    0    0    0    0 -0.00000000000E+00 -0.00000000000E+00 -0.45593999997E+02  0.45594000000E+02  0.51100000000E-03 0. -1.
    9900012    2    1    2    0    0 -0.11405954542E+02 -0.36669691563E+02 -0.13356757523E+02  0.50528867571E+02  0.30000023469E+02 0.  0.
        -12    1    1    2    0    0  0.11405954542E+02  0.36669691563E+02  0.13356757523E+02  0.40659132429E+02  0.00000000000E+00 0.  1.
         11    1    3    3    0    0  0.38081066272E+01 -0.31463208143E+02 -0.61827809757E+01  0.32290275991E+02  0.51100000000E-03 0. -1.
        -11    1    3    3    0    0 -0.14388905944E+02 -0.49299283378E+01 -0.78688518140E+01  0.17124941951E+02  0.51100000000E-03 0.  1.
        -12    1    3    3    0    0 -0.82515522504E+00 -0.27655508273E+00  0.69487526717E+00  0.11136496290E+01  0.00000000000E+00 0.  1.
</event>
<event>
 7    1  0.5068291E-011  0.5052879E+02  0.7816164E-02  0.1300439E+00
        -11   -1    0    0    0    0  0.00000000000E+00  0.00000000000E+00  0.45593999997E+02  0.45594000000E+02  0.51100000000E-03 0. -1.
         11   -1    0    0    0    0 -0.00000000000E+00 -0.00000000000E+00 -0.45593999997E+02  0.45594000000E+02  0.51100000000E-03 0.  1.
    9900012    2    1    2    0    0 -0.37111392295E+02  0.34772272411E+01  0.16242691300E+02  0.50528787416E+02  0.29999779827E+02 0.  0.
        -12    1    1    2    0    0  0.37111392295E+02 -0.34772272411E+01 -0.16242691300E+02  0.40659212584E+02  0.00000000000E+00 0.  1.
         11    1    3    3    0    0 -0.22843644355E+02 -0.70431473439E+01  0.27667784523E+01  0.24064352789E+02  0.51100000000E-03 0. -1.
        -11    1    3    3    0    0 -0.11482142481E+02  0.64962897581E+01  0.16177056524E+02  0.20874351118E+02  0.51100000000E-03 0.  1.
        -12    1    3    3    0    0 -0.27856054585E+01  0.40240848269E+01 -0.27011436761E+01  0.55900835077E+01  0.00000000000E+00 0.  1.
</event>
<event>
 7    1  0.5068291E-011  0.5052886E+02  0.7816164E-02  0.1300439E+00
        -11   -1    0    0    0    0  0.00000000000E+00  0.00000000000E+00  0.45593999997E+02  0.45594000000E+02  0.51100000000E-03 0.  1.
         11   -1    0    0    0    0 -0.00000000000E+00 -0.00000000000E+00 -0.45593999997E+02  0.45594000000E+02  0.51100000000E-03 0. -1.
    9900012    2    1    2    0    0 -0.86850212898E+01 -0.11217005283E+02 -0.38104005320E+02  0.50528855595E+02  0.29999987067E+02 0.  0.
        -12    1    1    2    0    0  0.86850212898E+01  0.11217005283E+02  0.38104005320E+02  0.40659144405E+02  0.00000000000E+00 0.  1.
         11    1    3    3    0    0 -0.27732062338E+01 -0.40487835085E+01 -0.38048214053E+02  0.38363392884E+02  0.51100000000E-03 0. -1.
        -11    1    3    3    0    0  0.60446837862E+00 -0.48940093949E+01 -0.14170449331E+01  0.51307627681E+01  0.51100000000E-03 0.  1.
         12    1    3    3    0    0 -0.65162834346E+01 -0.22742123795E+01  0.13612536656E+01  0.70346999431E+01  0.00000000000E+00 0. -1.
</event>
<event>
 7    1  0.5068291E-011  0.5052886E+02  0.7816164E-02  0.1300439E+00
        -11   -1    0    0    0    0  0.00000000000E+00  0.00000000000E+00  0.45593999997E+02  0.45594000000E+02  0.51100000000E-03 0.  1.
         11   -1    0    0    0    0 -0.00000000000E+00 -0.00000000000E+00 -0.45593999997E+02  0.45594000000E+02  0.51100000000E-03 0. -1.
    9900012    2    1    2    0    0 -0.28870614168E+02 -0.30541046255E+01 -0.28466222553E+02  0.50528859036E+02  0.29999997525E+02 0.  0.
        -12    1    1    2    0    0  0.28870614168E+02  0.30541046255E+01  0.28466222553E+02  0.40659140964E+02  0.00000000000E+00 0.  1.
         11    1    3    3    0    0 -0.34608957909E+01 -0.54621315105E+01  0.39349547059E+01  0.75694484021E+01  0.51100000000E-03 0. -1.
        -11    1    3    3    0    0 -0.19257857393E+01  0.41067978109E+01 -0.38305682143E+01  0.59369766784E+01  0.51100000000E-03 0.  1.
         12    1    3    3    0    0 -0.23483932638E+02 -0.16987709260E+01 -0.28570609045E+02  0.37022433955E+02  0.00000000000E+00 0. -1.
</event>
<event>
 7    1  0.5068291E-011  0.5052886E+02  0.7816164E-02  0.1300439E+00
        -11   -1    0    0    0    0  0.00000000000E+00  0.00000000000E+00  0.45593999997E+02  0.45594000000E+02  0.51100000000E-03 0.  1.
         11   -1    0    0    0    0 -0.00000000000E+00 -0.00000000000E+00 -0.45593999997E+02  0.45594000000E+02  0.51100000000E-03 0. -1.
    9900012    2    1    2    0    0 -0.90022428552E+01  0.36448284301E+02 -0.15609226925E+02  0.50528858714E+02  0.29999996547E+02 0.  0.
        -12    1    1    2    0    0  0.90022428552E+01 -0.36448284301E+02  0.15609226925E+02  0.40659141286E+02  0.00000000000E+00 0.  1.
         11    1    3    3    0    0 -0.40729699099E+01  0.18950768384E+02 -0.21271715315E+02  0.28778578473E+02  0.51100000000E-03 0. -1.
        -11    1    3    3    0    0 -0.71699522629E+01  0.13051822030E+02  0.99292180219E+00  0.14924616166E+02  0.51100000000E-03 0.  1.
         12    1    3    3    0    0  0.22406793176E+01  0.44456938874E+01  0.46695665876E+01  0.68256640747E+01  0.00000000000E+00 0. -1.
</event>
<event>
 7    1  0.5068291E-011  0.5052887E+02  0.7816164E-02  0.1300439E+00
        -11   -1    0    0    0    0  0.00000000000E+00  0.00000000000E+00  0.45593999997E+02  0.45594000000E+02  0.51100000000E-03 0.  1.
         11   -1    0    0    0    0 -0.00000000000E+00 -0.00000000000E+00 -0.45593999997E+02  0.45594000000E+02  0.51100000000E-03 0. -1.
    9900012    2    1    2    0    0  0.27323960679E+02  0.14625675040E+02 -0.26318352547E+02  0.50528869680E+02  0.30000029880E+02 0.  0.
        -12    1    1    2    0    0 -0.27323960679E+02 -0.14625675040E+02  0.26318352547E+02  0.40659130320E+02  0.00000000000E+00 0.  1.
         11    1    3    3    0    0  0.14167666964E+02 -0.16090791259E+01 -0.13307344643E+02  0.19503777699E+02  0.51100000000E-03 0. -1.
        -11    1    3    3    0    0  0.21919935487E+01  0.14368172307E+02 -0.87085032655E+00  0.14560480477E+02  0.51100000000E-03 0.  1.
        -12    1    3    3    0    0  0.10964300167E+02  0.18665818582E+01 -0.12140157578E+02  0.16464611505E+02  0.00000000000E+00 0.  1.
</event>
<event>
 7    1  0.5068291E-011  0.5052888E+02  0.7816164E-02  0.1300439E+00
        -11   -1    0    0    0    0  0.00000000000E+00  0.00000000000E+00  0.45593999997E+02  0.45594000000E+02  0.51100000000E-03 0. -1.
         11   -1    0    0    0    0 -0.00000000000E+00 -0.00000000000E+00 -0.45593999997E+02  0.45594000000E+02  0.51100000000E-03 0.  1.
    9900012    2    1    2    0    0  0.40595956067E+02  0.18745077937E+01 -0.12723395837E+01  0.50528877082E+02  0.30000052378E+02 0.  0.
        -12    1    1    2    0    0 -0.40595956067E+02 -0.18745077937E+01  0.12723395837E+01  0.40659122918E+02  0.00000000000E+00 0.  1.
         11    1    3    3    0    0  0.29903461152E+02 -0.29602420932E+01 -0.49682245080E+01  0.30457565188E+02  0.51100000000E-03 0. -1.
        -11    1    3    3    0    0  0.26407104761E+01  0.81509879858E+01  0.66819846639E+01  0.10865582188E+02  0.51100000000E-03 0.  1.
        -12    1    3    3    0    0  0.80517844388E+01 -0.33162380990E+01 -0.29860997396E+01  0.92057297067E+01  0.00000000000E+00 0.  1.
</event>
<event>
 7    1  0.5068291E-011  0.5052886E+02  0.7816164E-02  0.1300439E+00
        -11   -1    0    0    0    0  0.00000000000E+00  0.00000000000E+00  0.45593999997E+02  0.45594000000E+02  0.51100000000E-03 0. -1.
         11   -1    0    0    0    0 -0.00000000000E+00 -0.00000000000E+00 -0.45593999997E+02  0.45594000000E+02  0.51100000000E-03 0.  1.
    9900012    2    1    2    0    0  0.45369141114E+01 -0.34601079126E+02  0.20864980884E+02  0.50528859655E+02  0.29999999407E+02 0.  0.
        -12    1    1    2    0    0 -0.45369141114E+01  0.34601079126E+02 -0.20864980884E+02  0.40659140345E+02  0.00000000000E+00 0.  1.
         11    1    3    3    0    0  0.12142331172E+00 -0.34741942172E+02  0.20125346631E+02  0.40150303446E+02  0.51100000000E-03 0. -1.
        -11    1    3    3    0    0  0.47652029260E+01  0.27710313079E+01 -0.26152478855E+01  0.61012535761E+01  0.51100000000E-03 0.  1.
        -12    1    3    3    0    0 -0.34971212636E+00 -0.26301682616E+01  0.33548821378E+01  0.42773026330E+01  0.00000000000E+00 0.  1.
</event>
<event>
 7    1  0.5068291E-011  0.5052887E+02  0.7816164E-02  0.1300439E+00
        -11   -1    0    0    0    0  0.00000000000E+00  0.00000000000E+00  0.45593999997E+02  0.45594000000E+02  0.51100000000E-03 0.  1.
         11   -1    0    0    0    0 -0.00000000000E+00 -0.00000000000E+00 -0.45593999997E+02  0.45594000000E+02  0.51100000000E-03 0. -1.
    9900012    2    1    2    0    0  0.10373152974E+02 -0.42527949305E+01  0.39082945410E+02  0.50528865857E+02  0.30000018258E+02 0.  0.
        -12    1    1    2    0    0 -0.10373152974E+02  0.42527949305E+01 -0.39082945410E+02  0.40659134143E+02  0.00000000000E+00 0.  1.
         11    1    3    3    0    0 -0.20326974596E+01  0.41731711685E+01 -0.19639903452E+01  0.50402852004E+01  0.51100000000E-03 0. -1.
        -11    1    3    3    0    0  0.31061075430E+01 -0.47650579012E+01  0.30233232723E+02  0.30763648061E+02  0.51100000000E-03 0.  1.
        -12    1    3    3    0    0  0.92997428910E+01 -0.36609081978E+01  0.10813703032E+02  0.14724932596E+02  0.00000000000E+00 0.  1.
</event>
<event>
 7    1  0.5068291E-011  0.5052885E+02  0.7816164E-02  0.1300439E+00
        -11   -1    0    0    0    0  0.00000000000E+00  0.00000000000E+00  0.45593999997E+02  0.45594000000E+02  0.51100000000E-03 0.  1.
         11   -1    0    0    0    0 -0.00000000000E+00 -0.00000000000E+00 -0.45593999997E+02  0.45594000000E+02  0.51100000000E-03 0. -1.
    9900012    2    1    2    0    0 -0.29723404329E+02  0.27257732660E+02 -0.51673377325E+01  0.50528854240E+02  0.29999982949E+02 0.  0.
        -12    1    1    2    0    0  0.29723404329E+02 -0.27257732660E+02  0.51673377325E+01  0.40659145760E+02  0.00000000000E+00 0.  1.
         11    1    3    3    0    0 -0.32612041653E+02  0.20735894303E+02 -0.10872536098E+02  0.40146414718E+02  0.51100000000E-03 0. -1.
        -11    1    3    3    0    0  0.33593580049E+01  0.40332340435E+01  0.14755723373E+01  0.54524835661E+01  0.51100000000E-03 0.  1.
         12    1    3    3    0    0 -0.47072068129E+00  0.24886043137E+01  0.42296260280E+01  0.49299559558E+01  0.00000000000E+00 0. -1.
</event>
<event>
 7    1  0.5068291E-011  0.5052883E+02  0.7816164E-02  0.1300439E+00
        -11   -1    0    0    0    0  0.00000000000E+00  0.00000000000E+00  0.45593999997E+02  0.45594000000E+02  0.51100000000E-03 0.  1.
         11   -1    0    0    0    0 -0.00000000000E+00 -0.00000000000E+00 -0.45593999997E+02  0.45594000000E+02  0.51100000000E-03 0. -1.
    9900012    2    1    2    0    0 -0.33867840067E+02 -0.22497502270E+02  0.11813078830E-01  0.50528827126E+02  0.29999900533E+02 0.  0.
        -12    1    1    2    0    0  0.33867840067E+02  0.22497502270E+02 -0.11813078830E-01  0.40659172874E+02  0.00000000000E+00 0.  1.
         11    1    3    3    0    0 -0.53606457043E+01 -0.17935860257E+02  0.24976846212E+01  0.18885709789E+02  0.51100000000E-03 0. -1.
        -11    1    3    3    0    0 -0.76653250002E+01 -0.30128429337E+01 -0.63369971767E+01  0.10391918176E+02  0.51100000000E-03 0.  1.
         12    1    3    3    0    0 -0.20841869363E+02 -0.15487990799E+01  0.38511256343E+01  0.21251199161E+02  0.00000000000E+00 0. -1.
</event>
<event>
 7    1  0.5068291E-011  0.5052886E+02  0.7816164E-02  0.1300439E+00
        -11   -1    0    0    0    0  0.00000000000E+00  0.00000000000E+00  0.45593999997E+02  0.45594000000E+02  0.51100000000E-03 0.  1.
         11   -1    0    0    0    0 -0.00000000000E+00 -0.00000000000E+00 -0.45593999997E+02  0.45594000000E+02  0.51100000000E-03 0. -1.
    9900012    2    1    2    0    0 -0.30647889995E+02  0.19344761938E+02 -0.18429666491E+02  0.50528861021E+02  0.30000003558E+02 0.  0.
        -12    1    1    2    0    0  0.30647889995E+02 -0.19344761938E+02  0.18429666491E+02  0.40659138979E+02  0.00000000000E+00 0.  1.
         11    1    3    3    0    0 -0.22840404949E+01  0.97661110024E+01 -0.56860143334E+01  0.11529289846E+02  0.51100000000E-03 0.  1.
        -11    1    3    3    0    0 -0.30635266742E+02  0.98259520305E+01 -0.15253647894E+02  0.35605374257E+02  0.51100000000E-03 0. -1.
        -12    1    3    3    0    0  0.22714172415E+01 -0.24730109538E+00  0.25099957366E+01  0.33941969175E+01  0.00000000000E+00 0.  1.
</event>
<event>
 7    1  0.5068291E-011  0.5052886E+02  0.7816164E-02  0.1300439E+00
        -11   -1    0    0    0    0  0.00000000000E+00  0.00000000000E+00  0.45593999997E+02  0.45594000000E+02  0.51100000000E-03 0.  1.
         11   -1    0    0    0    0 -0.00000000000E+00 -0.00000000000E+00 -0.45593999997E+02  0.45594000000E+02  0.51100000000E-03 0. -1.
    9900012    2    1    2    0    0 -0.13104686401E+02  0.92949306219E+01 -0.37350192053E+02  0.50528863421E+02  0.30000010854E+02 0.  0.
        -12    1    1    2    0    0  0.13104686401E+02 -0.92949306219E+01  0.37350192053E+02  0.40659136579E+02  0.00000000000E+00 0.  1.
         11    1    3    3    0    0 -0.80425042508E+01  0.13350271416E+02 -0.34633852374E+02  0.37979143645E+02  0.51100000000E-03 0. -1.
        -11    1    3    3    0    0 -0.76726142621E+01 -0.54310933379E+00 -0.27640663558E+01  0.81733738715E+01  0.51100000000E-03 0.  1.
         12    1    3    3    0    0  0.26104321118E+01 -0.35122314599E+01  0.47726676318E-01  0.43763459043E+01  0.00000000000E+00 0. -1.
</event>
<event>
 7    1  0.5068291E-011  0.5052886E+02  0.7816164E-02  0.1300439E+00
        -11   -1    0    0    0    0  0.00000000000E+00  0.00000000000E+00  0.45593999997E+02  0.45594000000E+02  0.51100000000E-03 0. -1.
         11   -1    0    0    0    0 -0.00000000000E+00 -0.00000000000E+00 -0.45593999997E+02  0.45594000000E+02  0.51100000000E-03 0.  1.
    9900012    2    1    2    0    0  0.34365387613E+02  0.26356678294E+01  0.21569403404E+02  0.50528858668E+02  0.29999996406E+02 0.  0.
        -12    1    1    2    0    0 -0.34365387613E+02 -0.26356678294E+01 -0.21569403404E+02  0.40659141332E+02  0.00000000000E+00 0.  1.
         11    1    3    3    0    0  0.24088163610E+02 -0.83232910608E+00  0.63548504831E+01  0.24926221590E+02  0.51100000000E-03 0. -1.
        -11    1    3    3    0    0 -0.25459266771E+01 -0.37105276694E+01  0.81210977583E+01  0.92845025333E+01  0.51100000000E-03 0.  1.
        -12    1    3    3    0    0  0.12823150680E+02  0.71785246048E+01  0.70934551622E+01  0.16318134544E+02  0.00000000000E+00 0.  1.
</event>
<event>
 7    1  0.5068291E-011  0.5052883E+02  0.7816164E-02  0.1300439E+00
        -11   -1    0    0    0    0  0.00000000000E+00  0.00000000000E+00  0.45593999997E+02  0.45594000000E+02  0.51100000000E-03 0.  1.
         11   -1    0    0    0    0 -0.00000000000E+00 -0.00000000000E+00 -0.45593999997E+02  0.45594000000E+02  0.51100000000E-03 0. -1.
    9900012    2    1    2    0    0 -0.23593871585E+02  0.53852004904E+01 -0.32672573996E+02  0.50528828191E+02  0.29999903770E+02 0.  0.
        -12    1    1    2    0    0  0.23593871585E+02 -0.53852004904E+01  0.32672573996E+02  0.40659171809E+02  0.00000000000E+00 0.  1.
         11    1    3    3    0    0 -0.46134828149E+01  0.48623087741E+01 -0.15585672869E+02  0.16965832409E+02  0.51100000000E-03 0. -1.
        -11    1    3    3    0    0 -0.35870654159E+01 -0.40430353241E+01  0.42386908242E+01  0.68687461078E+01  0.51100000000E-03 0.  1.
        -12    1    3    3    0    0 -0.15393323354E+02  0.45659270403E+01 -0.21325591951E+02  0.26694249675E+02  0.00000000000E+00 0.  1.
</event>
<event>
 7    1  0.6281275E-011  0.5052886E+02  0.7816164E-02  0.1300439E+00
        -11   -1    0    0    0    0  0.00000000000E+00  0.00000000000E+00  0.45593999997E+02  0.45594000000E+02  0.51100000000E-03 0.  1.
         11   -1    0    0    0    0 -0.00000000000E+00 -0.00000000000E+00 -0.45593999997E+02  0.45594000000E+02  0.51100000000E-03 0. -1.
    9900012    2    1    2    0    0 -0.21112275419E+02  0.21626946053E+02 -0.27197666623E+02  0.50528855411E+02  0.29999986507E+02 0.  0.
        -12    1    1    2    0    0  0.21112275419E+02 -0.21626946053E+02  0.27197666623E+02  0.40659144589E+02  0.00000000000E+00 0.  1.
         11    1    3    3    0    0 -0.11392630771E+02  0.15120072043E+02 -0.24145549060E+02  0.30682505669E+02  0.51100000000E-03 0. -1.
        -11    1    3    3    0    0  0.11456919222E+01 -0.41961477341E+01 -0.92724183771E+00  0.44474760790E+01  0.51100000000E-03 0.  1.
         12    1    3    3    0    0 -0.10865336570E+02  0.10703021744E+02 -0.21248757260E+01  0.15398873663E+02  0.00000000000E+00 0. -1.
</event>
<event>
 7    1  0.5068291E-011  0.5052890E+02  0.7816164E-02  0.1300439E+00
        -11   -1    0    0    0    0  0.00000000000E+00  0.00000000000E+00  0.45593999997E+02  0.45594000000E+02  0.51100000000E-03 0.  1.
         11   -1    0    0    0    0 -0.00000000000E+00 -0.00000000000E+00 -0.45593999997E+02  0.45594000000E+02  0.51100000000E-03 0. -1.
    9900012    2    1    2    0    0 -0.17981481156E+02  0.33887386348E+02 -0.13471235397E+02  0.50528895225E+02  0.30000107524E+02 0.  0.
        -12    1    1    2    0    0  0.17981481156E+02 -0.33887386348E+02  0.13471235397E+02  0.40659104775E+02  0.00000000000E+00 0.  1.
         11    1    3    3    0    0 -0.92848975780E+00  0.78113013778E+01 -0.43388443417E+01  0.89835456769E+01  0.51100000000E-03 0. -1.
        -11    1    3    3    0    0 -0.20589029619E+02  0.22100835474E+02  0.86809614034E+00  0.30217687874E+02  0.51100000000E-03 0.  1.
        -12    1    3    3    0    0  0.35360382208E+01  0.39752494963E+01 -0.10000487195E+02  0.11327661674E+02  0.00000000000E+00 0.  1.
</event>
<event>
 7    1  0.5068291E-011  0.5052886E+02  0.7816164E-02  0.1300439E+00
        -11   -1    0    0    0    0  0.00000000000E+00  0.00000000000E+00  0.45593999997E+02  0.45594000000E+02  0.51100000000E-03 0. -1.
         11   -1    0    0    0    0 -0.00000000000E+00 -0.00000000000E+00 -0.45593999997E+02  0.45594000000E+02  0.51100000000E-03 0.  1.
    9900012    2    1    2    0    0  0.37688427878E+02 -0.14373270130E+02  0.51144257189E+01  0.50528857847E+02  0.29999993913E+02 0.  0.
        -12    1    1    2    0    0 -0.37688427878E+02  0.14373270130E+02 -0.51144257189E+01  0.40659142153E+02  0.00000000000E+00 0.  1.
         11    1    3    3    0    0  0.14229124143E+02  0.34576472132E+01 -0.53725651557E+01  0.15597684275E+02  0.51100000000E-03 0. -1.
        -11    1    3    3    0    0  0.14478221383E+01 -0.59259475127E+01  0.75926644238E+01  0.97396917908E+01  0.51100000000E-03 0.  1.
         12    1    3    3    0    0  0.22011481597E+02 -0.11904969830E+02  0.28943264508E+01  0.25191481782E+02  0.00000000000E+00 0. -1.
</event>
<event>
 7    1  0.5068291E-011  0.5052888E+02  0.7816164E-02  0.1300439E+00
        -11   -1    0    0    0    0  0.00000000000E+00  0.00000000000E+00  0.45593999997E+02  0.45594000000E+02  0.51100000000E-03 0. -1.
         11   -1    0    0    0    0 -0.00000000000E+00 -0.00000000000E+00 -0.45593999997E+02  0.45594000000E+02  0.51100000000E-03 0.  1.
    9900012    2    1    2    0    0  0.17032311145E+01  0.18514953104E+02  0.36158808262E+02  0.50528881716E+02  0.30000066465E+02 0.  0.
        -12    1    1    2    0    0 -0.17032311145E+01 -0.18514953104E+02 -0.36158808262E+02  0.40659118284E+02  0.00000000000E+00 0.  1.
         11    1    3    3    0    0 -0.62704557035E+01  0.58300077652E+01  0.24009241664E+02  0.25490219513E+02  0.51100000000E-03 0. -1.
        -11    1    3    3    0    0  0.63792852514E+00  0.10115163947E+02 -0.54892699255E+00  0.10150114067E+02  0.51100000000E-03 0.  1.
        -12    1    3    3    0    0  0.73357582929E+01  0.25697813920E+01  0.12698493590E+02  0.14888548136E+02  0.00000000000E+00 0.  1.
</event>
<event>
 7    1  0.5068291E-011  0.5052884E+02  0.7816164E-02  0.1300439E+00
        -11   -1    0    0    0    0  0.00000000000E+00  0.00000000000E+00  0.45593999997E+02  0.45594000000E+02  0.51100000000E-03 0.  1.
         11   -1    0    0    0    0 -0.00000000000E+00 -0.00000000000E+00 -0.45593999997E+02  0.45594000000E+02  0.51100000000E-03 0. -1.
    9900012    2    1    2    0    0 -0.21855352722E+01 -0.40488399122E+02 -0.30133207635E+01  0.50528841992E+02  0.29999945719E+02 0.  0.
        -12    1    1    2    0    0  0.21855352722E+01  0.40488399122E+02  0.30133207635E+01  0.40659158008E+02  0.00000000000E+00 0.  1.
         11    1    3    3    0    0  0.84512151242E+01 -0.24394266663E+02 -0.67089523261E+01  0.26674207105E+02  0.51100000000E-03 0. -1.
        -11    1    3    3    0    0 -0.42856536128E+01 -0.73794957513E+01  0.85042720254E+01  0.12047673110E+02  0.51100000000E-03 0.  1.
         12    1    3    3    0    0 -0.63510967836E+01 -0.87146367080E+01 -0.48086404628E+01  0.11806961777E+02  0.00000000000E+00 0. -1.
</event>
<event>
 7    1  0.5068291E-011  0.5052886E+02  0.7816164E-02  0.1300439E+00
        -11   -1    0    0    0    0  0.00000000000E+00  0.00000000000E+00  0.45593999997E+02  0.45594000000E+02  0.51100000000E-03 0.  1.
         11   -1    0    0    0    0 -0.00000000000E+00 -0.00000000000E+00 -0.45593999997E+02  0.45594000000E+02  0.51100000000E-03 0. -1.
    9900012    2    1    2    0    0 -0.24106343251E+02  0.30506007331E+02 -0.11892575062E+02  0.50528860685E+02  0.30000002539E+02 0.  0.
        -12    1    1    2    0    0  0.24106343251E+02 -0.30506007331E+02  0.11892575062E+02  0.40659139315E+02  0.00000000000E+00 0.  1.
         11    1    3    3    0    0 -0.18914904927E+01  0.11464422959E+02  0.13443925704E+01  0.11696927875E+02  0.51100000000E-03 0.  1.
        -11    1    3    3    0    0 -0.17726407802E+02  0.97944611194E+00 -0.47575626843E+01  0.18379859935E+02  0.51100000000E-03 0. -1.
        -12    1    3    3    0    0 -0.44884449559E+01  0.18062138260E+02 -0.84794049483E+01  0.20452072876E+02  0.00000000000E+00 0.  1.
</event>
<event>
 7    1  0.5068291E-011  0.5052885E+02  0.7816164E-02  0.1300439E+00
        -11   -1    0    0    0    0  0.00000000000E+00  0.00000000000E+00  0.45593999997E+02  0.45594000000E+02  0.51100000000E-03 0. -1.
         11   -1    0    0    0    0 -0.00000000000E+00 -0.00000000000E+00 -0.45593999997E+02  0.45594000000E+02  0.51100000000E-03 0.  1.
    9900012    2    1    2    0    0 -0.22219573325E+02  0.24923483252E+02  0.23200794299E+02  0.50528852047E+02  0.29999976283E+02 0.  0.
        -12    1    1    2    0    0  0.22219573325E+02 -0.24923483252E+02 -0.23200794299E+02  0.40659147953E+02  0.00000000000E+00 0.  1.
         11    1    3    3    0    0 -0.15602752212E+02  0.20808437774E+01 -0.48224678716E+00  0.15748280847E+02  0.51100000000E-03 0. -1.
        -11    1    3    3    0    0 -0.15765370953E+01  0.34761782288E+01  0.95411953047E+01  0.10276365719E+02  0.51100000000E-03 0.  1.
         12    1    3    3    0    0 -0.50402840175E+01  0.19366461246E+02  0.14141845781E+02  0.24504205481E+02  0.00000000000E+00 0. -1.
</event>
<event>
 7    1  0.5068291E-011  0.5052886E+02  0.7816164E-02  0.1300439E+00
        -11   -1    0    0    0    0  0.00000000000E+00  0.00000000000E+00  0.45593999997E+02  0.45594000000E+02  0.51100000000E-03 0. -1.
         11   -1    0    0    0    0 -0.00000000000E+00 -0.00000000000E+00 -0.45593999997E+02  0.45594000000E+02  0.51100000000E-03 0.  1.
    9900012    2    1    2    0    0  0.80709961776E+01  0.35386453717E+02 -0.18325490135E+02  0.50528859888E+02  0.30000000116E+02 0.  0.
        -12    1    1    2    0    0 -0.80709961776E+01 -0.35386453717E+02  0.18325490135E+02  0.40659140112E+02  0.00000000000E+00 0.  1.
         11    1    3    3    0    0 -0.68654556159E+00 -0.69212455237E+00 -0.98251799841E+01  0.98734261118E+01  0.51100000000E-03 0. -1.
        -11    1    3    3    0    0 -0.18630271611E+01  0.16791839177E+02 -0.78466925836E+01  0.18628132433E+02  0.51100000000E-03 0.  1.
         12    1    3    3    0    0  0.10620568900E+02  0.19286739092E+02 -0.65361756739E+00  0.22027301344E+02  0.00000000000E+00 0. -1.
</event>
<event>
 7    1  0.5068291E-011  0.5052886E+02  0.7816164E-02  0.1300439E+00
        -11   -1    0    0    0    0  0.00000000000E+00  0.00000000000E+00  0.45593999997E+02  0.45594000000E+02  0.51100000000E-03 0.  1.
         11   -1    0    0    0    0 -0.00000000000E+00 -0.00000000000E+00 -0.45593999997E+02  0.45594000000E+02  0.51100000000E-03 0. -1.
    9900012    2    1    2    0    0 -0.19025467730E+02 -0.34653510869E+02 -0.95042752934E+01  0.50528862199E+02  0.30000007139E+02 0.  0.
        -12    1    1    2    0    0  0.19025467730E+02  0.34653510869E+02  0.95042752934E+01  0.40659137801E+02  0.00000000000E+00 0.  1.
         11    1    3    3    0    0 -0.27908918401E+01 -0.23501361295E+02 -0.13123056157E+02  0.27061368464E+02  0.51100000000E-03 0. -1.
        -11    1    3    3    0    0 -0.79828598899E+01 -0.87288368019E+01  0.75274612255E+01  0.14020745939E+02  0.51100000000E-03 0.  1.
         12    1    3    3    0    0 -0.82517159999E+01 -0.24233127720E+01 -0.39086803620E+01  0.94467477952E+01  0.00000000000E+00 0. -1.
</event>
<event>
 7    1  0.5068291E-011  0.5052887E+02  0.7816164E-02  0.1300439E+00
        -11   -1    0    0    0    0  0.00000000000E+00  0.00000000000E+00  0.45593999997E+02  0.45594000000E+02  0.51100000000E-03 0. -1.
         11   -1    0    0    0    0 -0.00000000000E+00 -0.00000000000E+00 -0.45593999997E+02  0.45594000000E+02  0.51100000000E-03 0.  1.
    9900012    2    1    2    0    0 -0.35340590394E+02 -0.19687040572E+02  0.40777412434E+01  0.50528869789E+02  0.30000030210E+02 0.  0.
        -12    1    1    2    0    0  0.35340590394E+02  0.19687040572E+02 -0.40777412434E+01  0.40659130211E+02  0.00000000000E+00 0.  1.
         11    1    3    3    0    0 -0.64415639418E+01 -0.13729668836E+02  0.16420517137E+01  0.15254307145E+02  0.51100000000E-03 0. -1.
        -11    1    3    3    0    0 -0.31636198421E+02 -0.45477881066E+01  0.12833047511E+01  0.31987158338E+02  0.51100000000E-03 0.  1.
        -12    1    3    3    0    0  0.27371719688E+01 -0.14095836293E+01  0.11523847786E+01  0.32874043063E+01  0.00000000000E+00 0.  1.
</event>
<event>
 7    1  0.5068291E-011  0.5052886E+02  0.7816164E-02  0.1300439E+00
        -11   -1    0    0    0    0  0.00000000000E+00  0.00000000000E+00  0.45593999997E+02  0.45594000000E+02  0.51100000000E-03 0.  1.
         11   -1    0    0    0    0 -0.00000000000E+00 -0.00000000000E+00 -0.45593999997E+02  0.45594000000E+02  0.51100000000E-03 0. -1.
    9900012    2    1    2    0    0  0.34042455686E+02 -0.21234333190E+02  0.65863215863E+01  0.50528864161E+02  0.30000013103E+02 0.  0.
        -12    1    1    2    0    0 -0.34042455686E+02  0.21234333190E+02 -0.65863215863E+01  0.40659135839E+02  0.00000000000E+00 0.  1.
         11    1    3    3    0    0  0.33634375447E+02 -0.11850344597E+02 -0.44259858386E+01  0.35934540900E+02  0.51100000000E-03 0. -1.
        -11    1    3    3    0    0 -0.52798165923E+00 -0.34332091823E+01  0.49576699494E+01  0.60534437728E+01  0.51100000000E-03 0.  1.
         12    1    3    3    0    0  0.93606189838E+00 -0.59507794109E+01  0.60546374754E+01  0.85408794883E+01  0.00000000000E+00 0. -1.
</event>
<event>
 7    1  0.5068291E-011  0.5052886E+02  0.7816164E-02  0.1300439E+00
        -11   -1    0    0    0    0  0.00000000000E+00  0.00000000000E+00  0.45593999997E+02  0.45594000000E+02  0.51100000000E-03 0.  1.
         11   -1    0    0    0    0 -0.00000000000E+00 -0.00000000000E+00 -0.45593999997E+02  0.45594000000E+02  0.51100000000E-03 0. -1.
    9900012    2    1    2    0    0  0.29461999955E+02 -0.25515376481E+02 -0.11581111454E+02  0.50528855631E+02  0.29999987176E+02 0.  0.
        -12    1    1    2    0    0 -0.29461999955E+02  0.25515376481E+02  0.11581111454E+02  0.40659144369E+02  0.00000000000E+00 0.  1.
         11    1    3    3    0    0  0.13966459096E+02 -0.29438827580E+02 -0.82581368257E+01  0.33614035358E+02  0.51100000000E-03 0. -1.
        -11    1    3    3    0    0  0.12157974984E+02  0.14095166570E+01 -0.35082940551E+01  0.12732290460E+02  0.51100000000E-03 0.  1.
         12    1    3    3    0    0  0.33375658743E+01  0.25139344418E+01  0.18531942715E+00  0.41825298126E+01  0.00000000000E+00 0. -1.
</event>
<event>
 7    1  0.5068291E-011  0.5052886E+02  0.7816164E-02  0.1300439E+00
        -11   -1    0    0    0    0  0.00000000000E+00  0.00000000000E+00  0.45593999997E+02  0.45594000000E+02  0.51100000000E-03 0. -1.
         11   -1    0    0    0    0 -0.00000000000E+00 -0.00000000000E+00 -0.45593999997E+02  0.45594000000E+02  0.51100000000E-03 0.  1.
    9900012    2    1    2    0    0 -0.20043031021E+02  0.95845259767E+01  0.34052597943E+02  0.50528860100E+02  0.30000000761E+02 0.  0.
        -12    1    1    2    0    0  0.20043031021E+02 -0.95845259767E+01 -0.34052597943E+02  0.40659139900E+02  0.00000000000E+00 0.  1.
         11    1    3    3    0    0 -0.12518875030E+00 -0.34458980210E+01  0.46320159460E+00  0.34791437701E+01  0.51100000000E-03 0. -1.
        -11    1    3    3    0    0 -0.44214362529E+01  0.71498362258E+01  0.28495955699E+02  0.29710078224E+02  0.51100000000E-03 0.  1.
        -12    1    3    3    0    0 -0.15496406018E+02  0.58805877719E+01  0.50934406496E+01  0.17339638106E+02  0.00000000000E+00 0.  1.
</event>
<event>
 7    1  0.5068291E-011  0.5052886E+02  0.7816164E-02  0.1300439E+00
        -11   -1    0    0    0    0  0.00000000000E+00  0.00000000000E+00  0.45593999997E+02  0.45594000000E+02  0.51100000000E-03 0. -1.
         11   -1    0    0    0    0 -0.00000000000E+00 -0.00000000000E+00 -0.45593999997E+02  0.45594000000E+02  0.51100000000E-03 0.  1.
    9900012    2    1    2    0    0  0.24769686602E+00 -0.34620990255E+02  0.21318801919E+02  0.50528860373E+02  0.30000001589E+02 0.  0.
        -12    1    1    2    0    0 -0.24769686602E+00  0.34620990255E+02 -0.21318801919E+02  0.40659139627E+02  0.00000000000E+00 0.  1.
         11    1    3    3    0    0 -0.28779139692E+01 -0.26681132479E+02  0.78558145310E+01  0.27962100089E+02  0.51100000000E-03 0. -1.
        -11    1    3    3    0    0  0.92537764490E+01 -0.20805338129E+01  0.85378682691E+01  0.12761512228E+02  0.51100000000E-03 0.  1.
         12    1    3    3    0    0 -0.61281656138E+01 -0.58593239633E+01  0.49251191188E+01  0.98052480556E+01  0.00000000000E+00 0. -1.
</event>
<event>
 7    1  0.5068291E-011  0.5052886E+02  0.7816164E-02  0.1300439E+00
        -11   -1    0    0    0    0  0.00000000000E+00  0.00000000000E+00  0.45593999997E+02  0.45594000000E+02  0.51100000000E-03 0. -1.
         11   -1    0    0    0    0 -0.00000000000E+00 -0.00000000000E+00 -0.45593999997E+02  0.45594000000E+02  0.51100000000E-03 0.  1.
    9900012    2    1    2    0    0  0.11124736599E+02  0.35616262312E+02  0.16152032730E+02  0.50528855066E+02  0.29999985458E+02 0.  0.
        -12    1    1    2    0    0 -0.11124736599E+02 -0.35616262312E+02 -0.16152032730E+02  0.40659144934E+02  0.00000000000E+00 0.  1.
         11    1    3    3    0    0  0.14417231173E+02  0.12572873747E+02  0.94726316191E+01  0.21346298485E+02  0.51100000000E-03 0. -1.
        -11    1    3    3    0    0 -0.33401612878E+01  0.25336011281E+02  0.43665291241E+01  0.25925599741E+02  0.51100000000E-03 0.  1.
         12    1    3    3    0    0  0.47666713326E-01 -0.22926227156E+01  0.23128719868E+01  0.32569568402E+01  0.00000000000E+00 0. -1.
</event>
<event>
 7    1  0.5068291E-011  0.5052885E+02  0.7816164E-02  0.1300439E+00
        -11   -1    0    0    0    0  0.00000000000E+00  0.00000000000E+00  0.45593999997E+02  0.45594000000E+02  0.51100000000E-03 0.  1.
         11   -1    0    0    0    0 -0.00000000000E+00 -0.00000000000E+00 -0.45593999997E+02  0.45594000000E+02  0.51100000000E-03 0. -1.
    9900012    2    1    2    0    0 -0.37204285606E+02 -0.94154519106E+01 -0.13429703139E+02  0.50528849388E+02  0.29999968200E+02 0.  0.
        -12    1    1    2    0    0  0.37204285606E+02  0.94154519106E+01  0.13429703139E+02  0.40659150612E+02  0.00000000000E+00 0.  1.
         11    1    3    3    0    0 -0.21018930379E+02 -0.43810082541E+01  0.22046692215E+01  0.21583540818E+02  0.51100000000E-03 0. -1.
        -11    1    3    3    0    0  0.20120593512E+01  0.22783770220E+01 -0.67742927465E+01  0.74249866777E+01  0.51100000000E-03 0.  1.
        -12    1    3    3    0    0 -0.18197414578E+02 -0.73128206784E+01 -0.88600796137E+01  0.21520321892E+02  0.00000000000E+00 0.  1.
</event>
<event>
 7    1  0.5068291E-011  0.5052885E+02  0.7816164E-02  0.1300439E+00
        -11   -1    0    0    0    0  0.00000000000E+00  0.00000000000E+00  0.45593999997E+02  0.45594000000E+02  0.51100000000E-03 0. -1.
         11   -1    0    0    0    0 -0.00000000000E+00 -0.00000000000E+00 -0.45593999997E+02  0.45594000000E+02  0.51100000000E-03 0.  1.
    9900012    2    1    2    0    0 -0.20434628658E+02  0.33284854809E+02  0.11300911849E+02  0.50528853223E+02  0.29999979855E+02 0.  0.
        -12    1    1    2    0    0  0.20434628658E+02 -0.33284854809E+02 -0.11300911849E+02  0.40659146777E+02  0.00000000000E+00 0.  1.
         11    1    3    3    0    0 -0.87559405301E+01  0.59157498508E+01  0.26002560454E+01  0.10882275618E+02  0.51100000000E-03 0. -1.
        -11    1    3    3    0    0  0.31252172880E+00  0.26220181277E+02  0.32431250873E+01  0.26421836360E+02  0.51100000000E-03 0.  1.
        -12    1    3    3    0    0 -0.11991209857E+02  0.11489236805E+01  0.54575307164E+01  0.13224741244E+02  0.00000000000E+00 0.  1.
</event>
<event>
 7    1  0.5068291E-011  0.5052886E+02  0.7816164E-02  0.1300439E+00
        -11   -1    0    0    0    0  0.00000000000E+00  0.00000000000E+00  0.45593999997E+02  0.45594000000E+02  0.51100000000E-03 0.  1.
         11   -1    0    0    0    0 -0.00000000000E+00 -0.00000000000E+00 -0.45593999997E+02  0.45594000000E+02  0.51100000000E-03 0. -1.
    9900012    2    1    2    0    0  0.31713382229E+02 -0.25194810899E+02  0.35564375173E+01  0.50528863800E+02  0.30000012007E+02 0.  0.
        -12    1    1    2    0    0 -0.31713382229E+02  0.25194810899E+02 -0.35564375173E+01  0.40659136200E+02  0.00000000000E+00 0.  1.
         11    1    3    3    0    0  0.22857561542E+01  0.37153322991E+01  0.65176078015E+01  0.78426772855E+01  0.51100000000E-03 0.  1.
        -11    1    3    3    0    0  0.26329608916E+02 -0.20441918752E+02 -0.49199316295E+00  0.33337102536E+02  0.51100000000E-03 0. -1.
        -12    1    3    3    0    0  0.30980171590E+01 -0.84682244462E+01 -0.24691771212E+01  0.93490839789E+01  0.00000000000E+00 0.  1.
</event>
<event>
 7    1  0.5068291E-011  0.5052887E+02  0.7816164E-02  0.1300439E+00
        -11   -1    0    0    0    0  0.00000000000E+00  0.00000000000E+00  0.45593999997E+02  0.45594000000E+02  0.51100000000E-03 0. -1.
         11   -1    0    0    0    0 -0.00000000000E+00 -0.00000000000E+00 -0.45593999997E+02  0.45594000000E+02  0.51100000000E-03 0.  1.
    9900012    2    1    2    0    0 -0.19407577077E+02  0.22390806900E+02  0.27841745956E+02  0.50528866960E+02  0.30000021612E+02 0.  0.
        -12    1    1    2    0    0  0.19407577077E+02 -0.22390806900E+02 -0.27841745956E+02  0.40659133040E+02  0.00000000000E+00 0.  1.
         11    1    3    3    0    0 -0.33267335087E+01 -0.35917070920E+01  0.13442056532E+02  0.14305816990E+02  0.51100000000E-03 0. -1.
        -11    1    3    3    0    0 -0.15595784887E+02  0.27214065119E+02  0.15001611425E+02  0.34768983191E+02  0.51100000000E-03 0.  1.
         12    1    3    3    0    0 -0.48505868175E+00 -0.12315511269E+01 -0.60192200084E+00  0.14540667791E+01  0.00000000000E+00 0. -1.
</event>
<event>
 7    1  0.5068291E-011  0.5052881E+02  0.7816164E-02  0.1300439E+00
        -11   -1    0    0    0    0  0.00000000000E+00  0.00000000000E+00  0.45593999997E+02  0.45594000000E+02  0.51100000000E-03 0. -1.
         11   -1    0    0    0    0 -0.00000000000E+00 -0.00000000000E+00 -0.45593999997E+02  0.45594000000E+02  0.51100000000E-03 0.  1.
    9900012    2    1    2    0    0  0.36069764457E+02  0.87991137656E+01 -0.16574598265E+02  0.50528811387E+02  0.29999852692E+02 0.  0.
        -12    1    1    2    0    0 -0.36069764457E+02 -0.87991137656E+01  0.16574598265E+02  0.40659188613E+02  0.00000000000E+00 0.  1.
         11    1    3    3    0    0  0.21319515983E+02  0.12743210500E+01  0.10922405387E+01  0.21385477445E+02  0.51100000000E-03 0. -1.
        -11    1    3    3    0    0  0.35679312628E+01 -0.23596462521E+01 -0.12720280674E+02  0.13420268425E+02  0.51100000000E-03 0.  1.
         12    1    3    3    0    0  0.11182317211E+02  0.98844389677E+01 -0.49465581295E+01  0.15723065517E+02  0.00000000000E+00 0. -1.
</event>
<event>
 7    1  0.5068291E-011  0.5052886E+02  0.7816164E-02  0.1300439E+00
        -11   -1    0    0    0    0  0.00000000000E+00  0.00000000000E+00  0.45593999997E+02  0.45594000000E+02  0.51100000000E-03 0. -1.
         11   -1    0    0    0    0 -0.00000000000E+00 -0.00000000000E+00 -0.45593999997E+02  0.45594000000E+02  0.51100000000E-03 0.  1.
    9900012    2    1    2    0    0 -0.40110514092E+00  0.31917560498E+02  0.25184802780E+02  0.50528857799E+02  0.29999993764E+02 0.  0.
        -12    1    1    2    0    0  0.40110514092E+00 -0.31917560498E+02 -0.25184802780E+02  0.40659142201E+02  0.00000000000E+00 0.  1.
         11    1    3    3    0    0  0.22507349590E+01  0.36149649351E+01  0.19642793058E+00  0.42629055268E+01  0.51100000000E-03 0. -1.
        -11    1    3    3    0    0 -0.21373194354E+01 -0.13846952044E+01  0.14583043771E+02  0.14803738753E+02  0.51100000000E-03 0.  1.
        -12    1    3    3    0    0 -0.51452066447E+00  0.29687290768E+02  0.10405331078E+02  0.31462213518E+02  0.00000000000E+00 0.  1.
</event>
<event>
 7    1  0.5068291E-011  0.5052888E+02  0.7816164E-02  0.1300439E+00
        -11   -1    0    0    0    0  0.00000000000E+00  0.00000000000E+00  0.45593999997E+02  0.45594000000E+02  0.51100000000E-03 0.  1.
         11   -1    0    0    0    0 -0.00000000000E+00 -0.00000000000E+00 -0.45593999997E+02  0.45594000000E+02  0.51100000000E-03 0. -1.
    9900012    2    1    2    0    0 -0.94474348025E+01  0.39467519930E+02  0.24949957125E+01  0.50528878546E+02  0.30000056829E+02 0.  0.
        -12    1    1    2    0    0  0.94474348025E+01 -0.39467519930E+02 -0.24949957125E+01  0.40659121454E+02  0.00000000000E+00 0.  1.
         11    1    3    3    0    0 -0.46818684585E+01  0.10778020541E+01 -0.44513573303E+01  0.65495138655E+01  0.51100000000E-03 0. -1.
        -11    1    3    3    0    0 -0.20488363570E+01  0.14140637517E+02  0.12466107827E+02  0.18962046419E+02  0.51100000000E-03 0.  1.
         12    1    3    3    0    0 -0.27167299870E+01  0.24249080360E+02 -0.55197547843E+01  0.25017318261E+02  0.00000000000E+00 0. -1.
</event>
<event>
 7    1  0.5068291E-011  0.5052886E+02  0.7816164E-02  0.1300439E+00
        -11   -1    0    0    0    0  0.00000000000E+00  0.00000000000E+00  0.45593999997E+02  0.45594000000E+02  0.51100000000E-03 0. -1.
         11   -1    0    0    0    0 -0.00000000000E+00 -0.00000000000E+00 -0.45593999997E+02  0.45594000000E+02  0.51100000000E-03 0.  1.
    9900012    2    1    2    0    0  0.61038624337E+01  0.14954127578E+02  0.37313300004E+02  0.50528862952E+02  0.30000009430E+02 0.  0.
        -12    1    1    2    0    0 -0.61038624337E+01 -0.14954127578E+02 -0.37313300004E+02  0.40659137048E+02  0.00000000000E+00 0.  1.
         11    1    3    3    0    0 -0.49196936969E+01  0.11832910594E+02  0.30498832768E+02  0.33081716396E+02  0.51100000000E-03 0. -1.
        -11    1    3    3    0    0  0.42539459306E+01 -0.42083823283E+01  0.35065058038E+01  0.69355692639E+01  0.51100000000E-03 0.  1.
         12    1    3    3    0    0  0.67696102000E+01  0.73295993123E+01  0.33079614324E+01  0.10511577293E+02  0.00000000000E+00 0. -1.
</event>
<event>
 7    1  0.5068291E-011  0.5052886E+02  0.7816164E-02  0.1300439E+00
        -11   -1    0    0    0    0  0.00000000000E+00  0.00000000000E+00  0.45593999997E+02  0.45594000000E+02  0.51100000000E-03 0.  1.
         11   -1    0    0    0    0 -0.00000000000E+00 -0.00000000000E+00 -0.45593999997E+02  0.45594000000E+02  0.51100000000E-03 0. -1.
    9900012    2    1    2    0    0 -0.37007701974E+02  0.15840930732E+02  0.57149274240E+01  0.50528862192E+02  0.30000007119E+02 0.  0.
        -12    1    1    2    0    0  0.37007701974E+02 -0.15840930732E+02 -0.57149274240E+01  0.40659137808E+02  0.00000000000E+00 0.  1.
         11    1    3    3    0    0 -0.11978334866E+02  0.11869291759E+02 -0.84194496465E+00  0.16884000255E+02  0.51100000000E-03 0. -1.
        -11    1    3    3    0    0 -0.17162477357E+02 -0.67414560350E+01 -0.79426584465E+00  0.18456129524E+02  0.51100000000E-03 0.  1.
        -12    1    3    3    0    0 -0.78668897504E+01  0.10713095009E+02  0.73511382333E+01  0.15188732414E+02  0.00000000000E+00 0.  1.
</event>
<event>
 7    1  0.5068291E-011  0.5052886E+02  0.7816164E-02  0.1300439E+00
        -11   -1    0    0    0    0  0.00000000000E+00  0.00000000000E+00  0.45593999997E+02  0.45594000000E+02  0.51100000000E-03 0.  1.
         11   -1    0    0    0    0 -0.00000000000E+00 -0.00000000000E+00 -0.45593999997E+02  0.45594000000E+02  0.51100000000E-03 0. -1.
    9900012    2    1    2    0    0  0.19017608131E+02  0.15739030318E+02 -0.32307575798E+02  0.50528856523E+02  0.29999989886E+02 0.  0.
        -12    1    1    2    0    0 -0.19017608131E+02 -0.15739030318E+02  0.32307575798E+02  0.40659143477E+02  0.00000000000E+00 0.  1.
         11    1    3    3    0    0  0.10933810766E+02  0.53995613939E+01  0.29577480782E+01  0.12547978127E+02  0.51100000000E-03 0. -1.
        -11    1    3    3    0    0  0.13351034724E+01  0.54849149866E+01 -0.11664488061E+02  0.12958667975E+02  0.51100000000E-03 0.  1.
         12    1    3    3    0    0  0.67486938924E+01  0.48545539375E+01 -0.23600835815E+02  0.25022210421E+02  0.00000000000E+00 0. -1.
</event>
<event>
 7    1  0.5068291E-011  0.5052887E+02  0.7816164E-02  0.1300439E+00
        -11   -1    0    0    0    0  0.00000000000E+00  0.00000000000E+00  0.45593999997E+02  0.45594000000E+02  0.51100000000E-03 0. -1.
         11   -1    0    0    0    0 -0.00000000000E+00 -0.00000000000E+00 -0.45593999997E+02  0.45594000000E+02  0.51100000000E-03 0.  1.
    9900012    2    1    2    0    0  0.40233601452E+02 -0.58612410320E+01  0.26080098058E+00  0.50528870037E+02  0.30000030964E+02 0.  0.
        -12    1    1    2    0    0 -0.40233601452E+02  0.58612410320E+01 -0.26080098058E+00  0.40659129963E+02  0.00000000000E+00 0.  1.
         11    1    3    3    0    0  0.16019940693E+02  0.14952428268E+01  0.13091749383E+02  0.20742906091E+02  0.51100000000E-03 0. -1.
        -11    1    3    3    0    0  0.76955132968E+01  0.15997535874E+01 -0.56078740479E+01  0.96554848682E+01  0.51100000000E-03 0.  1.
         12    1    3    3    0    0  0.16518147462E+02 -0.89562374462E+01 -0.72230743549E+01  0.20130479078E+02  0.00000000000E+00 0. -1.
</event>
<event>
 7    1  0.5068291E-011  0.5052885E+02  0.7816164E-02  0.1300439E+00
        -11   -1    0    0    0    0  0.00000000000E+00  0.00000000000E+00  0.45593999997E+02  0.45594000000E+02  0.51100000000E-03 0. -1.
         11   -1    0    0    0    0 -0.00000000000E+00 -0.00000000000E+00 -0.45593999997E+02  0.45594000000E+02  0.51100000000E-03 0.  1.
    9900012    2    1    2    0    0  0.23697392290E+02 -0.10698980817E+02  0.31259111608E+02  0.50528847889E+02  0.29999963643E+02 0.  0.
        -12    1    1    2    0    0 -0.23697392290E+02  0.10698980817E+02 -0.31259111608E+02  0.40659152111E+02  0.00000000000E+00 0.  1.
         11    1    3    3    0    0  0.17844769839E+02  0.79505553353E+01  0.12641813880E+02  0.23269348921E+02  0.51100000000E-03 0. -1.
        -11    1    3    3    0    0  0.54358466324E+01 -0.17923845372E+02  0.18636826999E+02  0.26422414394E+02  0.51100000000E-03 0.  1.
        -12    1    3    3    0    0  0.41677581848E+00 -0.72569078088E+00 -0.19529271575E-01  0.83708457444E+00  0.00000000000E+00 0.  1.
</event>
<event>
 7    1  0.5068291E-011  0.5052883E+02  0.7816164E-02  0.1300439E+00
        -11   -1    0    0    0    0  0.00000000000E+00  0.00000000000E+00  0.45593999997E+02  0.45594000000E+02  0.51100000000E-03 0.  1.
         11   -1    0    0    0    0 -0.00000000000E+00 -0.00000000000E+00 -0.45593999997E+02  0.45594000000E+02  0.51100000000E-03 0. -1.
    9900012    2    1    2    0    0 -0.23972540643E+02 -0.23813139276E+02 -0.22614597988E+02  0.50528826998E+02  0.29999900143E+02 0.  0.
        -12    1    1    2    0    0  0.23972540643E+02  0.23813139276E+02  0.22614597988E+02  0.40659173002E+02  0.00000000000E+00 0.  1.
         11    1    3    3    0    0 -0.22625063070E+02 -0.35436314553E+01 -0.55338271960E+01  0.23560009476E+02  0.51100000000E-03 0. -1.
        -11    1    3    3    0    0 -0.31489801468E+01 -0.13781780128E+02 -0.11587518835E+02  0.18279062680E+02  0.51100000000E-03 0.  1.
         12    1    3    3    0    0  0.18015025742E+01 -0.64877276933E+01 -0.54932519566E+01  0.86897548415E+01  0.00000000000E+00 0. -1.
</event>
<event>
 7    1  0.5068291E-011  0.5052885E+02  0.7816164E-02  0.1300439E+00
        -11   -1    0    0    0    0  0.00000000000E+00  0.00000000000E+00  0.45593999997E+02  0.45594000000E+02  0.51100000000E-03 0.  1.
         11   -1    0    0    0    0 -0.00000000000E+00 -0.00000000000E+00 -0.45593999997E+02  0.45594000000E+02  0.51100000000E-03 0. -1.
    9900012    2    1    2    0    0  0.16228238152E+02 -0.35902212387E+02  0.10042021023E+02  0.50528846615E+02  0.29999959771E+02 0.  0.
        -12    1    1    2    0    0 -0.16228238152E+02  0.35902212387E+02 -0.10042021023E+02  0.40659153385E+02  0.00000000000E+00 0.  1.
         11    1    3    3    0    0 -0.29528658851E+01 -0.22029058102E+01 -0.26183370963E+01  0.45197234821E+01  0.51100000000E-03 0. -1.
        -11    1    3    3    0    0  0.16535373702E+02 -0.24552176670E+02 -0.69203539909E+00  0.29609236329E+02  0.51100000000E-03 0.  1.
        -12    1    3    3    0    0  0.26457303345E+01 -0.91471299066E+01  0.13352393518E+02  0.16399886804E+02  0.00000000000E+00 0.  1.
</event>
<event>
 7    1  0.5068291E-011  0.5052886E+02  0.7816164E-02  0.1300439E+00
        -11   -1    0    0    0    0  0.00000000000E+00  0.00000000000E+00  0.45593999997E+02  0.45594000000E+02  0.51100000000E-03 0.  1.
         11   -1    0    0    0    0 -0.00000000000E+00 -0.00000000000E+00 -0.45593999997E+02  0.45594000000E+02  0.51100000000E-03 0. -1.
    9900012    2    1    2    0    0  0.48247719037E+01 -0.38741419776E+02 -0.11357350305E+02  0.50528862821E+02  0.30000009032E+02 0.  0.
        -12    1    1    2    0    0 -0.48247719037E+01  0.38741419776E+02  0.11357350305E+02  0.40659137179E+02  0.00000000000E+00 0.  1.
         11    1    3    3    0    0  0.69766500588E+01 -0.26029117153E+02 -0.12208065386E+02  0.29584209412E+02  0.51100000000E-03 0. -1.
        -11    1    3    3    0    0  0.68875871508E+00 -0.13391203129E+02  0.62592866790E+01  0.14797884302E+02  0.51100000000E-03 0.  1.
         12    1    3    3    0    0 -0.28406368702E+01  0.67890050663E+00 -0.54085715986E+01  0.61467691077E+01  0.00000000000E+00 0. -1.
</event>
<event>
 7    1  0.5068291E-011  0.5052886E+02  0.7816164E-02  0.1300439E+00
        -11   -1    0    0    0    0  0.00000000000E+00  0.00000000000E+00  0.45593999997E+02  0.45594000000E+02  0.51100000000E-03 0. -1.
         11   -1    0    0    0    0 -0.00000000000E+00 -0.00000000000E+00 -0.45593999997E+02  0.45594000000E+02  0.51100000000E-03 0.  1.
    9900012    2    1    2    0    0  0.54763033262E+01  0.32792712614E+02  0.23405416369E+02  0.50528863092E+02  0.30000009853E+02 0.  0.
        -12    1    1    2    0    0 -0.54763033262E+01 -0.32792712614E+02 -0.23405416369E+02  0.40659136908E+02  0.00000000000E+00 0.  1.
         11    1    3    3    0    0  0.92726756624E+01  0.14756693998E+02  0.22567924252E+02  0.28514097163E+02  0.51100000000E-03 0. -1.
        -11    1    3    3    0    0 -0.57131961641E+01  0.17655149774E+02  0.33242897038E+01  0.18851944893E+02  0.51100000000E-03 0.  1.
         12    1    3    3    0    0  0.19168238278E+01  0.38086884158E+00 -0.24867975872E+01  0.31628210352E+01  0.00000000000E+00 0. -1.
</event>
<event>
 7    1  0.5068291E-011  0.5052886E+02  0.7816164E-02  0.1300439E+00
        -11   -1    0    0    0    0  0.00000000000E+00  0.00000000000E+00  0.45593999997E+02  0.45594000000E+02  0.51100000000E-03 0.  1.
         11   -1    0    0    0    0 -0.00000000000E+00 -0.00000000000E+00 -0.45593999997E+02  0.45594000000E+02  0.51100000000E-03 0. -1.
    9900012    2    1    2    0    0 -0.17343829245E+02  0.19857799064E+02 -0.30951973825E+02  0.50528864738E+02  0.30000014859E+02 0.  0.
        -12    1    1    2    0    0  0.17343829245E+02 -0.19857799064E+02  0.30951973825E+02  0.40659135262E+02  0.00000000000E+00 0.  1.
         11    1    3    3    0    0 -0.12472729061E+02  0.11504453482E+02 -0.27610491863E+01  0.17191416842E+02  0.51100000000E-03 0. -1.
        -11    1    3    3    0    0  0.45510815516E+01  0.22452229785E+01 -0.15896744716E+02  0.16687116658E+02  0.51100000000E-03 0.  1.
        -12    1    3    3    0    0 -0.94221817358E+01  0.61081226031E+01 -0.12294179923E+02  0.16650331239E+02  0.00000000000E+00 0.  1.
</event>
<event>
 7    1  0.5068291E-011  0.5052886E+02  0.7816164E-02  0.1300439E+00
        -11   -1    0    0    0    0  0.00000000000E+00  0.00000000000E+00  0.45593999997E+02  0.45594000000E+02  0.51100000000E-03 0. -1.
         11   -1    0    0    0    0 -0.00000000000E+00 -0.00000000000E+00 -0.45593999997E+02  0.45594000000E+02  0.51100000000E-03 0.  1.
    9900012    2    1    2    0    0 -0.39534540284E+02 -0.58353409421E+01 -0.74922770148E+01  0.50528864566E+02  0.30000014335E+02 0.  0.
        -12    1    1    2    0    0  0.39534540284E+02  0.58353409421E+01  0.74922770148E+01  0.40659135434E+02  0.00000000000E+00 0.  1.
         11    1    3    3    0    0 -0.22602496674E+02 -0.58968292898E+01  0.53957595254E+01  0.23974145922E+02  0.51100000000E-03 0. -1.
        -11    1    3    3    0    0 -0.12698348339E+01 -0.61340229088E+01 -0.46726114591E+01  0.78148586462E+01  0.51100000000E-03 0.  1.
         12    1    3    3    0    0 -0.15662208777E+02  0.61955112565E+01 -0.82154250811E+01  0.18739859998E+02  0.00000000000E+00 0. -1.
</event>
<event>
 7    1  0.5068291E-011  0.5052886E+02  0.7816164E-02  0.1300439E+00
        -11   -1    0    0    0    0  0.00000000000E+00  0.00000000000E+00  0.45593999997E+02  0.45594000000E+02  0.51100000000E-03 0.  1.
         11   -1    0    0    0    0 -0.00000000000E+00 -0.00000000000E+00 -0.45593999997E+02  0.45594000000E+02  0.51100000000E-03 0. -1.
    9900012    2    1    2    0    0  0.40606669894E+02 -0.11938701759E+01  0.16848846109E+01  0.50528858321E+02  0.29999995353E+02 0.  0.
        -12    1    1    2    0    0 -0.40606669894E+02  0.11938701759E+01 -0.16848846109E+01  0.40659141679E+02  0.00000000000E+00 0.  1.
         11    1    3    3    0    0  0.16591022067E+02  0.10730291536E+01 -0.11407708788E+02  0.20163065859E+02  0.51100000000E-03 0. -1.
        -11    1    3    3    0    0  0.23729877317E+02 -0.50741392881E+01  0.10194058811E+02  0.26320577545E+02  0.51100000000E-03 0.  1.
        -12    1    3    3    0    0  0.28577051003E+00  0.28072399586E+01  0.28985345872E+01  0.40452149167E+01  0.00000000000E+00 0.  1.
</event>
<event>
 7    1  0.5068291E-011  0.5052887E+02  0.7816164E-02  0.1300439E+00
        -11   -1    0    0    0    0  0.00000000000E+00  0.00000000000E+00  0.45593999997E+02  0.45594000000E+02  0.51100000000E-03 0.  1.
         11   -1    0    0    0    0 -0.00000000000E+00 -0.00000000000E+00 -0.45593999997E+02  0.45594000000E+02  0.51100000000E-03 0. -1.
    9900012    2    1    2    0    0  0.63253040625E+01  0.22994955326E+02 -0.32930037762E+02  0.50528870288E+02  0.30000031727E+02 0.  0.
        -12    1    1    2    0    0 -0.63253040625E+01 -0.22994955326E+02  0.32930037762E+02  0.40659129712E+02  0.00000000000E+00 0.  1.
         11    1    3    3    0    0 -0.11383779427E+02  0.92491330216E+01 -0.11423955902E+02  0.18591494410E+02  0.51100000000E-03 0. -1.
        -11    1    3    3    0    0  0.40587895354E+01  0.70402073762E+01 -0.52418150185E+01  0.96703111295E+01  0.51100000000E-03 0.  1.
         12    1    3    3    0    0  0.13650293954E+02  0.67056149287E+01 -0.16264266842E+02  0.22267064748E+02  0.00000000000E+00 0. -1.
</event>
<event>
 7    1  0.5068291E-011  0.5052886E+02  0.7816164E-02  0.1300439E+00
        -11   -1    0    0    0    0  0.00000000000E+00  0.00000000000E+00  0.45593999997E+02  0.45594000000E+02  0.51100000000E-03 0.  1.
         11   -1    0    0    0    0 -0.00000000000E+00 -0.00000000000E+00 -0.45593999997E+02  0.45594000000E+02  0.51100000000E-03 0. -1.
    9900012    2    1    2    0    0 -0.39635465342E+02  0.88825302691E+01 -0.18156445641E+01  0.50528855616E+02  0.29999987129E+02 0.  0.
        -12    1    1    2    0    0  0.39635465342E+02 -0.88825302691E+01  0.18156445641E+01  0.40659144384E+02  0.00000000000E+00 0.  1.
         11    1    3    3    0    0 -0.18327490692E+02  0.11475192392E+02 -0.44010605747E+01  0.22066859540E+02  0.51100000000E-03 0. -1.
        -11    1    3    3    0    0  0.84361993861E+00 -0.39440748748E+01 -0.36182958669E+01  0.54184394857E+01  0.51100000000E-03 0.  1.
        -12    1    3    3    0    0 -0.22151594589E+02  0.13514127515E+01  0.62037118775E+01  0.23043556590E+02  0.00000000000E+00 0.  1.
</event>
<event>
 7    1  0.5068291E-011  0.5052886E+02  0.7816164E-02  0.1300439E+00
        -11   -1    0    0    0    0  0.00000000000E+00  0.00000000000E+00  0.45593999997E+02  0.45594000000E+02  0.51100000000E-03 0.  1.
         11   -1    0    0    0    0 -0.00000000000E+00 -0.00000000000E+00 -0.45593999997E+02  0.45594000000E+02  0.51100000000E-03 0. -1.
    9900012    2    1    2    0    0 -0.25130984273E+02 -0.57441414499E+01 -0.31442079626E+02  0.50528857084E+02  0.29999991591E+02 0.  0.
        -12    1    1    2    0    0  0.25130984273E+02  0.57441414499E+01  0.31442079626E+02  0.40659142916E+02  0.00000000000E+00 0.  1.
         11    1    3    3    0    0 -0.41822330367E+01 -0.43436902276E+01 -0.64725378585E+01  0.88460423104E+01  0.51100000000E-03 0. -1.
        -11    1    3    3    0    0 -0.75312309161E+01  0.11934372833E+02 -0.13674404610E+02  0.19650395307E+02  0.51100000000E-03 0.  1.
        -12    1    3    3    0    0 -0.13417520320E+02 -0.13334824055E+02 -0.11295137157E+02  0.22032419466E+02  0.00000000000E+00 0.  1.
</event>
<event>
 7    1  0.5068291E-011  0.5052885E+02  0.7816164E-02  0.1300439E+00
        -11   -1    0    0    0    0  0.00000000000E+00  0.00000000000E+00  0.45593999997E+02  0.45594000000E+02  0.51100000000E-03 0. -1.
         11   -1    0    0    0    0 -0.00000000000E+00 -0.00000000000E+00 -0.45593999997E+02  0.45594000000E+02  0.51100000000E-03 0.  1.
    9900012    2    1    2    0    0  0.35968490855E+00 -0.78050142560E+01  0.39901360572E+02  0.50528853473E+02  0.29999980617E+02 0.  0.
        -12    1    1    2    0    0 -0.35968490855E+00  0.78050142560E+01 -0.39901360572E+02  0.40659146527E+02  0.00000000000E+00 0.  1.
         11    1    3    3    0    0  0.66731963581E+01 -0.10296001372E+02  0.35782499843E+02  0.37827588995E+02  0.51100000000E-03 0. -1.
        -11    1    3    3    0    0  0.12205242734E+01  0.38696478064E+01  0.27987729822E+01  0.49291971065E+01  0.51100000000E-03 0.  1.
         12    1    3    3    0    0 -0.75340357230E+01 -0.13786606902E+01  0.13200877475E+01  0.77720673720E+01  0.00000000000E+00 0. -1.
</event>
<event>
 7    1  0.5068291E-011  0.5052886E+02  0.7816164E-02  0.1300439E+00
        -11   -1    0    0    0    0  0.00000000000E+00  0.00000000000E+00  0.45593999997E+02  0.45594000000E+02  0.51100000000E-03 0.  1.
         11   -1    0    0    0    0 -0.00000000000E+00 -0.00000000000E+00 -0.45593999997E+02  0.45594000000E+02  0.51100000000E-03 0. -1.
    9900012    2    1    2    0    0 -0.13510524293E+02  0.38272968509E+02 -0.24107251000E+01  0.50528856125E+02  0.29999988678E+02 0.  0.
        -12    1    1    2    0    0  0.13510524293E+02 -0.38272968509E+02  0.24107251000E+01  0.40659143875E+02  0.00000000000E+00 0.  1.
         11    1    3    3    0    0 -0.15879695182E+02  0.33981101898E+02  0.41866086053E+01  0.37741326118E+02  0.51100000000E-03 0. -1.
        -11    1    3    3    0    0  0.33692667115E+01  0.54197735736E+01 -0.38320919308E+00  0.63931802187E+01  0.51100000000E-03 0.  1.
        -12    1    3    3    0    0 -0.10000958226E+01 -0.11279069628E+01 -0.62141245122E+01  0.63943497890E+01  0.00000000000E+00 0.  1.
</event>
<event>
 7    1  0.5068291E-011  0.5052887E+02  0.7816164E-02  0.1300439E+00
        -11   -1    0    0    0    0  0.00000000000E+00  0.00000000000E+00  0.45593999997E+02  0.45594000000E+02  0.51100000000E-03 0.  1.
         11   -1    0    0    0    0 -0.00000000000E+00 -0.00000000000E+00 -0.45593999997E+02  0.45594000000E+02  0.51100000000E-03 0. -1.
    9900012    2    1    2    0    0  0.14725285994E+02 -0.11190061277E+02 -0.36209301846E+02  0.50528867457E+02  0.30000023121E+02 0.  0.
        -12    1    1    2    0    0 -0.14725285994E+02  0.11190061277E+02  0.36209301846E+02  0.40659132543E+02  0.00000000000E+00 0.  1.
         11    1    3    3    0    0  0.95750203366E+00 -0.86008839878E+01 -0.15187964562E+02  0.17480454322E+02  0.51100000000E-03 0. -1.
        -11    1    3    3    0    0  0.44028264418E+01  0.45852276436E+01  0.24231965836E+01  0.68030195622E+01  0.51100000000E-03 0.  1.
        -12    1    3    3    0    0  0.93649575183E+01 -0.71744049333E+01 -0.23444533868E+02  0.26245393572E+02  0.00000000000E+00 0.  1.
</event>
<event>
 7    1  0.5068291E-011  0.5052886E+02  0.7816164E-02  0.1300439E+00
        -11   -1    0    0    0    0  0.00000000000E+00  0.00000000000E+00  0.45593999997E+02  0.45594000000E+02  0.51100000000E-03 0. -1.
         11   -1    0    0    0    0 -0.00000000000E+00 -0.00000000000E+00 -0.45593999997E+02  0.45594000000E+02  0.51100000000E-03 0.  1.
    9900012    2    1    2    0    0  0.32679256192E+02  0.17791993767E+02  0.16391363917E+02  0.50528860332E+02  0.30000001466E+02 0.  0.
        -12    1    1    2    0    0 -0.32679256192E+02 -0.17791993767E+02 -0.16391363917E+02  0.40659139668E+02  0.00000000000E+00 0.  1.
         11    1    3    3    0    0  0.35066978847E+01 -0.38705257287E+01  0.34349208491E+01  0.62511263763E+01  0.51100000000E-03 0. -1.
        -11    1    3    3    0    0  0.27978880605E+02  0.15659949002E+02  0.24982696992E+01  0.32160427771E+02  0.51100000000E-03 0.  1.
        -12    1    3    3    0    0  0.11936777025E+01  0.60025704934E+01  0.10458173369E+02  0.12117306185E+02  0.00000000000E+00 0.  1.
</event>
<event>
 7    1  0.5068291E-011  0.5052886E+02  0.7816164E-02  0.1300439E+00
        -11   -1    0    0    0    0  0.00000000000E+00  0.00000000000E+00  0.45593999997E+02  0.45594000000E+02  0.51100000000E-03 0.  1.
         11   -1    0    0    0    0 -0.00000000000E+00 -0.00000000000E+00 -0.45593999997E+02  0.45594000000E+02  0.51100000000E-03 0. -1.
    9900012    2    1    2    0    0  0.18453795229E+02  0.59865966749E+01 -0.35732116369E+02  0.50528855416E+02  0.29999986522E+02 0.  0.
        -12    1    1    2    0    0 -0.18453795229E+02 -0.59865966749E+01  0.35732116369E+02  0.40659144584E+02  0.00000000000E+00 0.  1.
         11    1    3    3    0    0  0.17433504484E+02 -0.83353656991E+01 -0.25118159621E+02  0.31691124040E+02  0.51100000000E-03 0. -1.
        -11    1    3    3    0    0  0.12615634683E+01  0.12640515194E+02 -0.62555875030E+01  0.14160033264E+02  0.51100000000E-03 0.  1.
         12    1    3    3    0    0 -0.24127272417E+00  0.16814471798E+01 -0.43583692457E+01  0.46776981121E+01  0.00000000000E+00 0. -1.
</event>
<event>
 7    1  0.5068291E-011  0.5052886E+02  0.7816164E-02  0.1300439E+00
        -11   -1    0    0    0    0  0.00000000000E+00  0.00000000000E+00  0.45593999997E+02  0.45594000000E+02  0.51100000000E-03 0.  1.
         11   -1    0    0    0    0 -0.00000000000E+00 -0.00000000000E+00 -0.45593999997E+02  0.45594000000E+02  0.51100000000E-03 0. -1.
    9900012    2    1    2    0    0 -0.25916441274E+02 -0.29160667061E+02  0.11452479084E+02  0.50528859466E+02  0.29999998833E+02 0.  0.
        -12    1    1    2    0    0  0.25916441274E+02  0.29160667061E+02 -0.11452479084E+02  0.40659140534E+02  0.00000000000E+00 0.  1.
         11    1    3    3    0    0 -0.21915752048E+02 -0.78361402776E+01  0.53094854280E+01  0.23872492916E+02  0.51100000000E-03 0. -1.
        -11    1    3    3    0    0  0.40929657203E+01 -0.84663948201E+01  0.65456524350E+01  0.11457651404E+02  0.51100000000E-03 0.  1.
         12    1    3    3    0    0 -0.80936549468E+01 -0.12858131963E+02 -0.40265877856E+00  0.15198715146E+02  0.00000000000E+00 0. -1.
</event>
<event>
 7    1  0.5068291E-011  0.5052886E+02  0.7816164E-02  0.1300439E+00
        -11   -1    0    0    0    0  0.00000000000E+00  0.00000000000E+00  0.45593999997E+02  0.45594000000E+02  0.51100000000E-03 0.  1.
         11   -1    0    0    0    0 -0.00000000000E+00 -0.00000000000E+00 -0.45593999997E+02  0.45594000000E+02  0.51100000000E-03 0. -1.
    9900012    2    1    2    0    0 -0.31330740988E+02  0.83461620532E+00 -0.25900838129E+02  0.50528864116E+02  0.30000012967E+02 0.  0.
        -12    1    1    2    0    0  0.31330740988E+02 -0.83461620532E+00  0.25900838129E+02  0.40659135884E+02  0.00000000000E+00 0.  1.
         11    1    3    3    0    0 -0.31348121511E+02 -0.49393299838E+01 -0.13013453413E+02  0.34299441292E+02  0.51100000000E-03 0. -1.
        -11    1    3    3    0    0  0.10438526910E+01  0.26991825581E+01 -0.12652606670E+02  0.12979355559E+02  0.51100000000E-03 0.  1.
         12    1    3    3    0    0 -0.10264721676E+01  0.30747636311E+01 -0.23477804614E+00  0.32500672653E+01  0.00000000000E+00 0. -1.
</event>
<event>
 7    1  0.5068291E-011  0.5052887E+02  0.7816164E-02  0.1300439E+00
        -11   -1    0    0    0    0  0.00000000000E+00  0.00000000000E+00  0.45593999997E+02  0.45594000000E+02  0.51100000000E-03 0.  1.
         11   -1    0    0    0    0 -0.00000000000E+00 -0.00000000000E+00 -0.45593999997E+02  0.45594000000E+02  0.51100000000E-03 0. -1.
    9900012    2    1    2    0    0  0.25524452221E+02  0.25992519512E+02 -0.18057014407E+02  0.50528874320E+02  0.30000043984E+02 0.  0.
        -12    1    1    2    0    0 -0.25524452221E+02 -0.25992519512E+02  0.18057014407E+02  0.40659125680E+02  0.00000000000E+00 0.  1.
         11    1    3    3    0    0  0.65847561965E+01  0.16976348736E+02  0.10772567732E+01  0.18240501994E+02  0.51100000000E-03 0. -1.
        -11    1    3    3    0    0  0.88924870233E+01 -0.15991169345E+01 -0.14259143171E+02  0.16880659485E+02  0.51100000000E-03 0.  1.
        -12    1    3    3    0    0  0.10047209001E+02  0.10615287710E+02 -0.48751280089E+01  0.15407712841E+02  0.00000000000E+00 0.  1.
</event>
<event>
 7    1  0.5068291E-011  0.5052886E+02  0.7816164E-02  0.1300439E+00
        -11   -1    0    0    0    0  0.00000000000E+00  0.00000000000E+00  0.45593999997E+02  0.45594000000E+02  0.51100000000E-03 0. -1.
         11   -1    0    0    0    0 -0.00000000000E+00 -0.00000000000E+00 -0.45593999997E+02  0.45594000000E+02  0.51100000000E-03 0.  1.
    9900012    2    1    2    0    0 -0.34419273657E+02 -0.20842433539E+02  0.58371221047E+01  0.50528862904E+02  0.30000009283E+02 0.  0.
        -12    1    1    2    0    0  0.34419273657E+02  0.20842433539E+02 -0.58371221047E+01  0.40659137096E+02  0.00000000000E+00 0.  1.
         11    1    3    3    0    0 -0.38857573550E+01 -0.49898767980E+01  0.23428100339E+01  0.67443857984E+01  0.51100000000E-03 0. -1.
        -11    1    3    3    0    0 -0.36278702114E+01  0.68222961785E+01 -0.24366498905E+01  0.81020016273E+01  0.51100000000E-03 0.  1.
        -12    1    3    3    0    0 -0.26905646091E+02 -0.22674852919E+02  0.59309619613E+01  0.35682475478E+02  0.00000000000E+00 0.  1.
</event>
<event>
 7    1  0.5068291E-011  0.5052887E+02  0.7816164E-02  0.1300439E+00
        -11   -1    0    0    0    0  0.00000000000E+00  0.00000000000E+00  0.45593999997E+02  0.45594000000E+02  0.51100000000E-03 0. -1.
         11   -1    0    0    0    0 -0.00000000000E+00 -0.00000000000E+00 -0.45593999997E+02  0.45594000000E+02  0.51100000000E-03 0.  1.
    9900012    2    1    2    0    0  0.17289360527E+02  0.10423632276E+02  0.35292929980E+02  0.50528868137E+02  0.30000025190E+02 0.  0.
        -12    1    1    2    0    0 -0.17289360527E+02 -0.10423632276E+02 -0.35292929980E+02  0.40659131863E+02  0.00000000000E+00 0.  1.
         11    1    3    3    0    0 -0.15831769738E+01  0.98791086800E+00 -0.32839153682E+01  0.37771043963E+01  0.51100000000E-03 0.  1.
        -11    1    3    3    0    0  0.40378152941E+01  0.87581220831E+01  0.24333945729E+02  0.26175361884E+02  0.51100000000E-03 0. -1.
         12    1    3    3    0    0  0.14834722207E+02  0.67759932455E+00  0.14242899619E+02  0.20576401856E+02  0.00000000000E+00 0. -1.
</event>
<event>
 7    1  0.5068291E-011  0.5052879E+02  0.7816164E-02  0.1300439E+00
        -11   -1    0    0    0    0  0.00000000000E+00  0.00000000000E+00  0.45593999997E+02  0.45594000000E+02  0.51100000000E-03 0.  1.
         11   -1    0    0    0    0 -0.00000000000E+00 -0.00000000000E+00 -0.45593999997E+02  0.45594000000E+02  0.51100000000E-03 0. -1.
    9900012    2    1    2    0    0  0.27136144714E+02  0.23340065426E+02 -0.19288392508E+02  0.50528793298E+02  0.29999797709E+02 0.  0.
        -12    1    1    2    0    0 -0.27136144714E+02 -0.23340065426E+02  0.19288392508E+02  0.40659206702E+02  0.00000000000E+00 0.  1.
         11    1    3    3    0    0  0.28214303574E+02  0.15547318549E+02 -0.15917783647E+02  0.35932462714E+02  0.51100000000E-03 0. -1.
        -11    1    3    3    0    0 -0.58237217483E+01  0.11030448447E+01 -0.68934460187E+00  0.59672136858E+01  0.51100000000E-03 0.  1.
        -12    1    3    3    0    0  0.47455628888E+01  0.66897020323E+01 -0.26812642593E+01  0.86291168981E+01  0.00000000000E+00 0.  1.
</event>
<event>
 7    1  0.5068291E-011  0.5052886E+02  0.7816164E-02  0.1300439E+00
        -11   -1    0    0    0    0  0.00000000000E+00  0.00000000000E+00  0.45593999997E+02  0.45594000000E+02  0.51100000000E-03 0. -1.
         11   -1    0    0    0    0 -0.00000000000E+00 -0.00000000000E+00 -0.45593999997E+02  0.45594000000E+02  0.51100000000E-03 0.  1.
    9900012    2    1    2    0    0 -0.94209415992E+01 -0.38039117709E+02 -0.10836842432E+02  0.50528858708E+02  0.29999996530E+02 0.  0.
        -12    1    1    2    0    0  0.94209415992E+01  0.38039117709E+02  0.10836842432E+02  0.40659141292E+02  0.00000000000E+00 0.  1.
         11    1    3    3    0    0  0.19571211607E+00 -0.12933775047E+02  0.85320453535E+01  0.15495697415E+02  0.51100000000E-03 0. -1.
        -11    1    3    3    0    0 -0.83682887298E+01 -0.13295224287E+02 -0.16567305026E+02  0.22831268935E+02  0.51100000000E-03 0.  1.
         12    1    3    3    0    0 -0.12483649855E+01 -0.11810118375E+02 -0.28015827596E+01  0.12201892359E+02  0.00000000000E+00 0. -1.
</event>
<event>
 7    1  0.5068291E-011  0.5052886E+02  0.7816164E-02  0.1300439E+00
        -11   -1    0    0    0    0  0.00000000000E+00  0.00000000000E+00  0.45593999997E+02  0.45594000000E+02  0.51100000000E-03 0.  1.
         11   -1    0    0    0    0 -0.00000000000E+00 -0.00000000000E+00 -0.45593999997E+02  0.45594000000E+02  0.51100000000E-03 0. -1.
    9900012    2    1    2    0    0  0.54218454503E+01  0.40217179979E+02 -0.25194062741E+01  0.50528863492E+02  0.30000011072E+02 0.  0.
        -12    1    1    2    0    0 -0.54218454503E+01 -0.40217179979E+02  0.25194062741E+01  0.40659136508E+02  0.00000000000E+00 0.  1.
         11    1    3    3    0    0  0.58605025883E+01  0.12385628443E+02 -0.12622228090E+02  0.18629812794E+02  0.51100000000E-03 0. -1.
        -11    1    3    3    0    0 -0.55699558610E+01  0.18698513447E+02  0.85776896584E+01  0.21312803044E+02  0.51100000000E-03 0.  1.
         12    1    3    3    0    0  0.51312987230E+01  0.91330380889E+01  0.15251321574E+01  0.10586247655E+02  0.00000000000E+00 0. -1.
</event>
<event>
 7    1  0.5068291E-011  0.5052885E+02  0.7816164E-02  0.1300439E+00
        -11   -1    0    0    0    0  0.00000000000E+00  0.00000000000E+00  0.45593999997E+02  0.45594000000E+02  0.51100000000E-03 0. -1.
         11   -1    0    0    0    0 -0.00000000000E+00 -0.00000000000E+00 -0.45593999997E+02  0.45594000000E+02  0.51100000000E-03 0.  1.
    9900012    2    1    2    0    0  0.10851452910E+02  0.24905579726E+02  0.30251018884E+02  0.50528854961E+02  0.29999985140E+02 0.  0.
        -12    1    1    2    0    0 -0.10851452910E+02 -0.24905579726E+02 -0.30251018884E+02  0.40659145039E+02  0.00000000000E+00 0.  1.
         11    1    3    3    0    0 -0.26774324551E+01  0.25096704053E+02  0.16394383963E+02  0.30096329089E+02  0.51100000000E-03 0. -1.
        -11    1    3    3    0    0  0.32441542168E+01 -0.25892459882E+01  0.21792094235E+01  0.46880364058E+01  0.51100000000E-03 0.  1.
         12    1    3    3    0    0  0.10284731148E+02  0.23981216614E+01  0.11677425498E+02  0.15744489466E+02  0.00000000000E+00 0. -1.
</event>
<event>
 7    1  0.5068291E-011  0.5052886E+02  0.7816164E-02  0.1300439E+00
        -11   -1    0    0    0    0  0.00000000000E+00  0.00000000000E+00  0.45593999997E+02  0.45594000000E+02  0.51100000000E-03 0.  1.
         11   -1    0    0    0    0 -0.00000000000E+00 -0.00000000000E+00 -0.45593999997E+02  0.45594000000E+02  0.51100000000E-03 0. -1.
    9900012    2    1    2    0    0  0.96231542043E+01  0.36245009475E+01 -0.39337303332E+02  0.50528861576E+02  0.30000005246E+02 0.  0.
        -12    1    1    2    0    0 -0.96231542043E+01 -0.36245009475E+01  0.39337303332E+02  0.40659138424E+02  0.00000000000E+00 0.  1.
         11    1    3    3    0    0 -0.10143602439E+02  0.17016016347E+01 -0.14760461765E+02  0.17990535021E+02  0.51100000000E-03 0. -1.
        -11    1    3    3    0    0  0.14614303172E+02 -0.19201769319E+01 -0.15231652296E+02  0.21195946985E+02  0.51100000000E-03 0.  1.
         12    1    3    3    0    0  0.51524534712E+01  0.38430762447E+01 -0.93451892714E+01  0.11342379570E+02  0.00000000000E+00 0. -1.
</event>
<event>
 7    1  0.5068291E-011  0.5052887E+02  0.7816164E-02  0.1300439E+00
        -11   -1    0    0    0    0  0.00000000000E+00  0.00000000000E+00  0.45593999997E+02  0.45594000000E+02  0.51100000000E-03 0.  1.
         11   -1    0    0    0    0 -0.00000000000E+00 -0.00000000000E+00 -0.45593999997E+02  0.45594000000E+02  0.51100000000E-03 0. -1.
    9900012    2    1    2    0    0 -0.23033805709E+02 -0.47866340364E+01 -0.33161678570E+02  0.50528868228E+02  0.30000025467E+02 0.  0.
        -12    1    1    2    0    0  0.23033805709E+02  0.47866340364E+01  0.33161678570E+02  0.40659131772E+02  0.00000000000E+00 0.  1.
         11    1    3    3    0    0 -0.19597586876E+02  0.30183140827E+01 -0.24342159086E+02  0.31396119832E+02  0.51100000000E-03 0. -1.
        -11    1    3    3    0    0 -0.32015098538E+01 -0.58363144680E+01  0.28896801187E+01  0.72568921284E+01  0.51100000000E-03 0.  1.
        -12    1    3    3    0    0 -0.23470897884E+00 -0.19686336512E+01 -0.11709199603E+02  0.11875856268E+02  0.00000000000E+00 0.  1.
</event>
<event>
 7    1  0.5068291E-011  0.5052886E+02  0.7816164E-02  0.1300439E+00
        -11   -1    0    0    0    0  0.00000000000E+00  0.00000000000E+00  0.45593999997E+02  0.45594000000E+02  0.51100000000E-03 0. -1.
         11   -1    0    0    0    0 -0.00000000000E+00 -0.00000000000E+00 -0.45593999997E+02  0.45594000000E+02  0.51100000000E-03 0.  1.
    9900012    2    1    2    0    0 -0.12639439685E+02 -0.35318672891E+02  0.15684428921E+02  0.50528863254E+02  0.30000010348E+02 0.  0.
        -12    1    1    2    0    0  0.12639439685E+02  0.35318672891E+02 -0.15684428921E+02  0.40659136746E+02  0.00000000000E+00 0.  1.
         11    1    3    3    0    0  0.64478168870E+01 -0.12577584743E+02  0.79000248566E-01  0.14134221658E+02  0.51100000000E-03 0.  1.
        -11    1    3    3    0    0 -0.51433301563E+01 -0.16052458861E+02  0.47927564801E+01  0.17524434243E+02  0.51100000000E-03 0. -1.
         12    1    3    3    0    0 -0.13943926416E+02 -0.66886292863E+01  0.10812672192E+02  0.18870207353E+02  0.00000000000E+00 0. -1.
</event>
<event>
 7    1  0.5068291E-011  0.5052885E+02  0.7816164E-02  0.1300439E+00
        -11   -1    0    0    0    0  0.00000000000E+00  0.00000000000E+00  0.45593999997E+02  0.45594000000E+02  0.51100000000E-03 0.  1.
         11   -1    0    0    0    0 -0.00000000000E+00 -0.00000000000E+00 -0.45593999997E+02  0.45594000000E+02  0.51100000000E-03 0. -1.
    9900012    2    1    2    0    0  0.86116558206E+01 -0.35531396408E+01 -0.39577527245E+02  0.50528854902E+02  0.29999984961E+02 0.  0.
        -12    1    1    2    0    0 -0.86116558206E+01  0.35531396408E+01  0.39577527245E+02  0.40659145098E+02  0.00000000000E+00 0.  1.
         11    1    3    3    0    0  0.15312974662E+02 -0.49287880700E+01 -0.82884211380E+01  0.18096355160E+02  0.51100000000E-03 0. -1.
        -11    1    3    3    0    0 -0.31328959673E+01 -0.10781563816E+01 -0.68093670619E+01  0.75726440805E+01  0.51100000000E-03 0.  1.
         12    1    3    3    0    0 -0.35684228741E+01  0.24538048107E+01 -0.24479739045E+02  0.24859855662E+02  0.00000000000E+00 0. -1.
</event>
<event>
 7    1  0.5068291E-011  0.5052886E+02  0.7816164E-02  0.1300439E+00
        -11   -1    0    0    0    0  0.00000000000E+00  0.00000000000E+00  0.45593999997E+02  0.45594000000E+02  0.51100000000E-03 0. -1.
         11   -1    0    0    0    0 -0.00000000000E+00 -0.00000000000E+00 -0.45593999997E+02  0.45594000000E+02  0.51100000000E-03 0.  1.
    9900012    2    1    2    0    0 -0.20590174117E+02  0.87319998390E+01  0.33955304424E+02  0.50528858471E+02  0.29999995808E+02 0.  0.
        -12    1    1    2    0    0  0.20590174117E+02 -0.87319998390E+01 -0.33955304424E+02  0.40659141529E+02  0.00000000000E+00 0.  1.
         11    1    3    3    0    0 -0.36643567286E+00  0.84507964075E+01 -0.19654017860E+01  0.86840681402E+01  0.51100000000E-03 0. -1.
        -11    1    3    3    0    0 -0.18444287886E+02 -0.16313875467E+01  0.33533438009E+02  0.38305934865E+02  0.51100000000E-03 0.  1.
         12    1    3    3    0    0 -0.17794505577E+01  0.19125909783E+01  0.23872682015E+01  0.35388554652E+01  0.00000000000E+00 0. -1.
</event>
<event>
 7    1  0.5068291E-011  0.5052885E+02  0.7816164E-02  0.1300439E+00
        -11   -1    0    0    0    0  0.00000000000E+00  0.00000000000E+00  0.45593999997E+02  0.45594000000E+02  0.51100000000E-03 0.  1.
         11   -1    0    0    0    0 -0.00000000000E+00 -0.00000000000E+00 -0.45593999997E+02  0.45594000000E+02  0.51100000000E-03 0. -1.
    9900012    2    1    2    0    0 -0.13768272949E+02  0.37805104550E+02  0.58630160938E+01  0.50528853086E+02  0.29999979440E+02 0.  0.
        -12    1    1    2    0    0  0.13768272949E+02 -0.37805104550E+02 -0.58630160938E+01  0.40659146914E+02  0.00000000000E+00 0.  1.
         11    1    3    3    0    0 -0.77420166576E+01  0.27492993648E+02 -0.65733411649E+01  0.29308912228E+02  0.51100000000E-03 0. -1.
        -11    1    3    3    0    0 -0.98727594083E+00  0.67231782651E+01  0.13336962075E+02  0.14968313112E+02  0.51100000000E-03 0.  1.
        -12    1    3    3    0    0 -0.50389803506E+01  0.35889326371E+01 -0.90060481590E+00  0.62516277466E+01  0.00000000000E+00 0.  1.
</event>
<event>
 7    1  0.5068291E-011  0.5052888E+02  0.7816164E-02  0.1300439E+00
        -11   -1    0    0    0    0  0.00000000000E+00  0.00000000000E+00  0.45593999997E+02  0.45594000000E+02  0.51100000000E-03 0.  1.
         11   -1    0    0    0    0 -0.00000000000E+00 -0.00000000000E+00 -0.45593999997E+02  0.45594000000E+02  0.51100000000E-03 0. -1.
    9900012    2    1    2    0    0  0.32375931159E+02  0.23541924510E+02 -0.71232481031E+01  0.50528883045E+02  0.30000070503E+02 0.  0.
        -12    1    1    2    0    0 -0.32375931159E+02 -0.23541924510E+02  0.71232481031E+01  0.40659116955E+02  0.00000000000E+00 0.  1.
         11    1    3    3    0    0  0.15458184108E+02  0.26350349182E+02 -0.15367694903E+01  0.30588527566E+02  0.51100000000E-03 0.  1.
        -11    1    3    3    0    0  0.11071319459E+02 -0.40916012190E+01 -0.74458311836E-01  0.11803425749E+02  0.51100000000E-03 0. -1.
        -12    1    3    3    0    0  0.58464275917E+01  0.12831765470E+01 -0.55120203009E+01  0.81369297302E+01  0.00000000000E+00 0.  1.
</event>
<event>
 7    1  0.5068291E-011  0.5052886E+02  0.7816164E-02  0.1300439E+00
        -11   -1    0    0    0    0  0.00000000000E+00  0.00000000000E+00  0.45593999997E+02  0.45594000000E+02  0.51100000000E-03 0. -1.
         11   -1    0    0    0    0 -0.00000000000E+00 -0.00000000000E+00 -0.45593999997E+02  0.45594000000E+02  0.51100000000E-03 0.  1.
    9900012    2    1    2    0    0 -0.20454643684E+02  0.35003244550E+02 -0.30896596486E+01  0.50528861125E+02  0.30000003877E+02 0.  0.
        -12    1    1    2    0    0  0.20454643684E+02 -0.35003244550E+02  0.30896596486E+01  0.40659138875E+02  0.00000000000E+00 0.  1.
         11    1    3    3    0    0  0.57067639840E+00 -0.44544389177E+01  0.15191570761E+01  0.47408370681E+01  0.51100000000E-03 0. -1.
        -11    1    3    3    0    0 -0.84726297654E+01  0.23007832112E+02  0.30580191322E+00  0.24520181661E+02  0.51100000000E-03 0.  1.
         12    1    3    3    0    0 -0.12552690317E+02  0.16449851356E+02 -0.49146186379E+01  0.21267842396E+02  0.00000000000E+00 0. -1.
</event>
<event>
 7    1  0.5068291E-011  0.5052886E+02  0.7816164E-02  0.1300439E+00
        -11   -1    0    0    0    0  0.00000000000E+00  0.00000000000E+00  0.45593999997E+02  0.45594000000E+02  0.51100000000E-03 0.  1.
         11   -1    0    0    0    0 -0.00000000000E+00 -0.00000000000E+00 -0.45593999997E+02  0.45594000000E+02  0.51100000000E-03 0. -1.
    9900012    2    1    2    0    0  0.13447816484E+02 -0.34366426573E+02 -0.17066650557E+02  0.50528860746E+02  0.30000002725E+02 0.  0.
        -12    1    1    2    0    0 -0.13447816484E+02  0.34366426573E+02  0.17066650557E+02  0.40659139254E+02  0.00000000000E+00 0.  1.
         11    1    3    3    0    0  0.51162305964E+01 -0.10118574205E+02  0.68416000001E+00  0.11359112405E+02  0.51100000000E-03 0. -1.
        -11    1    3    3    0    0  0.14787340986E+02 -0.12597134014E+02 -0.17024897401E+02  0.25830222039E+02  0.51100000000E-03 0.  1.
        -12    1    3    3    0    0 -0.64557550988E+01 -0.11650718354E+02 -0.72591315628E+00  0.13339526303E+02  0.00000000000E+00 0.  1.
</event>
<event>
 7    1  0.5068291E-011  0.5052886E+02  0.7816164E-02  0.1300439E+00
        -11   -1    0    0    0    0  0.00000000000E+00  0.00000000000E+00  0.45593999997E+02  0.45594000000E+02  0.51100000000E-03 0.  1.
         11   -1    0    0    0    0 -0.00000000000E+00 -0.00000000000E+00 -0.45593999997E+02  0.45594000000E+02  0.51100000000E-03 0. -1.
    9900012    2    1    2    0    0 -0.26507795328E+02 -0.12862509474E+02 -0.28018897442E+02  0.50528856170E+02  0.29999988813E+02 0.  0.
        -12    1    1    2    0    0  0.26507795328E+02  0.12862509474E+02  0.28018897442E+02  0.40659143830E+02  0.00000000000E+00 0.  1.
         11    1    3    3    0    0 -0.96871361570E+01 -0.29931398357E+01 -0.28149437255E+02  0.29919731133E+02  0.51100000000E-03 0. -1.
        -11    1    3    3    0    0 -0.89008128314E+01 -0.85220464746E+01  0.16511090458E+01  0.12432855928E+02  0.51100000000E-03 0.  1.
        -12    1    3    3    0    0 -0.79198463401E+01 -0.13473231639E+01 -0.15205692325E+01  0.81762691094E+01  0.00000000000E+00 0.  1.
</event>
<event>
 7    1  0.5068291E-011  0.5052885E+02  0.7816164E-02  0.1300439E+00
        -11   -1    0    0    0    0  0.00000000000E+00  0.00000000000E+00  0.45593999997E+02  0.45594000000E+02  0.51100000000E-03 0.  1.
         11   -1    0    0    0    0 -0.00000000000E+00 -0.00000000000E+00 -0.45593999997E+02  0.45594000000E+02  0.51100000000E-03 0. -1.
    9900012    2    1    2    0    0  0.26241326743E+02  0.68173627933E+01 -0.30299882725E+02  0.50528849027E+02  0.29999967103E+02 0.  0.
        -12    1    1    2    0    0 -0.26241326743E+02 -0.68173627933E+01  0.30299882725E+02  0.40659150973E+02  0.00000000000E+00 0.  1.
         11    1    3    3    0    0  0.89631917902E+01 -0.85157673403E+01 -0.20471005094E+02  0.23914831178E+02  0.51100000000E-03 0. -1.
        -11    1    3    3    0    0  0.15599056424E+02  0.15445846656E+02 -0.11009448766E+02  0.24558353012E+02  0.51100000000E-03 0.  1.
         12    1    3    3    0    0  0.16790785284E+01 -0.11271652275E+00  0.11805711349E+01  0.20556648374E+01  0.00000000000E+00 0. -1.
</event>
<event>
 7    1  0.5068291E-011  0.5052886E+02  0.7816164E-02  0.1300439E+00
        -11   -1    0    0    0    0  0.00000000000E+00  0.00000000000E+00  0.45593999997E+02  0.45594000000E+02  0.51100000000E-03 0.  1.
         11   -1    0    0    0    0 -0.00000000000E+00 -0.00000000000E+00 -0.45593999997E+02  0.45594000000E+02  0.51100000000E-03 0. -1.
    9900012    2    1    2    0    0  0.25521040340E+02  0.88352086587E+01 -0.30393766041E+02  0.50528862943E+02  0.30000009400E+02 0.  0.
        -12    1    1    2    0    0 -0.25521040340E+02 -0.88352086587E+01  0.30393766041E+02  0.40659137057E+02  0.00000000000E+00 0.  1.
         11    1    3    3    0    0  0.17925972824E+02 -0.12108562422E+01 -0.13891743758E+02  0.22710949329E+02  0.51100000000E-03 0. -1.
        -11    1    3    3    0    0 -0.49551641899E+01  0.29017146145E+01 -0.10915474971E+02  0.12333742091E+02  0.51100000000E-03 0.  1.
        -12    1    3    3    0    0  0.12550231706E+02  0.71443502864E+01 -0.55865473127E+01  0.15484171523E+02  0.00000000000E+00 0.  1.
</event>
<event>
 7    1  0.5068291E-011  0.5052887E+02  0.7816164E-02  0.1300439E+00
        -11   -1    0    0    0    0  0.00000000000E+00  0.00000000000E+00  0.45593999997E+02  0.45594000000E+02  0.51100000000E-03 0. -1.
         11   -1    0    0    0    0 -0.00000000000E+00 -0.00000000000E+00 -0.45593999997E+02  0.45594000000E+02  0.51100000000E-03 0.  1.
    9900012    2    1    2    0    0 -0.25118384806E+02  0.27838680173E+02  0.15723855839E+02  0.50528868043E+02  0.30000024905E+02 0.  0.
        -12    1    1    2    0    0  0.25118384806E+02 -0.27838680173E+02 -0.15723855839E+02  0.40659131957E+02  0.00000000000E+00 0.  1.
         11    1    3    3    0    0 -0.81847309955E+01  0.25973050266E+02  0.11205409402E+02  0.29447416894E+02  0.51100000000E-03 0. -1.
        -11    1    3    3    0    0 -0.12132450266E+02 -0.38810297024E+01  0.47357653398E+01  0.13589930634E+02  0.51100000000E-03 0.  1.
        -12    1    3    3    0    0 -0.48012035440E+01  0.57466596093E+01 -0.21731890282E+00  0.74915205160E+01  0.00000000000E+00 0.  1.
</event>
<event>
 7    1  0.5068291E-011  0.5052886E+02  0.7816164E-02  0.1300439E+00
        -11   -1    0    0    0    0  0.00000000000E+00  0.00000000000E+00  0.45593999997E+02  0.45594000000E+02  0.51100000000E-03 0. -1.
         11   -1    0    0    0    0 -0.00000000000E+00 -0.00000000000E+00 -0.45593999997E+02  0.45594000000E+02  0.51100000000E-03 0.  1.
    9900012    2    1    2    0    0 -0.34281091148E+02 -0.17487150823E+02 -0.13121419954E+02  0.50528864300E+02  0.30000013528E+02 0.  0.
        -12    1    1    2    0    0  0.34281091148E+02  0.17487150823E+02  0.13121419954E+02  0.40659135700E+02  0.00000000000E+00 0.  1.
         11    1    3    3    0    0 -0.17542313414E+02  0.57646019207E+01 -0.80732642697E+01  0.20152940020E+02  0.51100000000E-03 0. -1.
        -11    1    3    3    0    0 -0.12939135098E+02 -0.21492936289E+02 -0.65492871531E+01  0.25927990472E+02  0.51100000000E-03 0.  1.
         12    1    3    3    0    0 -0.37996426357E+01 -0.17588164547E+01  0.15011314684E+01  0.44479338086E+01  0.00000000000E+00 0. -1.
</event>
<event>
 7    1  0.5068291E-011  0.5052886E+02  0.7816164E-02  0.1300439E+00
        -11   -1    0    0    0    0  0.00000000000E+00  0.00000000000E+00  0.45593999997E+02  0.45594000000E+02  0.51100000000E-03 0.  1.
         11   -1    0    0    0    0 -0.00000000000E+00 -0.00000000000E+00 -0.45593999997E+02  0.45594000000E+02  0.51100000000E-03 0. -1.
    9900012    2    1    2    0    0  0.22980947931E+02  0.30515635707E+02 -0.13922572160E+02  0.50528855814E+02  0.29999987732E+02 0.  0.
        -12    1    1    2    0    0 -0.22980947931E+02 -0.30515635707E+02  0.13922572160E+02  0.40659144186E+02  0.00000000000E+00 0.  1.
         11    1    3    3    0    0 -0.48413592464E+01 -0.57788325566E+00  0.84833409451E+00  0.49489776123E+01  0.51100000000E-03 0. -1.
        -11    1    3    3    0    0  0.11391832096E+02  0.79582424762E+01 -0.91898789930E+01  0.16660172207E+02  0.51100000000E-03 0.  1.
         12    1    3    3    0    0  0.16430475082E+02  0.23135276486E+02 -0.55810272619E+01  0.28919705994E+02  0.00000000000E+00 0. -1.
</event>
<event>
 7    1  0.5068291E-011  0.5052890E+02  0.7816164E-02  0.1300439E+00
        -11   -1    0    0    0    0  0.00000000000E+00  0.00000000000E+00  0.45593999997E+02  0.45594000000E+02  0.51100000000E-03 0. -1.
         11   -1    0    0    0    0 -0.00000000000E+00 -0.00000000000E+00 -0.45593999997E+02  0.45594000000E+02  0.51100000000E-03 0.  1.
    9900012    2    1    2    0    0  0.21195282760E+02 -0.32176027946E+02 -0.12985601279E+02  0.50528897376E+02  0.30000114063E+02 0.  0.
        -12    1    1    2    0    0 -0.21195282760E+02  0.32176027946E+02  0.12985601279E+02  0.40659102624E+02  0.00000000000E+00 0.  1.
         11    1    3    3    0    0  0.31198604551E+01 -0.25883192667E+02 -0.13025061400E+02  0.29143188169E+02  0.51100000000E-03 0. -1.
        -11    1    3    3    0    0  0.51789751499E+01  0.11681912011E+01 -0.31161335155E+01  0.61560330273E+01  0.51100000000E-03 0.  1.
         12    1    3    3    0    0  0.12896447155E+02 -0.74610264799E+01  0.31555936363E+01  0.15229676180E+02  0.00000000000E+00 0. -1.
</event>
<event>
 7    1  0.5068291E-011  0.5052886E+02  0.7816164E-02  0.1300439E+00
        -11   -1    0    0    0    0  0.00000000000E+00  0.00000000000E+00  0.45593999997E+02  0.45594000000E+02  0.51100000000E-03 0.  1.
         11   -1    0    0    0    0 -0.00000000000E+00 -0.00000000000E+00 -0.45593999997E+02  0.45594000000E+02  0.51100000000E-03 0. -1.
    9900012    2    1    2    0    0  0.33608456401E+02  0.10147927054E+02 -0.20509923934E+02  0.50528859024E+02  0.29999997489E+02 0.  0.
        -12    1    1    2    0    0 -0.33608456401E+02 -0.10147927054E+02  0.20509923934E+02  0.40659140976E+02  0.00000000000E+00 0.  1.
         11    1    3    3    0    0  0.82260751578E+01  0.65356547316E+01 -0.18308310848E+02  0.21108702983E+02  0.51100000000E-03 0. -1.
        -11    1    3    3    0    0  0.26473045078E+02  0.21131743149E+01 -0.20023025565E-01  0.26557259320E+02  0.51100000000E-03 0.  1.
        -12    1    3    3    0    0 -0.10906638356E+01  0.14990980077E+01 -0.21815900611E+01  0.28628967207E+01  0.00000000000E+00 0.  1.
</event>
<event>
 7    1  0.5068291E-011  0.5052886E+02  0.7816164E-02  0.1300439E+00
        -11   -1    0    0    0    0  0.00000000000E+00  0.00000000000E+00  0.45593999997E+02  0.45594000000E+02  0.51100000000E-03 0. -1.
         11   -1    0    0    0    0 -0.00000000000E+00 -0.00000000000E+00 -0.45593999997E+02  0.45594000000E+02  0.51100000000E-03 0.  1.
    9900012    2    1    2    0    0 -0.15770782884E+02 -0.16390263128E+02  0.33701744583E+02  0.50528857041E+02  0.29999991463E+02 0.  0.
        -12    1    1    2    0    0  0.15770782884E+02  0.16390263128E+02 -0.33701744583E+02  0.40659142959E+02  0.00000000000E+00 0.  1.
         11    1    3    3    0    0 -0.11766687948E+02 -0.21368386826E+02  0.16963042198E+02  0.29712080063E+02  0.51100000000E-03 0. -1.
        -11    1    3    3    0    0  0.10352518286E+01  0.83603960954E+00  0.13442304491E+02  0.13508007213E+02  0.51100000000E-03 0.  1.
         12    1    3    3    0    0 -0.50393467645E+01  0.41420840880E+01  0.32963978937E+01  0.73087697651E+01  0.00000000000E+00 0. -1.
</event>
<event>
 7    1  0.5068291E-011  0.5052891E+02  0.7816164E-02  0.1300439E+00
        -11   -1    0    0    0    0  0.00000000000E+00  0.00000000000E+00  0.45593999997E+02  0.45594000000E+02  0.51100000000E-03 0. -1.
         11   -1    0    0    0    0 -0.00000000000E+00 -0.00000000000E+00 -0.45593999997E+02  0.45594000000E+02  0.51100000000E-03 0.  1.
    9900012    2    1    2    0    0 -0.38472327275E+02 -0.12117060272E+02 -0.51203818250E+01  0.50528912139E+02  0.30000158939E+02 0.  0.
        -12    1    1    2    0    0  0.38472327275E+02  0.12117060272E+02  0.51203818250E+01  0.40659087861E+02  0.00000000000E+00 0.  1.
         11    1    3    3    0    0  0.21957879137E+01 -0.52406398883E+00 -0.26289239741E+00  0.22727165023E+01  0.51100000000E-03 0.  1.
        -11    1    3    3    0    0 -0.21723843412E+02 -0.33421510118E+01  0.85947066676E+01  0.23600091715E+02  0.51100000000E-03 0. -1.
        -12    1    3    3    0    0 -0.18944271777E+02 -0.82508452711E+01 -0.13452196095E+02  0.24656103922E+02  0.00000000000E+00 0.  1.
</event>
<event>
 7    1  0.5068291E-011  0.5052887E+02  0.7816164E-02  0.1300439E+00
        -11   -1    0    0    0    0  0.00000000000E+00  0.00000000000E+00  0.45593999997E+02  0.45594000000E+02  0.51100000000E-03 0.  1.
         11   -1    0    0    0    0 -0.00000000000E+00 -0.00000000000E+00 -0.45593999997E+02  0.45594000000E+02  0.51100000000E-03 0. -1.
    9900012    2    1    2    0    0  0.35371336172E+02  0.39772948185E+01 -0.19652350819E+02  0.50528865855E+02  0.30000018253E+02 0.  0.
        -12    1    1    2    0    0 -0.35371336172E+02 -0.39772948185E+01  0.19652350819E+02  0.40659134145E+02  0.00000000000E+00 0.  1.
         11    1    3    3    0    0  0.49426553857E+01  0.92791087378E+01 -0.65748186488E+01  0.12399997651E+02  0.51100000000E-03 0. -1.
        -11    1    3    3    0    0  0.32377374711E+02 -0.70788813024E+01 -0.11651057617E+02  0.35130500957E+02  0.51100000000E-03 0.  1.
         12    1    3    3    0    0 -0.19486939240E+01  0.17770673831E+01 -0.14264745535E+01  0.29983672466E+01  0.00000000000E+00 0. -1.
</event>
<event>
 7    1  0.5068291E-011  0.5052885E+02  0.7816164E-02  0.1300439E+00
        -11   -1    0    0    0    0  0.00000000000E+00  0.00000000000E+00  0.45593999997E+02  0.45594000000E+02  0.51100000000E-03 0.  1.
         11   -1    0    0    0    0 -0.00000000000E+00 -0.00000000000E+00 -0.45593999997E+02  0.45594000000E+02  0.51100000000E-03 0. -1.
    9900012    2    1    2    0    0  0.77048891515E+01 -0.31268529863E+02 -0.24820960651E+02  0.50528851407E+02  0.29999974337E+02 0.  0.
        -12    1    1    2    0    0 -0.77048891515E+01  0.31268529863E+02  0.24820960651E+02  0.40659148593E+02  0.00000000000E+00 0.  1.
         11    1    3    3    0    0  0.26953584553E+00  0.38823861163E+01 -0.77440400998E+01  0.86669330710E+01  0.51100000000E-03 0. -1.
        -11    1    3    3    0    0  0.14459600788E+00 -0.24398188315E+02 -0.15173057905E+02  0.28731762694E+02  0.51100000000E-03 0.  1.
        -12    1    3    3    0    0  0.72907572980E+01 -0.10752727664E+02 -0.19038626469E+01  0.13130155642E+02  0.00000000000E+00 0.  1.
</event>
<event>
 7    1  0.5068291E-011  0.5052886E+02  0.7816164E-02  0.1300439E+00
        -11   -1    0    0    0    0  0.00000000000E+00  0.00000000000E+00  0.45593999997E+02  0.45594000000E+02  0.51100000000E-03 0. -1.
         11   -1    0    0    0    0 -0.00000000000E+00 -0.00000000000E+00 -0.45593999997E+02  0.45594000000E+02  0.51100000000E-03 0.  1.
    9900012    2    1    2    0    0  0.22317934306E+02  0.19763974208E+02  0.27648889260E+02  0.50528856557E+02  0.29999989991E+02 0.  0.
        -12    1    1    2    0    0 -0.22317934306E+02 -0.19763974208E+02 -0.27648889260E+02  0.40659143443E+02  0.00000000000E+00 0.  1.
         11    1    3    3    0    0  0.22743729702E+02  0.12809375908E+02  0.52556300733E+01  0.26626659566E+02  0.51100000000E-03 0. -1.
        -11    1    3    3    0    0 -0.52542297876E+00 -0.89826232243E-01  0.64467791877E+01  0.64687788813E+01  0.51100000000E-03 0.  1.
         12    1    3    3    0    0  0.99627583682E-01  0.70444245321E+01  0.15946479999E+02  0.17433418110E+02  0.00000000000E+00 0. -1.
</event>
<event>
 7    1  0.5068291E-011  0.5052884E+02  0.7816164E-02  0.1300439E+00
        -11   -1    0    0    0    0  0.00000000000E+00  0.00000000000E+00  0.45593999997E+02  0.45594000000E+02  0.51100000000E-03 0.  1.
         11   -1    0    0    0    0 -0.00000000000E+00 -0.00000000000E+00 -0.45593999997E+02  0.45594000000E+02  0.51100000000E-03 0. -1.
    9900012    2    1    2    0    0  0.98646889352E+01 -0.51524957769E+01 -0.39106354458E+02  0.50528840398E+02  0.29999940874E+02 0.  0.
        -12    1    1    2    0    0 -0.98646889352E+01  0.51524957769E+01  0.39106354458E+02  0.40659159602E+02  0.00000000000E+00 0.  1.
         11    1    3    3    0    0  0.10958204127E+02 -0.26648735048E+01 -0.15709280566E+02  0.19338182041E+02  0.51100000000E-03 0. -1.
        -11    1    3    3    0    0 -0.84996504580E+01 -0.70958477013E+01 -0.86237767919E+01  0.14034409105E+02  0.51100000000E-03 0.  1.
        -12    1    3    3    0    0  0.74061352660E+01  0.46082254292E+01 -0.14773297101E+02  0.17156249252E+02  0.00000000000E+00 0.  1.
</event>
<event>
 7    1  0.5068291E-011  0.5052887E+02  0.7816164E-02  0.1300439E+00
        -11   -1    0    0    0    0  0.00000000000E+00  0.00000000000E+00  0.45593999997E+02  0.45594000000E+02  0.51100000000E-03 0. -1.
         11   -1    0    0    0    0 -0.00000000000E+00 -0.00000000000E+00 -0.45593999997E+02  0.45594000000E+02  0.51100000000E-03 0.  1.
    9900012    2    1    2    0    0 -0.30897462776E+02  0.26344528266E+02  0.21160997640E+01  0.50528865064E+02  0.30000015848E+02 0.  0.
        -12    1    1    2    0    0  0.30897462776E+02 -0.26344528266E+02 -0.21160997640E+01  0.40659134936E+02  0.00000000000E+00 0.  1.
         11    1    3    3    0    0 -0.18955825653E+01 -0.26863705412E+01  0.42340814450E+01  0.53607150540E+01  0.51100000000E-03 0. -1.
        -11    1    3    3    0    0 -0.29077563756E+02  0.20182122915E+02  0.19072246640E+01  0.35446583834E+02  0.51100000000E-03 0.  1.
        -12    1    3    3    0    0  0.75683544682E-01  0.88487758925E+01 -0.40252063450E+01  0.97215661760E+01  0.00000000000E+00 0.  1.
</event>
<event>
 7    1  0.5068291E-011  0.5052886E+02  0.7816164E-02  0.1300439E+00
        -11   -1    0    0    0    0  0.00000000000E+00  0.00000000000E+00  0.45593999997E+02  0.45594000000E+02  0.51100000000E-03 0. -1.
         11   -1    0    0    0    0 -0.00000000000E+00 -0.00000000000E+00 -0.45593999997E+02  0.45594000000E+02  0.51100000000E-03 0.  1.
    9900012    2    1    2    0    0 -0.33157196042E+02 -0.16799231658E+02 -0.16478826569E+02  0.50528861313E+02  0.30000004448E+02 0.  0.
        -12    1    1    2    0    0  0.33157196042E+02  0.16799231658E+02  0.16478826569E+02  0.40659138687E+02  0.00000000000E+00 0.  1.
         11    1    3    3    0    0 -0.86023441061E+01 -0.52048210109E+01 -0.65315369574E+01  0.11989639743E+02  0.51100000000E-03 0. -1.
        -11    1    3    3    0    0 -0.24593490334E+02 -0.24339172479E+01  0.40353877435E+00  0.24716928689E+02  0.51100000000E-03 0.  1.
        -12    1    3    3    0    0  0.38638398887E-01 -0.91604933987E+01 -0.10350828386E+02  0.13822292882E+02  0.00000000000E+00 0.  1.
</event>
<event>
 7    1  0.5068291E-011  0.5052886E+02  0.7816164E-02  0.1300439E+00
        -11   -1    0    0    0    0  0.00000000000E+00  0.00000000000E+00  0.45593999997E+02  0.45594000000E+02  0.51100000000E-03 0.  1.
         11   -1    0    0    0    0 -0.00000000000E+00 -0.00000000000E+00 -0.45593999997E+02  0.45594000000E+02  0.51100000000E-03 0. -1.
    9900012    2    1    2    0    0  0.22319545472E+02 -0.22465072923E+02 -0.25501454554E+02  0.50528858398E+02  0.29999995586E+02 0.  0.
        -12    1    1    2    0    0 -0.22319545472E+02  0.22465072923E+02  0.25501454554E+02  0.40659141602E+02  0.00000000000E+00 0.  1.
         11    1    3    3    0    0  0.18725307319E+02 -0.16327308919E+02 -0.53876764047E+01  0.25421353387E+02  0.51100000000E-03 0. -1.
        -11    1    3    3    0    0 -0.74192497093E+00  0.11087180899E+01 -0.15357723320E+02  0.15415556244E+02  0.51100000000E-03 0.  1.
        -12    1    3    3    0    0  0.43361631237E+01 -0.72464820933E+01 -0.47560548289E+01  0.96919487668E+01  0.00000000000E+00 0.  1.
</event>
<event>
 7    1  0.5068291E-011  0.5052886E+02  0.7816164E-02  0.1300439E+00
        -11   -1    0    0    0    0  0.00000000000E+00  0.00000000000E+00  0.45593999997E+02  0.45594000000E+02  0.51100000000E-03 0.  1.
         11   -1    0    0    0    0 -0.00000000000E+00 -0.00000000000E+00 -0.45593999997E+02  0.45594000000E+02  0.51100000000E-03 0. -1.
    9900012    2    1    2    0    0 -0.39995145696E+02 -0.45763448636E+01  0.57105865500E+01  0.50528863139E+02  0.30000009996E+02 0.  0.
        -12    1    1    2    0    0  0.39995145696E+02  0.45763448636E+01 -0.57105865500E+01  0.40659136861E+02  0.00000000000E+00 0.  1.
         11    1    3    3    0    0 -0.12006573690E+02  0.10719737158E+02  0.43219125407E+01  0.16665818455E+02  0.51100000000E-03 0. -1.
        -11    1    3    3    0    0 -0.41940420598E+01 -0.53340869742E+01 -0.34582147104E+01  0.76158861528E+01  0.51100000000E-03 0.  1.
         12    1    3    3    0    0 -0.23794529947E+02 -0.99619950471E+01  0.48468887197E+01  0.26247158531E+02  0.00000000000E+00 0. -1.
</event>
<event>
 7    1  0.5068291E-011  0.5052884E+02  0.7816164E-02  0.1300439E+00
        -11   -1    0    0    0    0  0.00000000000E+00  0.00000000000E+00  0.45593999997E+02  0.45594000000E+02  0.51100000000E-03 0.  1.
         11   -1    0    0    0    0 -0.00000000000E+00 -0.00000000000E+00 -0.45593999997E+02  0.45594000000E+02  0.51100000000E-03 0. -1.
    9900012    2    1    2    0    0 -0.22833008718E+02  0.15190578573E+02 -0.30017779974E+02  0.50528842617E+02  0.29999947619E+02 0.  0.
        -12    1    1    2    0    0  0.22833008718E+02 -0.15190578573E+02  0.30017779974E+02  0.40659157383E+02  0.00000000000E+00 0.  1.
         11    1    3    3    0    0 -0.32278315360E+01 -0.35505349214E+01 -0.39459439144E+01  0.62125412103E+01  0.51100000000E-03 0. -1.
        -11    1    3    3    0    0 -0.12068402654E+02  0.23155614107E+02 -0.14660724800E+02  0.29946045802E+02  0.51100000000E-03 0.  1.
        -12    1    3    3    0    0 -0.75367745289E+01 -0.44145006123E+01 -0.11411111260E+02  0.14370255605E+02  0.00000000000E+00 0.  1.
</event>
<event>
 7    1  0.5068291E-011  0.5052887E+02  0.7816164E-02  0.1300439E+00
        -11   -1    0    0    0    0  0.00000000000E+00  0.00000000000E+00  0.45593999997E+02  0.45594000000E+02  0.51100000000E-03 0.  1.
         11   -1    0    0    0    0 -0.00000000000E+00 -0.00000000000E+00 -0.45593999997E+02  0.45594000000E+02  0.51100000000E-03 0. -1.
    9900012    2    1    2    0    0 -0.38621519601E+00  0.10436190655E+01 -0.40643894694E+02  0.50528874593E+02  0.30000044813E+02 0.  0.
        -12    1    1    2    0    0  0.38621519601E+00 -0.10436190655E+01  0.40643894694E+02  0.40659125407E+02  0.00000000000E+00 0.  1.
         11    1    3    3    0    0  0.24839138259E+00 -0.12854952969E+01 -0.38110332137E+01  0.40296613821E+01  0.51100000000E-03 0. -1.
        -11    1    3    3    0    0  0.28382724783E+01 -0.75285137518E+01 -0.34969206702E+02  0.35882861196E+02  0.51100000000E-03 0.  1.
        -12    1    3    3    0    0 -0.34728790569E+01  0.98576281142E+01 -0.18636547788E+01  0.10616352015E+02  0.00000000000E+00 0.  1.
</event>
<event>
 7    1  0.5068291E-011  0.5052886E+02  0.7816164E-02  0.1300439E+00
        -11   -1    0    0    0    0  0.00000000000E+00  0.00000000000E+00  0.45593999997E+02  0.45594000000E+02  0.51100000000E-03 0.  1.
         11   -1    0    0    0    0 -0.00000000000E+00 -0.00000000000E+00 -0.45593999997E+02  0.45594000000E+02  0.51100000000E-03 0. -1.
    9900012    2    1    2    0    0 -0.83513931763E+01 -0.36433976745E+02 -0.15999535729E+02  0.50528861139E+02  0.30000003917E+02 0.  0.
        -12    1    1    2    0    0  0.83513931763E+01  0.36433976745E+02  0.15999535729E+02  0.40659138861E+02  0.00000000000E+00 0.  1.
         11    1    3    3    0    0  0.47114247674E+01 -0.20295867036E+02 -0.33459839065E+01  0.21102496313E+02  0.51100000000E-03 0. -1.
        -11    1    3    3    0    0 -0.61403650646E+01  0.25379941351E+01 -0.29215269931E+01  0.72581552470E+01  0.51100000000E-03 0.  1.
         12    1    3    3    0    0 -0.69224528791E+01 -0.18676103844E+02 -0.97320248292E+01  0.22168209579E+02  0.00000000000E+00 0. -1.
</event>
<event>
 7    1  0.5068291E-011  0.5052885E+02  0.7816164E-02  0.1300439E+00
        -11   -1    0    0    0    0  0.00000000000E+00  0.00000000000E+00  0.45593999997E+02  0.45594000000E+02  0.51100000000E-03 0.  1.
         11   -1    0    0    0    0 -0.00000000000E+00 -0.00000000000E+00 -0.45593999997E+02  0.45594000000E+02  0.51100000000E-03 0. -1.
    9900012    2    1    2    0    0  0.12224462519E+01  0.17896574393E+02 -0.36488149451E+02  0.50528846047E+02  0.29999958044E+02 0.  0.
        -12    1    1    2    0    0 -0.12224462519E+01 -0.17896574393E+02  0.36488149451E+02  0.40659153953E+02  0.00000000000E+00 0.  1.
         11    1    3    3    0    0 -0.30516304301E+01  0.52134280533E+00 -0.27286371012E+02  0.27461432772E+02  0.51100000000E-03 0. -1.
        -11    1    3    3    0    0 -0.63167827421E+00  0.11703143297E+02 -0.71491717018E+00  0.11741962668E+02  0.51100000000E-03 0.  1.
        -12    1    3    3    0    0  0.49057549562E+01  0.56720882902E+01 -0.84868612685E+01  0.11325450607E+02  0.00000000000E+00 0.  1.
</event>
<event>
 7    1  0.5068291E-011  0.5052886E+02  0.7816164E-02  0.1300439E+00
        -11   -1    0    0    0    0  0.00000000000E+00  0.00000000000E+00  0.45593999997E+02  0.45594000000E+02  0.51100000000E-03 0. -1.
         11   -1    0    0    0    0 -0.00000000000E+00 -0.00000000000E+00 -0.45593999997E+02  0.45594000000E+02  0.51100000000E-03 0.  1.
    9900012    2    1    2    0    0 -0.27545686679E+02 -0.29886041298E+02  0.11068470283E+01  0.50528862904E+02  0.30000009283E+02 0.  0.
        -12    1    1    2    0    0  0.27545686679E+02  0.29886041298E+02 -0.11068470283E+01  0.40659137096E+02  0.00000000000E+00 0.  1.
         11    1    3    3    0    0 -0.19920359054E+02 -0.26244884923E+02 -0.92082636677E+00  0.32961532290E+02  0.51100000000E-03 0. -1.
        -11    1    3    3    0    0 -0.80579050677E+01  0.10295380112E+01 -0.46854405860E+01  0.93778001868E+01  0.51100000000E-03 0.  1.
         12    1    3    3    0    0  0.43257744275E+00 -0.46706943862E+01  0.67131139811E+01  0.81895304271E+01  0.00000000000E+00 0. -1.
</event>
<event>
 7    1  0.5068291E-011  0.5052887E+02  0.7816164E-02  0.1300439E+00
        -11   -1    0    0    0    0  0.00000000000E+00  0.00000000000E+00  0.45593999997E+02  0.45594000000E+02  0.51100000000E-03 0. -1.
         11   -1    0    0    0    0 -0.00000000000E+00 -0.00000000000E+00 -0.45593999997E+02  0.45594000000E+02  0.51100000000E-03 0.  1.
    9900012    2    1    2    0    0 -0.23617852635E+02 -0.26899179689E+02  0.19282016432E+02  0.50528868323E+02  0.30000025756E+02 0.  0.
        -12    1    1    2    0    0  0.23617852635E+02  0.26899179689E+02 -0.19282016432E+02  0.40659131677E+02  0.00000000000E+00 0.  1.
         11    1    3    3    0    0 -0.14828009335E+02 -0.13255286993E+02  0.18734974506E+02  0.27323465448E+02  0.51100000000E-03 0. -1.
        -11    1    3    3    0    0 -0.25883142758E+01 -0.25102750390E+01 -0.73682221932E+01  0.82031426972E+01  0.51100000000E-03 0.  1.
        -12    1    3    3    0    0 -0.62015290243E+01 -0.11133617657E+02  0.79152641197E+01  0.15002260178E+02  0.00000000000E+00 0.  1.
</event>
<event>
 7    1  0.5068291E-011  0.5052886E+02  0.7816164E-02  0.1300439E+00
        -11   -1    0    0    0    0  0.00000000000E+00  0.00000000000E+00  0.45593999997E+02  0.45594000000E+02  0.51100000000E-03 0.  1.
         11   -1    0    0    0    0 -0.00000000000E+00 -0.00000000000E+00 -0.45593999997E+02  0.45594000000E+02  0.51100000000E-03 0. -1.
    9900012    2    1    2    0    0  0.19156031168E+02 -0.31348931357E+02  0.17420001946E+02  0.50528862095E+02  0.30000006825E+02 0.  0.
        -12    1    1    2    0    0 -0.19156031168E+02  0.31348931357E+02 -0.17420001946E+02  0.40659137905E+02  0.00000000000E+00 0.  1.
         11    1    3    3    0    0  0.10900825172E+02 -0.29427105257E+02  0.21088210627E+02  0.37808664893E+02  0.51100000000E-03 0. -1.
        -11    1    3    3    0    0 -0.91756916380E-01  0.13843925939E+01 -0.34733158668E+01  0.37401718620E+01  0.51100000000E-03 0.  1.
         12    1    3    3    0    0  0.83469629122E+01 -0.33062186938E+01 -0.19489281423E+00  0.89800253406E+01  0.00000000000E+00 0. -1.
</event>
<event>
 7    1  0.5068291E-011  0.5052887E+02  0.7816164E-02  0.1300439E+00
        -11   -1    0    0    0    0  0.00000000000E+00  0.00000000000E+00  0.45593999997E+02  0.45594000000E+02  0.51100000000E-03 0. -1.
         11   -1    0    0    0    0 -0.00000000000E+00 -0.00000000000E+00 -0.45593999997E+02  0.45594000000E+02  0.51100000000E-03 0.  1.
    9900012    2    1    2    0    0  0.18503604170E+01 -0.33982027615E+02  0.22247756605E+02  0.50528871770E+02  0.30000036231E+02 0.  0.
        -12    1    1    2    0    0 -0.18503604170E+01  0.33982027615E+02 -0.22247756605E+02  0.40659128230E+02  0.00000000000E+00 0.  1.
         11    1    3    3    0    0 -0.63571940140E+01 -0.90300300318E+01  0.15770769392E+02  0.19252857595E+02  0.51100000000E-03 0. -1.
        -11    1    3    3    0    0  0.53319657509E+01 -0.24431479856E+02  0.95067099182E+00  0.25024604739E+02  0.51100000000E-03 0.  1.
         12    1    3    3    0    0  0.28755886801E+01 -0.52051772719E+00  0.55263162210E+01  0.62514094359E+01  0.00000000000E+00 0. -1.
</event>
<event>
 7    1  0.5068291E-011  0.5052886E+02  0.7816164E-02  0.1300439E+00
        -11   -1    0    0    0    0  0.00000000000E+00  0.00000000000E+00  0.45593999997E+02  0.45594000000E+02  0.51100000000E-03 0.  1.
         11   -1    0    0    0    0 -0.00000000000E+00 -0.00000000000E+00 -0.45593999997E+02  0.45594000000E+02  0.51100000000E-03 0. -1.
    9900012    2    1    2    0    0  0.36141755548E+02  0.14118631546E+02  0.12149212757E+02  0.50528860542E+02  0.30000002104E+02 0.  0.
        -12    1    1    2    0    0 -0.36141755548E+02 -0.14118631546E+02 -0.12149212757E+02  0.40659139458E+02  0.00000000000E+00 0.  1.
         11    1    3    3    0    0  0.15222081197E+02  0.13248757005E+02  0.18932960763E+00  0.20181109090E+02  0.51100000000E-03 0. -1.
        -11    1    3    3    0    0  0.19843167569E+02 -0.59492572270E+01  0.70747570213E+01  0.21890572123E+02  0.51100000000E-03 0.  1.
         12    1    3    3    0    0  0.10765067831E+01  0.68191317678E+01  0.48851261277E+01  0.84571793290E+01  0.00000000000E+00 0. -1.
</event>
<event>
 7    1  0.5068291E-011  0.5052884E+02  0.7816164E-02  0.1300439E+00
        -11   -1    0    0    0    0  0.00000000000E+00  0.00000000000E+00  0.45593999997E+02  0.45594000000E+02  0.51100000000E-03 0.  1.
         11   -1    0    0    0    0 -0.00000000000E+00 -0.00000000000E+00 -0.45593999997E+02  0.45594000000E+02  0.51100000000E-03 0. -1.
    9900012    2    1    2    0    0  0.10548057255E+02  0.10741882761E+02 -0.37769271585E+02  0.50528838263E+02  0.29999934385E+02 0.  0.
        -12    1    1    2    0    0 -0.10548057255E+02 -0.10741882761E+02  0.37769271585E+02  0.40659161737E+02  0.00000000000E+00 0.  1.
         11    1    3    3    0    0  0.30172246249E+01 -0.39473881541E+01 -0.29256011152E+02  0.29674900277E+02  0.51100000000E-03 0. -1.
        -11    1    3    3    0    0 -0.96571149421E+00  0.65443390635E+01 -0.57478758603E+01  0.87635066974E+01  0.51100000000E-03 0.  1.
         12    1    3    3    0    0  0.84965441241E+01  0.81449318513E+01 -0.27653845727E+01  0.12090431289E+02  0.00000000000E+00 0. -1.
</event>
<event>
 7    1  0.5068291E-011  0.5052877E+02  0.7816164E-02  0.1300439E+00
        -11   -1    0    0    0    0  0.00000000000E+00  0.00000000000E+00  0.45593999997E+02  0.45594000000E+02  0.51100000000E-03 0. -1.
         11   -1    0    0    0    0 -0.00000000000E+00 -0.00000000000E+00 -0.45593999997E+02  0.45594000000E+02  0.51100000000E-03 0.  1.
    9900012    2    1    2    0    0  0.22218901739E+02  0.32858654734E+02  0.89332092191E+01  0.50528769654E+02  0.29999725840E+02 0.  0.
        -12    1    1    2    0    0 -0.22218901739E+02 -0.32858654734E+02 -0.89332092191E+01  0.40659230346E+02  0.00000000000E+00 0.  1.
         11    1    3    3    0    0  0.31101997940E+01  0.22431109902E+02  0.43101274169E+01  0.23052228370E+02  0.51100000000E-03 0. -1.
        -11    1    3    3    0    0  0.11988241989E+02 -0.25651740791E+01  0.24514655229E+01  0.12502309687E+02  0.51100000000E-03 0.  1.
        -12    1    3    3    0    0  0.71204599559E+01  0.12992718910E+02  0.21716162793E+01  0.14974231597E+02  0.00000000000E+00 0.  1.
</event>
<event>
 7    1  0.5068291E-011  0.5052887E+02  0.7816164E-02  0.1300439E+00
        -11   -1    0    0    0    0  0.00000000000E+00  0.00000000000E+00  0.45593999997E+02  0.45594000000E+02  0.51100000000E-03 0. -1.
         11   -1    0    0    0    0 -0.00000000000E+00 -0.00000000000E+00 -0.45593999997E+02  0.45594000000E+02  0.51100000000E-03 0.  1.
    9900012    2    1    2    0    0 -0.38122522899E+02 -0.36848960782E+01 -0.13647684170E+02  0.50528874401E+02  0.30000044230E+02 0.  0.
        -12    1    1    2    0    0  0.38122522899E+02  0.36848960782E+01  0.13647684170E+02  0.40659125599E+02  0.00000000000E+00 0.  1.
         11    1    3    3    0    0 -0.11323262814E+02 -0.12628681311E+01 -0.75461803692E+01  0.13665868253E+02  0.51100000000E-03 0. -1.
        -11    1    3    3    0    0  0.25624825190E+01 -0.62042241819E+01 -0.17830140992E+01  0.69453476441E+01  0.51100000000E-03 0.  1.
        -12    1    3    3    0    0 -0.29361742603E+02  0.37821962348E+01 -0.43184897012E+01  0.29917658504E+02  0.00000000000E+00 0.  1.
</event>
<event>
 7    1  0.5068291E-011  0.5052886E+02  0.7816164E-02  0.1300439E+00
        -11   -1    0    0    0    0  0.00000000000E+00  0.00000000000E+00  0.45593999997E+02  0.45594000000E+02  0.51100000000E-03 0.  1.
         11   -1    0    0    0    0 -0.00000000000E+00 -0.00000000000E+00 -0.45593999997E+02  0.45594000000E+02  0.51100000000E-03 0. -1.
    9900012    2    1    2    0    0 -0.34343311442E+02  0.64863817179E+01 -0.20775699783E+02  0.50528857239E+02  0.29999992064E+02 0.  0.
        -12    1    1    2    0    0  0.34343311442E+02 -0.64863817179E+01  0.20775699783E+02  0.40659142761E+02  0.00000000000E+00 0.  1.
         11    1    3    3    0    0 -0.11570836877E+02  0.68165193855E+01 -0.60246150999E+01  0.14718871897E+02  0.51100000000E-03 0. -1.
        -11    1    3    3    0    0 -0.17190398145E+01 -0.39310547736E+01  0.50901299506E+01  0.66571549999E+01  0.51100000000E-03 0.  1.
        -12    1    3    3    0    0 -0.21053434751E+02  0.36009171060E+01 -0.19841214634E+02  0.29152830342E+02  0.00000000000E+00 0.  1.
</event>
<event>
 7    1  0.5068291E-011  0.5052886E+02  0.7816164E-02  0.1300439E+00
        -11   -1    0    0    0    0  0.00000000000E+00  0.00000000000E+00  0.45593999997E+02  0.45594000000E+02  0.51100000000E-03 0.  1.
         11   -1    0    0    0    0 -0.00000000000E+00 -0.00000000000E+00 -0.45593999997E+02  0.45594000000E+02  0.51100000000E-03 0. -1.
    9900012    2    1    2    0    0 -0.15413204231E+02 -0.90650813894E+01 -0.36516068505E+02  0.50528858048E+02  0.29999994521E+02 0.  0.
        -12    1    1    2    0    0  0.15413204231E+02  0.90650813894E+01  0.36516068505E+02  0.40659141952E+02  0.00000000000E+00 0.  1.
         11    1    3    3    0    0 -0.77979210083E+01 -0.26701520033E+01 -0.22795031051E+02  0.24239445634E+02  0.51100000000E-03 0. -1.
        -11    1    3    3    0    0  0.96845235169E+00  0.34213313993E+01  0.32975472440E+01  0.48494563189E+01  0.51100000000E-03 0.  1.
        -12    1    3    3    0    0 -0.85837355743E+01 -0.98162607854E+01 -0.17018584698E+02  0.21439956095E+02  0.00000000000E+00 0.  1.
</event>
<event>
 7    1  0.5068291E-011  0.5052887E+02  0.7816164E-02  0.1300439E+00
        -11   -1    0    0    0    0  0.00000000000E+00  0.00000000000E+00  0.45593999997E+02  0.45594000000E+02  0.51100000000E-03 0. -1.
         11   -1    0    0    0    0 -0.00000000000E+00 -0.00000000000E+00 -0.45593999997E+02  0.45594000000E+02  0.51100000000E-03 0.  1.
    9900012    2    1    2    0    0  0.35061063554E+02  0.20092957521E+02  0.44899353793E+01  0.50528872622E+02  0.30000038820E+02 0.  0.
        -12    1    1    2    0    0 -0.35061063554E+02 -0.20092957521E+02 -0.44899353793E+01  0.40659127378E+02  0.00000000000E+00 0.  1.
         11    1    3    3    0    0  0.17726391985E+02  0.71071042874E+01  0.14512900032E+02  0.23986666541E+02  0.51100000000E-03 0. -1.
        -11    1    3    3    0    0  0.76745419156E+01  0.12561690091E+02 -0.76327695454E+01  0.16581731597E+02  0.51100000000E-03 0.  1.
         12    1    3    3    0    0  0.96601296534E+01  0.42416314262E+00 -0.23901951069E+01  0.99604744837E+01  0.00000000000E+00 0. -1.
</event>
<event>
 7    1  0.5068291E-011  0.5052887E+02  0.7816164E-02  0.1300439E+00
        -11   -1    0    0    0    0  0.00000000000E+00  0.00000000000E+00  0.45593999997E+02  0.45594000000E+02  0.51100000000E-03 0.  1.
         11   -1    0    0    0    0 -0.00000000000E+00 -0.00000000000E+00 -0.45593999997E+02  0.45594000000E+02  0.51100000000E-03 0. -1.
    9900012    2    1    2    0    0  0.33618899385E+01 -0.31127250827E+02 -0.25941416320E+02  0.50528866602E+02  0.30000020522E+02 0.  0.
        -12    1    1    2    0    0 -0.33618899385E+01  0.31127250827E+02  0.25941416320E+02  0.40659133398E+02  0.00000000000E+00 0.  1.
         11    1    3    3    0    0 -0.43376747547E+00  0.44231887479E+01 -0.71119564867E+01  0.83864580278E+01  0.51100000000E-03 0. -1.
        -11    1    3    3    0    0  0.60649159296E+01 -0.20457400674E+02 -0.58967515567E+01  0.22137301705E+02  0.51100000000E-03 0.  1.
         12    1    3    3    0    0 -0.22692585156E+01 -0.15093038901E+02 -0.12932708277E+02  0.20005106869E+02  0.00000000000E+00 0. -1.
</event>
<event>
 7    1  0.5068291E-011  0.5052891E+02  0.7816164E-02  0.1300439E+00
        -11   -1    0    0    0    0  0.00000000000E+00  0.00000000000E+00  0.45593999997E+02  0.45594000000E+02  0.51100000000E-03 0. -1.
         11   -1    0    0    0    0 -0.00000000000E+00 -0.00000000000E+00 -0.45593999997E+02  0.45594000000E+02  0.51100000000E-03 0.  1.
    9900012    2    1    2    0    0 -0.30327855174E+02 -0.40960201781E+01  0.26769486649E+02  0.50528910043E+02  0.30000152565E+02 0.  0.
        -12    1    1    2    0    0  0.30327855174E+02  0.40960201781E+01 -0.26769486649E+02  0.40659089957E+02  0.00000000000E+00 0.  1.
         11    1    3    3    0    0 -0.62204483756E+01  0.74729236742E+01  0.58104554077E+01  0.11326957162E+02  0.51100000000E-03 0. -1.
        -11    1    3    3    0    0 -0.85909034763E+01 -0.56688547590E+01 -0.23772000930E+01  0.10563646026E+02  0.51100000000E-03 0.  1.
        -12    1    3    3    0    0 -0.15516503322E+02 -0.59000890933E+01  0.23336231334E+02  0.28638306855E+02  0.00000000000E+00 0.  1.
</event>
<event>
 7    1  0.5068291E-011  0.5052887E+02  0.7816164E-02  0.1300439E+00
        -11   -1    0    0    0    0  0.00000000000E+00  0.00000000000E+00  0.45593999997E+02  0.45594000000E+02  0.51100000000E-03 0. -1.
         11   -1    0    0    0    0 -0.00000000000E+00 -0.00000000000E+00 -0.45593999997E+02  0.45594000000E+02  0.51100000000E-03 0.  1.
    9900012    2    1    2    0    0 -0.33873185441E+02 -0.19597492375E+02 -0.11032261532E+02  0.50528865801E+02  0.30000018088E+02 0.  0.
        -12    1    1    2    0    0  0.33873185441E+02  0.19597492375E+02  0.11032261532E+02  0.40659134199E+02  0.00000000000E+00 0.  1.
         11    1    3    3    0    0 -0.16746408248E+02 -0.44346142155E+01 -0.94459543522E+01  0.19731549517E+02  0.51100000000E-03 0.  1.
        -11    1    3    3    0    0  0.11694493841E+01 -0.64884933782E+01  0.62507860411E+01  0.90851793914E+01  0.51100000000E-03 0. -1.
        -12    1    3    3    0    0 -0.18296226577E+02 -0.86743847815E+01 -0.78370932209E+01  0.21712136893E+02  0.00000000000E+00 0.  1.
</event>
<event>
 7    1  0.5068291E-011  0.5052886E+02  0.7816164E-02  0.1300439E+00
        -11   -1    0    0    0    0  0.00000000000E+00  0.00000000000E+00  0.45593999997E+02  0.45594000000E+02  0.51100000000E-03 0. -1.
         11   -1    0    0    0    0 -0.00000000000E+00 -0.00000000000E+00 -0.45593999997E+02  0.45594000000E+02  0.51100000000E-03 0.  1.
    9900012    2    1    2    0    0 -0.10913613856E+02  0.23964821155E+02  0.30979770396E+02  0.50528858418E+02  0.29999995649E+02 0.  0.
        -12    1    1    2    0    0  0.10913613856E+02 -0.23964821155E+02 -0.30979770396E+02  0.40659141582E+02  0.00000000000E+00 0.  1.
         11    1    3    3    0    0 -0.45655212863E+01  0.12623552426E+02  0.26607509148E+02  0.29801973153E+02  0.51100000000E-03 0. -1.
        -11    1    3    3    0    0 -0.32292408082E+01  0.14963698785E+02  0.44644940538E+01  0.15945908094E+02  0.51100000000E-03 0.  1.
         12    1    3    3    0    0 -0.31188517612E+01 -0.36224300568E+01 -0.92232805810E-01  0.47809771716E+01  0.00000000000E+00 0. -1.
</event>
<event>
 7    1  0.5068291E-011  0.5052886E+02  0.7816164E-02  0.1300439E+00
        -11   -1    0    0    0    0  0.00000000000E+00  0.00000000000E+00  0.45593999997E+02  0.45594000000E+02  0.51100000000E-03 0.  1.
         11   -1    0    0    0    0 -0.00000000000E+00 -0.00000000000E+00 -0.45593999997E+02  0.45594000000E+02  0.51100000000E-03 0. -1.
    9900012    2    1    2    0    0  0.20668919373E+02 -0.18272639030E+02 -0.29867575789E+02  0.50528860208E+02  0.30000001087E+02 0.  0.
        -12    1    1    2    0    0 -0.20668919373E+02  0.18272639030E+02  0.29867575789E+02  0.40659139792E+02  0.00000000000E+00 0.  1.
         11    1    3    3    0    0  0.25881619024E+01 -0.63837261145E+01 -0.73715638872E+01  0.10089127591E+02  0.51100000000E-03 0. -1.
        -11    1    3    3    0    0 -0.12941988193E+01  0.66528427272E+01 -0.49360421124E+01  0.83844963434E+01  0.51100000000E-03 0.  1.
        -12    1    3    3    0    0  0.19374956290E+02 -0.18541755643E+02 -0.17559969789E+02  0.32055236273E+02  0.00000000000E+00 0.  1.
</event>
<event>
 7    1  0.5068291E-011  0.5052886E+02  0.7816164E-02  0.1300439E+00
        -11   -1    0    0    0    0  0.00000000000E+00  0.00000000000E+00  0.45593999997E+02  0.45594000000E+02  0.51100000000E-03 0.  1.
         11   -1    0    0    0    0 -0.00000000000E+00 -0.00000000000E+00 -0.45593999997E+02  0.45594000000E+02  0.51100000000E-03 0. -1.
    9900012    2    1    2    0    0  0.12086006926E+01 -0.37703365720E+01 -0.40465901838E+02  0.50528863695E+02  0.30000011688E+02 0.  0.
        -12    1    1    2    0    0 -0.12086006926E+01  0.37703365720E+01  0.40465901838E+02  0.40659136305E+02  0.00000000000E+00 0.  1.
         11    1    3    3    0    0  0.83779077066E+01 -0.19949068877E+01 -0.21060451522E+02  0.22753276898E+02  0.51100000000E-03 0. -1.
        -11    1    3    3    0    0 -0.13283210140E+02 -0.98541460729E+00 -0.15675535027E+02  0.20570296843E+02  0.51100000000E-03 0.  1.
        -12    1    3    3    0    0  0.61139031260E+01 -0.79001507706E+00 -0.37299152893E+01  0.72052899540E+01  0.00000000000E+00 0.  1.
</event>
<event>
 7    1  0.5068291E-011  0.5052876E+02  0.7816164E-02  0.1300439E+00
        -11   -1    0    0    0    0  0.00000000000E+00  0.00000000000E+00  0.45593999997E+02  0.45594000000E+02  0.51100000000E-03 0. -1.
         11   -1    0    0    0    0 -0.00000000000E+00 -0.00000000000E+00 -0.45593999997E+02  0.45594000000E+02  0.51100000000E-03 0.  1.
    9900012    2    1    2    0    0  0.18793436841E+02  0.35623030971E+02  0.55659625714E+01  0.50528763126E+02  0.29999705996E+02 0.  0.
        -12    1    1    2    0    0 -0.18793436841E+02 -0.35623030971E+02 -0.55659625714E+01  0.40659236874E+02  0.00000000000E+00 0.  1.
         11    1    3    3    0    0  0.10847921025E+02  0.49162526915E+01 -0.35776719268E+01  0.12435701338E+02  0.51100000000E-03 0. -1.
        -11    1    3    3    0    0 -0.89830461636E+00  0.27339923316E+02  0.83311648071E+01  0.28595221024E+02  0.51100000000E-03 0.  1.
        -12    1    3    3    0    0  0.88438204321E+01  0.33668549635E+01  0.81246969109E+00  0.94978407641E+01  0.00000000000E+00 0.  1.
</event>
<event>
 7    1  0.5068291E-011  0.5052888E+02  0.7816164E-02  0.1300439E+00
        -11   -1    0    0    0    0  0.00000000000E+00  0.00000000000E+00  0.45593999997E+02  0.45594000000E+02  0.51100000000E-03 0. -1.
         11   -1    0    0    0    0 -0.00000000000E+00 -0.00000000000E+00 -0.45593999997E+02  0.45594000000E+02  0.51100000000E-03 0.  1.
    9900012    2    1    2    0    0 -0.24257925322E+02  0.32462172695E+02 -0.33052230070E+01  0.50528879300E+02  0.30000059119E+02 0.  0.
        -12    1    1    2    0    0  0.24257925322E+02 -0.32462172695E+02  0.33052230070E+01  0.40659120700E+02  0.00000000000E+00 0.  1.
         11    1    3    3    0    0 -0.19789558167E+02  0.14097679598E+02 -0.23400837103E+01  0.24409981043E+02  0.51100000000E-03 0. -1.
        -11    1    3    3    0    0 -0.15927279510E+01  0.20817089965E+02 -0.40172667745E+01  0.21260913657E+02  0.51100000000E-03 0.  1.
        -12    1    3    3    0    0 -0.28756392041E+01 -0.24525968680E+01  0.30521274778E+01  0.48579845996E+01  0.00000000000E+00 0.  1.
</event>
<event>
 7    1  0.5068291E-011  0.5052888E+02  0.7816164E-02  0.1300439E+00
        -11   -1    0    0    0    0  0.00000000000E+00  0.00000000000E+00  0.45593999997E+02  0.45594000000E+02  0.51100000000E-03 0.  1.
         11   -1    0    0    0    0 -0.00000000000E+00 -0.00000000000E+00 -0.45593999997E+02  0.45594000000E+02  0.51100000000E-03 0. -1.
    9900012    2    1    2    0    0 -0.35913141175E+02  0.18605793161E+02  0.41514672049E+01  0.50528881365E+02  0.30000065398E+02 0.  0.
        -12    1    1    2    0    0  0.35913141175E+02 -0.18605793161E+02 -0.41514672049E+01  0.40659118635E+02  0.00000000000E+00 0.  1.
         11    1    3    3    0    0 -0.42914953756E+01 -0.41645698448E+01  0.29469288735E+01  0.66667056781E+01  0.51100000000E-03 0. -1.
        -11    1    3    3    0    0 -0.14622503219E+02  0.21823452985E+02  0.41149092038E+01  0.26589719415E+02  0.51100000000E-03 0.  1.
        -12    1    3    3    0    0 -0.16999142580E+02  0.94691002136E+00 -0.29103708724E+01  0.17272456272E+02  0.00000000000E+00 0.  1.
</event>
<event>
 7    1  0.5068291E-011  0.5052888E+02  0.7816164E-02  0.1300439E+00
        -11   -1    0    0    0    0  0.00000000000E+00  0.00000000000E+00  0.45593999997E+02  0.45594000000E+02  0.51100000000E-03 0.  1.
         11   -1    0    0    0    0 -0.00000000000E+00 -0.00000000000E+00 -0.45593999997E+02  0.45594000000E+02  0.51100000000E-03 0. -1.
    9900012    2    1    2    0    0 -0.88482545653E+01  0.34278195560E+02 -0.19996943680E+02  0.50528879790E+02  0.30000060609E+02 0.  0.
        -12    1    1    2    0    0  0.88482545653E+01 -0.34278195560E+02  0.19996943680E+02  0.40659120210E+02  0.00000000000E+00 0.  1.
         11    1    3    3    0    0  0.22210727246E+01  0.11081700583E+02 -0.40305204902E+01  0.11999264459E+02  0.51100000000E-03 0. -1.
        -11    1    3    3    0    0 -0.53697968147E+01 -0.37694905661E+01  0.22352184430E+00  0.65645821828E+01  0.51100000000E-03 0.  1.
        -12    1    3    3    0    0 -0.56995304752E+01  0.26965985543E+02 -0.16189945034E+02  0.31965033148E+02  0.00000000000E+00 0.  1.
</event>
<event>
 7    1  0.5068291E-011  0.5052886E+02  0.7816164E-02  0.1300439E+00
        -11   -1    0    0    0    0  0.00000000000E+00  0.00000000000E+00  0.45593999997E+02  0.45594000000E+02  0.51100000000E-03 0. -1.
         11   -1    0    0    0    0 -0.00000000000E+00 -0.00000000000E+00 -0.45593999997E+02  0.45594000000E+02  0.51100000000E-03 0.  1.
    9900012    2    1    2    0    0  0.29440861091E+02 -0.88725480088E+01  0.26602248347E+02  0.50528855554E+02  0.29999986941E+02 0.  0.
        -12    1    1    2    0    0 -0.29440861091E+02  0.88725480088E+01 -0.26602248347E+02  0.40659144446E+02  0.00000000000E+00 0.  1.
         11    1    3    3    0    0 -0.31565872880E+01 -0.56485995574E+01  0.13827801767E+02  0.15266919212E+02  0.51100000000E-03 0. -1.
        -11    1    3    3    0    0  0.55671904187E+01 -0.15074982846E+00  0.11966843596E+01  0.56963486889E+01  0.51100000000E-03 0.  1.
         12    1    3    3    0    0  0.27030257961E+02 -0.30731986229E+01  0.11577762221E+02  0.29565587652E+02  0.00000000000E+00 0. -1.
</event>
<event>
 7    1  0.5068291E-011  0.5052886E+02  0.7816164E-02  0.1300439E+00
        -11   -1    0    0    0    0  0.00000000000E+00  0.00000000000E+00  0.45593999997E+02  0.45594000000E+02  0.51100000000E-03 0.  1.
         11   -1    0    0    0    0 -0.00000000000E+00 -0.00000000000E+00 -0.45593999997E+02  0.45594000000E+02  0.51100000000E-03 0. -1.
    9900012    2    1    2    0    0 -0.65870694278E+01 -0.84920652569E+01 -0.39213020689E+02  0.50528860221E+02  0.30000001128E+02 0.  0.
        -12    1    1    2    0    0  0.65870694278E+01  0.84920652569E+01  0.39213020689E+02  0.40659139779E+02  0.00000000000E+00 0.  1.
         11    1    3    3    0    0 -0.75406819772E+01 -0.14196429816E+02 -0.31886372785E+02  0.35709120317E+02  0.51100000000E-03 0. -1.
        -11    1    3    3    0    0  0.39426372130E+01  0.88667622170E-01  0.12538850146E+01  0.41381732723E+01  0.51100000000E-03 0.  1.
         12    1    3    3    0    0 -0.29890246637E+01  0.56156969368E+01 -0.85805329193E+01  0.10681566632E+02  0.00000000000E+00 0. -1.
</event>
<event>
 7    1  0.5068291E-011  0.5052885E+02  0.7816164E-02  0.1300439E+00
        -11   -1    0    0    0    0  0.00000000000E+00  0.00000000000E+00  0.45593999997E+02  0.45594000000E+02  0.51100000000E-03 0.  1.
         11   -1    0    0    0    0 -0.00000000000E+00 -0.00000000000E+00 -0.45593999997E+02  0.45594000000E+02  0.51100000000E-03 0. -1.
    9900012    2    1    2    0    0  0.27082229618E+02  0.27641849831E+01  0.30200632595E+02  0.50528854794E+02  0.29999984632E+02 0.  0.
        -12    1    1    2    0    0 -0.27082229618E+02 -0.27641849831E+01 -0.30200632595E+02  0.40659145206E+02  0.00000000000E+00 0.  1.
         11    1    3    3    0    0  0.65509513683E+01 -0.11612604350E+02  0.34503361040E+01  0.13772158985E+02  0.51100000000E-03 0. -1.
        -11    1    3    3    0    0  0.12570717306E+02  0.10165072044E+02  0.18113115817E+02  0.24278315183E+02  0.51100000000E-03 0.  1.
         12    1    3    3    0    0  0.79605609434E+01  0.42117172885E+01  0.86371806744E+01  0.12478380626E+02  0.00000000000E+00 0. -1.
</event>
<event>
 7    1  0.5068291E-011  0.5052882E+02  0.7816164E-02  0.1300439E+00
        -11   -1    0    0    0    0  0.00000000000E+00  0.00000000000E+00  0.45593999997E+02  0.45594000000E+02  0.51100000000E-03 0.  1.
         11   -1    0    0    0    0 -0.00000000000E+00 -0.00000000000E+00 -0.45593999997E+02  0.45594000000E+02  0.51100000000E-03 0. -1.
    9900012    2    1    2    0    0  0.30979043696E+02  0.17322807391E+01 -0.26276742681E+02  0.50528817141E+02  0.29999870180E+02 0.  0.
        -12    1    1    2    0    0 -0.30979043696E+02 -0.17322807391E+01  0.26276742681E+02  0.40659182859E+02  0.00000000000E+00 0.  1.
         11    1    3    3    0    0  0.34815915925E+01 -0.48405584619E+01 -0.17509203984E+01  0.62143550544E+01  0.51100000000E-03 0.  1.
        -11    1    3    3    0    0  0.18373248105E+02  0.12960140597E+02 -0.69994046954E+01  0.23548527694E+02  0.51100000000E-03 0. -1.
         12    1    3    3    0    0  0.91242039981E+01 -0.63873013958E+01 -0.17526417588E+02  0.20765934392E+02  0.00000000000E+00 0. -1.
</event>
<event>
 7    1  0.5068291E-011  0.5052887E+02  0.7816164E-02  0.1300439E+00
        -11   -1    0    0    0    0  0.00000000000E+00  0.00000000000E+00  0.45593999997E+02  0.45594000000E+02  0.51100000000E-03 0.  1.
         11   -1    0    0    0    0 -0.00000000000E+00 -0.00000000000E+00 -0.45593999997E+02  0.45594000000E+02  0.51100000000E-03 0. -1.
    9900012    2    1    2    0    0 -0.13742524251E+02 -0.24609212006E+02 -0.29303483925E+02  0.50528874844E+02  0.30000045574E+02 0.  0.
        -12    1    1    2    0    0  0.13742524251E+02  0.24609212006E+02  0.29303483925E+02  0.40659125156E+02  0.00000000000E+00 0.  1.
         11    1    3    3    0    0 -0.19192190362E+02 -0.13095427030E+02 -0.18538105199E+02  0.29723588690E+02  0.51100000000E-03 0. -1.
        -11    1    3    3    0    0  0.93060813144E+01 -0.67310035855E+01 -0.55957264409E+01  0.12775825349E+02  0.51100000000E-03 0.  1.
        -12    1    3    3    0    0 -0.38564152036E+01 -0.47827813908E+01 -0.51696522850E+01  0.80294608040E+01  0.00000000000E+00 0.  1.
</event>
<event>
 7    1  0.5068291E-011  0.5052886E+02  0.7816164E-02  0.1300439E+00
        -11   -1    0    0    0    0  0.00000000000E+00  0.00000000000E+00  0.45593999997E+02  0.45594000000E+02  0.51100000000E-03 0. -1.
         11   -1    0    0    0    0 -0.00000000000E+00 -0.00000000000E+00 -0.45593999997E+02  0.45594000000E+02  0.51100000000E-03 0.  1.
    9900012    2    1    2    0    0 -0.37575678921E+02 -0.67076920390E+01 -0.14008603091E+02  0.50528859091E+02  0.29999997694E+02 0.  0.
        -12    1    1    2    0    0  0.37575678921E+02  0.67076920390E+01  0.14008603091E+02  0.40659140909E+02  0.00000000000E+00 0.  1.
         11    1    3    3    0    0 -0.15246692457E+02  0.69386974395E+01  0.57108781890E+01  0.17698058735E+02  0.51100000000E-03 0. -1.
        -11    1    3    3    0    0 -0.67323543783E+01 -0.49522688405E+01 -0.55054334365E+01  0.10007964815E+02  0.51100000000E-03 0.  1.
         12    1    3    3    0    0 -0.15596632086E+02 -0.86941206380E+01 -0.14214047843E+02  0.22822835542E+02  0.00000000000E+00 0. -1.
</event>
<event>
 7    1  0.5068291E-011  0.5052887E+02  0.7816164E-02  0.1300439E+00
        -11   -1    0    0    0    0  0.00000000000E+00  0.00000000000E+00  0.45593999997E+02  0.45594000000E+02  0.51100000000E-03 0. -1.
         11   -1    0    0    0    0 -0.00000000000E+00 -0.00000000000E+00 -0.45593999997E+02  0.45594000000E+02  0.51100000000E-03 0.  1.
    9900012    2    1    2    0    0  0.85885312894E+01 -0.17891553758E+02  0.35486540080E+02  0.50528867047E+02  0.30000021877E+02 0.  0.
        -12    1    1    2    0    0 -0.85885312894E+01  0.17891553758E+02 -0.35486540080E+02  0.40659132953E+02  0.00000000000E+00 0.  1.
         11    1    3    3    0    0  0.48231153688E-01 -0.85917544212E+01  0.20109528844E+02  0.21868098245E+02  0.51100000000E-03 0. -1.
        -11    1    3    3    0    0  0.59527564331E+01  0.35570442697E+01 -0.16894182666E+01  0.71373669815E+01  0.51100000000E-03 0.  1.
        -12    1    3    3    0    0  0.25875437026E+01 -0.12856843607E+02  0.17066429503E+02  0.21523401820E+02  0.00000000000E+00 0.  1.
</event>
<event>
 7    1  0.5068291E-011  0.5052887E+02  0.7816164E-02  0.1300439E+00
        -11   -1    0    0    0    0  0.00000000000E+00  0.00000000000E+00  0.45593999997E+02  0.45594000000E+02  0.51100000000E-03 0.  1.
         11   -1    0    0    0    0 -0.00000000000E+00 -0.00000000000E+00 -0.45593999997E+02  0.45594000000E+02  0.51100000000E-03 0. -1.
    9900012    2    1    2    0    0 -0.17747794169E+02 -0.34848074824E+02  0.11126210386E+02  0.50528867270E+02  0.30000022555E+02 0.  0.
        -12    1    1    2    0    0  0.17747794169E+02  0.34848074824E+02 -0.11126210386E+02  0.40659132730E+02  0.00000000000E+00 0.  1.
         11    1    3    3    0    0 -0.16405734238E+02 -0.15317769595E+02 -0.27725249166E+01  0.22615682080E+02  0.51100000000E-03 0. -1.
        -11    1    3    3    0    0 -0.47938962712E+01 -0.98592778172E+01  0.13825181167E+02  0.17644331529E+02  0.51100000000E-03 0.  1.
         12    1    3    3    0    0  0.34518363403E+01 -0.96710274109E+01  0.73554135191E-01  0.10268853661E+02  0.00000000000E+00 0. -1.
</event>
<event>
 7    1  0.5068291E-011  0.5052883E+02  0.7816164E-02  0.1300439E+00
        -11   -1    0    0    0    0  0.00000000000E+00  0.00000000000E+00  0.45593999997E+02  0.45594000000E+02  0.51100000000E-03 0. -1.
         11   -1    0    0    0    0 -0.00000000000E+00 -0.00000000000E+00 -0.45593999997E+02  0.45594000000E+02  0.51100000000E-03 0.  1.
    9900012    2    1    2    0    0 -0.20303543111E+02 -0.31758550000E+02  0.15242333927E+02  0.50528830007E+02  0.29999909289E+02 0.  0.
        -12    1    1    2    0    0  0.20303543111E+02  0.31758550000E+02 -0.15242333927E+02  0.40659169993E+02  0.00000000000E+00 0.  1.
         11    1    3    3    0    0 -0.24148601969E+02 -0.29672771055E+02  0.41468204786E+01  0.38481481774E+02  0.51100000000E-03 0. -1.
        -11    1    3    3    0    0  0.50948956357E+00 -0.50510048050E+00  0.38448689817E+01  0.39112304788E+01  0.51100000000E-03 0.  1.
         12    1    3    3    0    0  0.33355692946E+01 -0.15806784647E+01  0.72506444668E+01  0.81361177543E+01  0.00000000000E+00 0. -1.
</event>
<event>
 7    1  0.5068291E-011  0.5052886E+02  0.7816164E-02  0.1300439E+00
        -11   -1    0    0    0    0  0.00000000000E+00  0.00000000000E+00  0.45593999997E+02  0.45594000000E+02  0.51100000000E-03 0.  1.
         11   -1    0    0    0    0 -0.00000000000E+00 -0.00000000000E+00 -0.45593999997E+02  0.45594000000E+02  0.51100000000E-03 0. -1.
    9900012    2    1    2    0    0  0.19069110347E+02 -0.91779368178E+01 -0.34717431719E+02  0.50528861312E+02  0.30000004445E+02 0.  0.
        -12    1    1    2    0    0 -0.19069110347E+02  0.91779368178E+01  0.34717431719E+02  0.40659138688E+02  0.00000000000E+00 0.  1.
         11    1    3    3    0    0  0.17240799573E+02 -0.16513714947E+02 -0.21916453960E+02  0.32408006815E+02  0.51100000000E-03 0. -1.
        -11    1    3    3    0    0 -0.14328400333E+01  0.77498015724E+01 -0.12555895040E+02  0.14824404052E+02  0.51100000000E-03 0.  1.
         12    1    3    3    0    0  0.32611508070E+01 -0.41402344274E+00 -0.24508271865E+00  0.32964504450E+01  0.00000000000E+00 0. -1.
</event>
<event>
 7    1  0.5068291E-011  0.5052886E+02  0.7816164E-02  0.1300439E+00
        -11   -1    0    0    0    0  0.00000000000E+00  0.00000000000E+00  0.45593999997E+02  0.45594000000E+02  0.51100000000E-03 0.  1.
         11   -1    0    0    0    0 -0.00000000000E+00 -0.00000000000E+00 -0.45593999997E+02  0.45594000000E+02  0.51100000000E-03 0. -1.
    9900012    2    1    2    0    0  0.20558144317E+02  0.10407855225E+02 -0.33499323570E+02  0.50528862924E+02  0.30000009344E+02 0.  0.
        -12    1    1    2    0    0 -0.20558144317E+02 -0.10407855225E+02  0.33499323570E+02  0.40659137076E+02  0.00000000000E+00 0.  1.
         11    1    3    3    0    0  0.12729782501E+02 -0.69311991867E+01 -0.18477051293E+02  0.23483830808E+02  0.51100000000E-03 0. -1.
        -11    1    3    3    0    0  0.92095834526E+01  0.16038763027E+02 -0.86898435463E+01  0.20434571880E+02  0.51100000000E-03 0.  1.
         12    1    3    3    0    0 -0.13812216368E+01  0.13002913842E+01 -0.63324287309E+01  0.66104602355E+01  0.00000000000E+00 0. -1.
</event>
<event>
 7    1  0.5068291E-011  0.5052886E+02  0.7816164E-02  0.1300439E+00
        -11   -1    0    0    0    0  0.00000000000E+00  0.00000000000E+00  0.45593999997E+02  0.45594000000E+02  0.51100000000E-03 0. -1.
         11   -1    0    0    0    0 -0.00000000000E+00 -0.00000000000E+00 -0.45593999997E+02  0.45594000000E+02  0.51100000000E-03 0.  1.
    9900012    2    1    2    0    0 -0.35504594376E+01 -0.16854966275E+02  0.36830286178E+02  0.50528860433E+02  0.30000001774E+02 0.  0.
        -12    1    1    2    0    0  0.35504594376E+01  0.16854966275E+02 -0.36830286178E+02  0.40659139567E+02  0.00000000000E+00 0.  1.
         11    1    3    3    0    0  0.80076769184E+01 -0.22713848530E-02  0.85880709979E+01  0.11742140287E+02  0.51100000000E-03 0. -1.
        -11    1    3    3    0    0 -0.71613403165E+01 -0.18058626408E+02  0.28179720954E+02  0.34227115803E+02  0.51100000000E-03 0.  1.
        -12    1    3    3    0    0 -0.43967960395E+01  0.12059315181E+01  0.62494225440E-01  0.45596043433E+01  0.00000000000E+00 0.  1.
</event>
<event>
 7    1  0.5068291E-011  0.5052886E+02  0.7816164E-02  0.1300439E+00
        -11   -1    0    0    0    0  0.00000000000E+00  0.00000000000E+00  0.45593999997E+02  0.45594000000E+02  0.51100000000E-03 0. -1.
         11   -1    0    0    0    0 -0.00000000000E+00 -0.00000000000E+00 -0.45593999997E+02  0.45594000000E+02  0.51100000000E-03 0.  1.
    9900012    2    1    2    0    0 -0.24072346571E+02 -0.30948988130E+02  0.10763267230E+02  0.50528860103E+02  0.30000000770E+02 0.  0.
        -12    1    1    2    0    0  0.24072346571E+02  0.30948988130E+02 -0.10763267230E+02  0.40659139897E+02  0.00000000000E+00 0.  1.
         11    1    3    3    0    0  0.93826803535E+00 -0.16657220100E+02  0.82058392987E+01  0.18592448123E+02  0.51100000000E-03 0. -1.
        -11    1    3    3    0    0 -0.26446548079E+02 -0.12294683474E+02  0.13489958153E+01  0.29195871917E+02  0.51100000000E-03 0.  1.
        -12    1    3    3    0    0  0.14359334722E+01 -0.19970845555E+01  0.12084321162E+01  0.27405400631E+01  0.00000000000E+00 0.  1.
</event>
<event>
 7    1  0.5068291E-011  0.5052886E+02  0.7816164E-02  0.1300439E+00
        -11   -1    0    0    0    0  0.00000000000E+00  0.00000000000E+00  0.45593999997E+02  0.45594000000E+02  0.51100000000E-03 0.  1.
         11   -1    0    0    0    0 -0.00000000000E+00 -0.00000000000E+00 -0.45593999997E+02  0.45594000000E+02  0.51100000000E-03 0. -1.
    9900012    2    1    2    0    0 -0.73354755008E+01  0.39597331747E+02 -0.56042533583E+01  0.50528861568E+02  0.30000005223E+02 0.  0.
        -12    1    1    2    0    0  0.73354755008E+01 -0.39597331747E+02  0.56042533583E+01  0.40659138432E+02  0.00000000000E+00 0.  1.
         11    1    3    3    0    0 -0.12425315218E+02  0.16029773795E+02 -0.39490946964E+01  0.20662464891E+02  0.51100000000E-03 0. -1.
        -11    1    3    3    0    0  0.10092162609E+02  0.14214585973E+02  0.39426730745E+01  0.17873188628E+02  0.51100000000E-03 0.  1.
        -12    1    3    3    0    0 -0.50023228922E+01  0.93529719797E+01 -0.55978317364E+01  0.11993208050E+02  0.00000000000E+00 0.  1.
</event>
<event>
 7    1  0.5068291E-011  0.5052886E+02  0.7816164E-02  0.1300439E+00
        -11   -1    0    0    0    0  0.00000000000E+00  0.00000000000E+00  0.45593999997E+02  0.45594000000E+02  0.51100000000E-03 0.  1.
         11   -1    0    0    0    0 -0.00000000000E+00 -0.00000000000E+00 -0.45593999997E+02  0.45594000000E+02  0.51100000000E-03 0. -1.
    9900012    2    1    2    0    0 -0.15448208143E+02 -0.99242526389E+01 -0.36277097292E+02  0.50528859414E+02  0.29999998673E+02 0.  0.
        -12    1    1    2    0    0  0.15448208143E+02  0.99242526389E+01  0.36277097292E+02  0.40659140586E+02  0.00000000000E+00 0.  1.
         11    1    3    3    0    0 -0.98900971079E+01 -0.16359004896E+02 -0.25393094802E+02  0.31784277967E+02  0.51100000000E-03 0. -1.
        -11    1    3    3    0    0  0.39731850141E+01  0.31873948948E+01 -0.46815662248E+01  0.69182908258E+01  0.51100000000E-03 0.  1.
        -12    1    3    3    0    0 -0.95312960497E+01  0.32473573623E+01 -0.62024362654E+01  0.11826290621E+02  0.00000000000E+00 0.  1.
</event>
<event>
 7    1  0.5068291E-011  0.5052886E+02  0.7816164E-02  0.1300439E+00
        -11   -1    0    0    0    0  0.00000000000E+00  0.00000000000E+00  0.45593999997E+02  0.45594000000E+02  0.51100000000E-03 0.  1.
         11   -1    0    0    0    0 -0.00000000000E+00 -0.00000000000E+00 -0.45593999997E+02  0.45594000000E+02  0.51100000000E-03 0. -1.
    9900012    2    1    2    0    0  0.27409661231E+02 -0.21573037253E+02 -0.20892106607E+02  0.50528861008E+02  0.30000003519E+02 0.  0.
        -12    1    1    2    0    0 -0.27409661231E+02  0.21573037253E+02  0.20892106607E+02  0.40659138992E+02  0.00000000000E+00 0.  1.
         11    1    3    3    0    0  0.31079706656E+02 -0.22229183782E+02 -0.14780823296E+02  0.40970202770E+02  0.51100000000E-03 0. -1.
        -11    1    3    3    0    0 -0.22592864610E+01  0.33783399079E+01 -0.23093366200E+01  0.46744616515E+01  0.51100000000E-03 0.  1.
         12    1    3    3    0    0 -0.14107589644E+01 -0.27221933787E+01 -0.38019466918E+01  0.48841965863E+01  0.00000000000E+00 0. -1.
</event>
<event>
 7    1  0.5068291E-011  0.5052886E+02  0.7816164E-02  0.1300439E+00
        -11   -1    0    0    0    0  0.00000000000E+00  0.00000000000E+00  0.45593999997E+02  0.45594000000E+02  0.51100000000E-03 0.  1.
         11   -1    0    0    0    0 -0.00000000000E+00 -0.00000000000E+00 -0.45593999997E+02  0.45594000000E+02  0.51100000000E-03 0. -1.
    9900012    2    1    2    0    0  0.37624993070E+02 -0.68691455024E+01 -0.13796401499E+02  0.50528856407E+02  0.29999989533E+02 0.  0.
        -12    1    1    2    0    0 -0.37624993070E+02  0.68691455024E+01  0.13796401499E+02  0.40659143593E+02  0.00000000000E+00 0.  1.
         11    1    3    3    0    0  0.71541888832E+01 -0.50665573776E+01 -0.64904978416E+01  0.10907748839E+02  0.51100000000E-03 0. -1.
        -11    1    3    3    0    0  0.24225522504E+01 -0.40330466848E+01  0.67033841799E+01  0.81896022303E+01  0.51100000000E-03 0.  1.
        -12    1    3    3    0    0  0.28048251936E+02  0.22304585599E+01 -0.14009287838E+02  0.31431505337E+02  0.00000000000E+00 0.  1.
</event>
<event>
 7    1  0.5068291E-011  0.5052884E+02  0.7816164E-02  0.1300439E+00
        -11   -1    0    0    0    0  0.00000000000E+00  0.00000000000E+00  0.45593999997E+02  0.45594000000E+02  0.51100000000E-03 0.  1.
         11   -1    0    0    0    0 -0.00000000000E+00 -0.00000000000E+00 -0.45593999997E+02  0.45594000000E+02  0.51100000000E-03 0. -1.
    9900012    2    1    2    0    0 -0.63928743386E+01 -0.20200638942E+02 -0.34702050266E+02  0.50528844221E+02  0.29999952495E+02 0.  0.
        -12    1    1    2    0    0  0.63928743386E+01  0.20200638942E+02  0.34702050266E+02  0.40659155779E+02  0.00000000000E+00 0.  1.
         11    1    3    3    0    0 -0.10687391364E+02 -0.64564878136E+01 -0.31077436725E+02  0.33491993711E+02  0.51100000000E-03 0. -1.
        -11    1    3    3    0    0  0.42906919093E+00 -0.19527115854E+00  0.18590151121E+01  0.19178552198E+01  0.51100000000E-03 0.  1.
         12    1    3    3    0    0  0.38654478343E+01 -0.13548879970E+02 -0.54836286532E+01  0.15118995291E+02  0.00000000000E+00 0. -1.
</event>
<event>
 7    1  0.5068291E-011  0.5052885E+02  0.7816164E-02  0.1300439E+00
        -11   -1    0    0    0    0  0.00000000000E+00  0.00000000000E+00  0.45593999997E+02  0.45594000000E+02  0.51100000000E-03 0.  1.
         11   -1    0    0    0    0 -0.00000000000E+00 -0.00000000000E+00 -0.45593999997E+02  0.45594000000E+02  0.51100000000E-03 0. -1.
    9900012    2    1    2    0    0 -0.34345190103E+02 -0.68530172885E+01 -0.20654558070E+02  0.50528847301E+02  0.29999961855E+02 0.  0.
        -12    1    1    2    0    0  0.34345190103E+02  0.68530172885E+01  0.20654558070E+02  0.40659152699E+02  0.00000000000E+00 0.  1.
         11    1    3    3    0    0 -0.24979872823E+02  0.48149427123E+01 -0.22161827667E+01  0.25536037004E+02  0.51100000000E-03 0. -1.
        -11    1    3    3    0    0 -0.15541814967E+00 -0.59371793503E+01 -0.77534117624E+01  0.97667623938E+01  0.51100000000E-03 0.  1.
         12    1    3    3    0    0 -0.92098991301E+01 -0.57307806506E+01 -0.10684963541E+02  0.15226047902E+02  0.00000000000E+00 0. -1.
</event>
<event>
 7    1  0.5068291E-011  0.5052886E+02  0.7816164E-02  0.1300439E+00
        -11   -1    0    0    0    0  0.00000000000E+00  0.00000000000E+00  0.45593999997E+02  0.45594000000E+02  0.51100000000E-03 0.  1.
         11   -1    0    0    0    0 -0.00000000000E+00 -0.00000000000E+00 -0.45593999997E+02  0.45594000000E+02  0.51100000000E-03 0. -1.
    9900012    2    1    2    0    0 -0.21770009866E+02 -0.15917686763E+02 -0.30427942542E+02  0.50528858730E+02  0.29999996597E+02 0.  0.
        -12    1    1    2    0    0  0.21770009866E+02  0.15917686763E+02  0.30427942542E+02  0.40659141270E+02  0.00000000000E+00 0.  1.
         11    1    3    3    0    0 -0.12918256809E+02  0.49522219013E+01 -0.14228140062E+02  0.19845549391E+02  0.51100000000E-03 0. -1.
        -11    1    3    3    0    0  0.10996109474E+01 -0.97010657619E+01 -0.11319591052E+02  0.14948343152E+02  0.51100000000E-03 0.  1.
         12    1    3    3    0    0 -0.99513640041E+01 -0.11168842902E+02 -0.48802114279E+01  0.15734966187E+02  0.00000000000E+00 0. -1.
</event>
<event>
 7    1  0.5068291E-011  0.5052886E+02  0.7816164E-02  0.1300439E+00
        -11   -1    0    0    0    0  0.00000000000E+00  0.00000000000E+00  0.45593999997E+02  0.45594000000E+02  0.51100000000E-03 0.  1.
         11   -1    0    0    0    0 -0.00000000000E+00 -0.00000000000E+00 -0.45593999997E+02  0.45594000000E+02  0.51100000000E-03 0. -1.
    9900012    2    1    2    0    0  0.47836710535E+01  0.39923353685E+02  0.60339275376E+01  0.50528856382E+02  0.29999989459E+02 0.  0.
        -12    1    1    2    0    0 -0.47836710535E+01 -0.39923353685E+02 -0.60339275376E+01  0.40659143618E+02  0.00000000000E+00 0.  1.
         11    1    3    3    0    0 -0.82693046022E+00  0.41364760655E+01 -0.31796527559E+01  0.52824653464E+01  0.51100000000E-03 0.  1.
        -11    1    3    3    0    0  0.12824286399E+02  0.70070551385E+01  0.35864484068E+01  0.15047383686E+02  0.51100000000E-03 0. -1.
        -12    1    3    3    0    0 -0.72136848851E+01  0.28779822481E+02  0.56271318867E+01  0.30199007350E+02  0.00000000000E+00 0.  1.
</event>
<event>
 7    1  0.5068291E-011  0.5052888E+02  0.7816164E-02  0.1300439E+00
        -11   -1    0    0    0    0  0.00000000000E+00  0.00000000000E+00  0.45593999997E+02  0.45594000000E+02  0.51100000000E-03 0.  1.
         11   -1    0    0    0    0 -0.00000000000E+00 -0.00000000000E+00 -0.45593999997E+02  0.45594000000E+02  0.51100000000E-03 0. -1.
    9900012    2    1    2    0    0  0.21770301685E+01 -0.28952762505E+02 -0.28463349242E+02  0.50528878427E+02  0.30000056465E+02 0.  0.
        -12    1    1    2    0    0 -0.21770301685E+01  0.28952762505E+02  0.28463349242E+02  0.40659121573E+02  0.00000000000E+00 0.  1.
         11    1    3    3    0    0  0.85403656966E+01 -0.14092533601E+02 -0.26153755627E+02  0.30912073421E+02  0.51100000000E-03 0. -1.
        -11    1    3    3    0    0 -0.29667578742E+01 -0.23470538596E+01  0.37305800558E+01  0.53129598077E+01  0.51100000000E-03 0.  1.
         12    1    3    3    0    0 -0.33965776539E+01 -0.12513175045E+02 -0.60401736705E+01  0.14303845198E+02  0.00000000000E+00 0. -1.
</event>
<event>
 7    1  0.5068291E-011  0.5052886E+02  0.7816164E-02  0.1300439E+00
        -11   -1    0    0    0    0  0.00000000000E+00  0.00000000000E+00  0.45593999997E+02  0.45594000000E+02  0.51100000000E-03 0.  1.
         11   -1    0    0    0    0 -0.00000000000E+00 -0.00000000000E+00 -0.45593999997E+02  0.45594000000E+02  0.51100000000E-03 0. -1.
    9900012    2    1    2    0    0 -0.19547917587E+02 -0.35136209599E+02  0.60407770930E+01  0.50528864558E+02  0.30000014312E+02 0.  0.
        -12    1    1    2    0    0  0.19547917587E+02  0.35136209599E+02 -0.60407770930E+01  0.40659135442E+02  0.00000000000E+00 0.  1.
         11    1    3    3    0    0 -0.20227635728E+02 -0.17406614008E+02  0.70374340301E+01  0.27598422715E+02  0.51100000000E-03 0. -1.
        -11    1    3    3    0    0  0.68564953589E+01 -0.66326885850E+01  0.22926600820E+01  0.98112372810E+01  0.51100000000E-03 0.  1.
         12    1    3    3    0    0 -0.61767772186E+01 -0.11096907006E+02 -0.32893170192E+01  0.13119204563E+02  0.00000000000E+00 0. -1.
</event>
<event>
 7    1  0.5068291E-011  0.5052886E+02  0.7816164E-02  0.1300439E+00
        -11   -1    0    0    0    0  0.00000000000E+00  0.00000000000E+00  0.45593999997E+02  0.45594000000E+02  0.51100000000E-03 0.  1.
         11   -1    0    0    0    0 -0.00000000000E+00 -0.00000000000E+00 -0.45593999997E+02  0.45594000000E+02  0.51100000000E-03 0. -1.
    9900012    2    1    2    0    0  0.10719560962E+02 -0.16342053876E+01 -0.39186552023E+02  0.50528862356E+02  0.30000007617E+02 0.  0.
        -12    1    1    2    0    0 -0.10719560962E+02  0.16342053876E+01  0.39186552023E+02  0.40659137644E+02  0.00000000000E+00 0.  1.
         11    1    3    3    0    0 -0.64895876744E+01  0.19205053981E+00  0.43752198404E+00  0.65071543197E+01  0.51100000000E-03 0.  1.
        -11    1    3    3    0    0  0.10070944075E+02 -0.47579164860E+01 -0.27251864116E+02  0.29440206893E+02  0.51100000000E-03 0. -1.
        -12    1    3    3    0    0  0.71382045615E+01  0.29316605586E+01 -0.12372209891E+02  0.14581501143E+02  0.00000000000E+00 0.  1.
</event>
<event>
 7    1  0.5068291E-011  0.5052886E+02  0.7816164E-02  0.1300439E+00
        -11   -1    0    0    0    0  0.00000000000E+00  0.00000000000E+00  0.45593999997E+02  0.45594000000E+02  0.51100000000E-03 0.  1.
         11   -1    0    0    0    0 -0.00000000000E+00 -0.00000000000E+00 -0.45593999997E+02  0.45594000000E+02  0.51100000000E-03 0. -1.
    9900012    2    1    2    0    0  0.34399266169E+02  0.21508522025E+02 -0.26906897411E+01  0.50528857806E+02  0.29999993787E+02 0.  0.
        -12    1    1    2    0    0 -0.34399266169E+02 -0.21508522025E+02  0.26906897411E+01  0.40659142194E+02  0.00000000000E+00 0.  1.
         11    1    3    3    0    0 -0.16539592544E+01  0.13130332710E+01 -0.71834347783E+01  0.74874143108E+01  0.51100000000E-03 0. -1.
        -11    1    3    3    0    0  0.30679128184E+02  0.14108049757E+02  0.71137446662E+01  0.34508713936E+02  0.51100000000E-03 0.  1.
         12    1    3    3    0    0  0.53740972400E+01  0.60874389965E+01 -0.26209996290E+01  0.85327295596E+01  0.00000000000E+00 0. -1.
</event>
<event>
 7    1  0.5068291E-011  0.5052887E+02  0.7816164E-02  0.1300439E+00
        -11   -1    0    0    0    0  0.00000000000E+00  0.00000000000E+00  0.45593999997E+02  0.45594000000E+02  0.51100000000E-03 0. -1.
         11   -1    0    0    0    0 -0.00000000000E+00 -0.00000000000E+00 -0.45593999997E+02  0.45594000000E+02  0.51100000000E-03 0.  1.
    9900012    2    1    2    0    0  0.10820575183E+02  0.38510149424E+02 -0.72834461223E+01  0.50528867651E+02  0.30000023713E+02 0.  0.
        -12    1    1    2    0    0 -0.10820575183E+02 -0.38510149424E+02  0.72834461223E+01  0.40659132349E+02  0.00000000000E+00 0.  1.
         11    1    3    3    0    0  0.15896671425E+02  0.14553259404E+02 -0.17257588038E+01  0.21621280382E+02  0.51100000000E-03 0. -1.
        -11    1    3    3    0    0 -0.18999240328E+01  0.24187532181E+02 -0.23304901422E+01  0.24373707328E+02  0.51100000000E-03 0.  1.
        -12    1    3    3    0    0 -0.31761722090E+01 -0.23064216123E+00 -0.32271971763E+01  0.45338799413E+01  0.00000000000E+00 0.  1.
</event>
<event>
 7    1  0.5068291E-011  0.5052884E+02  0.7816164E-02  0.1300439E+00
        -11   -1    0    0    0    0  0.00000000000E+00  0.00000000000E+00  0.45593999997E+02  0.45594000000E+02  0.51100000000E-03 0. -1.
         11   -1    0    0    0    0 -0.00000000000E+00 -0.00000000000E+00 -0.45593999997E+02  0.45594000000E+02  0.51100000000E-03 0.  1.
    9900012    2    1    2    0    0  0.16344734073E+02 -0.11321265653E+02  0.35466126569E+02  0.50528837174E+02  0.29999931075E+02 0.  0.
        -12    1    1    2    0    0 -0.16344734073E+02  0.11321265653E+02 -0.35466126569E+02  0.40659162826E+02  0.00000000000E+00 0.  1.
         11    1    3    3    0    0  0.11842880262E+02 -0.35429770507E+01  0.35819524202E+01  0.12869999328E+02  0.51100000000E-03 0.  1.
        -11    1    3    3    0    0 -0.45635480711E+01 -0.20623257989E+01  0.23566717160E+02  0.24092930844E+02  0.51100000000E-03 0. -1.
         12    1    3    3    0    0  0.90654018816E+01 -0.57159628035E+01  0.83174569886E+01  0.13565907003E+02  0.00000000000E+00 0. -1.
</event>
<event>
 7    1  0.5068291E-011  0.5052886E+02  0.7816164E-02  0.1300439E+00
        -11   -1    0    0    0    0  0.00000000000E+00  0.00000000000E+00  0.45593999997E+02  0.45594000000E+02  0.51100000000E-03 0.  1.
         11   -1    0    0    0    0 -0.00000000000E+00 -0.00000000000E+00 -0.45593999997E+02  0.45594000000E+02  0.51100000000E-03 0. -1.
    9900012    2    1    2    0    0  0.82864631451E+01 -0.31647199796E+02 -0.24144459252E+02  0.50528860327E+02  0.30000001451E+02 0.  0.
        -12    1    1    2    0    0 -0.82864631451E+01  0.31647199796E+02  0.24144459252E+02  0.40659139673E+02  0.00000000000E+00 0.  1.
         11    1    3    3    0    0  0.13600575178E+02 -0.23606229049E+02 -0.13284358081E+02  0.30310128093E+02  0.51100000000E-03 0. -1.
        -11    1    3    3    0    0 -0.44363948034E+00 -0.17000500626E+01 -0.12012723830E+02  0.12140532125E+02  0.51100000000E-03 0.  1.
        -12    1    3    3    0    0 -0.48704725524E+01 -0.63409206842E+01  0.11526226601E+01  0.80782001092E+01  0.00000000000E+00 0.  1.
</event>
<event>
 7    1  0.5068291E-011  0.5052885E+02  0.7816164E-02  0.1300439E+00
        -11   -1    0    0    0    0  0.00000000000E+00  0.00000000000E+00  0.45593999997E+02  0.45594000000E+02  0.51100000000E-03 0. -1.
         11   -1    0    0    0    0 -0.00000000000E+00 -0.00000000000E+00 -0.45593999997E+02  0.45594000000E+02  0.51100000000E-03 0.  1.
    9900012    2    1    2    0    0  0.10261970581E+02 -0.33140473425E+02  0.21203001350E+02  0.50528852379E+02  0.29999977291E+02 0.  0.
        -12    1    1    2    0    0 -0.10261970581E+02  0.33140473425E+02 -0.21203001350E+02  0.40659147621E+02  0.00000000000E+00 0.  1.
         11    1    3    3    0    0 -0.33273320858E+01 -0.18247304411E+02 -0.32381325564E+01  0.18828721671E+02  0.51100000000E-03 0. -1.
        -11    1    3    3    0    0  0.11769435054E+02 -0.12523405757E+02  0.21222044889E+02  0.27308066259E+02  0.51100000000E-03 0.  1.
         12    1    3    3    0    0  0.18198676125E+01 -0.23697632569E+01  0.32190890173E+01  0.43920644487E+01  0.00000000000E+00 0. -1.
</event>
<event>
 7    1  0.5068291E-011  0.5052886E+02  0.7816164E-02  0.1300439E+00
        -11   -1    0    0    0    0  0.00000000000E+00  0.00000000000E+00  0.45593999997E+02  0.45594000000E+02  0.51100000000E-03 0.  1.
         11   -1    0    0    0    0 -0.00000000000E+00 -0.00000000000E+00 -0.45593999997E+02  0.45594000000E+02  0.51100000000E-03 0. -1.
    9900012    2    1    2    0    0  0.22290861395E+02 -0.18134909458E+01 -0.33955773333E+02  0.50528858423E+02  0.29999995661E+02 0.  0.
        -12    1    1    2    0    0 -0.22290861395E+02  0.18134909458E+01  0.33955773333E+02  0.40659141577E+02  0.00000000000E+00 0.  1.
         11    1    3    3    0    0  0.13399418196E+02 -0.12548252853E+01 -0.93710668387E+01  0.16399264875E+02  0.51100000000E-03 0. -1.
        -11    1    3    3    0    0 -0.10799773020E+01  0.80443636170E+01 -0.17228491159E+02  0.19044659222E+02  0.51100000000E-03 0.  1.
        -12    1    3    3    0    0  0.99714205013E+01 -0.86030292775E+01 -0.73562153352E+01  0.15084934326E+02  0.00000000000E+00 0.  1.
</event>
<event>
 7    1  0.5068291E-011  0.5052886E+02  0.7816164E-02  0.1300439E+00
        -11   -1    0    0    0    0  0.00000000000E+00  0.00000000000E+00  0.45593999997E+02  0.45594000000E+02  0.51100000000E-03 0.  1.
         11   -1    0    0    0    0 -0.00000000000E+00 -0.00000000000E+00 -0.45593999997E+02  0.45594000000E+02  0.51100000000E-03 0. -1.
    9900012    2    1    2    0    0 -0.33177182508E+02  0.16661863578E+02 -0.16577783961E+02  0.50528855172E+02  0.29999985782E+02 0.  0.
        -12    1    1    2    0    0  0.33177182508E+02 -0.16661863578E+02  0.16577783961E+02  0.40659144828E+02  0.00000000000E+00 0.  1.
         11    1    3    3    0    0 -0.19725151389E+02  0.13964645098E+02  0.26829620002E+01  0.24316479913E+02  0.51100000000E-03 0.  1.
        -11    1    3    3    0    0 -0.11853770514E+02  0.32259519552E+01 -0.20651194383E+02  0.24028950687E+02  0.51100000000E-03 0. -1.
         12    1    3    3    0    0 -0.15982606055E+01 -0.52873347518E+00  0.13904484215E+01  0.21834245724E+01  0.00000000000E+00 0. -1.
</event>
<event>
 7    1  0.5068291E-011  0.5052886E+02  0.7816164E-02  0.1300439E+00
        -11   -1    0    0    0    0  0.00000000000E+00  0.00000000000E+00  0.45593999997E+02  0.45594000000E+02  0.51100000000E-03 0.  1.
         11   -1    0    0    0    0 -0.00000000000E+00 -0.00000000000E+00 -0.45593999997E+02  0.45594000000E+02  0.51100000000E-03 0. -1.
    9900012    2    1    2    0    0 -0.12942809229E+02 -0.27073951593E+02 -0.27434474731E+02  0.50528861183E+02  0.30000004051E+02 0.  0.
        -12    1    1    2    0    0  0.12942809229E+02  0.27073951593E+02  0.27434474731E+02  0.40659138817E+02  0.00000000000E+00 0.  1.
         11    1    3    3    0    0 -0.48874270756E+01 -0.22048502994E+02 -0.31213312526E+02  0.38526540291E+02  0.51100000000E-03 0. -1.
        -11    1    3    3    0    0 -0.19253904772E+00 -0.28619646548E+01  0.23819632926E+01  0.37284933095E+01  0.51100000000E-03 0.  1.
         12    1    3    3    0    0 -0.78628431058E+01 -0.21634839445E+01  0.13968745024E+01  0.82738275822E+01  0.00000000000E+00 0. -1.
</event>
<event>
 7    1  0.5068291E-011  0.5052884E+02  0.7816164E-02  0.1300439E+00
        -11   -1    0    0    0    0  0.00000000000E+00  0.00000000000E+00  0.45593999997E+02  0.45594000000E+02  0.51100000000E-03 0.  1.
         11   -1    0    0    0    0 -0.00000000000E+00 -0.00000000000E+00 -0.45593999997E+02  0.45594000000E+02  0.51100000000E-03 0. -1.
    9900012    2    1    2    0    0 -0.17596424669E+02 -0.15443578283E+02 -0.33241977142E+02  0.50528839708E+02  0.29999938777E+02 0.  0.
        -12    1    1    2    0    0  0.17596424669E+02  0.15443578283E+02  0.33241977142E+02  0.40659160292E+02  0.00000000000E+00 0.  1.
         11    1    3    3    0    0 -0.46362718973E+01  0.25867643327E+01 -0.22850873131E+02  0.23459513420E+02  0.51100000000E-03 0. -1.
        -11    1    3    3    0    0 -0.92664426837E+01 -0.57243381662E+01 -0.58733505078E+00  0.10907794010E+02  0.51100000000E-03 0.  1.
        -12    1    3    3    0    0 -0.36937100883E+01 -0.12306004450E+02 -0.98037689605E+01  0.16161532278E+02  0.00000000000E+00 0.  1.
</event>
<event>
 7    1  0.5068291E-011  0.5052895E+02  0.7816164E-02  0.1300438E+00
        -11   -1    0    0    0    0  0.00000000000E+00  0.00000000000E+00  0.45593999997E+02  0.45594000000E+02  0.51100000000E-03 0. -1.
         11   -1    0    0    0    0 -0.00000000000E+00 -0.00000000000E+00 -0.45593999997E+02  0.45594000000E+02  0.51100000000E-03 0.  1.
    9900012    2    1    2    0    0 -0.29657728661E+02  0.26964979587E+02  0.68166714098E+01  0.50528954234E+02  0.30000286888E+02 0.  0.
        -12    1    1    2    0    0  0.29657728661E+02 -0.26964979587E+02 -0.68166714098E+01  0.40659045766E+02  0.00000000000E+00 0.  1.
         11    1    3    3    0    0 -0.87893911679E+01  0.16895697081E+02  0.10957549896E+02  0.21972388968E+02  0.51100000000E-03 0. -1.
        -11    1    3    3    0    0 -0.10193507631E+02 -0.36397259409E+01 -0.24651136992E+01  0.11100990431E+02  0.51100000000E-03 0.  1.
         12    1    3    3    0    0 -0.10674829863E+02  0.13709008447E+02 -0.16757647870E+01  0.17455574835E+02  0.00000000000E+00 0. -1.
</event>
<event>
 7    1  0.5068291E-011  0.5052887E+02  0.7816164E-02  0.1300439E+00
        -11   -1    0    0    0    0  0.00000000000E+00  0.00000000000E+00  0.45593999997E+02  0.45594000000E+02  0.51100000000E-03 0.  1.
         11   -1    0    0    0    0 -0.00000000000E+00 -0.00000000000E+00 -0.45593999997E+02  0.45594000000E+02  0.51100000000E-03 0. -1.
    9900012    2    1    2    0    0  0.16725270083E+02  0.41327725998E+01 -0.36828664190E+02  0.50528868495E+02  0.30000026277E+02 0.  0.
        -12    1    1    2    0    0 -0.16725270083E+02 -0.41327725998E+01  0.36828664190E+02  0.40659131505E+02  0.00000000000E+00 0.  1.
         11    1    3    3    0    0 -0.19339762914E+01 -0.54437883294E+01 -0.17297927762E+02  0.18237143439E+02  0.51100000000E-03 0. -1.
        -11    1    3    3    0    0  0.10854809677E+02  0.12805795628E+02 -0.15817766012E+02  0.23065494070E+02  0.51100000000E-03 0.  1.
        -12    1    3    3    0    0  0.78044366973E+01 -0.32292346992E+01 -0.37129704158E+01  0.92262309863E+01  0.00000000000E+00 0.  1.
</event>
<event>
 7    1  0.5068291E-011  0.5052886E+02  0.7816164E-02  0.1300439E+00
        -11   -1    0    0    0    0  0.00000000000E+00  0.00000000000E+00  0.45593999997E+02  0.45594000000E+02  0.51100000000E-03 0. -1.
         11   -1    0    0    0    0 -0.00000000000E+00 -0.00000000000E+00 -0.45593999997E+02  0.45594000000E+02  0.51100000000E-03 0.  1.
    9900012    2    1    2    0    0 -0.39667820718E+02 -0.46503384228E+01  0.76160627040E+01  0.50528855161E+02  0.29999985747E+02 0.  0.
        -12    1    1    2    0    0  0.39667820718E+02  0.46503384228E+01 -0.76160627040E+01  0.40659144839E+02  0.00000000000E+00 0.  1.
         11    1    3    3    0    0 -0.30910252758E+02  0.87885574678E+00  0.97737257752E+01  0.32430569356E+02  0.51100000000E-03 0. -1.
        -11    1    3    3    0    0  0.24511137710E+01 -0.43145459250E+01  0.28934892222E+01  0.57441749100E+01  0.51100000000E-03 0.  1.
         12    1    3    3    0    0 -0.11208681731E+02 -0.12146482446E+01 -0.50511522933E+01  0.12354110894E+02  0.00000000000E+00 0. -1.
</event>
<event>
 7    1  0.5068291E-011  0.5052886E+02  0.7816164E-02  0.1300439E+00
        -11   -1    0    0    0    0  0.00000000000E+00  0.00000000000E+00  0.45593999997E+02  0.45594000000E+02  0.51100000000E-03 0.  1.
         11   -1    0    0    0    0 -0.00000000000E+00 -0.00000000000E+00 -0.45593999997E+02  0.45594000000E+02  0.51100000000E-03 0. -1.
    9900012    2    1    2    0    0  0.31922192114E+02 -0.66754268709E+01 -0.24281234317E+02  0.50528855724E+02  0.29999987460E+02 0.  0.
        -12    1    1    2    0    0 -0.31922192114E+02  0.66754268709E+01  0.24281234317E+02  0.40659144276E+02  0.00000000000E+00 0.  1.
         11    1    3    3    0    0  0.13648807042E+02  0.48578420942E+01  0.11734379318E+01  0.14534975759E+02  0.51100000000E-03 0. -1.
        -11    1    3    3    0    0  0.99822474368E+00  0.50129146023E-01 -0.10079175672E+02  0.10128610371E+02  0.51100000000E-03 0.  1.
         12    1    3    3    0    0  0.17275160328E+02 -0.11583398111E+02 -0.15375496577E+02  0.25865269594E+02  0.00000000000E+00 0. -1.
</event>
<event>
 7    1  0.5068291E-011  0.5052885E+02  0.7816164E-02  0.1300439E+00
        -11   -1    0    0    0    0  0.00000000000E+00  0.00000000000E+00  0.45593999997E+02  0.45594000000E+02  0.51100000000E-03 0.  1.
         11   -1    0    0    0    0 -0.00000000000E+00 -0.00000000000E+00 -0.45593999997E+02  0.45594000000E+02  0.51100000000E-03 0. -1.
    9900012    2    1    2    0    0  0.19445119084E+02 -0.14266507373E+02 -0.32734084841E+02  0.50528853438E+02  0.29999980509E+02 0.  0.
        -12    1    1    2    0    0 -0.19445119084E+02  0.14266507373E+02  0.32734084841E+02  0.40659146562E+02  0.00000000000E+00 0.  1.
         11    1    3    3    0    0  0.19136895359E+02 -0.37368337541E+01 -0.11915436207E+02  0.22850871116E+02  0.51100000000E-03 0. -1.
        -11    1    3    3    0    0 -0.13848249284E+01 -0.21903147775E+01 -0.18739968932E+02  0.18918288895E+02  0.51100000000E-03 0.  1.
         12    1    3    3    0    0  0.16930486535E+01 -0.83393588411E+01 -0.20786797022E+01  0.87596934266E+01  0.00000000000E+00 0. -1.
</event>
<event>
 7    1  0.5068291E-011  0.5052887E+02  0.7816164E-02  0.1300439E+00
        -11   -1    0    0    0    0  0.00000000000E+00  0.00000000000E+00  0.45593999997E+02  0.45594000000E+02  0.51100000000E-03 0. -1.
         11   -1    0    0    0    0 -0.00000000000E+00 -0.00000000000E+00 -0.45593999997E+02  0.45594000000E+02  0.51100000000E-03 0.  1.
    9900012    2    1    2    0    0  0.25593566907E+02  0.26604617656E+02  0.17039022074E+02  0.50528872846E+02  0.30000039504E+02 0.  0.
        -12    1    1    2    0    0 -0.25593566907E+02 -0.26604617656E+02 -0.17039022074E+02  0.40659127154E+02  0.00000000000E+00 0.  1.
         11    1    3    3    0    0  0.76424788485E+01  0.53311339334E+00  0.93790008593E+01  0.12110216770E+02  0.51100000000E-03 0. -1.
        -11    1    3    3    0    0  0.18982689727E+02  0.28860394335E+02  0.78997252730E+01  0.35435441723E+02  0.51100000000E-03 0.  1.
        -12    1    3    3    0    0 -0.10316016687E+01 -0.27888900726E+01 -0.23970405854E+00  0.29832143530E+01  0.00000000000E+00 0.  1.
</event>
<event>
 7    1  0.5068291E-011  0.5052886E+02  0.7816164E-02  0.1300439E+00
        -11   -1    0    0    0    0  0.00000000000E+00  0.00000000000E+00  0.45593999997E+02  0.45594000000E+02  0.51100000000E-03 0. -1.
         11   -1    0    0    0    0 -0.00000000000E+00 -0.00000000000E+00 -0.45593999997E+02  0.45594000000E+02  0.51100000000E-03 0.  1.
    9900012    2    1    2    0    0  0.11203336411E+02 -0.25755573225E+02  0.29399007877E+02  0.50528856341E+02  0.29999989335E+02 0.  0.
        -12    1    1    2    0    0 -0.11203336411E+02  0.25755573225E+02 -0.29399007877E+02  0.40659143659E+02  0.00000000000E+00 0.  1.
         11    1    3    3    0    0 -0.63463855934E+01 -0.82345502999E+01  0.17193918133E+00  0.10397787846E+02  0.51100000000E-03 0.  1.
        -11    1    3    3    0    0  0.62651033028E+01 -0.12719405377E+01  0.13214256179E+02  0.14679438638E+02  0.51100000000E-03 0. -1.
         12    1    3    3    0    0  0.11284618702E+02 -0.16249082388E+02  0.16012812517E+02  0.25451629857E+02  0.00000000000E+00 0. -1.
</event>
<event>
 7    1  0.5068291E-011  0.5052886E+02  0.7816164E-02  0.1300439E+00
        -11   -1    0    0    0    0  0.00000000000E+00  0.00000000000E+00  0.45593999997E+02  0.45594000000E+02  0.51100000000E-03 0.  1.
         11   -1    0    0    0    0 -0.00000000000E+00 -0.00000000000E+00 -0.45593999997E+02  0.45594000000E+02  0.51100000000E-03 0. -1.
    9900012    2    1    2    0    0 -0.14820427871E+02  0.94864833127E+01 -0.36654155100E+02  0.50528861617E+02  0.30000005372E+02 0.  0.
        -12    1    1    2    0    0  0.14820427871E+02 -0.94864833127E+01  0.36654155100E+02  0.40659138383E+02  0.00000000000E+00 0.  1.
         11    1    3    3    0    0 -0.55168866303E+01  0.75080029070E+01 -0.28336005255E+02  0.29828431736E+02  0.51100000000E-03 0. -1.
        -11    1    3    3    0    0 -0.13814073437E+02  0.14891592040E+00 -0.45500725030E+01  0.14544894668E+02  0.51100000000E-03 0.  1.
         12    1    3    3    0    0  0.45105321964E+01  0.18295644853E+01 -0.37680773421E+01  0.61555352128E+01  0.00000000000E+00 0. -1.
</event>
<event>
 7    1  0.5068291E-011  0.5052886E+02  0.7816164E-02  0.1300439E+00
        -11   -1    0    0    0    0  0.00000000000E+00  0.00000000000E+00  0.45593999997E+02  0.45594000000E+02  0.51100000000E-03 0.  1.
         11   -1    0    0    0    0 -0.00000000000E+00 -0.00000000000E+00 -0.45593999997E+02  0.45594000000E+02  0.51100000000E-03 0. -1.
    9900012    2    1    2    0    0  0.21311517289E+02 -0.28513406421E+02 -0.19646130343E+02  0.50528861392E+02  0.30000004688E+02 0.  0.
        -12    1    1    2    0    0 -0.21311517289E+02  0.28513406421E+02  0.19646130343E+02  0.40659138608E+02  0.00000000000E+00 0.  1.
         11    1    3    3    0    0  0.11991891368E+02 -0.16666914894E+02 -0.18454818859E+02  0.27607460044E+02  0.51100000000E-03 0. -1.
        -11    1    3    3    0    0 -0.13395813898E+01  0.33566927335E+01 -0.23610605311E+01  0.43169979731E+01  0.51100000000E-03 0.  1.
         12    1    3    3    0    0  0.10659207310E+02 -0.15203184260E+02  0.11697490474E+01  0.18604403376E+02  0.00000000000E+00 0. -1.
</event>
<event>
 7    1  0.5068291E-011  0.5052887E+02  0.7816164E-02  0.1300439E+00
        -11   -1    0    0    0    0  0.00000000000E+00  0.00000000000E+00  0.45593999997E+02  0.45594000000E+02  0.51100000000E-03 0.  1.
         11   -1    0    0    0    0 -0.00000000000E+00 -0.00000000000E+00 -0.45593999997E+02  0.45594000000E+02  0.51100000000E-03 0. -1.
    9900012    2    1    2    0    0 -0.16518417613E+02  0.91296549307E+01 -0.36013276551E+02  0.50528870552E+02  0.30000032529E+02 0.  0.
        -12    1    1    2    0    0  0.16518417613E+02 -0.91296549307E+01  0.36013276551E+02  0.40659129448E+02  0.00000000000E+00 0.  1.
         11    1    3    3    0    0 -0.58923656027E+01  0.49046563212E+01 -0.13233238286E+02  0.15293600682E+02  0.51100000000E-03 0. -1.
        -11    1    3    3    0    0 -0.95472280881E+01 -0.83586224691E+01 -0.54955110134E+01  0.13828115392E+02  0.51100000000E-03 0.  1.
        -12    1    3    3    0    0 -0.10788239219E+01  0.12583621079E+02 -0.17284527251E+02  0.21407154477E+02  0.00000000000E+00 0.  1.
</event>
<event>
 7    1  0.5068291E-011  0.5052886E+02  0.7816164E-02  0.1300439E+00
        -11   -1    0    0    0    0  0.00000000000E+00  0.00000000000E+00  0.45593999997E+02  0.45594000000E+02  0.51100000000E-03 0.  1.
         11   -1    0    0    0    0 -0.00000000000E+00 -0.00000000000E+00 -0.45593999997E+02  0.45594000000E+02  0.51100000000E-03 0. -1.
    9900012    2    1    2    0    0 -0.23776892751E+02 -0.11037914602E+02 -0.31080367680E+02  0.50528862740E+02  0.30000008784E+02 0.  0.
        -12    1    1    2    0    0  0.23776892751E+02  0.11037914602E+02  0.31080367680E+02  0.40659137260E+02  0.00000000000E+00 0.  1.
         11    1    3    3    0    0 -0.14511212832E+02 -0.25547566898E+01 -0.22811341218E+02  0.27156203122E+02  0.51100000000E-03 0. -1.
        -11    1    3    3    0    0 -0.74499848261E+00 -0.90542829280E+01  0.26941259564E+01  0.94759367352E+01  0.51100000000E-03 0.  1.
        -12    1    3    3    0    0 -0.85206814368E+01  0.57112501617E+00 -0.10963152418E+02  0.13896722883E+02  0.00000000000E+00 0.  1.
</event>
<event>
 7    1  0.5068291E-011  0.5052885E+02  0.7816164E-02  0.1300439E+00
        -11   -1    0    0    0    0  0.00000000000E+00  0.00000000000E+00  0.45593999997E+02  0.45594000000E+02  0.51100000000E-03 0. -1.
         11   -1    0    0    0    0 -0.00000000000E+00 -0.00000000000E+00 -0.45593999997E+02  0.45594000000E+02  0.51100000000E-03 0.  1.
    9900012    2    1    2    0    0 -0.23737014952E+02  0.42839050021E+01  0.32731765967E+02  0.50528853130E+02  0.29999979572E+02 0.  0.
        -12    1    1    2    0    0  0.23737014952E+02 -0.42839050021E+01 -0.32731765967E+02  0.40659146870E+02  0.00000000000E+00 0.  1.
         11    1    3    3    0    0 -0.93226373314E+01  0.34362598886E+01  0.29583794399E+02  0.31207696809E+02  0.51100000000E-03 0. -1.
        -11    1    3    3    0    0 -0.60227509377E+01  0.17803444965E+01 -0.46604604991E+01  0.78206807702E+01  0.51100000000E-03 0.  1.
        -12    1    3    3    0    0 -0.83916266832E+01 -0.93269938299E+00  0.78084320670E+01  0.11500475550E+02  0.00000000000E+00 0.  1.
</event>
<event>
 7    1  0.5068291E-011  0.5052887E+02  0.7816164E-02  0.1300439E+00
        -11   -1    0    0    0    0  0.00000000000E+00  0.00000000000E+00  0.45593999997E+02  0.45594000000E+02  0.51100000000E-03 0.  1.
         11   -1    0    0    0    0 -0.00000000000E+00 -0.00000000000E+00 -0.45593999997E+02  0.45594000000E+02  0.51100000000E-03 0. -1.
    9900012    2    1    2    0    0 -0.16826880686E+01  0.16098723081E+02 -0.37298313213E+02  0.50528874425E+02  0.30000044302E+02 0.  0.
        -12    1    1    2    0    0  0.16826880686E+01 -0.16098723081E+02  0.37298313213E+02  0.40659125575E+02  0.00000000000E+00 0.  1.
         11    1    3    3    0    0  0.87260713432E+01  0.57334754318E+01 -0.26573473841E+02  0.28551122112E+02  0.51100000000E-03 0. -1.
        -11    1    3    3    0    0 -0.24063971865E+01  0.80311517316E+01  0.13230172364E-01  0.83839323025E+01  0.51100000000E-03 0.  1.
         12    1    3    3    0    0 -0.80023622253E+01  0.23340959180E+01 -0.10738069545E+02  0.13593820011E+02  0.00000000000E+00 0. -1.
</event>
<event>
 7    1  0.5068291E-011  0.5052886E+02  0.7816164E-02  0.1300439E+00
        -11   -1    0    0    0    0  0.00000000000E+00  0.00000000000E+00  0.45593999997E+02  0.45594000000E+02  0.51100000000E-03 0.  1.
         11   -1    0    0    0    0 -0.00000000000E+00 -0.00000000000E+00 -0.45593999997E+02  0.45594000000E+02  0.51100000000E-03 0. -1.
    9900012    2    1    2    0    0  0.12571674646E+02 -0.25147485309E+02 -0.29372142487E+02  0.50528858653E+02  0.29999996363E+02 0.  0.
        -12    1    1    2    0    0 -0.12571674646E+02  0.25147485309E+02  0.29372142487E+02  0.40659141347E+02  0.00000000000E+00 0.  1.
         11    1    3    3    0    0  0.69027006782E+01 -0.20290390862E+02 -0.27491043060E+02  0.34858351751E+02  0.51100000000E-03 0. -1.
        -11    1    3    3    0    0  0.76851346418E+00 -0.30152464393E+01  0.56784986820E+01  0.64751580349E+01  0.51100000000E-03 0.  1.
        -12    1    3    3    0    0  0.49004605039E+01 -0.18418480076E+01 -0.75595981088E+01  0.91953488678E+01  0.00000000000E+00 0.  1.
</event>
<event>
 7    1  0.5068291E-011  0.5052887E+02  0.7816164E-02  0.1300439E+00
        -11   -1    0    0    0    0  0.00000000000E+00  0.00000000000E+00  0.45593999997E+02  0.45594000000E+02  0.51100000000E-03 0.  1.
         11   -1    0    0    0    0 -0.00000000000E+00 -0.00000000000E+00 -0.45593999997E+02  0.45594000000E+02  0.51100000000E-03 0. -1.
    9900012    2    1    2    0    0 -0.23381993242E+02 -0.23247425227E+02 -0.23790854897E+02  0.50528866163E+02  0.30000019190E+02 0.  0.
        -12    1    1    2    0    0  0.23381993242E+02  0.23247425227E+02  0.23790854897E+02  0.40659133837E+02  0.00000000000E+00 0.  1.
         11    1    3    3    0    0 -0.21048449260E+02 -0.14289957798E+02 -0.25627429465E+02  0.36111012882E+02  0.51100000000E-03 0. -1.
        -11    1    3    3    0    0  0.10661300877E+01 -0.10479317050E+02  0.18410714077E+01  0.10693094192E+02  0.51100000000E-03 0.  1.
         12    1    3    3    0    0 -0.33996740698E+01  0.15218496218E+01 -0.44968392298E-02  0.37247590894E+01  0.00000000000E+00 0. -1.
</event>
<event>
 7    1  0.5068291E-011  0.5052885E+02  0.7816164E-02  0.1300439E+00
        -11   -1    0    0    0    0  0.00000000000E+00  0.00000000000E+00  0.45593999997E+02  0.45594000000E+02  0.51100000000E-03 0.  1.
         11   -1    0    0    0    0 -0.00000000000E+00 -0.00000000000E+00 -0.45593999997E+02  0.45594000000E+02  0.51100000000E-03 0. -1.
    9900012    2    1    2    0    0  0.35645924430E+01  0.10863457313E+02 -0.39018528187E+02  0.50528848927E+02  0.29999966799E+02 0.  0.
        -12    1    1    2    0    0 -0.35645924430E+01 -0.10863457313E+02  0.39018528187E+02  0.40659151073E+02  0.00000000000E+00 0.  1.
         11    1    3    3    0    0 -0.33353336427E+01  0.16422952077E+02 -0.96498096477E+01  0.19337958318E+02  0.51100000000E-03 0. -1.
        -11    1    3    3    0    0  0.40064841888E+01 -0.37589534445E+01 -0.25270839856E+02  0.25861109679E+02  0.51100000000E-03 0.  1.
         12    1    3    3    0    0  0.28934418969E+01 -0.18005413195E+01 -0.40978786833E+01  0.53297809296E+01  0.00000000000E+00 0. -1.
</event>
<event>
 7    1  0.5068291E-011  0.5052885E+02  0.7816164E-02  0.1300439E+00
        -11   -1    0    0    0    0  0.00000000000E+00  0.00000000000E+00  0.45593999997E+02  0.45594000000E+02  0.51100000000E-03 0.  1.
         11   -1    0    0    0    0 -0.00000000000E+00 -0.00000000000E+00 -0.45593999997E+02  0.45594000000E+02  0.51100000000E-03 0. -1.
    9900012    2    1    2    0    0 -0.86229976381E+01 -0.28939817233E+02 -0.27226774031E+02  0.50528851781E+02  0.29999975475E+02 0.  0.
        -12    1    1    2    0    0  0.86229976381E+01  0.28939817233E+02  0.27226774031E+02  0.40659148219E+02  0.00000000000E+00 0.  1.
         11    1    3    3    0    0 -0.46410825273E+01 -0.12385018791E+02 -0.23568625548E+02  0.27026069784E+02  0.51100000000E-03 0. -1.
        -11    1    3    3    0    0  0.34614560884E+01 -0.15214906741E+02 -0.31817901770E+01  0.15924787420E+02  0.51100000000E-03 0.  1.
         12    1    3    3    0    0 -0.74433711992E+01 -0.13398917004E+01 -0.47635830651E+00  0.75779945774E+01  0.00000000000E+00 0. -1.
</event>
<event>
 7    1  0.5068291E-011  0.5052886E+02  0.7816164E-02  0.1300439E+00
        -11   -1    0    0    0    0  0.00000000000E+00  0.00000000000E+00  0.45593999997E+02  0.45594000000E+02  0.51100000000E-03 0. -1.
         11   -1    0    0    0    0 -0.00000000000E+00 -0.00000000000E+00 -0.45593999997E+02  0.45594000000E+02  0.51100000000E-03 0.  1.
    9900012    2    1    2    0    0  0.36113885594E+02  0.17482517611E+02  0.65813890938E+01  0.50528857890E+02  0.29999994042E+02 0.  0.
        -12    1    1    2    0    0 -0.36113885594E+02 -0.17482517611E+02 -0.65813890938E+01  0.40659142110E+02  0.00000000000E+00 0.  1.
         11    1    3    3    0    0  0.30984360854E+01  0.25899129596E+01  0.80925356306E+01  0.90441742855E+01  0.51100000000E-03 0. -1.
        -11    1    3    3    0    0  0.11944941489E+02 -0.65967090215E+00 -0.81404641849E+01  0.14470105399E+02  0.51100000000E-03 0.  1.
        -12    1    3    3    0    0  0.21070508020E+02  0.15552275553E+02  0.66293176481E+01  0.27014578205E+02  0.00000000000E+00 0.  1.
</event>
<event>
 7    1  0.5068291E-011  0.5052886E+02  0.7816164E-02  0.1300439E+00
        -11   -1    0    0    0    0  0.00000000000E+00  0.00000000000E+00  0.45593999997E+02  0.45594000000E+02  0.51100000000E-03 0. -1.
         11   -1    0    0    0    0 -0.00000000000E+00 -0.00000000000E+00 -0.45593999997E+02  0.45594000000E+02  0.51100000000E-03 0.  1.
    9900012    2    1    2    0    0  0.27751341906E+02  0.19326646363E+02  0.22572316301E+02  0.50528859571E+02  0.29999999152E+02 0.  0.
        -12    1    1    2    0    0 -0.27751341906E+02 -0.19326646363E+02 -0.22572316301E+02  0.40659140429E+02  0.00000000000E+00 0.  1.
         11    1    3    3    0    0  0.54105481903E+00  0.99633149759E+01  0.91354472451E+01  0.13528369534E+02  0.51100000000E-03 0. -1.
        -11    1    3    3    0    0  0.27169818567E+02  0.21440119810E+01  0.10525248616E+02  0.29216034759E+02  0.51100000000E-03 0.  1.
        -12    1    3    3    0    0  0.40468520116E-01  0.72193194065E+01  0.29116204398E+01  0.77844552783E+01  0.00000000000E+00 0.  1.
</event>
<event>
 7    1  0.5068291E-011  0.5052887E+02  0.7816164E-02  0.1300439E+00
        -11   -1    0    0    0    0  0.00000000000E+00  0.00000000000E+00  0.45593999997E+02  0.45594000000E+02  0.51100000000E-03 0.  1.
         11   -1    0    0    0    0 -0.00000000000E+00 -0.00000000000E+00 -0.45593999997E+02  0.45594000000E+02  0.51100000000E-03 0. -1.
    9900012    2    1    2    0    0  0.29874068284E+02 -0.24004504743E+01 -0.27476222770E+02  0.50528868971E+02  0.30000027724E+02 0.  0.
        -12    1    1    2    0    0 -0.29874068284E+02  0.24004504743E+01  0.27476222770E+02  0.40659131029E+02  0.00000000000E+00 0.  1.
         11    1    3    3    0    0  0.21352689526E+02 -0.25551225475E+01 -0.17115058887E+02  0.27484381786E+02  0.51100000000E-03 0. -1.
        -11    1    3    3    0    0 -0.10877137899E+00  0.74000489616E+01 -0.90641539217E+01  0.11701770910E+02  0.51100000000E-03 0.  1.
        -12    1    3    3    0    0  0.86301501373E+01 -0.72453768883E+01 -0.12970099616E+01  0.11342716275E+02  0.00000000000E+00 0.  1.
</event>
<event>
 7    1  0.5068291E-011  0.5052886E+02  0.7816164E-02  0.1300439E+00
        -11   -1    0    0    0    0  0.00000000000E+00  0.00000000000E+00  0.45593999997E+02  0.45594000000E+02  0.51100000000E-03 0.  1.
         11   -1    0    0    0    0 -0.00000000000E+00 -0.00000000000E+00 -0.45593999997E+02  0.45594000000E+02  0.51100000000E-03 0. -1.
    9900012    2    1    2    0    0  0.17347865634E+02  0.36145006018E+02 -0.67643042836E+01  0.50528859398E+02  0.29999998625E+02 0.  0.
        -12    1    1    2    0    0 -0.17347865634E+02 -0.36145006018E+02  0.67643042836E+01  0.40659140602E+02  0.00000000000E+00 0.  1.
         11    1    3    3    0    0 -0.49061181995E+01  0.90340749372E+01 -0.13345351466E+01  0.10366556327E+02  0.51100000000E-03 0. -1.
        -11    1    3    3    0    0  0.24107746311E+02  0.25867438443E+02 -0.12004540688E+01  0.35380063511E+02  0.51100000000E-03 0.  1.
        -12    1    3    3    0    0 -0.18537624775E+01  0.12434926378E+01 -0.42293150682E+01  0.47822395600E+01  0.00000000000E+00 0.  1.
</event>
<event>
 7    1  0.5068291E-011  0.5052884E+02  0.7816164E-02  0.1300439E+00
        -11   -1    0    0    0    0  0.00000000000E+00  0.00000000000E+00  0.45593999997E+02  0.45594000000E+02  0.51100000000E-03 0.  1.
         11   -1    0    0    0    0 -0.00000000000E+00 -0.00000000000E+00 -0.45593999997E+02  0.45594000000E+02  0.51100000000E-03 0. -1.
    9900012    2    1    2    0    0 -0.28333812569E+02  0.12072264549E+02 -0.26544734767E+02  0.50528838058E+02  0.29999933760E+02 0.  0.
        -12    1    1    2    0    0  0.28333812569E+02 -0.12072264549E+02  0.26544734767E+02  0.40659161942E+02  0.00000000000E+00 0.  1.
         11    1    3    3    0    0 -0.10443260121E+02  0.84623396427E+01 -0.27355116082E+02  0.30479095300E+02  0.51100000000E-03 0. -1.
        -11    1    3    3    0    0 -0.10789459659E+02 -0.12538619559E+01  0.27969044632E+01  0.11216384639E+02  0.51100000000E-03 0.  1.
         12    1    3    3    0    0 -0.71010927890E+01  0.48637868623E+01 -0.19865231483E+01  0.88333581190E+01  0.00000000000E+00 0. -1.
</event>
<event>
 7    1  0.5068291E-011  0.5052887E+02  0.7816164E-02  0.1300439E+00
        -11   -1    0    0    0    0  0.00000000000E+00  0.00000000000E+00  0.45593999997E+02  0.45594000000E+02  0.51100000000E-03 0.  1.
         11   -1    0    0    0    0 -0.00000000000E+00 -0.00000000000E+00 -0.45593999997E+02  0.45594000000E+02  0.51100000000E-03 0. -1.
    9900012    2    1    2    0    0 -0.77860668668E+01  0.17751209946E+02 -0.35741246298E+02  0.50528868446E+02  0.30000026127E+02 0.  0.
        -12    1    1    2    0    0  0.77860668668E+01 -0.17751209946E+02  0.35741246298E+02  0.40659131554E+02  0.00000000000E+00 0.  1.
         11    1    3    3    0    0 -0.14334397840E+02  0.33150839528E+01 -0.21707202768E+02  0.26223413113E+02  0.51100000000E-03 0. -1.
        -11    1    3    3    0    0  0.45795443184E+01  0.46628566806E+01  0.63805458171E+00  0.65667017976E+01  0.51100000000E-03 0.  1.
        -12    1    3    3    0    0  0.19687866550E+01  0.97732693123E+01 -0.14672098112E+02  0.17738753535E+02  0.00000000000E+00 0.  1.
</event>
<event>
 7    1  0.5068291E-011  0.5052884E+02  0.7816164E-02  0.1300439E+00
        -11   -1    0    0    0    0  0.00000000000E+00  0.00000000000E+00  0.45593999997E+02  0.45594000000E+02  0.51100000000E-03 0.  1.
         11   -1    0    0    0    0 -0.00000000000E+00 -0.00000000000E+00 -0.45593999997E+02  0.45594000000E+02  0.51100000000E-03 0. -1.
    9900012    2    1    2    0    0  0.80713327377E+01 -0.37005310836E+02 -0.14786075903E+02  0.50528837652E+02  0.29999932527E+02 0.  0.
        -12    1    1    2    0    0 -0.80713327377E+01  0.37005310836E+02  0.14786075903E+02  0.40659162348E+02  0.00000000000E+00 0.  1.
         11    1    3    3    0    0  0.67666310349E+01 -0.32535585461E+02 -0.21597302252E+02  0.39633257268E+02  0.51100000000E-03 0. -1.
        -11    1    3    3    0    0 -0.25625756649E+01 -0.25988659632E+01  0.50996277646E+01  0.62711324281E+01  0.51100000000E-03 0.  1.
         12    1    3    3    0    0  0.38672773677E+01 -0.18708594115E+01  0.17115985849E+01  0.46244479554E+01  0.00000000000E+00 0. -1.
</event>
<event>
 7    1  0.6476339E-011  0.5052886E+02  0.7816164E-02  0.1300439E+00
        -11   -1    0    0    0    0  0.00000000000E+00  0.00000000000E+00  0.45593999997E+02  0.45594000000E+02  0.51100000000E-03 0. -1.
         11   -1    0    0    0    0 -0.00000000000E+00 -0.00000000000E+00 -0.45593999997E+02  0.45594000000E+02  0.51100000000E-03 0.  1.
    9900012    2    1    2    0    0 -0.88655830602E+00  0.40017522313E+02  0.71398516663E+01  0.50528861304E+02  0.30000004418E+02 0.  0.
        -12    1    1    2    0    0  0.88655830602E+00 -0.40017522313E+02 -0.71398516663E+01  0.40659138696E+02  0.00000000000E+00 0.  1.
         11    1    3    3    0    0 -0.28007943588E+01  0.24991120353E+02 -0.46063858061E+01  0.25565980051E+02  0.51100000000E-03 0. -1.
        -11    1    3    3    0    0 -0.20865728717E+01 -0.29482550918E+01  0.18914951117E+01  0.40772231303E+01  0.51100000000E-03 0.  1.
         12    1    3    3    0    0  0.40008089245E+01  0.17974657052E+02  0.98547423608E+01  0.20885658122E+02  0.00000000000E+00 0. -1.
</event>
<event>
 7    1  0.5068291E-011  0.5052886E+02  0.7816164E-02  0.1300439E+00
        -11   -1    0    0    0    0  0.00000000000E+00  0.00000000000E+00  0.45593999997E+02  0.45594000000E+02  0.51100000000E-03 0.  1.
         11   -1    0    0    0    0 -0.00000000000E+00 -0.00000000000E+00 -0.45593999997E+02  0.45594000000E+02  0.51100000000E-03 0. -1.
    9900012    2    1    2    0    0 -0.67072398876E+01 -0.39893878782E+02  0.40813331021E+01  0.50528856980E+02  0.29999991277E+02 0.  0.
        -12    1    1    2    0    0  0.67072398876E+01  0.39893878782E+02 -0.40813331021E+01  0.40659143020E+02  0.00000000000E+00 0.  1.
         11    1    3    3    0    0 -0.77058907346E+01 -0.40780751282E+02  0.72871952121E+01  0.42137318869E+02  0.51100000000E-03 0. -1.
        -11    1    3    3    0    0  0.41441561978E+01  0.16626610404E+01 -0.23243503607E+01  0.50339921720E+01  0.51100000000E-03 0.  1.
         12    1    3    3    0    0 -0.31455053508E+01 -0.77578854097E+00 -0.88151174937E+00  0.33575459396E+01  0.00000000000E+00 0. -1.
</event>
<event>
 7    1  0.5068291E-011  0.5052877E+02  0.7816164E-02  0.1300439E+00
        -11   -1    0    0    0    0  0.00000000000E+00  0.00000000000E+00  0.45593999997E+02  0.45594000000E+02  0.51100000000E-03 0.  1.
         11   -1    0    0    0    0 -0.00000000000E+00 -0.00000000000E+00 -0.45593999997E+02  0.45594000000E+02  0.51100000000E-03 0. -1.
    9900012    2    1    2    0    0  0.13875062650E+02 -0.13223035706E+01 -0.38195643456E+02  0.50528769445E+02  0.29999725205E+02 0.  0.
        -12    1    1    2    0    0 -0.13875062650E+02  0.13223035706E+01  0.38195643456E+02  0.40659230555E+02  0.00000000000E+00 0.  1.
         11    1    3    3    0    0  0.72956217359E+01 -0.77234869535E+01 -0.63334762689E+01  0.12368963948E+02  0.51100000000E-03 0. -1.
        -11    1    3    3    0    0 -0.36622156465E+01  0.49963854412E+00 -0.23232157724E+02  0.23524340902E+02  0.51100000000E-03 0.  1.
        -12    1    3    3    0    0  0.10241656560E+02  0.59015448387E+01 -0.86300094634E+01  0.14635464595E+02  0.00000000000E+00 0.  1.
</event>
<event>
 7    1  0.5068291E-011  0.5052882E+02  0.7816164E-02  0.1300439E+00
        -11   -1    0    0    0    0  0.00000000000E+00  0.00000000000E+00  0.45593999997E+02  0.45594000000E+02  0.51100000000E-03 0. -1.
         11   -1    0    0    0    0 -0.00000000000E+00 -0.00000000000E+00 -0.45593999997E+02  0.45594000000E+02  0.51100000000E-03 0.  1.
    9900012    2    1    2    0    0  0.11528891461E+02 -0.29717792793E+02  0.25240960876E+02  0.50528823265E+02  0.29999888797E+02 0.  0.
        -12    1    1    2    0    0 -0.11528891461E+02  0.29717792793E+02 -0.25240960876E+02  0.40659176735E+02  0.00000000000E+00 0.  1.
         11    1    3    3    0    0  0.10553398582E+02 -0.26372479423E+02  0.89673888339E+01  0.29787513412E+02  0.51100000000E-03 0. -1.
        -11    1    3    3    0    0  0.11338951016E+01  0.33563117692E+01  0.46865258746E+00  0.35735391844E+01  0.51100000000E-03 0.  1.
         12    1    3    3    0    0 -0.15840222263E+00 -0.67016251399E+01  0.15804919454E+02  0.17167770669E+02  0.00000000000E+00 0. -1.
</event>
<event>
 7    1  0.7493094E-011  0.5052889E+02  0.7816164E-02  0.1300439E+00
        -11   -1    0    0    0    0  0.00000000000E+00  0.00000000000E+00  0.45593999997E+02  0.45594000000E+02  0.51100000000E-03 0. -1.
         11   -1    0    0    0    0 -0.00000000000E+00 -0.00000000000E+00 -0.45593999997E+02  0.45594000000E+02  0.51100000000E-03 0.  1.
    9900012    2    1    2    0    0 -0.99575352824E+01  0.18494239728E+02  0.34813413777E+02  0.50528890432E+02  0.30000092958E+02 0.  0.
        -12    1    1    2    0    0  0.99575352824E+01 -0.18494239728E+02 -0.34813413777E+02  0.40659109568E+02  0.00000000000E+00 0.  1.
         11    1    3    3    0    0  0.55834577630E+01  0.64842723193E+01  0.16777446671E+02  0.18833573881E+02  0.51100000000E-03 0. -1.
        -11    1    3    3    0    0 -0.49285219093E+01 -0.19576243110E+01 -0.14289675558E+01  0.54922281171E+01  0.51100000000E-03 0.  1.
         12    1    3    3    0    0 -0.10612471136E+02  0.13967591720E+02  0.19464934662E+02  0.26203088434E+02  0.00000000000E+00 0. -1.
</event>
<event>
 7    1  0.5068291E-011  0.5052886E+02  0.7816164E-02  0.1300439E+00
        -11   -1    0    0    0    0  0.00000000000E+00  0.00000000000E+00  0.45593999997E+02  0.45594000000E+02  0.51100000000E-03 0.  1.
         11   -1    0    0    0    0 -0.00000000000E+00 -0.00000000000E+00 -0.45593999997E+02  0.45594000000E+02  0.51100000000E-03 0. -1.
    9900012    2    1    2    0    0  0.31778192070E+02  0.19072100508E+02 -0.16720264960E+02  0.50528858723E+02  0.29999996575E+02 0.  0.
        -12    1    1    2    0    0 -0.31778192070E+02 -0.19072100508E+02  0.16720264960E+02  0.40659141277E+02  0.00000000000E+00 0.  1.
         11    1    3    3    0    0  0.43173747953E+01  0.18995974040E+02 -0.77177227778E+01  0.20953519991E+02  0.51100000000E-03 0. -1.
        -11    1    3    3    0    0  0.17421869905E+02 -0.29084136957E+01 -0.49288825857E+01  0.18337783536E+02  0.51100000000E-03 0.  1.
         12    1    3    3    0    0  0.10038947369E+02  0.29845401639E+01 -0.40736595965E+01  0.11237555196E+02  0.00000000000E+00 0. -1.
</event>
<event>
 7    1  0.5068291E-011  0.5052886E+02  0.7816164E-02  0.1300439E+00
        -11   -1    0    0    0    0  0.00000000000E+00  0.00000000000E+00  0.45593999997E+02  0.45594000000E+02  0.51100000000E-03 0.  1.
         11   -1    0    0    0    0 -0.00000000000E+00 -0.00000000000E+00 -0.45593999997E+02  0.45594000000E+02  0.51100000000E-03 0. -1.
    9900012    2    1    2    0    0 -0.64984106901E+01  0.17002487072E+02 -0.36357281059E+02  0.50528858418E+02  0.29999995649E+02 0.  0.
        -12    1    1    2    0    0  0.64984106901E+01 -0.17002487072E+02  0.36357281059E+02  0.40659141582E+02  0.00000000000E+00 0.  1.
         11    1    3    3    0    0 -0.11037515933E+02  0.22132332667E+02 -0.23174479201E+02  0.33892822157E+02  0.51100000000E-03 0. -1.
        -11    1    3    3    0    0 -0.19491777770E+01 -0.23216908621E+01 -0.32531183978E+01  0.44466079248E+01  0.51100000000E-03 0.  1.
         12    1    3    3    0    0  0.64882830201E+01 -0.28081547330E+01 -0.99296834607E+01  0.12189428337E+02  0.00000000000E+00 0. -1.
</event>
<event>
 7    1  0.5068291E-011  0.5052887E+02  0.7816164E-02  0.1300439E+00
        -11   -1    0    0    0    0  0.00000000000E+00  0.00000000000E+00  0.45593999997E+02  0.45594000000E+02  0.51100000000E-03 0. -1.
         11   -1    0    0    0    0 -0.00000000000E+00 -0.00000000000E+00 -0.45593999997E+02  0.45594000000E+02  0.51100000000E-03 0.  1.
    9900012    2    1    2    0    0  0.27617382720E+02 -0.29804990931E+02 -0.14517164135E+01  0.50528870727E+02  0.30000033062E+02 0.  0.
        -12    1    1    2    0    0 -0.27617382720E+02  0.29804990931E+02  0.14517164135E+01  0.40659129273E+02  0.00000000000E+00 0.  1.
         11    1    3    3    0    0  0.24743665016E+02 -0.30844388311E+02  0.25000898463E+01  0.39621656934E+02  0.51100000000E-03 0. -1.
        -11    1    3    3    0    0 -0.18496683119E+01  0.35044196659E+01  0.46076507164E+00  0.39893025419E+01  0.51100000000E-03 0.  1.
        -12    1    3    3    0    0  0.47233860161E+01 -0.24650222857E+01 -0.44125713314E+01  0.69179112512E+01  0.00000000000E+00 0.  1.
</event>
<event>
 7    1  0.5068291E-011  0.5052886E+02  0.7816164E-02  0.1300439E+00
        -11   -1    0    0    0    0  0.00000000000E+00  0.00000000000E+00  0.45593999997E+02  0.45594000000E+02  0.51100000000E-03 0.  1.
         11   -1    0    0    0    0 -0.00000000000E+00 -0.00000000000E+00 -0.45593999997E+02  0.45594000000E+02  0.51100000000E-03 0. -1.
    9900012    2    1    2    0    0  0.10435100115E+02  0.38930528886E+02  0.53561419836E+01  0.50528860182E+02  0.30000001009E+02 0.  0.
        -12    1    1    2    0    0 -0.10435100115E+02 -0.38930528886E+02 -0.53561419836E+01  0.40659139818E+02  0.00000000000E+00 0.  1.
         11    1    3    3    0    0  0.54975321653E+01  0.27864470075E+02 -0.19035395264E+01  0.28465330061E+02  0.51100000000E-03 0. -1.
        -11    1    3    3    0    0  0.62859723427E+01 -0.28101732637E+01  0.26860434141E+01  0.73908965321E+01  0.51100000000E-03 0.  1.
        -12    1    3    3    0    0 -0.13484043931E+01  0.13876232075E+02  0.45736380959E+01  0.14672633589E+02  0.00000000000E+00 0.  1.
</event>
<event>
 7    1  0.5068291E-011  0.5052886E+02  0.7816164E-02  0.1300439E+00
        -11   -1    0    0    0    0  0.00000000000E+00  0.00000000000E+00  0.45593999997E+02  0.45594000000E+02  0.51100000000E-03 0. -1.
         11   -1    0    0    0    0 -0.00000000000E+00 -0.00000000000E+00 -0.45593999997E+02  0.45594000000E+02  0.51100000000E-03 0.  1.
    9900012    2    1    2    0    0  0.35521193520E+02 -0.17537956669E+02  0.91558968482E+01  0.50528861294E+02  0.30000004390E+02 0.  0.
        -12    1    1    2    0    0 -0.35521193520E+02  0.17537956669E+02 -0.91558968482E+01  0.40659138706E+02  0.00000000000E+00 0.  1.
         11    1    3    3    0    0  0.33040148163E+02 -0.11889534355E+02 -0.85171493335E+00  0.35124604430E+02  0.51100000000E-03 0. -1.
        -11    1    3    3    0    0  0.47300889478E+01  0.48925140580E+00  0.62868303202E+01  0.78827244103E+01  0.51100000000E-03 0.  1.
         12    1    3    3    0    0 -0.22490435906E+01 -0.61376737203E+01  0.37207814614E+01  0.75215324537E+01  0.00000000000E+00 0. -1.
</event>
<event>
 7    1  0.5068291E-011  0.5052885E+02  0.7816164E-02  0.1300439E+00
        -11   -1    0    0    0    0  0.00000000000E+00  0.00000000000E+00  0.45593999997E+02  0.45594000000E+02  0.51100000000E-03 0.  1.
         11   -1    0    0    0    0 -0.00000000000E+00 -0.00000000000E+00 -0.45593999997E+02  0.45594000000E+02  0.51100000000E-03 0. -1.
    9900012    2    1    2    0    0  0.55845295532E+01 -0.47699158202E+01 -0.39990338676E+02  0.50528852755E+02  0.29999978434E+02 0.  0.
        -12    1    1    2    0    0 -0.55845295532E+01  0.47699158202E+01  0.39990338676E+02  0.40659147245E+02  0.00000000000E+00 0.  1.
         11    1    3    3    0    0 -0.20061346911E+01 -0.14408747684E+02 -0.12567433496E+02  0.19224384806E+02  0.51100000000E-03 0. -1.
        -11    1    3    3    0    0  0.11568569409E+01  0.84650017965E+01 -0.16207871453E+02  0.18321835898E+02  0.51100000000E-03 0.  1.
        -12    1    3    3    0    0  0.64338073035E+01  0.11738300677E+01 -0.11215033728E+02  0.12982632051E+02  0.00000000000E+00 0.  1.
</event>
<event>
 7    1  0.5068291E-011  0.5052886E+02  0.7816164E-02  0.1300439E+00
        -11   -1    0    0    0    0  0.00000000000E+00  0.00000000000E+00  0.45593999997E+02  0.45594000000E+02  0.51100000000E-03 0. -1.
         11   -1    0    0    0    0 -0.00000000000E+00 -0.00000000000E+00 -0.45593999997E+02  0.45594000000E+02  0.51100000000E-03 0.  1.
    9900012    2    1    2    0    0 -0.27594767397E+02 -0.15512599707E+02 -0.25515751573E+02  0.50528861842E+02  0.30000006056E+02 0.  0.
        -12    1    1    2    0    0  0.27594767397E+02  0.15512599707E+02  0.25515751573E+02  0.40659138158E+02  0.00000000000E+00 0.  1.
         11    1    3    3    0    0 -0.10671994388E+02 -0.68279868614E+01 -0.26041710913E+02  0.28960034122E+02  0.51100000000E-03 0. -1.
        -11    1    3    3    0    0 -0.22500067486E+01  0.23100839678E+01 -0.41449467237E-01  0.32250173064E+01  0.51100000000E-03 0.  1.
         12    1    3    3    0    0 -0.14672766260E+02 -0.10994696813E+02  0.56740880724E+00  0.18343810414E+02  0.00000000000E+00 0. -1.
</event>
<event>
 7    1  0.5068291E-011  0.5052886E+02  0.7816164E-02  0.1300439E+00
        -11   -1    0    0    0    0  0.00000000000E+00  0.00000000000E+00  0.45593999997E+02  0.45594000000E+02  0.51100000000E-03 0.  1.
         11   -1    0    0    0    0 -0.00000000000E+00 -0.00000000000E+00 -0.45593999997E+02  0.45594000000E+02  0.51100000000E-03 0. -1.
    9900012    2    1    2    0    0 -0.93752964386E+01  0.23034938123E+01 -0.39496371145E+02  0.50528860798E+02  0.30000002881E+02 0.  0.
        -12    1    1    2    0    0  0.93752964386E+01 -0.23034938123E+01  0.39496371145E+02  0.40659139202E+02  0.00000000000E+00 0.  1.
         11    1    3    3    0    0 -0.51486338925E+01 -0.68784633506E+01 -0.28860498553E+02  0.30112290946E+02  0.51100000000E-03 0. -1.
        -11    1    3    3    0    0 -0.89660227423E+01  0.58190507266E+01 -0.35728354416E+01  0.11270140573E+02  0.51100000000E-03 0.  1.
        -12    1    3    3    0    0  0.47393601962E+01  0.33629064364E+01 -0.70630371502E+01  0.91464292789E+01  0.00000000000E+00 0.  1.
</event>
<event>
 7    1  0.5068291E-011  0.5052891E+02  0.7816164E-02  0.1300439E+00
        -11   -1    0    0    0    0  0.00000000000E+00  0.00000000000E+00  0.45593999997E+02  0.45594000000E+02  0.51100000000E-03 0. -1.
         11   -1    0    0    0    0 -0.00000000000E+00 -0.00000000000E+00 -0.45593999997E+02  0.45594000000E+02  0.51100000000E-03 0.  1.
    9900012    2    1    2    0    0 -0.14422320588E+02  0.18717813610E+02  0.33087794224E+02  0.50528905026E+02  0.30000137317E+02 0.  0.
        -12    1    1    2    0    0  0.14422320588E+02 -0.18717813610E+02 -0.33087794224E+02  0.40659094974E+02  0.00000000000E+00 0.  1.
         11    1    3    3    0    0 -0.93566392501E+01  0.85203111066E+01  0.75887483887E+01  0.14755727762E+02  0.51100000000E-03 0. -1.
        -11    1    3    3    0    0  0.47414713484E+01 -0.28332804789E+01  0.15938674449E+02  0.16868620935E+02  0.51100000000E-03 0.  1.
        -12    1    3    3    0    0 -0.98071526860E+01  0.13030782982E+02  0.95603713868E+01  0.18904556329E+02  0.00000000000E+00 0.  1.
</event>
<event>
 7    1  0.5068291E-011  0.5052887E+02  0.7816164E-02  0.1300439E+00
        -11   -1    0    0    0    0  0.00000000000E+00  0.00000000000E+00  0.45593999997E+02  0.45594000000E+02  0.51100000000E-03 0.  1.
         11   -1    0    0    0    0 -0.00000000000E+00 -0.00000000000E+00 -0.45593999997E+02  0.45594000000E+02  0.51100000000E-03 0. -1.
    9900012    2    1    2    0    0 -0.20628109175E+02  0.20848342200E+02 -0.28160128246E+02  0.50528867159E+02  0.30000022215E+02 0.  0.
        -12    1    1    2    0    0  0.20628109175E+02 -0.20848342200E+02  0.28160128246E+02  0.40659132841E+02  0.00000000000E+00 0.  1.
         11    1    3    3    0    0 -0.82477980978E+01  0.14957280076E+02 -0.20842508683E+02  0.26947292428E+02  0.51100000000E-03 0. -1.
        -11    1    3    3    0    0 -0.50940746567E+01  0.68018552430E+01  0.45398603712E+01  0.96345816622E+01  0.51100000000E-03 0.  1.
        -12    1    3    3    0    0 -0.72862364202E+01 -0.91079311873E+00 -0.11857479934E+02  0.13946993068E+02  0.00000000000E+00 0.  1.
</event>
<event>
 7    1  0.5068291E-011  0.5052886E+02  0.7816164E-02  0.1300439E+00
        -11   -1    0    0    0    0  0.00000000000E+00  0.00000000000E+00  0.45593999997E+02  0.45594000000E+02  0.51100000000E-03 0.  1.
         11   -1    0    0    0    0 -0.00000000000E+00 -0.00000000000E+00 -0.45593999997E+02  0.45594000000E+02  0.51100000000E-03 0. -1.
    9900012    2    1    2    0    0 -0.23071497231E+02 -0.20218929740E+01 -0.33418306931E+02  0.50528864817E+02  0.30000015098E+02 0.  0.
        -12    1    1    2    0    0  0.23071497231E+02  0.20218929740E+01  0.33418306931E+02  0.40659135183E+02  0.00000000000E+00 0.  1.
         11    1    3    3    0    0 -0.11027420225E+02 -0.26280076239E+01 -0.33284692174E+02  0.35162212021E+02  0.51100000000E-03 0. -1.
        -11    1    3    3    0    0 -0.73627025496E+01 -0.32890705553E+01 -0.30409690831E+01  0.86182867890E+01  0.51100000000E-03 0.  1.
         12    1    3    3    0    0 -0.46813744566E+01  0.38951852052E+01  0.29073543255E+01  0.67483660066E+01  0.00000000000E+00 0. -1.
</event>
<event>
 7    1  0.5068291E-011  0.5052886E+02  0.7816164E-02  0.1300439E+00
        -11   -1    0    0    0    0  0.00000000000E+00  0.00000000000E+00  0.45593999997E+02  0.45594000000E+02  0.51100000000E-03 0.  1.
         11   -1    0    0    0    0 -0.00000000000E+00 -0.00000000000E+00 -0.45593999997E+02  0.45594000000E+02  0.51100000000E-03 0. -1.
    9900012    2    1    2    0    0  0.33471907517E+02  0.13202309402E+02 -0.18933989286E+02  0.50528861831E+02  0.30000006020E+02 0.  0.
        -12    1    1    2    0    0 -0.33471907517E+02 -0.13202309402E+02  0.18933989286E+02  0.40659138169E+02  0.00000000000E+00 0.  1.
         11    1    3    3    0    0  0.18701866253E+02  0.16210176980E+02 -0.12646278399E+02  0.27793128588E+02  0.51100000000E-03 0. -1.
        -11    1    3    3    0    0  0.12084005279E+02 -0.91397885166E+01 -0.41765104847E+01  0.15716302294E+02  0.51100000000E-03 0.  1.
         12    1    3    3    0    0  0.26860359850E+01  0.61319209381E+01 -0.21112004025E+01  0.70194309487E+01  0.00000000000E+00 0. -1.
</event>
<event>
 7    1  0.5068291E-011  0.5052886E+02  0.7816164E-02  0.1300439E+00
        -11   -1    0    0    0    0  0.00000000000E+00  0.00000000000E+00  0.45593999997E+02  0.45594000000E+02  0.51100000000E-03 0.  1.
         11   -1    0    0    0    0 -0.00000000000E+00 -0.00000000000E+00 -0.45593999997E+02  0.45594000000E+02  0.51100000000E-03 0. -1.
    9900012    2    1    2    0    0 -0.28747856735E+02  0.12839740283E+01 -0.28724165129E+02  0.50528861808E+02  0.30000005952E+02 0.  0.
        -12    1    1    2    0    0  0.28747856735E+02 -0.12839740283E+01  0.28724165129E+02  0.40659138192E+02  0.00000000000E+00 0.  1.
         11    1    3    3    0    0 -0.22246669508E+02  0.96142280785E+01 -0.26108815054E+02  0.35623277636E+02  0.51100000000E-03 0. -1.
        -11    1    3    3    0    0 -0.77887169318E+01 -0.65759333294E+01  0.14484058925E+01  0.10295867641E+02  0.51100000000E-03 0.  1.
         12    1    3    3    0    0  0.12875297049E+01 -0.17543207208E+01 -0.40637559669E+01  0.46097165304E+01  0.00000000000E+00 0. -1.
</event>
<event>
 7    1  0.5068291E-011  0.5052885E+02  0.7816164E-02  0.1300439E+00
        -11   -1    0    0    0    0  0.00000000000E+00  0.00000000000E+00  0.45593999997E+02  0.45594000000E+02  0.51100000000E-03 0.  1.
         11   -1    0    0    0    0 -0.00000000000E+00 -0.00000000000E+00 -0.45593999997E+02  0.45594000000E+02  0.51100000000E-03 0. -1.
    9900012    2    1    2    0    0 -0.26770371301E+01  0.32460381568E+02 -0.24337697834E+02  0.50528850535E+02  0.29999971688E+02 0.  0.
        -12    1    1    2    0    0  0.26770371301E+01 -0.32460381568E+02  0.24337697834E+02  0.40659149465E+02  0.00000000000E+00 0.  1.
         11    1    3    3    0    0 -0.17803431151E+01  0.93430495111E+01  0.76750885427E+00  0.95420786979E+01  0.51100000000E-03 0. -1.
        -11    1    3    3    0    0 -0.26050238598E+01  0.17736555758E+02 -0.29024362506E+02  0.34114295810E+02  0.51100000000E-03 0.  1.
        -12    1    3    3    0    0  0.17083298449E+01  0.53807762980E+01  0.39191558173E+01  0.68724760275E+01  0.00000000000E+00 0.  1.
</event>
<event>
 7    1  0.5068291E-011  0.5052886E+02  0.7816164E-02  0.1300439E+00
        -11   -1    0    0    0    0  0.00000000000E+00  0.00000000000E+00  0.45593999997E+02  0.45594000000E+02  0.51100000000E-03 0. -1.
         11   -1    0    0    0    0 -0.00000000000E+00 -0.00000000000E+00 -0.45593999997E+02  0.45594000000E+02  0.51100000000E-03 0.  1.
    9900012    2    1    2    0    0  0.30430100080E+02  0.14546416712E+02  0.22706312983E+02  0.50528857371E+02  0.29999992464E+02 0.  0.
        -12    1    1    2    0    0 -0.30430100080E+02 -0.14546416712E+02 -0.22706312983E+02  0.40659142629E+02  0.00000000000E+00 0.  1.
         11    1    3    3    0    0 -0.13453320051E+01  0.52151748986E+01  0.32221625793E+01  0.62761691640E+01  0.51100000000E-03 0. -1.
        -11    1    3    3    0    0  0.34440320102E+02  0.83184999504E+01  0.20829989441E+02  0.41100140517E+02  0.51100000000E-03 0.  1.
        -12    1    3    3    0    0 -0.26648880167E+01  0.10127418630E+01 -0.13458390368E+01  0.31525476897E+01  0.00000000000E+00 0.  1.
</event>
<event>
 7    1  0.5068291E-011  0.5052886E+02  0.7816164E-02  0.1300439E+00
        -11   -1    0    0    0    0  0.00000000000E+00  0.00000000000E+00  0.45593999997E+02  0.45594000000E+02  0.51100000000E-03 0. -1.
         11   -1    0    0    0    0 -0.00000000000E+00 -0.00000000000E+00 -0.45593999997E+02  0.45594000000E+02  0.51100000000E-03 0.  1.
    9900012    2    1    2    0    0 -0.12605864404E+02 -0.19863428342E+00  0.38655117826E+02  0.50528863178E+02  0.30000010116E+02 0.  0.
        -12    1    1    2    0    0  0.12605864404E+02  0.19863428342E+00 -0.38655117826E+02  0.40659136822E+02  0.00000000000E+00 0.  1.
         11    1    3    3    0    0 -0.17036040066E+02  0.88836218748E+01  0.21089516753E+02  0.28529162551E+02  0.51100000000E-03 0.  1.
        -11    1    3    3    0    0  0.31356787659E+01 -0.44822560830E+01  0.16096043884E+02  0.17000168525E+02  0.51100000000E-03 0. -1.
        -12    1    3    3    0    0  0.12944968954E+01 -0.46000000752E+01  0.14695571892E+01  0.49995321018E+01  0.00000000000E+00 0.  1.
</event>
<event>
 7    1  0.5068291E-011  0.5052886E+02  0.7816164E-02  0.1300439E+00
        -11   -1    0    0    0    0  0.00000000000E+00  0.00000000000E+00  0.45593999997E+02  0.45594000000E+02  0.51100000000E-03 0.  1.
         11   -1    0    0    0    0 -0.00000000000E+00 -0.00000000000E+00 -0.45593999997E+02  0.45594000000E+02  0.51100000000E-03 0. -1.
    9900012    2    1    2    0    0  0.19762068079E+02 -0.20177654922E+02 -0.29248739929E+02  0.50528857359E+02  0.29999992428E+02 0.  0.
        -12    1    1    2    0    0 -0.19762068079E+02  0.20177654922E+02  0.29248739929E+02  0.40659142641E+02  0.00000000000E+00 0.  1.
         11    1    3    3    0    0  0.16569935491E+02 -0.14766303916E+00 -0.79709217207E+01  0.18388043939E+02  0.51100000000E-03 0. -1.
        -11    1    3    3    0    0  0.40962903113E+01 -0.18652088101E+02 -0.22907287387E+02  0.29823209091E+02  0.51100000000E-03 0.  1.
        -12    1    3    3    0    0 -0.90415772357E+00 -0.13779037816E+01  0.16294691785E+01  0.23176043286E+01  0.00000000000E+00 0.  1.
</event>
<event>
 7    1  0.5068291E-011  0.5052875E+02  0.7816164E-02  0.1300439E+00
        -11   -1    0    0    0    0  0.00000000000E+00  0.00000000000E+00  0.45593999997E+02  0.45594000000E+02  0.51100000000E-03 0. -1.
         11   -1    0    0    0    0 -0.00000000000E+00 -0.00000000000E+00 -0.45593999997E+02  0.45594000000E+02  0.51100000000E-03 0.  1.
    9900012    2    1    2    0    0  0.31903738755E+02  0.17778715061E+02  0.17867375425E+02  0.50528753077E+02  0.29999675451E+02 0.  0.
        -12    1    1    2    0    0 -0.31903738755E+02 -0.17778715061E+02 -0.17867375425E+02  0.40659246923E+02  0.00000000000E+00 0.  1.
         11    1    3    3    0    0  0.27982745867E+02  0.10276003283E+02  0.18229500422E+02  0.34942023348E+02  0.51100000000E-03 0. -1.
        -11    1    3    3    0    0  0.56609210286E+01  0.10522546011E+02 -0.11802053412E+01  0.12006785013E+02  0.51100000000E-03 0.  1.
         12    1    3    3    0    0 -0.17399281405E+01 -0.30198342322E+01  0.81808034410E+00  0.35799447166E+01  0.00000000000E+00 0. -1.
</event>
<event>
 7    1  0.5068291E-011  0.5052885E+02  0.7816164E-02  0.1300439E+00
        -11   -1    0    0    0    0  0.00000000000E+00  0.00000000000E+00  0.45593999997E+02  0.45594000000E+02  0.51100000000E-03 0.  1.
         11   -1    0    0    0    0 -0.00000000000E+00 -0.00000000000E+00 -0.45593999997E+02  0.45594000000E+02  0.51100000000E-03 0. -1.
    9900012    2    1    2    0    0  0.36399493824E+02 -0.13914863231E+02 -0.11602569074E+02  0.50528853692E+02  0.29999981283E+02 0.  0.
        -12    1    1    2    0    0 -0.36399493824E+02  0.13914863231E+02  0.11602569074E+02  0.40659146308E+02  0.00000000000E+00 0.  1.
         11    1    3    3    0    0  0.16159684126E+02 -0.15343326205E+02  0.38340013806E+01  0.22610895978E+02  0.51100000000E-03 0. -1.
        -11    1    3    3    0    0  0.68607367753E+01  0.28226283742E+01  0.31911423412E-01  0.74187572166E+01  0.51100000000E-03 0.  1.
         12    1    3    3    0    0  0.13379072922E+02 -0.13941654003E+01 -0.15468481878E+02  0.20499200498E+02  0.00000000000E+00 0. -1.
</event>
<event>
 7    1  0.5068291E-011  0.5052887E+02  0.7816164E-02  0.1300439E+00
        -11   -1    0    0    0    0  0.00000000000E+00  0.00000000000E+00  0.45593999997E+02  0.45594000000E+02  0.51100000000E-03 0. -1.
         11   -1    0    0    0    0 -0.00000000000E+00 -0.00000000000E+00 -0.45593999997E+02  0.45594000000E+02  0.51100000000E-03 0.  1.
    9900012    2    1    2    0    0 -0.29575172653E+02 -0.68295493868E+00  0.27892793444E+02  0.50528865836E+02  0.30000018194E+02 0.  0.
        -12    1    1    2    0    0  0.29575172653E+02  0.68295493868E+00 -0.27892793444E+02  0.40659134164E+02  0.00000000000E+00 0.  1.
         11    1    3    3    0    0 -0.20846643089E+02  0.68287406500E-01  0.30866097431E+02  0.37246518792E+02  0.51100000000E-03 0. -1.
        -11    1    3    3    0    0 -0.12130939457E+01 -0.23103431268E+01  0.26869446900E+01  0.37455245711E+01  0.51100000000E-03 0.  1.
         12    1    3    3    0    0 -0.75154356180E+01  0.15591007816E+01 -0.56602486775E+01  0.95368224723E+01  0.00000000000E+00 0. -1.
</event>
<event>
 7    1  0.5068291E-011  0.5052887E+02  0.7816164E-02  0.1300439E+00
        -11   -1    0    0    0    0  0.00000000000E+00  0.00000000000E+00  0.45593999997E+02  0.45594000000E+02  0.51100000000E-03 0. -1.
         11   -1    0    0    0    0 -0.00000000000E+00 -0.00000000000E+00 -0.45593999997E+02  0.45594000000E+02  0.51100000000E-03 0.  1.
    9900012    2    1    2    0    0 -0.37291253372E+02 -0.16183669613E+02  0.78503040951E+00  0.50528868025E+02  0.30000024848E+02 0.  0.
        -12    1    1    2    0    0  0.37291253372E+02  0.16183669613E+02 -0.78503040951E+00  0.40659131975E+02  0.00000000000E+00 0.  1.
         11    1    3    3    0    0 -0.21528662669E+02 -0.19931598226E+02  0.58510390424E+01  0.29916326350E+02  0.51100000000E-03 0. -1.
        -11    1    3    3    0    0 -0.91599335083E+01  0.20102025354E+01 -0.87745789879E+01  0.12842839748E+02  0.51100000000E-03 0.  1.
         12    1    3    3    0    0 -0.66026571953E+01  0.17377260773E+01  0.37085703551E+01  0.77697019271E+01  0.00000000000E+00 0. -1.
</event>
<event>
 7    1  0.5068291E-011  0.5052890E+02  0.7816164E-02  0.1300439E+00
        -11   -1    0    0    0    0  0.00000000000E+00  0.00000000000E+00  0.45593999997E+02  0.45594000000E+02  0.51100000000E-03 0. -1.
         11   -1    0    0    0    0 -0.00000000000E+00 -0.00000000000E+00 -0.45593999997E+02  0.45594000000E+02  0.51100000000E-03 0.  1.
    9900012    2    1    2    0    0 -0.33865340129E+02 -0.65172533764E+01  0.21536627173E+02  0.50528903064E+02  0.30000131355E+02 0.  0.
        -12    1    1    2    0    0  0.33865340129E+02  0.65172533764E+01 -0.21536627173E+02  0.40659096936E+02  0.00000000000E+00 0.  1.
         11    1    3    3    0    0 -0.70711133491E+01 -0.31134014210E+01  0.11371326129E+02  0.13747762385E+02  0.51100000000E-03 0. -1.
        -11    1    3    3    0    0 -0.19904730798E+02 -0.40976888604E+01 -0.42746162990E+01  0.20766841525E+02  0.51100000000E-03 0.  1.
        -12    1    3    3    0    0 -0.68894959811E+01  0.69383690494E+00  0.14439917344E+02  0.16014299155E+02  0.00000000000E+00 0.  1.
</event>
<event>
 7    1  0.5068291E-011  0.5052887E+02  0.7816164E-02  0.1300439E+00
        -11   -1    0    0    0    0  0.00000000000E+00  0.00000000000E+00  0.45593999997E+02  0.45594000000E+02  0.51100000000E-03 0. -1.
         11   -1    0    0    0    0 -0.00000000000E+00 -0.00000000000E+00 -0.45593999997E+02  0.45594000000E+02  0.51100000000E-03 0.  1.
    9900012    2    1    2    0    0 -0.14719221381E+02  0.91184789013E+01  0.36788080218E+02  0.50528868410E+02  0.30000026018E+02 0.  0.
        -12    1    1    2    0    0  0.14719221381E+02 -0.91184789013E+01 -0.36788080218E+02  0.40659131590E+02  0.00000000000E+00 0.  1.
         11    1    3    3    0    0 -0.54436510475E+01  0.27381568542E+01  0.17253267776E+02  0.18297707203E+02  0.51100000000E-03 0. -1.
        -11    1    3    3    0    0 -0.10418524723E+02 -0.31663677355E+01  0.49374126653E+00  0.10900244159E+02  0.51100000000E-03 0.  1.
        -12    1    3    3    0    0  0.11429543893E+01  0.95466897826E+01  0.19041071176E+02  0.21330917047E+02  0.00000000000E+00 0.  1.
</event>
<event>
 7    1  0.5068291E-011  0.5052886E+02  0.7816164E-02  0.1300439E+00
        -11   -1    0    0    0    0  0.00000000000E+00  0.00000000000E+00  0.45593999997E+02  0.45594000000E+02  0.51100000000E-03 0.  1.
         11   -1    0    0    0    0 -0.00000000000E+00 -0.00000000000E+00 -0.45593999997E+02  0.45594000000E+02  0.51100000000E-03 0. -1.
    9900012    2    1    2    0    0  0.13003534798E+02 -0.10533152932E+02 -0.37055718622E+02  0.50528861906E+02  0.30000006250E+02 0.  0.
        -12    1    1    2    0    0 -0.13003534798E+02  0.10533152932E+02  0.37055718622E+02  0.40659138094E+02  0.00000000000E+00 0.  1.
         11    1    3    3    0    0  0.14377080278E+02 -0.45473418267E+00 -0.15466795867E+02  0.21121765910E+02  0.51100000000E-03 0. -1.
        -11    1    3    3    0    0 -0.71918317911E+01 -0.11141269418E+01 -0.28121483513E+01  0.78020447297E+01  0.51100000000E-03 0.  1.
         12    1    3    3    0    0  0.58182863107E+01 -0.89642918079E+01 -0.18776774404E+02  0.21605051267E+02  0.00000000000E+00 0. -1.
</event>
<event>
 7    1  0.5068291E-011  0.5052886E+02  0.7816164E-02  0.1300439E+00
        -11   -1    0    0    0    0  0.00000000000E+00  0.00000000000E+00  0.45593999997E+02  0.45594000000E+02  0.51100000000E-03 0. -1.
         11   -1    0    0    0    0 -0.00000000000E+00 -0.00000000000E+00 -0.45593999997E+02  0.45594000000E+02  0.51100000000E-03 0.  1.
    9900012    2    1    2    0    0 -0.38753050152E+02  0.88531815476E+00  0.12271233278E+02  0.50528857726E+02  0.29999993543E+02 0.  0.
        -12    1    1    2    0    0  0.38753050152E+02 -0.88531815476E+00 -0.12271233278E+02  0.40659142274E+02  0.00000000000E+00 0.  1.
         11    1    3    3    0    0 -0.21593218467E+02 -0.56936778831E+01 -0.10581760576E+01  0.22356314285E+02  0.51100000000E-03 0. -1.
        -11    1    3    3    0    0 -0.11199802261E+02  0.93303785611E+01  0.15481566246E+02  0.21264299388E+02  0.51100000000E-03 0.  1.
        -12    1    3    3    0    0 -0.59600294244E+01 -0.27513825232E+01 -0.21521569102E+01  0.69082440529E+01  0.00000000000E+00 0.  1.
</event>
<event>
 7    1  0.5068291E-011  0.5052886E+02  0.7816164E-02  0.1300439E+00
        -11   -1    0    0    0    0  0.00000000000E+00  0.00000000000E+00  0.45593999997E+02  0.45594000000E+02  0.51100000000E-03 0. -1.
         11   -1    0    0    0    0 -0.00000000000E+00 -0.00000000000E+00 -0.45593999997E+02  0.45594000000E+02  0.51100000000E-03 0.  1.
    9900012    2    1    2    0    0 -0.32568366450E+02  0.64379849370E+01  0.23473802087E+02  0.50528861695E+02  0.30000005609E+02 0.  0.
        -12    1    1    2    0    0  0.32568366450E+02 -0.64379849370E+01 -0.23473802087E+02  0.40659138305E+02  0.00000000000E+00 0.  1.
         11    1    3    3    0    0 -0.29036720056E+02 -0.28805856866E+00  0.25935657282E+02  0.38934206146E+02  0.51100000000E-03 0. -1.
        -11    1    3    3    0    0 -0.32409825205E+01  0.78724292175E+01  0.37440968054E+00  0.85216953919E+01  0.51100000000E-03 0.  1.
         12    1    3    3    0    0 -0.29066387281E+00 -0.11463857118E+01 -0.28362648746E+01  0.30729601569E+01  0.00000000000E+00 0. -1.
</event>
<event>
 7    1  0.5068291E-011  0.5052887E+02  0.7816164E-02  0.1300439E+00
        -11   -1    0    0    0    0  0.00000000000E+00  0.00000000000E+00  0.45593999997E+02  0.45594000000E+02  0.51100000000E-03 0.  1.
         11   -1    0    0    0    0 -0.00000000000E+00 -0.00000000000E+00 -0.45593999997E+02  0.45594000000E+02  0.51100000000E-03 0. -1.
    9900012    2    1    2    0    0 -0.42493368319E+01  0.14318991857E+02 -0.37816329417E+02  0.50528866194E+02  0.30000019283E+02 0.  0.
        -12    1    1    2    0    0  0.42493368319E+01 -0.14318991857E+02  0.37816329417E+02  0.40659133806E+02  0.00000000000E+00 0.  1.
         11    1    3    3    0    0 -0.12824476589E+02 -0.54122118477E+00 -0.18638565205E+02  0.22630869036E+02  0.51100000000E-03 0. -1.
        -11    1    3    3    0    0  0.54886110310E+01  0.13676744099E+02 -0.91667316624E+01  0.17355320505E+02  0.51100000000E-03 0.  1.
         12    1    3    3    0    0  0.30865287258E+01  0.11834689429E+01 -0.10011032549E+02  0.10542676653E+02  0.00000000000E+00 0. -1.
</event>
<event>
 7    1  0.5068291E-011  0.5052886E+02  0.7816164E-02  0.1300439E+00
        -11   -1    0    0    0    0  0.00000000000E+00  0.00000000000E+00  0.45593999997E+02  0.45594000000E+02  0.51100000000E-03 0. -1.
         11   -1    0    0    0    0 -0.00000000000E+00 -0.00000000000E+00 -0.45593999997E+02  0.45594000000E+02  0.51100000000E-03 0.  1.
    9900012    2    1    2    0    0  0.90354907776E+01 -0.37582586223E+02  0.12612498962E+02  0.50528855753E+02  0.29999987547E+02 0.  0.
        -12    1    1    2    0    0 -0.90354907776E+01  0.37582586223E+02 -0.12612498962E+02  0.40659144247E+02  0.00000000000E+00 0.  1.
         11    1    3    3    0    0  0.10016370296E+02 -0.22374310122E+02  0.18503433299E+01  0.24583758827E+02  0.51100000000E-03 0. -1.
        -11    1    3    3    0    0 -0.74379734416E+01 -0.53542911026E+01 -0.10953920258E+01  0.92299385741E+01  0.51100000000E-03 0.  1.
        -12    1    3    3    0    0  0.64570939233E+01 -0.98539849985E+01  0.11857547658E+02  0.16715158352E+02  0.00000000000E+00 0.  1.
</event>
<event>
 7    1  0.5068291E-011  0.5052886E+02  0.7816164E-02  0.1300439E+00
        -11   -1    0    0    0    0  0.00000000000E+00  0.00000000000E+00  0.45593999997E+02  0.45594000000E+02  0.51100000000E-03 0.  1.
         11   -1    0    0    0    0 -0.00000000000E+00 -0.00000000000E+00 -0.45593999997E+02  0.45594000000E+02  0.51100000000E-03 0. -1.
    9900012    2    1    2    0    0 -0.28748031672E+02 -0.18102130374E+02 -0.22338958378E+02  0.50528861907E+02  0.30000006252E+02 0.  0.
        -12    1    1    2    0    0  0.28748031672E+02  0.18102130374E+02  0.22338958378E+02  0.40659138093E+02  0.00000000000E+00 0.  1.
         11    1    3    3    0    0  0.25641567449E+01 -0.84017149775E+01 -0.34999879922E+00  0.87912578052E+01  0.51100000000E-03 0. -1.
        -11    1    3    3    0    0 -0.18647911147E+02 -0.33598665064E+01 -0.19801529566E+02  0.27406821532E+02  0.51100000000E-03 0.  1.
         12    1    3    3    0    0 -0.12664277270E+02 -0.63405488897E+01 -0.21874300124E+01  0.14330782569E+02  0.00000000000E+00 0. -1.
</event>
<event>
 7    1  0.5068291E-011  0.5052886E+02  0.7816164E-02  0.1300439E+00
        -11   -1    0    0    0    0  0.00000000000E+00  0.00000000000E+00  0.45593999997E+02  0.45594000000E+02  0.51100000000E-03 0.  1.
         11   -1    0    0    0    0 -0.00000000000E+00 -0.00000000000E+00 -0.45593999997E+02  0.45594000000E+02  0.51100000000E-03 0. -1.
    9900012    2    1    2    0    0  0.12853280160E+02  0.31052088947E+02 -0.22885068504E+02  0.50528863274E+02  0.30000010408E+02 0.  0.
        -12    1    1    2    0    0 -0.12853280160E+02 -0.31052088947E+02  0.22885068504E+02  0.40659136726E+02  0.00000000000E+00 0.  1.
         11    1    3    3    0    0 -0.11407318091E+00  0.14783943687E+01  0.78343769238E+00  0.16770323429E+01  0.51100000000E-03 0. -1.
        -11    1    3    3    0    0 -0.61544452257E+01  0.55597442522E+01 -0.14688285773E+02  0.16868126494E+02  0.51100000000E-03 0.  1.
        -12    1    3    3    0    0  0.19121798567E+02  0.24013950326E+02 -0.89802204228E+01  0.31983704437E+02  0.00000000000E+00 0.  1.
</event>
<event>
 7    1  0.5068291E-011  0.5052886E+02  0.7816164E-02  0.1300439E+00
        -11   -1    0    0    0    0  0.00000000000E+00  0.00000000000E+00  0.45593999997E+02  0.45594000000E+02  0.51100000000E-03 0.  1.
         11   -1    0    0    0    0 -0.00000000000E+00 -0.00000000000E+00 -0.45593999997E+02  0.45594000000E+02  0.51100000000E-03 0. -1.
    9900012    2    1    2    0    0  0.24136134632E+02 -0.13723203861E+02 -0.29703307951E+02  0.50528858071E+02  0.29999994591E+02 0.  0.
        -12    1    1    2    0    0 -0.24136134632E+02  0.13723203861E+02  0.29703307951E+02  0.40659141929E+02  0.00000000000E+00 0.  1.
         11    1    3    3    0    0  0.10234526550E+02  0.72705330451E+01 -0.12125809266E+02  0.17453980493E+02  0.51100000000E-03 0.  1.
        -11    1    3    3    0    0  0.70159919651E+00 -0.11177508640E+02 -0.97879425816E+01  0.14873895289E+02  0.51100000000E-03 0. -1.
        -12    1    3    3    0    0  0.13200008885E+02 -0.98162282670E+01 -0.77895561041E+01  0.18200982288E+02  0.00000000000E+00 0.  1.
</event>
<event>
 7    1  0.5068291E-011  0.5052885E+02  0.7816164E-02  0.1300439E+00
        -11   -1    0    0    0    0  0.00000000000E+00  0.00000000000E+00  0.45593999997E+02  0.45594000000E+02  0.51100000000E-03 0. -1.
         11   -1    0    0    0    0 -0.00000000000E+00 -0.00000000000E+00 -0.45593999997E+02  0.45594000000E+02  0.51100000000E-03 0.  1.
    9900012    2    1    2    0    0 -0.38444393073E+02  0.10396176214E+02  0.81923335201E+01  0.50528853832E+02  0.29999981708E+02 0.  0.
        -12    1    1    2    0    0  0.38444393073E+02 -0.10396176214E+02 -0.81923335201E+01  0.40659146168E+02  0.00000000000E+00 0.  1.
         11    1    3    3    0    0 -0.13658281543E+02 -0.21106063429E+01  0.12869102769E+02  0.18884308836E+02  0.51100000000E-03 0. -1.
        -11    1    3    3    0    0 -0.12466687879E+02  0.34137935195E+01 -0.89807991000E+01  0.15739347052E+02  0.51100000000E-03 0.  1.
        -12    1    3    3    0    0 -0.12319423650E+02  0.90929890371E+01  0.43040298506E+01  0.15905197944E+02  0.00000000000E+00 0.  1.
</event>
<event>
 7    1  0.5068291E-011  0.5052886E+02  0.7816164E-02  0.1300439E+00
        -11   -1    0    0    0    0  0.00000000000E+00  0.00000000000E+00  0.45593999997E+02  0.45594000000E+02  0.51100000000E-03 0. -1.
         11   -1    0    0    0    0 -0.00000000000E+00 -0.00000000000E+00 -0.45593999997E+02  0.45594000000E+02  0.51100000000E-03 0.  1.
    9900012    2    1    2    0    0 -0.37611703973E+02 -0.13620463964E+02  0.72806927645E+01  0.50528858328E+02  0.29999995375E+02 0.  0.
        -12    1    1    2    0    0  0.37611703973E+02  0.13620463964E+02 -0.72806927645E+01  0.40659141672E+02  0.00000000000E+00 0.  1.
         11    1    3    3    0    0 -0.12381329793E+02 -0.17220381273E+02  0.67751796187E+01  0.22265262580E+02  0.51100000000E-03 0.  1.
        -11    1    3    3    0    0 -0.22638586646E+02 -0.10009633230E+01  0.20726508551E+01  0.22755294213E+02  0.51100000000E-03 0. -1.
        -12    1    3    3    0    0 -0.25917875337E+01  0.46008806314E+01 -0.15671377093E+01  0.55083015353E+01  0.00000000000E+00 0.  1.
</event>
<event>
 7    1  0.5068291E-011  0.5052885E+02  0.7816164E-02  0.1300439E+00
        -11   -1    0    0    0    0  0.00000000000E+00  0.00000000000E+00  0.45593999997E+02  0.45594000000E+02  0.51100000000E-03 0.  1.
         11   -1    0    0    0    0 -0.00000000000E+00 -0.00000000000E+00 -0.45593999997E+02  0.45594000000E+02  0.51100000000E-03 0. -1.
    9900012    2    1    2    0    0  0.16832769557E+02  0.22469362010E+02 -0.29410067336E+02  0.50528850713E+02  0.29999972227E+02 0.  0.
        -12    1    1    2    0    0 -0.16832769557E+02 -0.22469362010E+02  0.29410067336E+02  0.40659149287E+02  0.00000000000E+00 0.  1.
         11    1    3    3    0    0 -0.41325937959E+01  0.10541856502E+02 -0.11056502050E+02  0.15825779849E+02  0.51100000000E-03 0. -1.
        -11    1    3    3    0    0  0.22780849967E+02  0.11819909903E+02 -0.19771172097E+02  0.32397170273E+02  0.51100000000E-03 0.  1.
        -12    1    3    3    0    0 -0.18154866147E+01  0.10759560442E+00  0.14176068112E+01  0.23059005905E+01  0.00000000000E+00 0.  1.
</event>
<event>
 7    1  0.5068291E-011  0.5052886E+02  0.7816164E-02  0.1300439E+00
        -11   -1    0    0    0    0  0.00000000000E+00  0.00000000000E+00  0.45593999997E+02  0.45594000000E+02  0.51100000000E-03 0.  1.
         11   -1    0    0    0    0 -0.00000000000E+00 -0.00000000000E+00 -0.45593999997E+02  0.45594000000E+02  0.51100000000E-03 0. -1.
    9900012    2    1    2    0    0 -0.39140987756E+02 -0.10950959100E+02 -0.11068491702E+01  0.50528861509E+02  0.30000005044E+02 0.  0.
        -12    1    1    2    0    0  0.39140987756E+02  0.10950959100E+02  0.11068491702E+01  0.40659138491E+02  0.00000000000E+00 0.  1.
         11    1    3    3    0    0 -0.20452586382E+02 -0.45896910193E+01 -0.72504602406E+01  0.22179781950E+02  0.51100000000E-03 0. -1.
        -11    1    3    3    0    0 -0.52212096614E+01  0.56194641705E+01  0.68869189995E+01  0.10308688639E+02  0.51100000000E-03 0.  1.
        -12    1    3    3    0    0 -0.13467191712E+02 -0.11980732252E+02 -0.74330792919E+00  0.18040390921E+02  0.00000000000E+00 0.  1.
</event>
<event>
 7    1  0.5068291E-011  0.5052884E+02  0.7816164E-02  0.1300439E+00
        -11   -1    0    0    0    0  0.00000000000E+00  0.00000000000E+00  0.45593999997E+02  0.45594000000E+02  0.51100000000E-03 0.  1.
         11   -1    0    0    0    0 -0.00000000000E+00 -0.00000000000E+00 -0.45593999997E+02  0.45594000000E+02  0.51100000000E-03 0. -1.
    9900012    2    1    2    0    0 -0.13245525853E+02 -0.38176607349E+02 -0.45022462283E+01  0.50528837135E+02  0.29999930955E+02 0.  0.
        -12    1    1    2    0    0  0.13245525853E+02  0.38176607349E+02  0.45022462283E+01  0.40659162865E+02  0.00000000000E+00 0.  1.
         11    1    3    3    0    0 -0.19816898193E+02 -0.37335650882E+02 -0.41324757170E+01  0.42470432498E+02  0.51100000000E-03 0. -1.
        -11    1    3    3    0    0  0.33152298599E+01 -0.26925442212E+01  0.16813286886E+00  0.42742031222E+01  0.51100000000E-03 0.  1.
         12    1    3    3    0    0  0.32561424798E+01  0.18515877538E+01 -0.53790338019E+00  0.37842015149E+01  0.00000000000E+00 0. -1.
</event>
<event>
 7    1  0.5068291E-011  0.5052885E+02  0.7816164E-02  0.1300439E+00
        -11   -1    0    0    0    0  0.00000000000E+00  0.00000000000E+00  0.45593999997E+02  0.45594000000E+02  0.51100000000E-03 0. -1.
         11   -1    0    0    0    0 -0.00000000000E+00 -0.00000000000E+00 -0.45593999997E+02  0.45594000000E+02  0.51100000000E-03 0.  1.
    9900012    2    1    2    0    0  0.32982447735E+02 -0.23735681340E+02  0.13935045107E+01  0.50528852418E+02  0.29999977409E+02 0.  0.
        -12    1    1    2    0    0 -0.32982447735E+02  0.23735681340E+02 -0.13935045107E+01  0.40659147582E+02  0.00000000000E+00 0.  1.
         11    1    3    3    0    0  0.25713062661E+02 -0.22121063761E+02 -0.29074767326E+01  0.34043449804E+02  0.51100000000E-03 0. -1.
        -11    1    3    3    0    0 -0.16589438499E+01  0.46300117586E+01  0.48953634262E+00  0.49425448581E+01  0.51100000000E-03 0.  1.
         12    1    3    3    0    0  0.89283289244E+01 -0.62446293378E+01  0.38114449007E+01  0.11542857756E+02  0.00000000000E+00 0. -1.
</event>
<event>
 7    1  0.5068291E-011  0.5052888E+02  0.7816164E-02  0.1300439E+00
        -11   -1    0    0    0    0  0.00000000000E+00  0.00000000000E+00  0.45593999997E+02  0.45594000000E+02  0.51100000000E-03 0.  1.
         11   -1    0    0    0    0 -0.00000000000E+00 -0.00000000000E+00 -0.45593999997E+02  0.45594000000E+02  0.51100000000E-03 0. -1.
    9900012    2    1    2    0    0 -0.12212566908E+02 -0.12339830413E+02 -0.36766101152E+02  0.50528875575E+02  0.30000047797E+02 0.  0.
        -12    1    1    2    0    0  0.12212566908E+02  0.12339830413E+02  0.36766101152E+02  0.40659124425E+02  0.00000000000E+00 0.  1.
         11    1    3    3    0    0  0.13747928039E+01  0.78497717750E+01 -0.10057490073E+02  0.12832072280E+02  0.51100000000E-03 0.  1.
        -11    1    3    3    0    0  0.73878456265E-01 -0.77445060432E+01 -0.10937876938E+02  0.13402238024E+02  0.51100000000E-03 0. -1.
         12    1    3    3    0    0 -0.13661238168E+02 -0.12445096145E+02 -0.15770734141E+02  0.24294565271E+02  0.00000000000E+00 0. -1.
</event>
<event>
 7    1  0.5068291E-011  0.5052887E+02  0.7816164E-02  0.1300439E+00
        -11   -1    0    0    0    0  0.00000000000E+00  0.00000000000E+00  0.45593999997E+02  0.45594000000E+02  0.51100000000E-03 0. -1.
         11   -1    0    0    0    0 -0.00000000000E+00 -0.00000000000E+00 -0.45593999997E+02  0.45594000000E+02  0.51100000000E-03 0.  1.
    9900012    2    1    2    0    0 -0.70501961382E+01  0.29220574500E+02 -0.27379142011E+02  0.50528872403E+02  0.30000038156E+02 0.  0.
        -12    1    1    2    0    0  0.70501961382E+01 -0.29220574500E+02  0.27379142011E+02  0.40659127597E+02  0.00000000000E+00 0.  1.
         11    1    3    3    0    0 -0.12965727582E+02  0.28188902593E+02 -0.20737532569E+02  0.37319828221E+02  0.51100000000E-03 0. -1.
        -11    1    3    3    0    0  0.83224512172E+01  0.12723803651E+01 -0.67451263436E+01  0.10787904139E+02  0.51100000000E-03 0.  1.
        -12    1    3    3    0    0 -0.24069197735E+01 -0.24070845831E+00  0.10351690231E+00  0.24211400429E+01  0.00000000000E+00 0.  1.
</event>
<event>
 7    1  0.5068291E-011  0.5052887E+02  0.7816164E-02  0.1300439E+00
        -11   -1    0    0    0    0  0.00000000000E+00  0.00000000000E+00  0.45593999997E+02  0.45594000000E+02  0.51100000000E-03 0.  1.
         11   -1    0    0    0    0 -0.00000000000E+00 -0.00000000000E+00 -0.45593999997E+02  0.45594000000E+02  0.51100000000E-03 0. -1.
    9900012    2    1    2    0    0 -0.21828246098E+02  0.16051969779E+02 -0.30315452214E+02  0.50528871819E+02  0.30000036381E+02 0.  0.
        -12    1    1    2    0    0  0.21828246098E+02 -0.16051969779E+02  0.30315452214E+02  0.40659128181E+02  0.00000000000E+00 0.  1.
         11    1    3    3    0    0 -0.54298698686E+01 -0.30498875333E+01 -0.13547059286E+02  0.14910000547E+02  0.51100000000E-03 0. -1.
        -11    1    3    3    0    0 -0.17893379019E+02  0.21546024093E+02 -0.16968917666E+02  0.32746730126E+02  0.51100000000E-03 0.  1.
        -12    1    3    3    0    0  0.14950027903E+01 -0.24441667799E+01  0.20052473792E+00  0.28721411458E+01  0.00000000000E+00 0.  1.
</event>
<event>
 7    1  0.6920863E-011  0.5052885E+02  0.7816164E-02  0.1300439E+00
        -11   -1    0    0    0    0  0.00000000000E+00  0.00000000000E+00  0.45593999997E+02  0.45594000000E+02  0.51100000000E-03 0. -1.
         11   -1    0    0    0    0 -0.00000000000E+00 -0.00000000000E+00 -0.45593999997E+02  0.45594000000E+02  0.51100000000E-03 0.  1.
    9900012    2    1    2    0    0  0.15184515172E+02 -0.33702611502E+02  0.16933143522E+02  0.50528845156E+02  0.29999955337E+02 0.  0.
        -12    1    1    2    0    0 -0.15184515172E+02  0.33702611502E+02 -0.16933143522E+02  0.40659154844E+02  0.00000000000E+00 0.  1.
         11    1    3    3    0    0  0.11660387050E+02 -0.71178265919E+01  0.12583581797E+02  0.18573492204E+02  0.51100000000E-03 0. -1.
        -11    1    3    3    0    0 -0.52308818516E+01 -0.32067138812E+01 -0.14983793024E+01  0.63158752091E+01  0.51100000000E-03 0.  1.
         12    1    3    3    0    0  0.87550099735E+01 -0.23378071029E+02  0.58479410272E+01  0.25639477743E+02  0.00000000000E+00 0. -1.
</event>
<event>
 7    1  0.5068291E-011  0.5052885E+02  0.7816164E-02  0.1300439E+00
        -11   -1    0    0    0    0  0.00000000000E+00  0.00000000000E+00  0.45593999997E+02  0.45594000000E+02  0.51100000000E-03 0. -1.
         11   -1    0    0    0    0 -0.00000000000E+00 -0.00000000000E+00 -0.45593999997E+02  0.45594000000E+02  0.51100000000E-03 0.  1.
    9900012    2    1    2    0    0 -0.49977429449E+01 -0.40004470213E+02  0.52755279641E+01  0.50528852605E+02  0.29999977978E+02 0.  0.
        -12    1    1    2    0    0  0.49977429449E+01  0.40004470213E+02 -0.52755279641E+01  0.40659147395E+02  0.00000000000E+00 0.  1.
         11    1    3    3    0    0  0.90760191842E+01 -0.13517854340E+02  0.86822866299E+01  0.18452333500E+02  0.51100000000E-03 0.  1.
        -11    1    3    3    0    0 -0.12641873852E+02 -0.12960860258E+02 -0.36660807995E+01  0.18472710191E+02  0.51100000000E-03 0. -1.
         12    1    3    3    0    0 -0.14318882770E+01 -0.13525755615E+02  0.25932213368E+00  0.13603808914E+02  0.00000000000E+00 0. -1.
</event>
<event>
 7    1  0.5068291E-011  0.5052886E+02  0.7816164E-02  0.1300439E+00
        -11   -1    0    0    0    0  0.00000000000E+00  0.00000000000E+00  0.45593999997E+02  0.45594000000E+02  0.51100000000E-03 0. -1.
         11   -1    0    0    0    0 -0.00000000000E+00 -0.00000000000E+00 -0.45593999997E+02  0.45594000000E+02  0.51100000000E-03 0.  1.
    9900012    2    1    2    0    0 -0.57382507236E+01 -0.38810281477E+02 -0.10677090410E+02  0.50528859216E+02  0.29999998074E+02 0.  0.
        -12    1    1    2    0    0  0.57382507236E+01  0.38810281477E+02  0.10677090410E+02  0.40659140784E+02  0.00000000000E+00 0.  1.
         11    1    3    3    0    0 -0.87306901572E+01 -0.14612924171E+02 -0.15573285237E+02  0.23071404742E+02  0.51100000000E-03 0. -1.
        -11    1    3    3    0    0 -0.28156399912E+01 -0.22937510426E+01  0.30128883702E+01  0.47187518475E+01  0.51100000000E-03 0.  1.
         12    1    3    3    0    0  0.58080794248E+01 -0.21903606263E+02  0.18833064568E+01  0.22738702626E+02  0.00000000000E+00 0. -1.
</event>
<event>
 7    1  0.5068291E-011  0.5052886E+02  0.7816164E-02  0.1300439E+00
        -11   -1    0    0    0    0  0.00000000000E+00  0.00000000000E+00  0.45593999997E+02  0.45594000000E+02  0.51100000000E-03 0. -1.
         11   -1    0    0    0    0 -0.00000000000E+00 -0.00000000000E+00 -0.45593999997E+02  0.45594000000E+02  0.51100000000E-03 0.  1.
    9900012    2    1    2    0    0  0.20609902273E+02  0.32472359884E+02  0.13188755429E+02  0.50528862061E+02  0.30000006721E+02 0.  0.
        -12    1    1    2    0    0 -0.20609902273E+02 -0.32472359884E+02 -0.13188755429E+02  0.40659137939E+02  0.00000000000E+00 0.  1.
         11    1    3    3    0    0  0.12661598394E+02  0.14283717580E+02 -0.41996235309E+01  0.19544244674E+02  0.51100000000E-03 0.  1.
        -11    1    3    3    0    0 -0.40511570269E+01  0.75894540208E+01  0.10449620029E+02  0.13535370132E+02  0.51100000000E-03 0. -1.
         12    1    3    3    0    0  0.11999460906E+02  0.10599188283E+02  0.69387589308E+01  0.17449247256E+02  0.00000000000E+00 0. -1.
</event>
<event>
 7    1  0.6716662E-011  0.5052890E+02  0.7816164E-02  0.1300439E+00
        -11   -1    0    0    0    0  0.00000000000E+00  0.00000000000E+00  0.45593999997E+02  0.45594000000E+02  0.51100000000E-03 0. -1.
         11   -1    0    0    0    0 -0.00000000000E+00 -0.00000000000E+00 -0.45593999997E+02  0.45594000000E+02  0.51100000000E-03 0.  1.
    9900012    2    1    2    0    0  0.74749861272E+01 -0.10819400607E+01  0.39951424490E+02  0.50528901010E+02  0.30000125109E+02 0.  0.
        -12    1    1    2    0    0 -0.74749861272E+01  0.10819400607E+01 -0.39951424490E+02  0.40659098990E+02  0.00000000000E+00 0.  1.
         11    1    3    3    0    0  0.80592599774E+01 -0.83951948757E+01  0.29293628925E+02  0.31520591115E+02  0.51100000000E-03 0. -1.
        -11    1    3    3    0    0 -0.50175458456E+01  0.20788197036E+01 -0.96122198503E+00  0.55155421890E+01  0.51100000000E-03 0.  1.
         12    1    3    3    0    0  0.44332719954E+01  0.52344351114E+01  0.11619017550E+02  0.13492767705E+02  0.00000000000E+00 0. -1.
</event>
<event>
 7    1  0.5068291E-011  0.5052886E+02  0.7816164E-02  0.1300439E+00
        -11   -1    0    0    0    0  0.00000000000E+00  0.00000000000E+00  0.45593999997E+02  0.45594000000E+02  0.51100000000E-03 0.  1.
         11   -1    0    0    0    0 -0.00000000000E+00 -0.00000000000E+00 -0.45593999997E+02  0.45594000000E+02  0.51100000000E-03 0. -1.
    9900012    2    1    2    0    0  0.31976828917E+02 -0.23045089871E+02 -0.99785865170E+01  0.50528856580E+02  0.29999990060E+02 0.  0.
        -12    1    1    2    0    0 -0.31976828917E+02  0.23045089871E+02  0.99785865170E+01  0.40659143420E+02  0.00000000000E+00 0.  1.
         11    1    3    3    0    0  0.21109616738E+02 -0.66842251752E+01 -0.14894326599E+02  0.26685871733E+02  0.51100000000E-03 0. -1.
        -11    1    3    3    0    0 -0.76259927625E+00 -0.97166726537E+01  0.35773823515E+01  0.10382338362E+02  0.51100000000E-03 0.  1.
         12    1    3    3    0    0  0.11629811455E+02 -0.66441920424E+01  0.13383577302E+01  0.13460646485E+02  0.00000000000E+00 0. -1.
</event>
<event>
 7    1  0.5068291E-011  0.5052885E+02  0.7816164E-02  0.1300439E+00
        -11   -1    0    0    0    0  0.00000000000E+00  0.00000000000E+00  0.45593999997E+02  0.45594000000E+02  0.51100000000E-03 0.  1.
         11   -1    0    0    0    0 -0.00000000000E+00 -0.00000000000E+00 -0.45593999997E+02  0.45594000000E+02  0.51100000000E-03 0. -1.
    9900012    2    1    2    0    0 -0.77395626606E+01  0.22161921932E+02 -0.33198118578E+02  0.50528847389E+02  0.29999962124E+02 0.  0.
        -12    1    1    2    0    0  0.77395626606E+01 -0.22161921932E+02  0.33198118578E+02  0.40659152611E+02  0.00000000000E+00 0.  1.
         11    1    3    3    0    0  0.64041488220E+01  0.48794565642E+01 -0.43509448999E+01  0.91516632521E+01  0.51100000000E-03 0. -1.
        -11    1    3    3    0    0 -0.17303461967E+02  0.18349055575E+02 -0.28448366260E+02  0.38018511013E+02  0.51100000000E-03 0.  1.
        -12    1    3    3    0    0  0.31597504844E+01 -0.10665902070E+01 -0.39880741811E+00  0.33586731235E+01  0.00000000000E+00 0.  1.
</event>
<event>
 7    1  0.5068291E-011  0.5052886E+02  0.7816164E-02  0.1300439E+00
        -11   -1    0    0    0    0  0.00000000000E+00  0.00000000000E+00  0.45593999997E+02  0.45594000000E+02  0.51100000000E-03 0.  1.
         11   -1    0    0    0    0 -0.00000000000E+00 -0.00000000000E+00 -0.45593999997E+02  0.45594000000E+02  0.51100000000E-03 0. -1.
    9900012    2    1    2    0    0  0.12029429760E+02 -0.38836310374E+02 -0.44660298625E+00  0.50528860338E+02  0.30000001484E+02 0.  0.
        -12    1    1    2    0    0 -0.12029429760E+02  0.38836310374E+02  0.44660298625E+00  0.40659139662E+02  0.00000000000E+00 0.  1.
         11    1    3    3    0    0  0.24055552956E+01 -0.24966160516E+02  0.25342608059E+01  0.25209489191E+02  0.51100000000E-03 0. -1.
        -11    1    3    3    0    0  0.14748334310E+02 -0.67105581500E+01 -0.31811363022E+01  0.16512558374E+02  0.51100000000E-03 0.  1.
        -12    1    3    3    0    0 -0.51244598460E+01 -0.71595917078E+01  0.20027251006E+00  0.88068127727E+01  0.00000000000E+00 0.  1.
</event>
<event>
 7    1  0.5068291E-011  0.5052892E+02  0.7816164E-02  0.1300439E+00
        -11   -1    0    0    0    0  0.00000000000E+00  0.00000000000E+00  0.45593999997E+02  0.45594000000E+02  0.51100000000E-03 0.  1.
         11   -1    0    0    0    0 -0.00000000000E+00 -0.00000000000E+00 -0.45593999997E+02  0.45594000000E+02  0.51100000000E-03 0. -1.
    9900012    2    1    2    0    0 -0.31729995598E+02  0.15621597449E+02 -0.20058261902E+02  0.50528919857E+02  0.30000182398E+02 0.  0.
        -12    1    1    2    0    0  0.31729995598E+02 -0.15621597449E+02  0.20058261902E+02  0.40659080143E+02  0.00000000000E+00 0.  1.
         11    1    3    3    0    0 -0.19780033293E+02 -0.91076534892E+00 -0.63298562562E+01  0.20788128609E+02  0.51100000000E-03 0. -1.
        -11    1    3    3    0    0  0.21599636571E+01  0.94804933055E+01 -0.90607510776E+01  0.13290688721E+02  0.51100000000E-03 0.  1.
        -12    1    3    3    0    0 -0.14109925962E+02  0.70518694926E+01 -0.46676545683E+01  0.16450102528E+02  0.00000000000E+00 0.  1.
</event>
<event>
 7    1  0.5068291E-011  0.5052885E+02  0.7816164E-02  0.1300439E+00
        -11   -1    0    0    0    0  0.00000000000E+00  0.00000000000E+00  0.45593999997E+02  0.45594000000E+02  0.51100000000E-03 0. -1.
         11   -1    0    0    0    0 -0.00000000000E+00 -0.00000000000E+00 -0.45593999997E+02  0.45594000000E+02  0.51100000000E-03 0.  1.
    9900012    2    1    2    0    0 -0.41932833392E+01 -0.29272379058E+02 -0.27905384407E+02  0.50528852446E+02  0.29999977496E+02 0.  0.
        -12    1    1    2    0    0  0.41932833392E+01  0.29272379058E+02  0.27905384407E+02  0.40659147554E+02  0.00000000000E+00 0.  1.
         11    1    3    3    0    0  0.54643890334E+01 -0.48079236129E+01 -0.37128150275E+01  0.81707204496E+01  0.51100000000E-03 0. -1.
        -11    1    3    3    0    0 -0.87642090163E+01 -0.13980445529E+02 -0.26841666501E+02  0.31507765355E+02  0.51100000000E-03 0.  1.
        -12    1    3    3    0    0 -0.89346335634E+00 -0.10484009917E+02  0.26490971214E+01  0.10850366642E+02  0.00000000000E+00 0.  1.
</event>
<event>
 7    1  0.5068291E-011  0.5052887E+02  0.7816164E-02  0.1300439E+00
        -11   -1    0    0    0    0  0.00000000000E+00  0.00000000000E+00  0.45593999997E+02  0.45594000000E+02  0.51100000000E-03 0.  1.
         11   -1    0    0    0    0 -0.00000000000E+00 -0.00000000000E+00 -0.45593999997E+02  0.45594000000E+02  0.51100000000E-03 0. -1.
    9900012    2    1    2    0    0 -0.14610719464E+02 -0.84860477180E+01 -0.36982141146E+02  0.50528869502E+02  0.30000029338E+02 0.  0.
        -12    1    1    2    0    0  0.14610719464E+02  0.84860477180E+01  0.36982141146E+02  0.40659130498E+02  0.00000000000E+00 0.  1.
         11    1    3    3    0    0 -0.59180166161E+01 -0.40793967133E+01 -0.31859062871E+02  0.32659826783E+02  0.51100000000E-03 0. -1.
        -11    1    3    3    0    0  0.81838478413E+00  0.40903104510E+01 -0.13212939810E+00  0.41734699807E+01  0.51100000000E-03 0.  1.
         12    1    3    3    0    0 -0.95110876324E+01 -0.84969614557E+01 -0.49909488765E+01  0.13695572738E+02  0.00000000000E+00 0. -1.
</event>
<event>
 7    1  0.5068291E-011  0.5052884E+02  0.7816164E-02  0.1300439E+00
        -11   -1    0    0    0    0  0.00000000000E+00  0.00000000000E+00  0.45593999997E+02  0.45594000000E+02  0.51100000000E-03 0. -1.
         11   -1    0    0    0    0 -0.00000000000E+00 -0.00000000000E+00 -0.45593999997E+02  0.45594000000E+02  0.51100000000E-03 0.  1.
    9900012    2    1    2    0    0 -0.30657994211E+02  0.10498016988E+02 -0.24556994841E+02  0.50528844016E+02  0.29999951871E+02 0.  0.
        -12    1    1    2    0    0  0.30657994211E+02 -0.10498016988E+02  0.24556994841E+02  0.40659155984E+02  0.00000000000E+00 0.  1.
         11    1    3    3    0    0 -0.76806591698E+01  0.14990074497E+02 -0.14470261375E+02  0.22205479576E+02  0.51100000000E-03 0. -1.
        -11    1    3    3    0    0 -0.23195770927E+02 -0.33489624860E+01 -0.11810129174E+02  0.26243827656E+02  0.51100000000E-03 0.  1.
         12    1    3    3    0    0  0.21843588625E+00 -0.11430950229E+01  0.17233957082E+01  0.20795367838E+01  0.00000000000E+00 0. -1.
</event>
<event>
 7    1  0.5068291E-011  0.5052887E+02  0.7816164E-02  0.1300439E+00
        -11   -1    0    0    0    0  0.00000000000E+00  0.00000000000E+00  0.45593999997E+02  0.45594000000E+02  0.51100000000E-03 0.  1.
         11   -1    0    0    0    0 -0.00000000000E+00 -0.00000000000E+00 -0.45593999997E+02  0.45594000000E+02  0.51100000000E-03 0. -1.
    9900012    2    1    2    0    0  0.64110670800E+01  0.20757616666E+02 -0.34368364820E+02  0.50528869031E+02  0.30000027907E+02 0.  0.
        -12    1    1    2    0    0 -0.64110670800E+01 -0.20757616666E+02  0.34368364820E+02  0.40659130969E+02  0.00000000000E+00 0.  1.
         11    1    3    3    0    0 -0.35745863725E+01 -0.34223745118E+01 -0.36566703373E+01  0.61531742418E+01  0.51100000000E-03 0.  1.
        -11    1    3    3    0    0  0.14291211436E+02  0.12003825175E+02 -0.21728980868E+02  0.28644007279E+02  0.51100000000E-03 0. -1.
        -12    1    3    3    0    0 -0.43055579831E+01  0.12176166002E+02 -0.89827136143E+01  0.15731687511E+02  0.00000000000E+00 0.  1.
</event>
<event>
 7    1  0.5068291E-011  0.5052886E+02  0.7816164E-02  0.1300439E+00
        -11   -1    0    0    0    0  0.00000000000E+00  0.00000000000E+00  0.45593999997E+02  0.45594000000E+02  0.51100000000E-03 0.  1.
         11   -1    0    0    0    0 -0.00000000000E+00 -0.00000000000E+00 -0.45593999997E+02  0.45594000000E+02  0.51100000000E-03 0. -1.
    9900012    2    1    2    0    0 -0.15214354868E+02  0.37026089012E+02 -0.71244655180E+01  0.50528857480E+02  0.29999992796E+02 0.  0.
        -12    1    1    2    0    0  0.15214354868E+02 -0.37026089012E+02  0.71244655180E+01  0.40659142520E+02  0.00000000000E+00 0.  1.
         11    1    3    3    0    0 -0.76729899694E+00  0.86212376783E+00  0.43937724151E+01  0.45428230693E+01  0.51100000000E-03 0.  1.
        -11    1    3    3    0    0 -0.16583589153E+02  0.20903785191E+02 -0.14383557490E+02  0.30312875001E+02  0.51100000000E-03 0. -1.
        -12    1    3    3    0    0  0.21365332821E+01  0.15260180053E+02  0.28653195570E+01  0.15673159410E+02  0.00000000000E+00 0.  1.
</event>
<event>
 7    1  0.5068291E-011  0.5052885E+02  0.7816164E-02  0.1300439E+00
        -11   -1    0    0    0    0  0.00000000000E+00  0.00000000000E+00  0.45593999997E+02  0.45594000000E+02  0.51100000000E-03 0.  1.
         11   -1    0    0    0    0 -0.00000000000E+00 -0.00000000000E+00 -0.45593999997E+02  0.45594000000E+02  0.51100000000E-03 0. -1.
    9900012    2    1    2    0    0  0.11427018731E+02 -0.29059954095E+02 -0.26040515606E+02  0.50528854140E+02  0.29999982644E+02 0.  0.
        -12    1    1    2    0    0 -0.11427018731E+02  0.29059954095E+02  0.26040515606E+02  0.40659145860E+02  0.00000000000E+00 0.  1.
         11    1    3    3    0    0  0.98884172486E+01 -0.88804768463E+00 -0.11417914301E+02  0.15130703606E+02  0.51100000000E-03 0. -1.
        -11    1    3    3    0    0  0.29147256685E+01 -0.17853446299E+02 -0.16884695073E+02  0.24745385397E+02  0.51100000000E-03 0.  1.
         12    1    3    3    0    0 -0.13761241861E+01 -0.10318460111E+02  0.22620937687E+01  0.10652765137E+02  0.00000000000E+00 0. -1.
</event>
<event>
 7    1  0.5068291E-011  0.5052885E+02  0.7816164E-02  0.1300439E+00
        -11   -1    0    0    0    0  0.00000000000E+00  0.00000000000E+00  0.45593999997E+02  0.45594000000E+02  0.51100000000E-03 0.  1.
         11   -1    0    0    0    0 -0.00000000000E+00 -0.00000000000E+00 -0.45593999997E+02  0.45594000000E+02  0.51100000000E-03 0. -1.
    9900012    2    1    2    0    0  0.14040349474E+02  0.20377042238E+02 -0.32261608657E+02  0.50528847810E+02  0.29999963402E+02 0.  0.
        -12    1    1    2    0    0 -0.14040349474E+02 -0.20377042238E+02  0.32261608657E+02  0.40659152190E+02  0.00000000000E+00 0.  1.
         11    1    3    3    0    0  0.64629436198E+01 -0.30710928959E+01 -0.18992939418E+02  0.20296132632E+02  0.51100000000E-03 0. -1.
        -11    1    3    3    0    0  0.97427339012E+01  0.22440009165E+02 -0.13297202277E+02  0.27844038210E+02  0.51100000000E-03 0.  1.
        -12    1    3    3    0    0 -0.21653280470E+01  0.10081259687E+01  0.28533038475E-01  0.23886769673E+01  0.00000000000E+00 0.  1.
</event>
<event>
 7    1  0.5068291E-011  0.5052893E+02  0.7816164E-02  0.1300439E+00
        -11   -1    0    0    0    0  0.00000000000E+00  0.00000000000E+00  0.45593999997E+02  0.45594000000E+02  0.51100000000E-03 0. -1.
         11   -1    0    0    0    0 -0.00000000000E+00 -0.00000000000E+00 -0.45593999997E+02  0.45594000000E+02  0.51100000000E-03 0.  1.
    9900012    2    1    2    0    0 -0.19904370038E+01 -0.66095685773E+01  0.40068833124E+02  0.50528934293E+02  0.30000226276E+02 0.  0.
        -12    1    1    2    0    0  0.19904370038E+01  0.66095685773E+01 -0.40068833124E+02  0.40659065707E+02  0.00000000000E+00 0.  1.
         11    1    3    3    0    0  0.43739177899E+01  0.48836578876E+01  0.31408924771E+02  0.32085850880E+02  0.51100000000E-03 0. -1.
        -11    1    3    3    0    0 -0.36872570811E+01 -0.10098594927E+02  0.17362316072E+01  0.10889994708E+02  0.51100000000E-03 0.  1.
         12    1    3    3    0    0 -0.26770977127E+01 -0.13946315376E+01  0.69236767463E+01  0.75530887043E+01  0.00000000000E+00 0. -1.
</event>
<event>
 7    1  0.5068291E-011  0.5052886E+02  0.7816164E-02  0.1300439E+00
        -11   -1    0    0    0    0  0.00000000000E+00  0.00000000000E+00  0.45593999997E+02  0.45594000000E+02  0.51100000000E-03 0. -1.
         11   -1    0    0    0    0 -0.00000000000E+00 -0.00000000000E+00 -0.45593999997E+02  0.45594000000E+02  0.51100000000E-03 0.  1.
    9900012    2    1    2    0    0  0.25788033003E+02  0.15623613490E+02  0.27277199676E+02  0.50528861214E+02  0.30000004146E+02 0.  0.
        -12    1    1    2    0    0 -0.25788033003E+02 -0.15623613490E+02 -0.27277199676E+02  0.40659138786E+02  0.00000000000E+00 0.  1.
         11    1    3    3    0    0  0.57731454416E+01  0.13293239988E+02  0.90814174728E+01  0.17102969954E+02  0.51100000000E-03 0. -1.
        -11    1    3    3    0    0  0.21105555896E+02  0.19385768643E+00  0.73988798755E+01  0.22365721409E+02  0.51100000000E-03 0.  1.
        -12    1    3    3    0    0 -0.10906683349E+01  0.21365158153E+01  0.10796902328E+02  0.11060169851E+02  0.00000000000E+00 0.  1.
</event>
<event>
 7    1  0.5068291E-011  0.5052886E+02  0.7816164E-02  0.1300439E+00
        -11   -1    0    0    0    0  0.00000000000E+00  0.00000000000E+00  0.45593999997E+02  0.45594000000E+02  0.51100000000E-03 0.  1.
         11   -1    0    0    0    0 -0.00000000000E+00 -0.00000000000E+00 -0.45593999997E+02  0.45594000000E+02  0.51100000000E-03 0. -1.
    9900012    2    1    2    0    0 -0.65559083344E-01 -0.24493859267E+02 -0.32453232359E+02  0.50528859203E+02  0.29999998033E+02 0.  0.
        -12    1    1    2    0    0  0.65559083344E-01  0.24493859267E+02  0.32453232359E+02  0.40659140797E+02  0.00000000000E+00 0.  1.
         11    1    3    3    0    0  0.65053400689E+01 -0.73924130955E+01  0.90964146914E+00  0.98891186993E+01  0.51100000000E-03 0. -1.
        -11    1    3    3    0    0 -0.10677320349E+02 -0.11621949161E+02 -0.18791546561E+02  0.24539704451E+02  0.51100000000E-03 0.  1.
        -12    1    3    3    0    0  0.41064211972E+01 -0.54794970105E+01 -0.14571327268E+02  0.16100036052E+02  0.00000000000E+00 0.  1.
</event>
<event>
 7    1  0.5068291E-011  0.5052886E+02  0.7816164E-02  0.1300439E+00
        -11   -1    0    0    0    0  0.00000000000E+00  0.00000000000E+00  0.45593999997E+02  0.45594000000E+02  0.51100000000E-03 0. -1.
         11   -1    0    0    0    0 -0.00000000000E+00 -0.00000000000E+00 -0.45593999997E+02  0.45594000000E+02  0.51100000000E-03 0.  1.
    9900012    2    1    2    0    0 -0.72302038599E+00  0.96348703199E+01  0.39494458032E+02  0.50528859579E+02  0.29999999175E+02 0.  0.
        -12    1    1    2    0    0  0.72302038599E+00 -0.96348703199E+01 -0.39494458032E+02  0.40659140421E+02  0.00000000000E+00 0.  1.
         11    1    3    3    0    0  0.36190813014E-01  0.19791760874E+01  0.34495500604E+02  0.34552250433E+02  0.51100000000E-03 0. -1.
        -11    1    3    3    0    0  0.28274215953E+01  0.18162114352E+01 -0.36370690065E+01  0.49518893439E+01  0.51100000000E-03 0.  1.
         12    1    3    3    0    0 -0.35866327944E+01  0.58394827973E+01  0.86360264342E+01  0.11024719802E+02  0.00000000000E+00 0. -1.
</event>
<event>
 7    1  0.5068291E-011  0.5052887E+02  0.7816164E-02  0.1300439E+00
        -11   -1    0    0    0    0  0.00000000000E+00  0.00000000000E+00  0.45593999997E+02  0.45594000000E+02  0.51100000000E-03 0.  1.
         11   -1    0    0    0    0 -0.00000000000E+00 -0.00000000000E+00 -0.45593999997E+02  0.45594000000E+02  0.51100000000E-03 0. -1.
    9900012    2    1    2    0    0 -0.31352736499E+02  0.24786377964E+02 -0.74703502792E+01  0.50528871236E+02  0.30000034609E+02 0.  0.
        -12    1    1    2    0    0  0.31352736499E+02 -0.24786377964E+02  0.74703502792E+01  0.40659128764E+02  0.00000000000E+00 0.  1.
         11    1    3    3    0    0  0.30369798291E+01  0.12565899399E+02  0.56199003611E+00  0.12939895952E+02  0.51100000000E-03 0. -1.
        -11    1    3    3    0    0 -0.64731790283E+01  0.88079327894E+00 -0.22352582427E+01  0.69046522871E+01  0.51100000000E-03 0.  1.
         12    1    3    3    0    0 -0.27916537300E+02  0.11339685286E+02 -0.57970820726E+01  0.30684322997E+02  0.00000000000E+00 0. -1.
</event>
<event>
 7    1  0.5068291E-011  0.5052885E+02  0.7816164E-02  0.1300439E+00
        -11   -1    0    0    0    0  0.00000000000E+00  0.00000000000E+00  0.45593999997E+02  0.45594000000E+02  0.51100000000E-03 0. -1.
         11   -1    0    0    0    0 -0.00000000000E+00 -0.00000000000E+00 -0.45593999997E+02  0.45594000000E+02  0.51100000000E-03 0.  1.
    9900012    2    1    2    0    0 -0.32898044356E+00  0.35345835025E+02  0.20093043359E+02  0.50528847609E+02  0.29999962791E+02 0.  0.
        -12    1    1    2    0    0  0.32898044356E+00 -0.35345835025E+02 -0.20093043359E+02  0.40659152391E+02  0.00000000000E+00 0.  1.
         11    1    3    3    0    0 -0.38337907304E+01  0.28251246458E+02  0.10100982506E+02  0.30246664703E+02  0.51100000000E-03 0. -1.
        -11    1    3    3    0    0  0.84327707401E+01  0.45925542376E+01  0.11066838516E+02  0.14651897208E+02  0.51100000000E-03 0.  1.
        -12    1    3    3    0    0 -0.49279604533E+01  0.25020343295E+01 -0.10747776631E+01  0.56302856979E+01  0.00000000000E+00 0.  1.
</event>
<event>
 7    1  0.5068291E-011  0.5052886E+02  0.7816164E-02  0.1300439E+00
        -11   -1    0    0    0    0  0.00000000000E+00  0.00000000000E+00  0.45593999997E+02  0.45594000000E+02  0.51100000000E-03 0. -1.
         11   -1    0    0    0    0 -0.00000000000E+00 -0.00000000000E+00 -0.45593999997E+02  0.45594000000E+02  0.51100000000E-03 0.  1.
    9900012    2    1    2    0    0 -0.38887008472E+02  0.11872830120E+02  0.48069586365E-01  0.50528857933E+02  0.29999994174E+02 0.  0.
        -12    1    1    2    0    0  0.38887008472E+02 -0.11872830120E+02 -0.48069586365E-01  0.40659142067E+02  0.00000000000E+00 0.  1.
         11    1    3    3    0    0 -0.11621972431E+02  0.18295005092E+02 -0.12532972149E+01  0.21710555236E+02  0.51100000000E-03 0. -1.
        -11    1    3    3    0    0 -0.86021946122E+01 -0.19807134333E+01  0.35264741836E+01  0.95056298203E+01  0.51100000000E-03 0.  1.
         12    1    3    3    0    0 -0.18662841429E+02 -0.44414615385E+01 -0.22251073823E+01  0.19312672877E+02  0.00000000000E+00 0. -1.
</event>
<event>
 7    1  0.5068291E-011  0.5052886E+02  0.7816164E-02  0.1300439E+00
        -11   -1    0    0    0    0  0.00000000000E+00  0.00000000000E+00  0.45593999997E+02  0.45594000000E+02  0.51100000000E-03 0.  1.
         11   -1    0    0    0    0 -0.00000000000E+00 -0.00000000000E+00 -0.45593999997E+02  0.45594000000E+02  0.51100000000E-03 0. -1.
    9900012    2    1    2    0    0  0.38097842017E+01  0.38181828857E+02 -0.13446159569E+02  0.50528859359E+02  0.29999998506E+02 0.  0.
        -12    1    1    2    0    0 -0.38097842017E+01 -0.38181828857E+02  0.13446159569E+02  0.40659140641E+02  0.00000000000E+00 0.  1.
         11    1    3    3    0    0  0.62747155445E+01  0.25269412242E+02 -0.18153240380E+02  0.31740437722E+02  0.51100000000E-03 0. -1.
        -11    1    3    3    0    0  0.56243026571E+00  0.87738653922E+01  0.86396416695E+01  0.12326412705E+02  0.51100000000E-03 0.  1.
        -12    1    3    3    0    0 -0.30273616084E+01  0.41385512234E+01 -0.39325608581E+01  0.64620089322E+01  0.00000000000E+00 0.  1.
</event>
<event>
 7    1  0.5068291E-011  0.5052886E+02  0.7816164E-02  0.1300439E+00
        -11   -1    0    0    0    0  0.00000000000E+00  0.00000000000E+00  0.45593999997E+02  0.45594000000E+02  0.51100000000E-03 0. -1.
         11   -1    0    0    0    0 -0.00000000000E+00 -0.00000000000E+00 -0.45593999997E+02  0.45594000000E+02  0.51100000000E-03 0.  1.
    9900012    2    1    2    0    0  0.24742977256E+02  0.15500291967E+02 -0.28296493083E+02  0.50528862093E+02  0.30000006818E+02 0.  0.
        -12    1    1    2    0    0 -0.24742977256E+02 -0.15500291967E+02  0.28296493083E+02  0.40659137907E+02  0.00000000000E+00 0.  1.
         11    1    3    3    0    0  0.96656047887E+01  0.21431582681E+02 -0.14237089776E+02  0.27485111928E+02  0.51100000000E-03 0. -1.
        -11    1    3    3    0    0  0.57490768210E+01  0.12710256163E+01 -0.75693582098E+01  0.95897119029E+01  0.51100000000E-03 0.  1.
         12    1    3    3    0    0  0.93282956461E+01 -0.72023163309E+01 -0.64900450975E+01  0.13454038262E+02  0.00000000000E+00 0. -1.
</event>
<event>
 7    1  0.5068291E-011  0.5052889E+02  0.7816164E-02  0.1300439E+00
        -11   -1    0    0    0    0  0.00000000000E+00  0.00000000000E+00  0.45593999997E+02  0.45594000000E+02  0.51100000000E-03 0. -1.
         11   -1    0    0    0    0 -0.00000000000E+00 -0.00000000000E+00 -0.45593999997E+02  0.45594000000E+02  0.51100000000E-03 0.  1.
    9900012    2    1    2    0    0 -0.26203496699E+02  0.25127305035E+02  0.18307338839E+02  0.50528888439E+02  0.30000086900E+02 0.  0.
        -12    1    1    2    0    0  0.26203496699E+02 -0.25127305035E+02 -0.18307338839E+02  0.40659111561E+02  0.00000000000E+00 0.  1.
         11    1    3    3    0    0 -0.99267609645E+01  0.24365848375E+02  0.41857152176E+01  0.26641234251E+02  0.51100000000E-03 0. -1.
        -11    1    3    3    0    0 -0.27320186658E+01 -0.35813189513E+01  0.11777706131E+01  0.46558474308E+01  0.51100000000E-03 0.  1.
         12    1    3    3    0    0 -0.13544717068E+02  0.43427756111E+01  0.12943853008E+02  0.19231806758E+02  0.00000000000E+00 0. -1.
</event>
<event>
 7    1  0.5068291E-011  0.5052889E+02  0.7816164E-02  0.1300439E+00
        -11   -1    0    0    0    0  0.00000000000E+00  0.00000000000E+00  0.45593999997E+02  0.45594000000E+02  0.51100000000E-03 0.  1.
         11   -1    0    0    0    0 -0.00000000000E+00 -0.00000000000E+00 -0.45593999997E+02  0.45594000000E+02  0.51100000000E-03 0. -1.
    9900012    2    1    2    0    0  0.26492023538E+02 -0.20668290764E+02  0.22894489253E+02  0.50528890413E+02  0.30000092900E+02 0.  0.
        -12    1    1    2    0    0 -0.26492023538E+02  0.20668290764E+02 -0.22894489253E+02  0.40659109587E+02  0.00000000000E+00 0.  1.
         11    1    3    3    0    0  0.22149750763E+02 -0.17737724007E+02  0.67322597526E+01  0.29164389818E+02  0.51100000000E-03 0. -1.
        -11    1    3    3    0    0  0.44425404012E+01  0.38923369163E+01  0.11991412073E+02  0.13367139397E+02  0.51100000000E-03 0.  1.
         12    1    3    3    0    0 -0.10026762583E+00 -0.68229036735E+01  0.41708174270E+01  0.79973611988E+01  0.00000000000E+00 0. -1.
</event>
<event>
 7    1  0.5068291E-011  0.5052886E+02  0.7816164E-02  0.1300439E+00
        -11   -1    0    0    0    0  0.00000000000E+00  0.00000000000E+00  0.45593999997E+02  0.45594000000E+02  0.51100000000E-03 0. -1.
         11   -1    0    0    0    0 -0.00000000000E+00 -0.00000000000E+00 -0.45593999997E+02  0.45594000000E+02  0.51100000000E-03 0.  1.
    9900012    2    1    2    0    0  0.20050052760E+02 -0.32488646370E+02  0.13987452724E+02  0.50528860900E+02  0.30000003192E+02 0.  0.
        -12    1    1    2    0    0 -0.20050052760E+02  0.32488646370E+02 -0.13987452724E+02  0.40659139100E+02  0.00000000000E+00 0.  1.
         11    1    3    3    0    0  0.78354137294E+01  0.39818497024E+01  0.42984506636E+01  0.97839416255E+01  0.51100000000E-03 0.  1.
        -11    1    3    3    0    0  0.54839352171E+01 -0.51132716243E+01  0.21321614305E+01  0.77952039612E+01  0.51100000000E-03 0. -1.
         12    1    3    3    0    0  0.67307038138E+01 -0.31357224448E+02  0.75568406302E+01  0.32949715313E+02  0.00000000000E+00 0. -1.
</event>
<event>
 7    1  0.5068291E-011  0.5052886E+02  0.7816164E-02  0.1300439E+00
        -11   -1    0    0    0    0  0.00000000000E+00  0.00000000000E+00  0.45593999997E+02  0.45594000000E+02  0.51100000000E-03 0. -1.
         11   -1    0    0    0    0 -0.00000000000E+00 -0.00000000000E+00 -0.45593999997E+02  0.45594000000E+02  0.51100000000E-03 0.  1.
    9900012    2    1    2    0    0  0.21571379665E+02 -0.48517846601E+00  0.34461661889E+02  0.50528856392E+02  0.29999989488E+02 0.  0.
        -12    1    1    2    0    0 -0.21571379665E+02  0.48517846601E+00 -0.34461661889E+02  0.40659143608E+02  0.00000000000E+00 0.  1.
         11    1    3    3    0    0  0.26476233237E+02 -0.52241615450E+01  0.21098947180E+02  0.34255632568E+02  0.51100000000E-03 0. -1.
        -11    1    3    3    0    0 -0.37667002487E+01 -0.33907243339E+00  0.36596326987E+01  0.52626906264E+01  0.51100000000E-03 0.  1.
         12    1    3    3    0    0 -0.11381533238E+01  0.50780555123E+01  0.97030820107E+01  0.11010533197E+02  0.00000000000E+00 0. -1.
</event>
<event>
 7    1  0.5068291E-011  0.5052886E+02  0.7816164E-02  0.1300439E+00
        -11   -1    0    0    0    0  0.00000000000E+00  0.00000000000E+00  0.45593999997E+02  0.45594000000E+02  0.51100000000E-03 0. -1.
         11   -1    0    0    0    0 -0.00000000000E+00 -0.00000000000E+00 -0.45593999997E+02  0.45594000000E+02  0.51100000000E-03 0.  1.
    9900012    2    1    2    0    0  0.24206400782E+02 -0.32273330634E+02  0.50643606724E+01  0.50528862552E+02  0.30000008212E+02 0.  0.
        -12    1    1    2    0    0 -0.24206400782E+02  0.32273330634E+02 -0.50643606724E+01  0.40659137448E+02  0.00000000000E+00 0.  1.
         11    1    3    3    0    0  0.24145376085E+02 -0.20299252553E+02 -0.69189785783E+01  0.32294443878E+02  0.51100000000E-03 0. -1.
        -11    1    3    3    0    0 -0.14922588040E+01 -0.14086021302E+01  0.51818167514E+01  0.55733492090E+01  0.51100000000E-03 0.  1.
         12    1    3    3    0    0  0.15532835002E+01 -0.10565475951E+02  0.68015224993E+01  0.12661069465E+02  0.00000000000E+00 0. -1.
</event>
<event>
 7    1  0.5068291E-011  0.5052888E+02  0.7816164E-02  0.1300439E+00
        -11   -1    0    0    0    0  0.00000000000E+00  0.00000000000E+00  0.45593999997E+02  0.45594000000E+02  0.51100000000E-03 0.  1.
         11   -1    0    0    0    0 -0.00000000000E+00 -0.00000000000E+00 -0.45593999997E+02  0.45594000000E+02  0.51100000000E-03 0. -1.
    9900012    2    1    2    0    0  0.32933918204E+02  0.11539643324E+02 -0.20865233578E+02  0.50528876687E+02  0.30000051178E+02 0.  0.
        -12    1    1    2    0    0 -0.32933918204E+02 -0.11539643324E+02  0.20865233578E+02  0.40659123313E+02  0.00000000000E+00 0.  1.
         11    1    3    3    0    0  0.25518621727E+02  0.11354315727E+02 -0.21132504522E+02  0.35024324235E+02  0.51100000000E-03 0. -1.
        -11    1    3    3    0    0 -0.19898684736E+01  0.28237786916E+01  0.37829652256E+01  0.51229023805E+01  0.51100000000E-03 0.  1.
         12    1    3    3    0    0  0.94051649506E+01 -0.26384510954E+01 -0.35156942821E+01  0.10381650072E+02  0.00000000000E+00 0. -1.
</event>
<event>
 7    1  0.5068291E-011  0.5052885E+02  0.7816164E-02  0.1300439E+00
        -11   -1    0    0    0    0  0.00000000000E+00  0.00000000000E+00  0.45593999997E+02  0.45594000000E+02  0.51100000000E-03 0.  1.
         11   -1    0    0    0    0 -0.00000000000E+00 -0.00000000000E+00 -0.45593999997E+02  0.45594000000E+02  0.51100000000E-03 0. -1.
    9900012    2    1    2    0    0 -0.33114938283E+02 -0.21619319278E+02 -0.94430938729E+01  0.50528854345E+02  0.29999983266E+02 0.  0.
        -12    1    1    2    0    0  0.33114938283E+02  0.21619319278E+02  0.94430938729E+01  0.40659145655E+02  0.00000000000E+00 0.  1.
         11    1    3    3    0    0 -0.29228599028E+02 -0.10674212773E+02 -0.12483703320E+02  0.33527491232E+02  0.51100000000E-03 0. -1.
        -11    1    3    3    0    0 -0.39287317437E+01 -0.63848652775E+01  0.75132660275E+01  0.10613698902E+02  0.51100000000E-03 0.  1.
        -12    1    3    3    0    0  0.42392488954E-01 -0.45602412275E+01 -0.44726565808E+01  0.63876642105E+01  0.00000000000E+00 0.  1.
</event>
<event>
 7    1  0.5068291E-011  0.5052887E+02  0.7816164E-02  0.1300439E+00
        -11   -1    0    0    0    0  0.00000000000E+00  0.00000000000E+00  0.45593999997E+02  0.45594000000E+02  0.51100000000E-03 0.  1.
         11   -1    0    0    0    0 -0.00000000000E+00 -0.00000000000E+00 -0.45593999997E+02  0.45594000000E+02  0.51100000000E-03 0. -1.
    9900012    2    1    2    0    0 -0.67257653673E+01  0.26307826381E+02 -0.30262640390E+02  0.50528867545E+02  0.30000023389E+02 0.  0.
        -12    1    1    2    0    0  0.67257653673E+01 -0.26307826381E+02  0.30262640390E+02  0.40659132455E+02  0.00000000000E+00 0.  1.
         11    1    3    3    0    0  0.24118738021E+01  0.23547721736E+02 -0.23974383699E+02  0.33690998920E+02  0.51100000000E-03 0. -1.
        -11    1    3    3    0    0 -0.12168417617E+02  0.31273522757E+01 -0.49323169684E+01  0.13497350499E+02  0.51100000000E-03 0.  1.
         12    1    3    3    0    0  0.30307784475E+01 -0.36724763071E+00 -0.13559397221E+01  0.33405181260E+01  0.00000000000E+00 0. -1.
</event>
<event>
 7    1  0.5068291E-011  0.5052886E+02  0.7816164E-02  0.1300439E+00
        -11   -1    0    0    0    0  0.00000000000E+00  0.00000000000E+00  0.45593999997E+02  0.45594000000E+02  0.51100000000E-03 0.  1.
         11   -1    0    0    0    0 -0.00000000000E+00 -0.00000000000E+00 -0.45593999997E+02  0.45594000000E+02  0.51100000000E-03 0. -1.
    9900012    2    1    2    0    0 -0.38008729159E+02 -0.13607272689E+02 -0.48316199870E+01  0.50528856944E+02  0.29999991167E+02 0.  0.
        -12    1    1    2    0    0  0.38008729159E+02  0.13607272689E+02  0.48316199870E+01  0.40659143056E+02  0.00000000000E+00 0.  1.
         11    1    3    3    0    0 -0.50901069487E+01 -0.99201675265E+01  0.82840786148E+01  0.13890459721E+02  0.51100000000E-03 0.  1.
        -11    1    3    3    0    0 -0.14697258347E+02 -0.59004932922E+01 -0.66617444995E+01  0.17181503545E+02  0.51100000000E-03 0. -1.
         12    1    3    3    0    0 -0.18221363863E+02  0.22133881296E+01 -0.64539541022E+01  0.19456893678E+02  0.00000000000E+00 0. -1.
</event>
<event>
 7    1  0.5068291E-011  0.5052886E+02  0.7816164E-02  0.1300439E+00
        -11   -1    0    0    0    0  0.00000000000E+00  0.00000000000E+00  0.45593999997E+02  0.45594000000E+02  0.51100000000E-03 0.  1.
         11   -1    0    0    0    0 -0.00000000000E+00 -0.00000000000E+00 -0.45593999997E+02  0.45594000000E+02  0.51100000000E-03 0. -1.
    9900012    2    1    2    0    0 -0.18586336430E+00  0.26046665260E+01 -0.40575202830E+02  0.50528856900E+02  0.29999991034E+02 0.  0.
        -12    1    1    2    0    0  0.18586336430E+00 -0.26046665260E+01  0.40575202830E+02  0.40659143100E+02  0.00000000000E+00 0.  1.
         11    1    3    3    0    0 -0.15405088119E+01  0.15027655435E+02 -0.12850236659E+02  0.19832603907E+02  0.51100000000E-03 0.  1.
        -11    1    3    3    0    0 -0.86574435267E+00 -0.76752131023E+01 -0.19113390833E+02  0.20615045933E+02  0.51100000000E-03 0. -1.
        -12    1    3    3    0    0  0.22203898002E+01 -0.47477758071E+01 -0.86115753378E+01  0.10081207060E+02  0.00000000000E+00 0.  1.
</event>
<event>
 7    1  0.5068291E-011  0.5052884E+02  0.7816164E-02  0.1300439E+00
        -11   -1    0    0    0    0  0.00000000000E+00  0.00000000000E+00  0.45593999997E+02  0.45594000000E+02  0.51100000000E-03 0. -1.
         11   -1    0    0    0    0 -0.00000000000E+00 -0.00000000000E+00 -0.45593999997E+02  0.45594000000E+02  0.51100000000E-03 0.  1.
    9900012    2    1    2    0    0 -0.30358006778E+02 -0.21444045446E+02  0.16483666506E+02  0.50528844548E+02  0.29999953488E+02 0.  0.
        -12    1    1    2    0    0  0.30358006778E+02  0.21444045446E+02 -0.16483666506E+02  0.40659155452E+02  0.00000000000E+00 0.  1.
         11    1    3    3    0    0 -0.19230666858E+02 -0.21756826810E+02  0.20139136289E+02  0.35337839088E+02  0.51100000000E-03 0. -1.
        -11    1    3    3    0    0 -0.36523134858E+01 -0.43549346532E+01 -0.28025757322E+01  0.63371350490E+01  0.51100000000E-03 0.  1.
         12    1    3    3    0    0 -0.74750264335E+01  0.46677160171E+01 -0.85289405087E+00  0.88538704113E+01  0.00000000000E+00 0. -1.
</event>
<event>
 7    1  0.5068291E-011  0.5052886E+02  0.7816164E-02  0.1300439E+00
        -11   -1    0    0    0    0  0.00000000000E+00  0.00000000000E+00  0.45593999997E+02  0.45594000000E+02  0.51100000000E-03 0. -1.
         11   -1    0    0    0    0 -0.00000000000E+00 -0.00000000000E+00 -0.45593999997E+02  0.45594000000E+02  0.51100000000E-03 0.  1.
    9900012    2    1    2    0    0 -0.44446365744E+01  0.35468010337E+02  0.19376050845E+02  0.50528857143E+02  0.29999991770E+02 0.  0.
        -12    1    1    2    0    0  0.44446365744E+01 -0.35468010337E+02 -0.19376050845E+02  0.40659142857E+02  0.00000000000E+00 0.  1.
         11    1    3    3    0    0  0.64420735026E+01  0.34933549151E+02  0.14224569235E+02  0.38264755814E+02  0.51100000000E-03 0. -1.
        -11    1    3    3    0    0 -0.26233928251E+01  0.42811654246E+00  0.28415366377E+00  0.26732409645E+01  0.51100000000E-03 0.  1.
         12    1    3    3    0    0 -0.82633172519E+01  0.10634464349E+00  0.48673279464E+01  0.95908603643E+01  0.00000000000E+00 0. -1.
</event>
<event>
 7    1  0.5167721E-011  0.5052885E+02  0.7816164E-02  0.1300439E+00
        -11   -1    0    0    0    0  0.00000000000E+00  0.00000000000E+00  0.45593999997E+02  0.45594000000E+02  0.51100000000E-03 0. -1.
         11   -1    0    0    0    0 -0.00000000000E+00 -0.00000000000E+00 -0.45593999997E+02  0.45594000000E+02  0.51100000000E-03 0.  1.
    9900012    2    1    2    0    0  0.37697885028E+02  0.11979210236E+02  0.94092809850E+01  0.50528848729E+02  0.29999966195E+02 0.  0.
        -12    1    1    2    0    0 -0.37697885028E+02 -0.11979210236E+02 -0.94092809850E+01  0.40659151271E+02  0.00000000000E+00 0.  1.
         11    1    3    3    0    0  0.19724201836E+02 -0.52667506918E+01  0.11766482209E+01  0.20449139400E+02  0.51100000000E-03 0. -1.
        -11    1    3    3    0    0  0.13735011213E+01  0.10621386482E+02  0.85559640640E+00  0.10743947207E+02  0.51100000000E-03 0.  1.
         12    1    3    3    0    0  0.16600182071E+02  0.66245744466E+01  0.73770363577E+01  0.19335762121E+02  0.00000000000E+00 0. -1.
</event>
<event>
 7    1  0.5068291E-011  0.5052883E+02  0.7816164E-02  0.1300439E+00
        -11   -1    0    0    0    0  0.00000000000E+00  0.00000000000E+00  0.45593999997E+02  0.45594000000E+02  0.51100000000E-03 0. -1.
         11   -1    0    0    0    0 -0.00000000000E+00 -0.00000000000E+00 -0.45593999997E+02  0.45594000000E+02  0.51100000000E-03 0.  1.
    9900012    2    1    2    0    0 -0.20058493979E+02 -0.26719618257E+02  0.23170827092E+02  0.50528826267E+02  0.29999897921E+02 0.  0.
        -12    1    1    2    0    0  0.20058493979E+02  0.26719618257E+02 -0.23170827092E+02  0.40659173733E+02  0.00000000000E+00 0.  1.
         11    1    3    3    0    0 -0.15092091841E+02 -0.17315430382E+01  0.16241549888E+02  0.22238647001E+02  0.51100000000E-03 0. -1.
        -11    1    3    3    0    0  0.28031748577E+01 -0.36605303684E+01  0.19953249603E+00  0.46148765248E+01  0.51100000000E-03 0.  1.
         12    1    3    3    0    0 -0.77695769964E+01 -0.21327544850E+02  0.67297447079E+01  0.23675302741E+02  0.00000000000E+00 0. -1.
</event>
<event>
 7    1  0.5068291E-011  0.5052889E+02  0.7816164E-02  0.1300439E+00
        -11   -1    0    0    0    0  0.00000000000E+00  0.00000000000E+00  0.45593999997E+02  0.45594000000E+02  0.51100000000E-03 0.  1.
         11   -1    0    0    0    0 -0.00000000000E+00 -0.00000000000E+00 -0.45593999997E+02  0.45594000000E+02  0.51100000000E-03 0. -1.
    9900012    2    1    2    0    0 -0.24324746683E+02  0.23791204795E+02 -0.22258667514E+02  0.50528892703E+02  0.30000099858E+02 0.  0.
        -12    1    1    2    0    0  0.24324746683E+02 -0.23791204795E+02  0.22258667514E+02  0.40659107297E+02  0.00000000000E+00 0.  1.
         11    1    3    3    0    0 -0.58253960439E+01  0.14430690670E+02 -0.18556919654E+02  0.24218574268E+02  0.51100000000E-03 0. -1.
        -11    1    3    3    0    0 -0.11021857751E+02 -0.27668804102E+01  0.73652741092E+00  0.11387688456E+02  0.51100000000E-03 0.  1.
        -12    1    3    3    0    0 -0.74774928879E+01  0.12127394535E+02 -0.44382752705E+01  0.14922629978E+02  0.00000000000E+00 0.  1.
</event>
<event>
 7    1  0.5068291E-011  0.5052885E+02  0.7816164E-02  0.1300439E+00
        -11   -1    0    0    0    0  0.00000000000E+00  0.00000000000E+00  0.45593999997E+02  0.45594000000E+02  0.51100000000E-03 0. -1.
         11   -1    0    0    0    0 -0.00000000000E+00 -0.00000000000E+00 -0.45593999997E+02  0.45594000000E+02  0.51100000000E-03 0.  1.
    9900012    2    1    2    0    0 -0.28464428082E+02  0.22837044485E+02 -0.17927972881E+02  0.50528850003E+02  0.29999970070E+02 0.  0.
        -12    1    1    2    0    0  0.28464428082E+02 -0.22837044485E+02  0.17927972881E+02  0.40659149997E+02  0.00000000000E+00 0.  1.
         11    1    3    3    0    0 -0.16043936024E+02  0.98057271324E+01  0.40321299268E+01  0.19230658848E+02  0.51100000000E-03 0. -1.
        -11    1    3    3    0    0 -0.12644090776E+02  0.11468837642E+02 -0.23531284793E+02  0.29071096172E+02  0.51100000000E-03 0.  1.
        -12    1    3    3    0    0  0.22359871721E+00  0.15624797106E+01  0.15711819850E+01  0.22270949828E+01  0.00000000000E+00 0.  1.
</event>
<event>
 7    1  0.5068291E-011  0.5052886E+02  0.7816164E-02  0.1300439E+00
        -11   -1    0    0    0    0  0.00000000000E+00  0.00000000000E+00  0.45593999997E+02  0.45594000000E+02  0.51100000000E-03 0.  1.
         11   -1    0    0    0    0 -0.00000000000E+00 -0.00000000000E+00 -0.45593999997E+02  0.45594000000E+02  0.51100000000E-03 0. -1.
    9900012    2    1    2    0    0 -0.67573363732E+01  0.40072385643E+02  0.13068648429E+01  0.50528861031E+02  0.30000003590E+02 0.  0.
        -12    1    1    2    0    0  0.67573363732E+01 -0.40072385643E+02 -0.13068648429E+01  0.40659138969E+02  0.00000000000E+00 0.  1.
         11    1    3    3    0    0 -0.14839170571E+00  0.16044467433E+00 -0.25237802602E+01  0.25332251488E+01  0.51100000000E-03 0. -1.
        -11    1    3    3    0    0 -0.57929418455E+01  0.11612153325E+02  0.12869371277E+02  0.18276241337E+02  0.51100000000E-03 0.  1.
        -12    1    3    3    0    0 -0.81600282202E+00  0.28299787643E+02 -0.90387261743E+01  0.29719394545E+02  0.00000000000E+00 0.  1.
</event>
<event>
 7    1  0.5068291E-011  0.5052887E+02  0.7816164E-02  0.1300439E+00
        -11   -1    0    0    0    0  0.00000000000E+00  0.00000000000E+00  0.45593999997E+02  0.45594000000E+02  0.51100000000E-03 0. -1.
         11   -1    0    0    0    0 -0.00000000000E+00 -0.00000000000E+00 -0.45593999997E+02  0.45594000000E+02  0.51100000000E-03 0.  1.
    9900012    2    1    2    0    0  0.36574289370E+02  0.11877081210E+00  0.17761536303E+02  0.50528869153E+02  0.30000028276E+02 0.  0.
        -12    1    1    2    0    0 -0.36574289370E+02 -0.11877081210E+00 -0.17761536303E+02  0.40659130847E+02  0.00000000000E+00 0.  1.
         11    1    3    3    0    0  0.18342811998E+02  0.21210128421E+01  0.43173236761E+01  0.18963035924E+02  0.51100000000E-03 0. -1.
        -11    1    3    3    0    0 -0.42860622155E+01  0.77637167614E+00  0.65260922788E+01  0.78462069172E+01  0.51100000000E-03 0.  1.
        -12    1    3    3    0    0  0.22517539587E+02 -0.27786137062E+01  0.69181203484E+01  0.23719626311E+02  0.00000000000E+00 0.  1.
</event>
<event>
 7    1  0.5068291E-011  0.5052887E+02  0.7816164E-02  0.1300439E+00
        -11   -1    0    0    0    0  0.00000000000E+00  0.00000000000E+00  0.45593999997E+02  0.45594000000E+02  0.51100000000E-03 0. -1.
         11   -1    0    0    0    0 -0.00000000000E+00 -0.00000000000E+00 -0.45593999997E+02  0.45594000000E+02  0.51100000000E-03 0.  1.
    9900012    2    1    2    0    0  0.23600570242E+02 -0.19456700239E+02 -0.26788337997E+02  0.50528866308E+02  0.30000019629E+02 0.  0.
        -12    1    1    2    0    0 -0.23600570242E+02  0.19456700239E+02  0.26788337997E+02  0.40659133692E+02  0.00000000000E+00 0.  1.
         11    1    3    3    0    0  0.13834827794E+02 -0.92578213651E+01  0.23931982120E+01  0.16817761874E+02  0.51100000000E-03 0. -1.
        -11    1    3    3    0    0  0.92713457024E+01 -0.98168769713E+01 -0.17947857398E+02  0.22460064783E+02  0.51100000000E-03 0.  1.
         12    1    3    3    0    0  0.49439674610E+00 -0.38200190259E+00 -0.11233678811E+02  0.11251039651E+02  0.00000000000E+00 0. -1.
</event>
<event>
 7    1  0.5068291E-011  0.5052888E+02  0.7816164E-02  0.1300439E+00
        -11   -1    0    0    0    0  0.00000000000E+00  0.00000000000E+00  0.45593999997E+02  0.45594000000E+02  0.51100000000E-03 0.  1.
         11   -1    0    0    0    0 -0.00000000000E+00 -0.00000000000E+00 -0.45593999997E+02  0.45594000000E+02  0.51100000000E-03 0. -1.
    9900012    2    1    2    0    0  0.87465115915E+01  0.14652441182E+02 -0.36904859942E+02  0.50528878207E+02  0.30000055798E+02 0.  0.
        -12    1    1    2    0    0 -0.87465115915E+01 -0.14652441182E+02  0.36904859942E+02  0.40659121793E+02  0.00000000000E+00 0.  1.
         11    1    3    3    0    0 -0.10483408035E+01  0.18864128095E+02 -0.15240612639E+02  0.24274073022E+02  0.51100000000E-03 0. -1.
        -11    1    3    3    0    0  0.11452792539E+02 -0.14895369609E+01 -0.18125357910E+02  0.21492179436E+02  0.51100000000E-03 0.  1.
         12    1    3    3    0    0 -0.16579401435E+01 -0.27221499519E+01 -0.35388893941E+01  0.47626257489E+01  0.00000000000E+00 0. -1.
</event>
<event>
 7    1  0.5068291E-011  0.5052886E+02  0.7816164E-02  0.1300439E+00
        -11   -1    0    0    0    0  0.00000000000E+00  0.00000000000E+00  0.45593999997E+02  0.45594000000E+02  0.51100000000E-03 0. -1.
         11   -1    0    0    0    0 -0.00000000000E+00 -0.00000000000E+00 -0.45593999997E+02  0.45594000000E+02  0.51100000000E-03 0.  1.
    9900012    2    1    2    0    0  0.19561907053E+02  0.11532572748E+02  0.33726801943E+02  0.50528860670E+02  0.30000002493E+02 0.  0.
        -12    1    1    2    0    0 -0.19561907053E+02 -0.11532572748E+02 -0.33726801943E+02  0.40659139330E+02  0.00000000000E+00 0.  1.
         11    1    3    3    0    0  0.31332684828E+01  0.15085648519E+02  0.87411184751E+01  0.17714438040E+02  0.51100000000E-03 0. -1.
        -11    1    3    3    0    0  0.96327398547E+01 -0.45066672828E+01  0.23497988891E+02  0.25792541737E+02  0.51100000000E-03 0.  1.
         12    1    3    3    0    0  0.67958987151E+01  0.95359151227E+00  0.14876945773E+01  0.70218808928E+01  0.00000000000E+00 0. -1.
</event>
<event>
 7    1  0.5068291E-011  0.5052888E+02  0.7816164E-02  0.1300439E+00
        -11   -1    0    0    0    0  0.00000000000E+00  0.00000000000E+00  0.45593999997E+02  0.45594000000E+02  0.51100000000E-03 0.  1.
         11   -1    0    0    0    0 -0.00000000000E+00 -0.00000000000E+00 -0.45593999997E+02  0.45594000000E+02  0.51100000000E-03 0. -1.
    9900012    2    1    2    0    0 -0.33214809199E+02  0.23230577299E+02  0.32064155116E+01  0.50528875905E+02  0.30000048800E+02 0.  0.
        -12    1    1    2    0    0  0.33214809199E+02 -0.23230577299E+02 -0.32064155116E+01  0.40659124095E+02  0.00000000000E+00 0.  1.
         11    1    3    3    0    0 -0.38879479316E+01 -0.34495350592E+01  0.82760951941E+01  0.97728799833E+01  0.51100000000E-03 0. -1.
        -11    1    3    3    0    0 -0.14400794421E+01  0.23032958086E+01  0.15535360067E+01  0.31292930139E+01  0.51100000000E-03 0.  1.
         12    1    3    3    0    0 -0.27886781825E+02  0.24376816549E+02 -0.66232156893E+01  0.37626702908E+02  0.00000000000E+00 0. -1.
</event>
<event>
 7    1  0.5068291E-011  0.5052887E+02  0.7816164E-02  0.1300439E+00
        -11   -1    0    0    0    0  0.00000000000E+00  0.00000000000E+00  0.45593999997E+02  0.45594000000E+02  0.51100000000E-03 0.  1.
         11   -1    0    0    0    0 -0.00000000000E+00 -0.00000000000E+00 -0.45593999997E+02  0.45594000000E+02  0.51100000000E-03 0. -1.
    9900012    2    1    2    0    0 -0.25525988160E+02 -0.31420692910E+02  0.37853650290E+01  0.50528868149E+02  0.30000025225E+02 0.  0.
        -12    1    1    2    0    0  0.25525988160E+02  0.31420692910E+02 -0.37853650290E+01  0.40659131851E+02  0.00000000000E+00 0.  1.
         11    1    3    3    0    0 -0.83432876485E+01 -0.24404891836E+02 -0.88047148317E+01  0.27253113544E+02  0.51100000000E-03 0. -1.
        -11    1    3    3    0    0 -0.12827268594E+01  0.61935495155E+00  0.27033384857E+01  0.30556550822E+01  0.51100000000E-03 0.  1.
         12    1    3    3    0    0 -0.15899973652E+02 -0.76351560251E+01  0.98867413750E+01  0.20220099522E+02  0.00000000000E+00 0. -1.
</event>
<event>
 7    1  0.5068291E-011  0.5052887E+02  0.7816164E-02  0.1300439E+00
        -11   -1    0    0    0    0  0.00000000000E+00  0.00000000000E+00  0.45593999997E+02  0.45594000000E+02  0.51100000000E-03 0.  1.
         11   -1    0    0    0    0 -0.00000000000E+00 -0.00000000000E+00 -0.45593999997E+02  0.45594000000E+02  0.51100000000E-03 0. -1.
    9900012    2    1    2    0    0  0.17118742072E+02  0.75344430776E+01 -0.36101880211E+02  0.50528869200E+02  0.30000028421E+02 0.  0.
        -12    1    1    2    0    0 -0.17118742072E+02 -0.75344430776E+01  0.36101880211E+02  0.40659130800E+02  0.00000000000E+00 0.  1.
         11    1    3    3    0    0  0.49775986426E+00 -0.10160221714E+01 -0.74798579462E+01  0.75649415789E+01  0.51100000000E-03 0. -1.
        -11    1    3    3    0    0  0.26634534178E+01 -0.34367070444E+00  0.48950232221E+01  0.55833096160E+01  0.51100000000E-03 0.  1.
        -12    1    3    3    0    0  0.13957528790E+02  0.88941359535E+01 -0.33517045487E+02  0.37380618005E+02  0.00000000000E+00 0.  1.
</event>
<event>
 7    1  0.5068291E-011  0.5052887E+02  0.7816164E-02  0.1300439E+00
        -11   -1    0    0    0    0  0.00000000000E+00  0.00000000000E+00  0.45593999997E+02  0.45594000000E+02  0.51100000000E-03 0.  1.
         11   -1    0    0    0    0 -0.00000000000E+00 -0.00000000000E+00 -0.45593999997E+02  0.45594000000E+02  0.51100000000E-03 0. -1.
    9900012    2    1    2    0    0  0.11352956351E+02  0.17956756096E+02 -0.34667422241E+02  0.50528869756E+02  0.30000030109E+02 0.  0.
        -12    1    1    2    0    0 -0.11352956351E+02 -0.17956756096E+02  0.34667422241E+02  0.40659130244E+02  0.00000000000E+00 0.  1.
         11    1    3    3    0    0 -0.20798047629E+01  0.12176874697E+02 -0.64273627934E+01  0.13925259709E+02  0.51100000000E-03 0. -1.
        -11    1    3    3    0    0  0.49532390047E+01 -0.26002270875E+01 -0.22841308950E+02  0.23516401773E+02  0.51100000000E-03 0.  1.
        -12    1    3    3    0    0  0.84795221092E+01  0.83801084865E+01 -0.53987504973E+01  0.13087208273E+02  0.00000000000E+00 0.  1.
</event>
<event>
 7    1  0.5068291E-011  0.5052888E+02  0.7816164E-02  0.1300439E+00
        -11   -1    0    0    0    0  0.00000000000E+00  0.00000000000E+00  0.45593999997E+02  0.45594000000E+02  0.51100000000E-03 0.  1.
         11   -1    0    0    0    0 -0.00000000000E+00 -0.00000000000E+00 -0.45593999997E+02  0.45594000000E+02  0.51100000000E-03 0. -1.
    9900012    2    1    2    0    0  0.27129293885E+02 -0.19740678484E+02 -0.22966737008E+02  0.50528880697E+02  0.30000063366E+02 0.  0.
        -12    1    1    2    0    0 -0.27129293885E+02  0.19740678484E+02  0.22966737008E+02  0.40659119303E+02  0.00000000000E+00 0.  1.
         11    1    3    3    0    0  0.16545904867E+02 -0.19655785576E+02 -0.25610393418E+02  0.36276840075E+02  0.51100000000E-03 0. -1.
        -11    1    3    3    0    0 -0.15244486911E+01  0.26868079725E+00 -0.68091541326E+00  0.16910881833E+01  0.51100000000E-03 0.  1.
         12    1    3    3    0    0  0.12107837709E+02 -0.35357370522E+00  0.33245718240E+01  0.12560952439E+02  0.00000000000E+00 0. -1.
</event>
<event>
 7    1  0.5068291E-011  0.5052886E+02  0.7816164E-02  0.1300439E+00
        -11   -1    0    0    0    0  0.00000000000E+00  0.00000000000E+00  0.45593999997E+02  0.45594000000E+02  0.51100000000E-03 0.  1.
         11   -1    0    0    0    0 -0.00000000000E+00 -0.00000000000E+00 -0.45593999997E+02  0.45594000000E+02  0.51100000000E-03 0. -1.
    9900012    2    1    2    0    0  0.87857898082E+01  0.26036696341E+02 -0.29967748900E+02  0.50528860400E+02  0.30000001673E+02 0.  0.
        -12    1    1    2    0    0 -0.87857898082E+01 -0.26036696341E+02  0.29967748900E+02  0.40659139600E+02  0.00000000000E+00 0.  1.
         11    1    3    3    0    0  0.11039402480E+02  0.14040598898E+02 -0.27409969549E+02  0.32715642367E+02  0.51100000000E-03 0. -1.
        -11    1    3    3    0    0 -0.30671887812E+01  0.34526120375E+01  0.46885000619E+01  0.65810493079E+01  0.51100000000E-03 0.  1.
         12    1    3    3    0    0  0.81357610902E+00  0.85434854054E+01 -0.72462794122E+01  0.11232168725E+02  0.00000000000E+00 0. -1.
</event>
<event>
 7    1  0.5068291E-011  0.5052886E+02  0.7816164E-02  0.1300439E+00
        -11   -1    0    0    0    0  0.00000000000E+00  0.00000000000E+00  0.45593999997E+02  0.45594000000E+02  0.51100000000E-03 0.  1.
         11   -1    0    0    0    0 -0.00000000000E+00 -0.00000000000E+00 -0.45593999997E+02  0.45594000000E+02  0.51100000000E-03 0. -1.
    9900012    2    1    2    0    0 -0.17340269342E+01 -0.31489417446E+02 -0.25662724058E+02  0.50528859987E+02  0.30000000417E+02 0.  0.
        -12    1    1    2    0    0  0.17340269342E+01  0.31489417446E+02  0.25662724058E+02  0.40659140013E+02  0.00000000000E+00 0.  1.
         11    1    3    3    0    0 -0.64672149929E+01 -0.28651007734E+01 -0.22707233583E+01  0.74289876187E+01  0.51100000000E-03 0. -1.
        -11    1    3    3    0    0 -0.75584530201E+00 -0.27780339360E+02 -0.24933589499E+02  0.37336342116E+02  0.51100000000E-03 0.  1.
        -12    1    3    3    0    0  0.54890333608E+01 -0.84397731274E+00  0.15415887994E+01  0.57635302521E+01  0.00000000000E+00 0.  1.
</event>
<event>
 7    1  0.5068291E-011  0.5052886E+02  0.7816164E-02  0.1300439E+00
        -11   -1    0    0    0    0  0.00000000000E+00  0.00000000000E+00  0.45593999997E+02  0.45594000000E+02  0.51100000000E-03 0.  1.
         11   -1    0    0    0    0 -0.00000000000E+00 -0.00000000000E+00 -0.45593999997E+02  0.45594000000E+02  0.51100000000E-03 0. -1.
    9900012    2    1    2    0    0  0.12779667723E+02  0.17551601565E+02 -0.34377125833E+02  0.50528863202E+02  0.30000010190E+02 0.  0.
        -12    1    1    2    0    0 -0.12779667723E+02 -0.17551601565E+02  0.34377125833E+02  0.40659136798E+02  0.00000000000E+00 0.  1.
         11    1    3    3    0    0  0.33748140682E+01  0.16228429490E+02 -0.21135856364E+02  0.26860300039E+02  0.51100000000E-03 0. -1.
        -11    1    3    3    0    0  0.28086907914E+01 -0.72208988215E+01 -0.18301928040E+01  0.79611387196E+01  0.51100000000E-03 0.  1.
        -12    1    3    3    0    0  0.65961628632E+01  0.85440708965E+01 -0.11411076665E+02  0.15707424444E+02  0.00000000000E+00 0.  1.
</event>
<event>
 7    1  0.5068291E-011  0.5052886E+02  0.7816164E-02  0.1300439E+00
        -11   -1    0    0    0    0  0.00000000000E+00  0.00000000000E+00  0.45593999997E+02  0.45594000000E+02  0.51100000000E-03 0.  1.
         11   -1    0    0    0    0 -0.00000000000E+00 -0.00000000000E+00 -0.45593999997E+02  0.45594000000E+02  0.51100000000E-03 0. -1.
    9900012    2    1    2    0    0  0.33411325420E+02  0.67656457337E+01 -0.22160213488E+02  0.50528859695E+02  0.29999999530E+02 0.  0.
        -12    1    1    2    0    0 -0.33411325420E+02 -0.67656457337E+01  0.22160213488E+02  0.40659140305E+02  0.00000000000E+00 0.  1.
         11    1    3    3    0    0  0.20840951835E+02  0.59388618175E+01 -0.10044173511E+02  0.23885158045E+02  0.51100000000E-03 0.  1.
        -11    1    3    3    0    0 -0.25262467362E+01  0.63609671112E+01 -0.69521010411E+01  0.97557949091E+01  0.51100000000E-03 0. -1.
        -12    1    3    3    0    0  0.15096620321E+02 -0.55341831949E+01 -0.51639389354E+01  0.16887906741E+02  0.00000000000E+00 0.  1.
</event>
<event>
 7    1  0.5068291E-011  0.5052886E+02  0.7816164E-02  0.1300439E+00
        -11   -1    0    0    0    0  0.00000000000E+00  0.00000000000E+00  0.45593999997E+02  0.45594000000E+02  0.51100000000E-03 0. -1.
         11   -1    0    0    0    0 -0.00000000000E+00 -0.00000000000E+00 -0.45593999997E+02  0.45594000000E+02  0.51100000000E-03 0.  1.
    9900012    2    1    2    0    0  0.17746717526E+02 -0.24267959380E+02 -0.27373084556E+02  0.50528860886E+02  0.30000003148E+02 0.  0.
        -12    1    1    2    0    0 -0.17746717526E+02  0.24267959380E+02  0.27373084556E+02  0.40659139114E+02  0.00000000000E+00 0.  1.
         11    1    3    3    0    0  0.13665860170E+01 -0.10067859659E+02 -0.32247833441E+01  0.10659670883E+02  0.51100000000E-03 0. -1.
        -11    1    3    3    0    0 -0.37301849101E+01  0.15032522301E+01 -0.98076479095E+01  0.10600188890E+02  0.51100000000E-03 0.  1.
        -12    1    3    3    0    0  0.20110316419E+02 -0.15703351951E+02 -0.14340653302E+02  0.29269001112E+02  0.00000000000E+00 0.  1.
</event>
<event>
 7    1  0.5068291E-011  0.5052885E+02  0.7816164E-02  0.1300439E+00
        -11   -1    0    0    0    0  0.00000000000E+00  0.00000000000E+00  0.45593999997E+02  0.45594000000E+02  0.51100000000E-03 0. -1.
         11   -1    0    0    0    0 -0.00000000000E+00 -0.00000000000E+00 -0.45593999997E+02  0.45594000000E+02  0.51100000000E-03 0.  1.
    9900012    2    1    2    0    0  0.88779145816E+01 -0.39661209741E+02  0.11564320466E+01  0.50528852683E+02  0.29999978215E+02 0.  0.
        -12    1    1    2    0    0 -0.88779145816E+01  0.39661209741E+02 -0.11564320466E+01  0.40659147317E+02  0.00000000000E+00 0.  1.
         11    1    3    3    0    0  0.47241184867E+01 -0.37460350835E+01  0.10873952609E+02  0.12433540120E+02  0.51100000000E-03 0. -1.
        -11    1    3    3    0    0  0.29104484574E+01 -0.29916260093E+02 -0.52489522948E+01  0.30512371730E+02  0.51100000000E-03 0.  1.
         12    1    3    3    0    0  0.12433476376E+01 -0.59989145654E+01 -0.44685682672E+01  0.75829408325E+01  0.00000000000E+00 0. -1.
</event>
<event>
 7    1  0.5068291E-011  0.5052897E+02  0.7816164E-02  0.1300438E+00
        -11   -1    0    0    0    0  0.00000000000E+00  0.00000000000E+00  0.45593999997E+02  0.45594000000E+02  0.51100000000E-03 0. -1.
         11   -1    0    0    0    0 -0.00000000000E+00 -0.00000000000E+00 -0.45593999997E+02  0.45594000000E+02  0.51100000000E-03 0.  1.
    9900012    2    1    2    0    0 -0.38739728305E+02 -0.61278472695E+01  0.10716322576E+02  0.50528971103E+02  0.30000338163E+02 0.  0.
        -12    1    1    2    0    0  0.38739728305E+02  0.61278472695E+01 -0.10716322576E+02  0.40659028897E+02  0.00000000000E+00 0.  1.
         11    1    3    3    0    0 -0.28242627004E+02 -0.88466906233E+01  0.19508872157E+02  0.35447228498E+02  0.51100000000E-03 0. -1.
        -11    1    3    3    0    0 -0.24544842057E+01  0.29847526895E+01 -0.46009431699E+01  0.60084873011E+01  0.51100000000E-03 0.  1.
         12    1    3    3    0    0 -0.80426170951E+01 -0.26590933576E+00 -0.41916064113E+01  0.90732553045E+01  0.00000000000E+00 0. -1.
</event>
<event>
 7    1  0.5068291E-011  0.5052886E+02  0.7816164E-02  0.1300439E+00
        -11   -1    0    0    0    0  0.00000000000E+00  0.00000000000E+00  0.45593999997E+02  0.45594000000E+02  0.51100000000E-03 0.  1.
         11   -1    0    0    0    0 -0.00000000000E+00 -0.00000000000E+00 -0.45593999997E+02  0.45594000000E+02  0.51100000000E-03 0. -1.
    9900012    2    1    2    0    0 -0.67505841271E+01 -0.29944745774E+02 -0.26662852568E+02  0.50528857208E+02  0.29999991969E+02 0.  0.
        -12    1    1    2    0    0  0.67505841271E+01  0.29944745774E+02  0.26662852568E+02  0.40659142792E+02  0.00000000000E+00 0.  1.
         11    1    3    3    0    0  0.44868822717E+01  0.85320020586E+00 -0.63852366505E+01  0.78505611554E+01  0.51100000000E-03 0.  1.
        -11    1    3    3    0    0 -0.15811981186E+02 -0.27528130656E+02 -0.15640279547E+02  0.35389759409E+02  0.51100000000E-03 0. -1.
         12    1    3    3    0    0  0.45745147872E+01 -0.32698153232E+01 -0.46373363710E+01  0.72885366435E+01  0.00000000000E+00 0. -1.
</event>
<event>
 7    1  0.5068291E-011  0.5052884E+02  0.7816164E-02  0.1300439E+00
        -11   -1    0    0    0    0  0.00000000000E+00  0.00000000000E+00  0.45593999997E+02  0.45594000000E+02  0.51100000000E-03 0. -1.
         11   -1    0    0    0    0 -0.00000000000E+00 -0.00000000000E+00 -0.45593999997E+02  0.45594000000E+02  0.51100000000E-03 0.  1.
    9900012    2    1    2    0    0 -0.33098652810E+02  0.11004152136E+02  0.20893901521E+02  0.50528839865E+02  0.29999939255E+02 0.  0.
        -12    1    1    2    0    0  0.33098652810E+02 -0.11004152136E+02 -0.20893901521E+02  0.40659160135E+02  0.00000000000E+00 0.  1.
         11    1    3    3    0    0 -0.44180301480E+01 -0.96769906507E+01  0.49457466735E+01  0.11731306358E+02  0.51100000000E-03 0.  1.
        -11    1    3    3    0    0 -0.18843747273E+02  0.14028036047E+02  0.10482233797E+02  0.25724498679E+02  0.51100000000E-03 0. -1.
        -12    1    3    3    0    0 -0.98368753886E+01  0.66531067395E+01  0.54659210508E+01  0.13073034829E+02  0.00000000000E+00 0.  1.
</event>
<event>
 7    1  0.5068291E-011  0.5052886E+02  0.7816164E-02  0.1300439E+00
        -11   -1    0    0    0    0  0.00000000000E+00  0.00000000000E+00  0.45593999997E+02  0.45594000000E+02  0.51100000000E-03 0.  1.
         11   -1    0    0    0    0 -0.00000000000E+00 -0.00000000000E+00 -0.45593999997E+02  0.45594000000E+02  0.51100000000E-03 0. -1.
    9900012    2    1    2    0    0 -0.27900699254E+02 -0.28509717038E+02 -0.78684717485E+01  0.50528857951E+02  0.29999994229E+02 0.  0.
        -12    1    1    2    0    0  0.27900699254E+02  0.28509717038E+02  0.78684717485E+01  0.40659142049E+02  0.00000000000E+00 0.  1.
         11    1    3    3    0    0 -0.24466276540E+02 -0.16808333058E+02  0.50763195805E+01  0.30114577345E+02  0.51100000000E-03 0. -1.
        -11    1    3    3    0    0  0.10958167884E+01 -0.66976962408E+01 -0.11736047962E+02  0.13557093029E+02  0.51100000000E-03 0.  1.
        -12    1    3    3    0    0 -0.45302395024E+01 -0.50036877397E+01 -0.12087433669E+01  0.68571875774E+01  0.00000000000E+00 0.  1.
</event>
<event>
 7    1  0.5768942E-011  0.5052886E+02  0.7816164E-02  0.1300439E+00
        -11   -1    0    0    0    0  0.00000000000E+00  0.00000000000E+00  0.45593999997E+02  0.45594000000E+02  0.51100000000E-03 0. -1.
         11   -1    0    0    0    0 -0.00000000000E+00 -0.00000000000E+00 -0.45593999997E+02  0.45594000000E+02  0.51100000000E-03 0.  1.
    9900012    2    1    2    0    0  0.22732566864E+02 -0.23594998478E+02  0.24076380885E+02  0.50528859995E+02  0.30000000441E+02 0.  0.
        -12    1    1    2    0    0 -0.22732566864E+02  0.23594998478E+02 -0.24076380885E+02  0.40659140005E+02  0.00000000000E+00 0.  1.
         11    1    3    3    0    0  0.52670608435E+01 -0.20876282094E+02  0.16012339108E+02  0.26831997465E+02  0.51100000000E-03 0.  1.
        -11    1    3    3    0    0  0.91678866512E+01 -0.56367857596E+01 -0.13109296295E+01  0.10841680502E+02  0.51100000000E-03 0. -1.
         12    1    3    3    0    0  0.82976193698E+01  0.29180693763E+01  0.93749714072E+01  0.12855182028E+02  0.00000000000E+00 0. -1.
</event>
<event>
 7    1  0.5068291E-011  0.5052892E+02  0.7816164E-02  0.1300439E+00
        -11   -1    0    0    0    0  0.00000000000E+00  0.00000000000E+00  0.45593999997E+02  0.45594000000E+02  0.51100000000E-03 0. -1.
         11   -1    0    0    0    0 -0.00000000000E+00 -0.00000000000E+00 -0.45593999997E+02  0.45594000000E+02  0.51100000000E-03 0.  1.
    9900012    2    1    2    0    0 -0.20832181177E+02 -0.34916102636E+02 -0.21547821740E+00  0.50528924423E+02  0.30000196277E+02 0.  0.
        -12    1    1    2    0    0  0.20832181177E+02  0.34916102636E+02  0.21547821740E+00  0.40659075577E+02  0.00000000000E+00 0.  1.
         11    1    3    3    0    0  0.30606964487E+01 -0.37649360004E+01  0.38919312190E+01  0.62201072911E+01  0.51100000000E-03 0. -1.
        -11    1    3    3    0    0 -0.24970727740E+02 -0.17812655808E+02 -0.39473451352E+01  0.30925870799E+02  0.51100000000E-03 0.  1.
        -12    1    3    3    0    0  0.10778501149E+01 -0.13338510828E+02 -0.16006430124E+00  0.13382946333E+02  0.00000000000E+00 0.  1.
</event>
<event>
 7    1  0.5068291E-011  0.5052884E+02  0.7816164E-02  0.1300439E+00
        -11   -1    0    0    0    0  0.00000000000E+00  0.00000000000E+00  0.45593999997E+02  0.45594000000E+02  0.51100000000E-03 0. -1.
         11   -1    0    0    0    0 -0.00000000000E+00 -0.00000000000E+00 -0.45593999997E+02  0.45594000000E+02  0.51100000000E-03 0.  1.
    9900012    2    1    2    0    0 -0.39164901738E+02 -0.81970007996E+01  0.72171310468E+01  0.50528839522E+02  0.29999938211E+02 0.  0.
        -12    1    1    2    0    0  0.39164901738E+02  0.81970007996E+01 -0.72171310468E+01  0.40659160478E+02  0.00000000000E+00 0.  1.
         11    1    3    3    0    0 -0.22779736293E+02  0.73869753598E+00  0.16444101633E+01  0.22850955005E+02  0.51100000000E-03 0. -1.
        -11    1    3    3    0    0  0.19692785907E-02 -0.17800920100E+01 -0.60797220608E+01  0.63349626708E+01  0.51100000000E-03 0.  1.
        -12    1    3    3    0    0 -0.16387134724E+02 -0.71556063256E+01  0.11652442944E+02  0.21342921846E+02  0.00000000000E+00 0.  1.
</event>
<event>
 7    1  0.5068291E-011  0.5052886E+02  0.7816164E-02  0.1300439E+00
        -11   -1    0    0    0    0  0.00000000000E+00  0.00000000000E+00  0.45593999997E+02  0.45594000000E+02  0.51100000000E-03 0.  1.
         11   -1    0    0    0    0 -0.00000000000E+00 -0.00000000000E+00 -0.45593999997E+02  0.45594000000E+02  0.51100000000E-03 0. -1.
    9900012    2    1    2    0    0 -0.26369359160E+02 -0.30906103738E+02  0.16234251213E+01  0.50528857609E+02  0.29999993189E+02 0.  0.
        -12    1    1    2    0    0  0.26369359160E+02  0.30906103738E+02 -0.16234251213E+01  0.40659142391E+02  0.00000000000E+00 0.  1.
         11    1    3    3    0    0 -0.16389658657E+02 -0.32587069169E+01 -0.65553465649E+01  0.17950282742E+02  0.51100000000E-03 0. -1.
        -11    1    3    3    0    0 -0.11862867084E+02 -0.26071804665E+02  0.89423806950E+01  0.30007212245E+02  0.51100000000E-03 0.  1.
        -12    1    3    3    0    0  0.18831665814E+01 -0.15755921560E+01 -0.76360900879E+00  0.25713626220E+01  0.00000000000E+00 0.  1.
</event>
<event>
 7    1  0.5068291E-011  0.5052886E+02  0.7816164E-02  0.1300439E+00
        -11   -1    0    0    0    0  0.00000000000E+00  0.00000000000E+00  0.45593999997E+02  0.45594000000E+02  0.51100000000E-03 0.  1.
         11   -1    0    0    0    0 -0.00000000000E+00 -0.00000000000E+00 -0.45593999997E+02  0.45594000000E+02  0.51100000000E-03 0. -1.
    9900012    2    1    2    0    0 -0.16952820849E+02  0.36923725596E+02  0.15512468128E+01  0.50528855724E+02  0.29999987457E+02 0.  0.
        -12    1    1    2    0    0  0.16952820849E+02 -0.36923725596E+02 -0.15512468128E+01  0.40659144276E+02  0.00000000000E+00 0.  1.
         11    1    3    3    0    0  0.48578597554E+01  0.89382935135E+01  0.77586089088E+01  0.12794057402E+02  0.51100000000E-03 0. -1.
        -11    1    3    3    0    0  0.12856812437E+01  0.16299881183E+01 -0.10074200090E+01  0.23075382688E+01  0.51100000000E-03 0.  1.
         12    1    3    3    0    0 -0.23096361848E+02  0.26355443964E+02 -0.51999420870E+01  0.35427260053E+02  0.00000000000E+00 0. -1.
</event>
<event>
 7    1  0.5068291E-011  0.5052886E+02  0.7816164E-02  0.1300439E+00
        -11   -1    0    0    0    0  0.00000000000E+00  0.00000000000E+00  0.45593999997E+02  0.45594000000E+02  0.51100000000E-03 0. -1.
         11   -1    0    0    0    0 -0.00000000000E+00 -0.00000000000E+00 -0.45593999997E+02  0.45594000000E+02  0.51100000000E-03 0.  1.
    9900012    2    1    2    0    0  0.88900772658E+01  0.37280216448E+02  0.13576354522E+02  0.50528863090E+02  0.30000009847E+02 0.  0.
        -12    1    1    2    0    0 -0.88900772658E+01 -0.37280216448E+02 -0.13576354522E+02  0.40659136910E+02  0.00000000000E+00 0.  1.
         11    1    3    3    0    0 -0.84103581499E+01  0.98404271090E+01  0.54614009431E+01  0.14049734176E+02  0.51100000000E-03 0. -1.
        -11    1    3    3    0    0  0.16211185935E+02  0.26924880040E+02  0.33990920688E+01  0.31611794346E+02  0.51100000000E-03 0.  1.
         12    1    3    3    0    0  0.10892494803E+01  0.51490929895E+00  0.47158615100E+01  0.48673345681E+01  0.00000000000E+00 0. -1.
</event>
<event>
 7    1  0.5068291E-011  0.5052884E+02  0.7816164E-02  0.1300439E+00
        -11   -1    0    0    0    0  0.00000000000E+00  0.00000000000E+00  0.45593999997E+02  0.45594000000E+02  0.51100000000E-03 0.  1.
         11   -1    0    0    0    0 -0.00000000000E+00 -0.00000000000E+00 -0.45593999997E+02  0.45594000000E+02  0.51100000000E-03 0. -1.
    9900012    2    1    2    0    0 -0.36770082256E+02  0.15855189060E+02 -0.70527634825E+01  0.50528838154E+02  0.29999934054E+02 0.  0.
        -12    1    1    2    0    0  0.36770082256E+02 -0.15855189060E+02  0.70527634825E+01  0.40659161846E+02  0.00000000000E+00 0.  1.
         11    1    3    3    0    0 -0.76838216808E+01  0.13975842510E+01  0.29074777328E+01  0.83335337276E+01  0.51100000000E-03 0. -1.
        -11    1    3    3    0    0 -0.27498049197E+02  0.16130628389E+02 -0.16043457824E+02  0.35689388074E+02  0.51100000000E-03 0.  1.
        -12    1    3    3    0    0 -0.15882113789E+01 -0.16730235804E+01  0.60832166087E+01  0.65059163531E+01  0.00000000000E+00 0.  1.
</event>
<event>
 7    1  0.5068291E-011  0.5052884E+02  0.7816164E-02  0.1300439E+00
        -11   -1    0    0    0    0  0.00000000000E+00  0.00000000000E+00  0.45593999997E+02  0.45594000000E+02  0.51100000000E-03 0.  1.
         11   -1    0    0    0    0 -0.00000000000E+00 -0.00000000000E+00 -0.45593999997E+02  0.45594000000E+02  0.51100000000E-03 0. -1.
    9900012    2    1    2    0    0  0.22450408595E+02  0.87667061068E+01 -0.32745859315E+02  0.50528840094E+02  0.29999939948E+02 0.  0.
        -12    1    1    2    0    0 -0.22450408595E+02 -0.87667061068E+01  0.32745859315E+02  0.40659159906E+02  0.00000000000E+00 0.  1.
         11    1    3    3    0    0  0.17114076541E+02  0.15141310555E+02 -0.12290021723E+02  0.25946011936E+02  0.51100000000E-03 0. -1.
        -11    1    3    3    0    0  0.76878212779E+01 -0.73097661217E+01 -0.18710985380E+02  0.21508980703E+02  0.51100000000E-03 0.  1.
        -12    1    3    3    0    0 -0.23514892246E+01  0.93516167365E+00 -0.17448522119E+01  0.30738474541E+01  0.00000000000E+00 0.  1.
</event>
<event>
 7    1  0.5068291E-011  0.5052886E+02  0.7816164E-02  0.1300439E+00
        -11   -1    0    0    0    0  0.00000000000E+00  0.00000000000E+00  0.45593999997E+02  0.45594000000E+02  0.51100000000E-03 0.  1.
         11   -1    0    0    0    0 -0.00000000000E+00 -0.00000000000E+00 -0.45593999997E+02  0.45594000000E+02  0.51100000000E-03 0. -1.
    9900012    2    1    2    0    0  0.24519516945E+02  0.26104733455E+02 -0.19248423026E+02  0.50528860696E+02  0.30000002571E+02 0.  0.
        -12    1    1    2    0    0 -0.24519516945E+02 -0.26104733455E+02  0.19248423026E+02  0.40659139304E+02  0.00000000000E+00 0.  1.
         11    1    3    3    0    0  0.11033002865E+01 -0.63133162692E+00 -0.29894637627E+01  0.32484988833E+01  0.51100000000E-03 0. -1.
        -11    1    3    3    0    0  0.23129955359E+02  0.14523358021E+02 -0.46782787520E+00  0.27315593098E+02  0.51100000000E-03 0.  1.
        -12    1    3    3    0    0  0.28626129871E+00  0.12212707061E+02 -0.15791131388E+02  0.19964768714E+02  0.00000000000E+00 0.  1.
</event>
<event>
 7    1  0.5068291E-011  0.5052886E+02  0.7816164E-02  0.1300439E+00
        -11   -1    0    0    0    0  0.00000000000E+00  0.00000000000E+00  0.45593999997E+02  0.45594000000E+02  0.51100000000E-03 0. -1.
         11   -1    0    0    0    0 -0.00000000000E+00 -0.00000000000E+00 -0.45593999997E+02  0.45594000000E+02  0.51100000000E-03 0.  1.
    9900012    2    1    2    0    0  0.11812494104E+01 -0.34113673139E+02 -0.22091348229E+02  0.50528859431E+02  0.29999998727E+02 0.  0.
        -12    1    1    2    0    0 -0.11812494104E+01  0.34113673139E+02  0.22091348229E+02  0.40659140569E+02  0.00000000000E+00 0.  1.
         11    1    3    3    0    0 -0.14986808529E+01 -0.14627092758E+02  0.55580354277E+01  0.15719085372E+02  0.51100000000E-03 0. -1.
        -11    1    3    3    0    0 -0.24966994355E+01 -0.66076872120E+01 -0.11693840862E+02  0.13661659955E+02  0.51100000000E-03 0.  1.
         12    1    3    3    0    0  0.51766296988E+01 -0.12878893169E+02 -0.15955542795E+02  0.21148114105E+02  0.00000000000E+00 0. -1.
</event>
<event>
 7    1  0.5068291E-011  0.5052886E+02  0.7816164E-02  0.1300439E+00
        -11   -1    0    0    0    0  0.00000000000E+00  0.00000000000E+00  0.45593999997E+02  0.45594000000E+02  0.51100000000E-03 0. -1.
         11   -1    0    0    0    0 -0.00000000000E+00 -0.00000000000E+00 -0.45593999997E+02  0.45594000000E+02  0.51100000000E-03 0.  1.
    9900012    2    1    2    0    0  0.62446101052E+01 -0.54733635838E+01  0.39802166130E+02  0.50528864582E+02  0.30000014384E+02 0.  0.
        -12    1    1    2    0    0 -0.62446101052E+01  0.54733635838E+01 -0.39802166130E+02  0.40659135418E+02  0.00000000000E+00 0.  1.
         11    1    3    3    0    0  0.43408338535E+01 -0.53209560030E+01  0.31428142635E+02  0.32169606169E+02  0.51100000000E-03 0. -1.
        -11    1    3    3    0    0 -0.66799912071E+00  0.61631540359E+01 -0.14822567584E+01  0.63739921442E+01  0.51100000000E-03 0.  1.
        -12    1    3    3    0    0  0.25717753724E+01 -0.63155616167E+01  0.98562802534E+01  0.11985266269E+02  0.00000000000E+00 0.  1.
</event>
<event>
 7    1  0.5068291E-011  0.5052884E+02  0.7816164E-02  0.1300439E+00
        -11   -1    0    0    0    0  0.00000000000E+00  0.00000000000E+00  0.45593999997E+02  0.45594000000E+02  0.51100000000E-03 0.  1.
         11   -1    0    0    0    0 -0.00000000000E+00 -0.00000000000E+00 -0.45593999997E+02  0.45594000000E+02  0.51100000000E-03 0. -1.
    9900012    2    1    2    0    0 -0.26246910080E+02 -0.18548011229E+02 -0.24904581305E+02  0.50528841385E+02  0.29999943874E+02 0.  0.
        -12    1    1    2    0    0  0.26246910080E+02  0.18548011229E+02  0.24904581305E+02  0.40659158615E+02  0.00000000000E+00 0.  1.
         11    1    3    3    0    0 -0.12024688014E+02 -0.85872089480E+01 -0.12978146859E+02  0.19666356437E+02  0.51100000000E-03 0. -1.
        -11    1    3    3    0    0  0.41874522561E+01  0.22594348078E+01  0.15216169959E+01  0.49955100431E+01  0.51100000000E-03 0.  1.
        -12    1    3    3    0    0 -0.18409674321E+02 -0.12220237089E+02 -0.13448051442E+02  0.25866974905E+02  0.00000000000E+00 0.  1.
</event>
<event>
 7    1  0.5068291E-011  0.5052886E+02  0.7816164E-02  0.1300439E+00
        -11   -1    0    0    0    0  0.00000000000E+00  0.00000000000E+00  0.45593999997E+02  0.45594000000E+02  0.51100000000E-03 0.  1.
         11   -1    0    0    0    0 -0.00000000000E+00 -0.00000000000E+00 -0.45593999997E+02  0.45594000000E+02  0.51100000000E-03 0. -1.
    9900012    2    1    2    0    0 -0.71638589628E+01  0.37557150765E+02 -0.13831307972E+02  0.50528861679E+02  0.30000005558E+02 0.  0.
        -12    1    1    2    0    0  0.71638589628E+01 -0.37557150765E+02  0.13831307972E+02  0.40659138321E+02  0.00000000000E+00 0.  1.
         11    1    3    3    0    0 -0.13428793937E+02  0.31932186562E+02 -0.33753675872E+01  0.34805030554E+02  0.51100000000E-03 0. -1.
        -11    1    3    3    0    0  0.59961123291E+01  0.24779516839E+01 -0.21456320866E+01  0.68335455601E+01  0.51100000000E-03 0.  1.
         12    1    3    3    0    0  0.26882264564E+00  0.31470125192E+01 -0.83103082982E+01  0.88902855646E+01  0.00000000000E+00 0. -1.
</event>
<event>
 7    1  0.5068291E-011  0.5052887E+02  0.7816164E-02  0.1300439E+00
        -11   -1    0    0    0    0  0.00000000000E+00  0.00000000000E+00  0.45593999997E+02  0.45594000000E+02  0.51100000000E-03 0.  1.
         11   -1    0    0    0    0 -0.00000000000E+00 -0.00000000000E+00 -0.45593999997E+02  0.45594000000E+02  0.51100000000E-03 0. -1.
    9900012    2    1    2    0    0  0.33891066307E+01 -0.12635899364E+02 -0.38496920891E+02  0.50528869234E+02  0.30000028525E+02 0.  0.
        -12    1    1    2    0    0 -0.33891066307E+01  0.12635899364E+02  0.38496920891E+02  0.40659130766E+02  0.00000000000E+00 0.  1.
         11    1    3    3    0    0 -0.31988821791E+01 -0.85582412908E+01 -0.11068038848E+02  0.14351927584E+02  0.51100000000E-03 0. -1.
        -11    1    3    3    0    0 -0.11892155552E+01  0.75812961350E+01 -0.17175164555E+02  0.18811607121E+02  0.51100000000E-03 0.  1.
        -12    1    3    3    0    0  0.77772043651E+01 -0.11658954208E+02 -0.10253717488E+02  0.17365334529E+02  0.00000000000E+00 0.  1.
</event>
<event>
 7    1  0.5068291E-011  0.5052885E+02  0.7816164E-02  0.1300439E+00
        -11   -1    0    0    0    0  0.00000000000E+00  0.00000000000E+00  0.45593999997E+02  0.45594000000E+02  0.51100000000E-03 0.  1.
         11   -1    0    0    0    0 -0.00000000000E+00 -0.00000000000E+00 -0.45593999997E+02  0.45594000000E+02  0.51100000000E-03 0. -1.
    9900012    2    1    2    0    0 -0.12924037782E+02  0.12273512246E+02 -0.36544445524E+02  0.50528851533E+02  0.29999974718E+02 0.  0.
        -12    1    1    2    0    0  0.12924037782E+02 -0.12273512246E+02  0.36544445524E+02  0.40659148467E+02  0.00000000000E+00 0.  1.
         11    1    3    3    0    0  0.71283666064E+01  0.87672111401E+01 -0.10077009291E+02  0.15140136002E+02  0.51100000000E-03 0. -1.
        -11    1    3    3    0    0 -0.60372200400E+01 -0.17558888524E+01 -0.18104233942E+01  0.65428437702E+01  0.51100000000E-03 0.  1.
         12    1    3    3    0    0 -0.14015184348E+02  0.52621899582E+01 -0.24657012839E+02  0.28845871760E+02  0.00000000000E+00 0. -1.
</event>
<event>
 7    1  0.5068291E-011  0.5052887E+02  0.7816164E-02  0.1300439E+00
        -11   -1    0    0    0    0  0.00000000000E+00  0.00000000000E+00  0.45593999997E+02  0.45594000000E+02  0.51100000000E-03 0.  1.
         11   -1    0    0    0    0 -0.00000000000E+00 -0.00000000000E+00 -0.45593999997E+02  0.45594000000E+02  0.51100000000E-03 0. -1.
    9900012    2    1    2    0    0  0.28277991426E+02 -0.28829107792E+02 -0.47331431186E+01  0.50528869427E+02  0.30000029111E+02 0.  0.
        -12    1    1    2    0    0 -0.28277991426E+02  0.28829107792E+02  0.47331431186E+01  0.40659130573E+02  0.00000000000E+00 0.  1.
         11    1    3    3    0    0  0.12787234460E+02 -0.18734908519E+02 -0.11543489585E+02  0.25451175109E+02  0.51100000000E-03 0. -1.
        -11    1    3    3    0    0  0.14027404734E+02 -0.98674738845E+01  0.11174200680E+02  0.20469437841E+02  0.51100000000E-03 0.  1.
        -12    1    3    3    0    0  0.14633522315E+01 -0.22672538759E+00 -0.43638542139E+01  0.46082564767E+01  0.00000000000E+00 0.  1.
</event>
<event>
 7    1  0.5068291E-011  0.5052886E+02  0.7816164E-02  0.1300439E+00
        -11   -1    0    0    0    0  0.00000000000E+00  0.00000000000E+00  0.45593999997E+02  0.45594000000E+02  0.51100000000E-03 0.  1.
         11   -1    0    0    0    0 -0.00000000000E+00 -0.00000000000E+00 -0.45593999997E+02  0.45594000000E+02  0.51100000000E-03 0. -1.
    9900012    2    1    2    0    0  0.18630758746E+02  0.26185074680E+02 -0.24907876858E+02  0.50528860351E+02  0.30000001522E+02 0.  0.
        -12    1    1    2    0    0 -0.18630758746E+02 -0.26185074680E+02  0.24907876858E+02  0.40659139649E+02  0.00000000000E+00 0.  1.
         11    1    3    3    0    0 -0.75874075741E+01  0.52552134074E+01 -0.74116427525E+01  0.11837164787E+02  0.51100000000E-03 0.  1.
        -11    1    3    3    0    0  0.21133963980E+02  0.13240883186E+02 -0.10236728405E+02  0.26958412968E+02  0.51100000000E-03 0. -1.
        -12    1    3    3    0    0  0.50842023397E+01  0.76889780870E+01 -0.72595057007E+01  0.11733282596E+02  0.00000000000E+00 0.  1.
</event>
<event>
 7    1  0.5068291E-011  0.5052886E+02  0.7816164E-02  0.1300439E+00
        -11   -1    0    0    0    0  0.00000000000E+00  0.00000000000E+00  0.45593999997E+02  0.45594000000E+02  0.51100000000E-03 0.  1.
         11   -1    0    0    0    0 -0.00000000000E+00 -0.00000000000E+00 -0.45593999997E+02  0.45594000000E+02  0.51100000000E-03 0. -1.
    9900012    2    1    2    0    0 -0.20194295856E+02 -0.31012289149E+02 -0.16840246908E+02  0.50528861061E+02  0.30000003680E+02 0.  0.
        -12    1    1    2    0    0  0.20194295856E+02  0.31012289149E+02  0.16840246908E+02  0.40659138939E+02  0.00000000000E+00 0.  1.
         11    1    3    3    0    0 -0.13574725198E+02 -0.80588014752E+01 -0.13240930868E+02  0.20604361090E+02  0.51100000000E-03 0.  1.
        -11    1    3    3    0    0 -0.39032747403E+01 -0.25422998706E+02 -0.45781913770E+01  0.26125165138E+02  0.51100000000E-03 0. -1.
        -12    1    3    3    0    0 -0.27162959174E+01  0.24695110328E+01  0.97887533640E+00  0.37993348334E+01  0.00000000000E+00 0.  1.
</event>
<event>
 7    1  0.5068291E-011  0.5052886E+02  0.7816164E-02  0.1300439E+00
        -11   -1    0    0    0    0  0.00000000000E+00  0.00000000000E+00  0.45593999997E+02  0.45594000000E+02  0.51100000000E-03 0.  1.
         11   -1    0    0    0    0 -0.00000000000E+00 -0.00000000000E+00 -0.45593999997E+02  0.45594000000E+02  0.51100000000E-03 0. -1.
    9900012    2    1    2    0    0  0.11612586517E+02 -0.28376703770E+02 -0.26703490763E+02  0.50528857100E+02  0.29999991640E+02 0.  0.
        -12    1    1    2    0    0 -0.11612586517E+02  0.28376703770E+02  0.26703490763E+02  0.40659142900E+02  0.00000000000E+00 0.  1.
         11    1    3    3    0    0  0.13624237544E+02 -0.21280452608E+02 -0.59770131593E+01  0.25965403875E+02  0.51100000000E-03 0. -1.
        -11    1    3    3    0    0 -0.73769742697E+00 -0.42444514341E+01 -0.20991313123E+02  0.21428830868E+02  0.51100000000E-03 0.  1.
         12    1    3    3    0    0 -0.12739535997E+01 -0.28517997279E+01  0.26483551975E+00  0.31346223560E+01  0.00000000000E+00 0. -1.
</event>
<event>
 7    1  0.5068291E-011  0.5052885E+02  0.7816164E-02  0.1300439E+00
        -11   -1    0    0    0    0  0.00000000000E+00  0.00000000000E+00  0.45593999997E+02  0.45594000000E+02  0.51100000000E-03 0.  1.
         11   -1    0    0    0    0 -0.00000000000E+00 -0.00000000000E+00 -0.45593999997E+02  0.45594000000E+02  0.51100000000E-03 0. -1.
    9900012    2    1    2    0    0  0.30478242313E+02  0.80513883105E+01 -0.25679141142E+02  0.50528850993E+02  0.29999973077E+02 0.  0.
        -12    1    1    2    0    0 -0.30478242313E+02 -0.80513883105E+01  0.25679141142E+02  0.40659149007E+02  0.00000000000E+00 0.  1.
         11    1    3    3    0    0  0.26206148662E+02 -0.16620406906E+01 -0.19312943818E+02  0.32596233005E+02  0.51100000000E-03 0. -1.
        -11    1    3    3    0    0  0.15751116184E+01  0.10838562394E+02 -0.27182054046E-01  0.10952449520E+02  0.51100000000E-03 0.  1.
         12    1    3    3    0    0  0.26969820327E+01 -0.11251333926E+01 -0.63390152700E+01  0.69801684671E+01  0.00000000000E+00 0. -1.
</event>
<event>
 7    1  0.5068291E-011  0.5052886E+02  0.7816164E-02  0.1300439E+00
        -11   -1    0    0    0    0  0.00000000000E+00  0.00000000000E+00  0.45593999997E+02  0.45594000000E+02  0.51100000000E-03 0.  1.
         11   -1    0    0    0    0 -0.00000000000E+00 -0.00000000000E+00 -0.45593999997E+02  0.45594000000E+02  0.51100000000E-03 0. -1.
    9900012    2    1    2    0    0 -0.27442698371E+02 -0.23693739525E+02 -0.18403005024E+02  0.50528861046E+02  0.30000003636E+02 0.  0.
        -12    1    1    2    0    0  0.27442698371E+02  0.23693739525E+02  0.18403005024E+02  0.40659138954E+02  0.00000000000E+00 0.  1.
         11    1    3    3    0    0 -0.26033120372E+02 -0.84310137751E+01 -0.86871588982E+01  0.28710138968E+02  0.51100000000E-03 0. -1.
        -11    1    3    3    0    0 -0.19904346110E+01 -0.16243128426E+02 -0.52144414620E+01  0.17175315165E+02  0.51100000000E-03 0.  1.
         12    1    3    3    0    0  0.58085661196E+00  0.98040267594E+00 -0.45014046640E+01  0.46434069130E+01  0.00000000000E+00 0. -1.
</event>
<event>
 7    1  0.5068291E-011  0.5052886E+02  0.7816164E-02  0.1300439E+00
        -11   -1    0    0    0    0  0.00000000000E+00  0.00000000000E+00  0.45593999997E+02  0.45594000000E+02  0.51100000000E-03 0. -1.
         11   -1    0    0    0    0 -0.00000000000E+00 -0.00000000000E+00 -0.45593999997E+02  0.45594000000E+02  0.51100000000E-03 0.  1.
    9900012    2    1    2    0    0 -0.39104691048E+02 -0.91589108329E+01  0.63327146854E+01  0.50528858532E+02  0.29999995994E+02 0.  0.
        -12    1    1    2    0    0  0.39104691048E+02  0.91589108329E+01 -0.63327146854E+01  0.40659141468E+02  0.00000000000E+00 0.  1.
         11    1    3    3    0    0 -0.82837838393E+01 -0.12077198154E+02  0.28401236381E+01  0.14917978834E+02  0.51100000000E-03 0. -1.
        -11    1    3    3    0    0 -0.25325182693E+02  0.89198258792E+01  0.25080342620E+00  0.26851276967E+02  0.51100000000E-03 0.  1.
        -12    1    3    3    0    0 -0.54957245158E+01 -0.60015385577E+01  0.32417876211E+01  0.87596027304E+01  0.00000000000E+00 0.  1.
</event>
<event>
 7    1  0.5068291E-011  0.5052886E+02  0.7816164E-02  0.1300439E+00
        -11   -1    0    0    0    0  0.00000000000E+00  0.00000000000E+00  0.45593999997E+02  0.45594000000E+02  0.51100000000E-03 0. -1.
         11   -1    0    0    0    0 -0.00000000000E+00 -0.00000000000E+00 -0.45593999997E+02  0.45594000000E+02  0.51100000000E-03 0.  1.
    9900012    2    1    2    0    0 -0.18434985343E+02  0.35458070682E+02 -0.74861319476E+01  0.50528860405E+02  0.30000001687E+02 0.  0.
        -12    1    1    2    0    0  0.18434985343E+02 -0.35458070682E+02  0.74861319476E+01  0.40659139595E+02  0.00000000000E+00 0.  1.
         11    1    3    3    0    0 -0.21457516884E+02  0.37572094477E+02 -0.54424482312E+01  0.43608572061E+02  0.51100000000E-03 0. -1.
        -11    1    3    3    0    0  0.46755824301E+00 -0.27586235671E+01 -0.30137785092E+01  0.41123564850E+01  0.51100000000E-03 0.  1.
         12    1    3    3    0    0  0.25549732979E+01  0.64459977240E+00  0.97009479288E+00  0.28079318593E+01  0.00000000000E+00 0. -1.
</event>
<event>
 7    1  0.5068291E-011  0.5052887E+02  0.7816164E-02  0.1300439E+00
        -11   -1    0    0    0    0  0.00000000000E+00  0.00000000000E+00  0.45593999997E+02  0.45594000000E+02  0.51100000000E-03 0.  1.
         11   -1    0    0    0    0 -0.00000000000E+00 -0.00000000000E+00 -0.45593999997E+02  0.45594000000E+02  0.51100000000E-03 0. -1.
    9900012    2    1    2    0    0  0.30697671436E+02  0.23429060212E+02 -0.12723881552E+02  0.50528867498E+02  0.30000023248E+02 0.  0.
        -12    1    1    2    0    0 -0.30697671436E+02 -0.23429060212E+02  0.12723881552E+02  0.40659132502E+02  0.00000000000E+00 0.  1.
         11    1    3    3    0    0  0.14327638469E+02  0.84503611266E+01 -0.14335574508E+02  0.21959019195E+02  0.51100000000E-03 0. -1.
        -11    1    3    3    0    0  0.13398202799E+02  0.15924917927E+02  0.73232034765E+01  0.22062279090E+02  0.51100000000E-03 0.  1.
         12    1    3    3    0    0  0.29718301686E+01 -0.94621884160E+00 -0.57115105198E+01  0.65075692132E+01  0.00000000000E+00 0. -1.
</event>
<event>
 7    1  0.5068291E-011  0.5052886E+02  0.7816164E-02  0.1300439E+00
        -11   -1    0    0    0    0  0.00000000000E+00  0.00000000000E+00  0.45593999997E+02  0.45594000000E+02  0.51100000000E-03 0.  1.
         11   -1    0    0    0    0 -0.00000000000E+00 -0.00000000000E+00 -0.45593999997E+02  0.45594000000E+02  0.51100000000E-03 0. -1.
    9900012    2    1    2    0    0  0.16073924049E+02 -0.27161030223E+02 -0.25633434339E+02  0.50528861382E+02  0.30000004658E+02 0.  0.
        -12    1    1    2    0    0 -0.16073924049E+02  0.27161030223E+02  0.25633434339E+02  0.40659138618E+02  0.00000000000E+00 0.  1.
         11    1    3    3    0    0  0.11649849288E+02 -0.32301767056E+02 -0.23294933746E+02  0.41494301800E+02  0.51100000000E-03 0. -1.
        -11    1    3    3    0    0  0.33704196957E+01  0.32258554610E+01  0.12526164208E+01  0.48306232040E+01  0.51100000000E-03 0.  1.
         12    1    3    3    0    0  0.10536550655E+01  0.19148813719E+01 -0.35911170142E+01  0.42039363786E+01  0.00000000000E+00 0. -1.
</event>
<event>
 7    1  0.5068291E-011  0.5052886E+02  0.7816164E-02  0.1300439E+00
        -11   -1    0    0    0    0  0.00000000000E+00  0.00000000000E+00  0.45593999997E+02  0.45594000000E+02  0.51100000000E-03 0.  1.
         11   -1    0    0    0    0 -0.00000000000E+00 -0.00000000000E+00 -0.45593999997E+02  0.45594000000E+02  0.51100000000E-03 0. -1.
    9900012    2    1    2    0    0 -0.35865000927E+02  0.15026039761E+02 -0.11877937715E+02  0.50528861215E+02  0.30000004149E+02 0.  0.
        -12    1    1    2    0    0  0.35865000927E+02 -0.15026039761E+02  0.11877937715E+02  0.40659138785E+02  0.00000000000E+00 0.  1.
         11    1    3    3    0    0 -0.35464756436E+01 -0.30470525590E+01 -0.17891299856E+01  0.50062965507E+01  0.51100000000E-03 0. -1.
        -11    1    3    3    0    0 -0.47562370433E+01  0.10992034102E+02  0.53832640079E+01  0.13131113287E+02  0.51100000000E-03 0.  1.
        -12    1    3    3    0    0 -0.27562288240E+02  0.70810582179E+01 -0.15472071737E+02  0.32391451378E+02  0.00000000000E+00 0.  1.
</event>
<event>
 7    1  0.5068291E-011  0.5052887E+02  0.7816164E-02  0.1300439E+00
        -11   -1    0    0    0    0  0.00000000000E+00  0.00000000000E+00  0.45593999997E+02  0.45594000000E+02  0.51100000000E-03 0.  1.
         11   -1    0    0    0    0 -0.00000000000E+00 -0.00000000000E+00 -0.45593999997E+02  0.45594000000E+02  0.51100000000E-03 0. -1.
    9900012    2    1    2    0    0 -0.25362197474E+02  0.15193970307E+02 -0.27911769158E+02  0.50528872465E+02  0.30000038343E+02 0.  0.
        -12    1    1    2    0    0  0.25362197474E+02 -0.15193970307E+02  0.27911769158E+02  0.40659127535E+02  0.00000000000E+00 0.  1.
         11    1    3    3    0    0 -0.25762106359E+02  0.19485658649E+02 -0.18831984747E+02  0.37390114560E+02  0.51100000000E-03 0. -1.
        -11    1    3    3    0    0 -0.26744224670E+01 -0.55242406359E+01 -0.65056614865E+01  0.89439030504E+01  0.51100000000E-03 0.  1.
         12    1    3    3    0    0  0.30743313518E+01  0.12325522932E+01 -0.25741229251E+01  0.41948548544E+01  0.00000000000E+00 0. -1.
</event>
<event>
 7    1  0.5068291E-011  0.5052886E+02  0.7816164E-02  0.1300439E+00
        -11   -1    0    0    0    0  0.00000000000E+00  0.00000000000E+00  0.45593999997E+02  0.45594000000E+02  0.51100000000E-03 0.  1.
         11   -1    0    0    0    0 -0.00000000000E+00 -0.00000000000E+00 -0.45593999997E+02  0.45594000000E+02  0.51100000000E-03 0. -1.
    9900012    2    1    2    0    0 -0.23782661284E+02 -0.32716034403E+02  0.41487484421E+01  0.50528855906E+02  0.29999988011E+02 0.  0.
        -12    1    1    2    0    0  0.23782661284E+02  0.32716034403E+02 -0.41487484421E+01  0.40659144094E+02  0.00000000000E+00 0.  1.
         11    1    3    3    0    0 -0.49766153348E+01  0.27028837289E+01 -0.11247080173E+00  0.56643561492E+01  0.51100000000E-03 0. -1.
        -11    1    3    3    0    0 -0.12204972536E+02 -0.32765856949E+02  0.92588685452E+01  0.36170283151E+02  0.51100000000E-03 0.  1.
         12    1    3    3    0    0 -0.66010734136E+01 -0.26530611832E+01 -0.49976493014E+01  0.86942166060E+01  0.00000000000E+00 0. -1.
</event>
<event>
 7    1  0.5068291E-011  0.5052887E+02  0.7816164E-02  0.1300439E+00
        -11   -1    0    0    0    0  0.00000000000E+00  0.00000000000E+00  0.45593999997E+02  0.45594000000E+02  0.51100000000E-03 0.  1.
         11   -1    0    0    0    0 -0.00000000000E+00 -0.00000000000E+00 -0.45593999997E+02  0.45594000000E+02  0.51100000000E-03 0. -1.
    9900012    2    1    2    0    0 -0.20016515923E+02  0.28370668804E+02 -0.21156780432E+02  0.50528866754E+02  0.30000020985E+02 0.  0.
        -12    1    1    2    0    0  0.20016515923E+02 -0.28370668804E+02  0.21156780432E+02  0.40659133246E+02  0.00000000000E+00 0.  1.
         11    1    3    3    0    0  0.26630816709E+01  0.55770620789E+01 -0.15335133637E+02  0.16533661099E+02  0.51100000000E-03 0. -1.
        -11    1    3    3    0    0 -0.19821398159E+02  0.20906918296E+02 -0.80454393878E+01  0.29911806244E+02  0.51100000000E-03 0.  1.
         12    1    3    3    0    0 -0.28581994356E+01  0.18866884295E+01  0.22237925934E+01  0.40833994100E+01  0.00000000000E+00 0. -1.
</event>
<event>
 7    1  0.5068291E-011  0.5052887E+02  0.7816164E-02  0.1300439E+00
        -11   -1    0    0    0    0  0.00000000000E+00  0.00000000000E+00  0.45593999997E+02  0.45594000000E+02  0.51100000000E-03 0.  1.
         11   -1    0    0    0    0 -0.00000000000E+00 -0.00000000000E+00 -0.45593999997E+02  0.45594000000E+02  0.51100000000E-03 0. -1.
    9900012    2    1    2    0    0  0.36379105345E+02  0.17856146286E+02 -0.32989898426E+01  0.50528873105E+02  0.30000040289E+02 0.  0.
        -12    1    1    2    0    0 -0.36379105345E+02 -0.17856146286E+02  0.32989898426E+01  0.40659126895E+02  0.00000000000E+00 0.  1.
         11    1    3    3    0    0  0.18375081804E+01 -0.20568312267E+01 -0.82183753326E+01  0.86688340841E+01  0.51100000000E-03 0. -1.
        -11    1    3    3    0    0  0.11196132282E+02  0.11068383644E+02  0.60589860191E+01  0.16869315528E+02  0.51100000000E-03 0.  1.
         12    1    3    3    0    0  0.23345464883E+02  0.88445938685E+01 -0.11396005292E+01  0.24990723492E+02  0.00000000000E+00 0. -1.
</event>
<event>
 7    1  0.5068291E-011  0.5052886E+02  0.7816164E-02  0.1300439E+00
        -11   -1    0    0    0    0  0.00000000000E+00  0.00000000000E+00  0.45593999997E+02  0.45594000000E+02  0.51100000000E-03 0. -1.
         11   -1    0    0    0    0 -0.00000000000E+00 -0.00000000000E+00 -0.45593999997E+02  0.45594000000E+02  0.51100000000E-03 0.  1.
    9900012    2    1    2    0    0  0.21242609885E+02  0.27513632312E+02  0.21093063948E+02  0.50528858537E+02  0.29999996010E+02 0.  0.
        -12    1    1    2    0    0 -0.21242609885E+02 -0.27513632312E+02 -0.21093063948E+02  0.40659141463E+02  0.00000000000E+00 0.  1.
         11    1    3    3    0    0  0.23069878719E+00  0.19452874158E+02  0.38399292329E+01  0.19829588793E+02  0.51100000000E-03 0.  1.
        -11    1    3    3    0    0  0.17604156917E+02  0.96899640289E+01  0.17846669842E+02  0.26875739402E+02  0.51100000000E-03 0. -1.
         12    1    3    3    0    0  0.34077541806E+01 -0.16292058743E+01 -0.59353512691E+00  0.38235303429E+01  0.00000000000E+00 0. -1.
</event>
<event>
 7    1  0.5068291E-011  0.5052885E+02  0.7816164E-02  0.1300439E+00
        -11   -1    0    0    0    0  0.00000000000E+00  0.00000000000E+00  0.45593999997E+02  0.45594000000E+02  0.51100000000E-03 0.  1.
         11   -1    0    0    0    0 -0.00000000000E+00 -0.00000000000E+00 -0.45593999997E+02  0.45594000000E+02  0.51100000000E-03 0. -1.
    9900012    2    1    2    0    0  0.10404833454E+02  0.31814304633E+02 -0.23081502235E+02  0.50528852396E+02  0.29999977342E+02 0.  0.
        -12    1    1    2    0    0 -0.10404833454E+02 -0.31814304633E+02  0.23081502235E+02  0.40659147604E+02  0.00000000000E+00 0.  1.
         11    1    3    3    0    0  0.10631128969E+02  0.90878029396E+01 -0.18258223189E+02  0.22999386507E+02  0.51100000000E-03 0. -1.
        -11    1    3    3    0    0  0.45745575949E+01  0.17556778162E+02  0.12975425539E+01  0.18189300524E+02  0.51100000000E-03 0.  1.
        -12    1    3    3    0    0 -0.48008531103E+01  0.51697235319E+01 -0.61208215995E+01  0.93401653645E+01  0.00000000000E+00 0.  1.
</event>
<event>
 7    1  0.5068291E-011  0.5052886E+02  0.7816164E-02  0.1300439E+00
        -11   -1    0    0    0    0  0.00000000000E+00  0.00000000000E+00  0.45593999997E+02  0.45594000000E+02  0.51100000000E-03 0.  1.
         11   -1    0    0    0    0 -0.00000000000E+00 -0.00000000000E+00 -0.45593999997E+02  0.45594000000E+02  0.51100000000E-03 0. -1.
    9900012    2    1    2    0    0  0.11611182810E+02  0.31352154582E+02 -0.23138463908E+02  0.50528859882E+02  0.30000000096E+02 0.  0.
        -12    1    1    2    0    0 -0.11611182810E+02 -0.31352154582E+02  0.23138463908E+02  0.40659140118E+02  0.00000000000E+00 0.  1.
         11    1    3    3    0    0  0.58941251543E+01  0.31795860900E+01 -0.10246604293E+02  0.12241053011E+02  0.51100000000E-03 0. -1.
        -11    1    3    3    0    0  0.10544463344E+02  0.20788880353E+02 -0.80503599336E+00  0.23324050608E+02  0.51100000000E-03 0.  1.
        -12    1    3    3    0    0 -0.48274056883E+01  0.73836881381E+01 -0.12086823622E+02  0.14963756262E+02  0.00000000000E+00 0.  1.
</event>
<event>
 7    1  0.5068291E-011  0.5052886E+02  0.7816164E-02  0.1300439E+00
        -11   -1    0    0    0    0  0.00000000000E+00  0.00000000000E+00  0.45593999997E+02  0.45594000000E+02  0.51100000000E-03 0.  1.
         11   -1    0    0    0    0 -0.00000000000E+00 -0.00000000000E+00 -0.45593999997E+02  0.45594000000E+02  0.51100000000E-03 0. -1.
    9900012    2    1    2    0    0  0.14578533389E+02 -0.27304410633E+02 -0.26364769543E+02  0.50528861435E+02  0.30000004818E+02 0.  0.
        -12    1    1    2    0    0 -0.14578533389E+02  0.27304410633E+02  0.26364769543E+02  0.40659138565E+02  0.00000000000E+00 0.  1.
         11    1    3    3    0    0 -0.60703617967E+01 -0.15425125217E+02 -0.13046552669E+02  0.21094935816E+02  0.51100000000E-03 0. -1.
        -11    1    3    3    0    0  0.11812749808E+02 -0.90709619271E+00 -0.83556469252E+01  0.14497610745E+02  0.51100000000E-03 0.  1.
         12    1    3    3    0    0  0.88361453777E+01 -0.10972189224E+02 -0.49625699490E+01  0.14936314873E+02  0.00000000000E+00 0. -1.
</event>
<event>
 7    1  0.5068291E-011  0.5052891E+02  0.7816164E-02  0.1300439E+00
        -11   -1    0    0    0    0  0.00000000000E+00  0.00000000000E+00  0.45593999997E+02  0.45594000000E+02  0.51100000000E-03 0.  1.
         11   -1    0    0    0    0 -0.00000000000E+00 -0.00000000000E+00 -0.45593999997E+02  0.45594000000E+02  0.51100000000E-03 0. -1.
    9900012    2    1    2    0    0  0.18303642492E+02  0.12282130860E+02 -0.34165588117E+02  0.50528911492E+02  0.30000156971E+02 0.  0.
        -12    1    1    2    0    0 -0.18303642492E+02 -0.12282130860E+02  0.34165588117E+02  0.40659088508E+02  0.00000000000E+00 0.  1.
         11    1    3    3    0    0  0.12599908677E+01  0.16285461235E+02 -0.23226166775E+02  0.28394694010E+02  0.51100000000E-03 0. -1.
        -11    1    3    3    0    0  0.82641988777E+01 -0.34011543624E+01 -0.12146829878E+01  0.90188851367E+01  0.51100000000E-03 0.  1.
         12    1    3    3    0    0  0.87794527462E+01 -0.60217601251E+00 -0.97247383542E+01  0.13115332345E+02  0.00000000000E+00 0. -1.
</event>
<event>
 7    1  0.5068291E-011  0.5052887E+02  0.7816164E-02  0.1300439E+00
        -11   -1    0    0    0    0  0.00000000000E+00  0.00000000000E+00  0.45593999997E+02  0.45594000000E+02  0.51100000000E-03 0. -1.
         11   -1    0    0    0    0 -0.00000000000E+00 -0.00000000000E+00 -0.45593999997E+02  0.45594000000E+02  0.51100000000E-03 0.  1.
    9900012    2    1    2    0    0  0.28703560587E+02 -0.75091868822E+01  0.27800766923E+02  0.50528869174E+02  0.30000028341E+02 0.  0.
        -12    1    1    2    0    0 -0.28703560587E+02  0.75091868822E+01 -0.27800766923E+02  0.40659130826E+02  0.00000000000E+00 0.  1.
         11    1    3    3    0    0  0.17539838986E+02 -0.33672235678E+01  0.29202577590E+02  0.34231194609E+02  0.51100000000E-03 0. -1.
        -11    1    3    3    0    0 -0.77220304665E+00  0.24490145830E+01  0.16497731577E+00  0.25731668715E+01  0.51100000000E-03 0.  1.
         12    1    3    3    0    0  0.11935924648E+02 -0.65909778973E+01 -0.15667879819E+01  0.13724507694E+02  0.00000000000E+00 0. -1.
</event>
<event>
 7    1  0.5068291E-011  0.5052887E+02  0.7816164E-02  0.1300439E+00
        -11   -1    0    0    0    0  0.00000000000E+00  0.00000000000E+00  0.45593999997E+02  0.45594000000E+02  0.51100000000E-03 0.  1.
         11   -1    0    0    0    0 -0.00000000000E+00 -0.00000000000E+00 -0.45593999997E+02  0.45594000000E+02  0.51100000000E-03 0. -1.
    9900012    2    1    2    0    0  0.28065941493E+02  0.27696681132E+02  0.99177612052E+01  0.50528865664E+02  0.30000017673E+02 0.  0.
        -12    1    1    2    0    0 -0.28065941493E+02 -0.27696681132E+02 -0.99177612052E+01  0.40659134336E+02  0.00000000000E+00 0.  1.
         11    1    3    3    0    0  0.28286271363E+02  0.28944289704E+02  0.12299517931E+02  0.42298501104E+02  0.51100000000E-03 0. -1.
        -11    1    3    3    0    0 -0.23292192301E+01 -0.22236860961E+01 -0.41909796680E+01  0.52852959155E+01  0.51100000000E-03 0.  1.
        -12    1    3    3    0    0  0.21088893600E+01  0.97607752438E+00  0.18092229419E+01  0.29450686443E+01  0.00000000000E+00 0.  1.
</event>
<event>
 7    1  0.5068291E-011  0.5052886E+02  0.7816164E-02  0.1300439E+00
        -11   -1    0    0    0    0  0.00000000000E+00  0.00000000000E+00  0.45593999997E+02  0.45594000000E+02  0.51100000000E-03 0. -1.
         11   -1    0    0    0    0 -0.00000000000E+00 -0.00000000000E+00 -0.45593999997E+02  0.45594000000E+02  0.51100000000E-03 0.  1.
    9900012    2    1    2    0    0 -0.19778987862E+02  0.22110070493E+02  0.27804713027E+02  0.50528860258E+02  0.30000001240E+02 0.  0.
        -12    1    1    2    0    0  0.19778987862E+02 -0.22110070493E+02 -0.27804713027E+02  0.40659139742E+02  0.00000000000E+00 0.  1.
         11    1    3    3    0    0 -0.17957648479E+02  0.13183093688E+02  0.22012820453E+02  0.31318291183E+02  0.51100000000E-03 0. -1.
        -11    1    3    3    0    0  0.40096402390E+01 -0.28842662198E+01  0.32797735266E+00  0.49501288749E+01  0.51100000000E-03 0.  1.
         12    1    3    3    0    0 -0.58309796227E+01  0.11811243025E+02  0.54639152208E+01  0.14260440200E+02  0.00000000000E+00 0. -1.
</event>
<event>
 7    1  0.5068291E-011  0.5052886E+02  0.7816164E-02  0.1300439E+00
        -11   -1    0    0    0    0  0.00000000000E+00  0.00000000000E+00  0.45593999997E+02  0.45594000000E+02  0.51100000000E-03 0.  1.
         11   -1    0    0    0    0 -0.00000000000E+00 -0.00000000000E+00 -0.45593999997E+02  0.45594000000E+02  0.51100000000E-03 0. -1.
    9900012    2    1    2    0    0 -0.32886746580E+02  0.23297708543E+02 -0.53706902081E+01  0.50528860347E+02  0.30000001511E+02 0.  0.
        -12    1    1    2    0    0  0.32886746580E+02 -0.23297708543E+02  0.53706902081E+01  0.40659139653E+02  0.00000000000E+00 0.  1.
         11    1    3    3    0    0 -0.33156027507E+02  0.28596518519E+02 -0.66790636860E+01  0.44291002736E+02  0.51100000000E-03 0. -1.
        -11    1    3    3    0    0  0.13239836725E+01 -0.20503275559E+01  0.14142713030E+01  0.28208047489E+01  0.51100000000E-03 0.  1.
         12    1    3    3    0    0 -0.10547027459E+01 -0.32484824194E+01 -0.10589782508E+00  0.34170528618E+01  0.00000000000E+00 0. -1.
</event>
<event>
 7    1  0.5068291E-011  0.5052883E+02  0.7816164E-02  0.1300439E+00
        -11   -1    0    0    0    0  0.00000000000E+00  0.00000000000E+00  0.45593999997E+02  0.45594000000E+02  0.51100000000E-03 0.  1.
         11   -1    0    0    0    0 -0.00000000000E+00 -0.00000000000E+00 -0.45593999997E+02  0.45594000000E+02  0.51100000000E-03 0. -1.
    9900012    2    1    2    0    0  0.13363986509E+02  0.38227863969E+02 -0.36335066123E+01  0.50528830193E+02  0.29999909855E+02 0.  0.
        -12    1    1    2    0    0 -0.13363986509E+02 -0.38227863969E+02  0.36335066123E+01  0.40659169807E+02  0.00000000000E+00 0.  1.
         11    1    3    3    0    0  0.14434327467E+02  0.20505734167E+02 -0.21946849236E+01  0.25172437016E+02  0.51100000000E-03 0. -1.
        -11    1    3    3    0    0 -0.55184385740E+01  0.18699270669E+02  0.20716015464E+01  0.19606310746E+02  0.51100000000E-03 0.  1.
        -12    1    3    3    0    0  0.44480976164E+01 -0.97714086622E+00 -0.35104232352E+01  0.57500824313E+01  0.00000000000E+00 0.  1.
</event>
<event>
 7    1  0.5068291E-011  0.5052886E+02  0.7816164E-02  0.1300439E+00
        -11   -1    0    0    0    0  0.00000000000E+00  0.00000000000E+00  0.45593999997E+02  0.45594000000E+02  0.51100000000E-03 0. -1.
         11   -1    0    0    0    0 -0.00000000000E+00 -0.00000000000E+00 -0.45593999997E+02  0.45594000000E+02  0.51100000000E-03 0.  1.
    9900012    2    1    2    0    0  0.11443832180E+02  0.23658186161E+02  0.31024097911E+02  0.50528859348E+02  0.29999998475E+02 0.  0.
        -12    1    1    2    0    0 -0.11443832180E+02 -0.23658186161E+02 -0.31024097911E+02  0.40659140652E+02  0.00000000000E+00 0.  1.
         11    1    3    3    0    0  0.16885700098E+02  0.68458094521E+01  0.17912209478E+02  0.25550718650E+02  0.51100000000E-03 0. -1.
        -11    1    3    3    0    0 -0.16895524817E+01 -0.13414846215E+01 -0.18425463581E+00  0.21652063666E+01  0.51100000000E-03 0.  1.
         12    1    3    3    0    0 -0.37523154371E+01  0.18153861330E+02  0.13296143068E+02  0.22812934332E+02  0.00000000000E+00 0. -1.
</event>
<event>
 7    1  0.5068291E-011  0.5052886E+02  0.7816164E-02  0.1300439E+00
        -11   -1    0    0    0    0  0.00000000000E+00  0.00000000000E+00  0.45593999997E+02  0.45594000000E+02  0.51100000000E-03 0.  1.
         11   -1    0    0    0    0 -0.00000000000E+00 -0.00000000000E+00 -0.45593999997E+02  0.45594000000E+02  0.51100000000E-03 0. -1.
    9900012    2    1    2    0    0 -0.23552345340E+01 -0.12271583642E+01 -0.40572314455E+02  0.50528858991E+02  0.29999997390E+02 0.  0.
        -12    1    1    2    0    0  0.23552345340E+01  0.12271583642E+01  0.40572314455E+02  0.40659141009E+02  0.00000000000E+00 0.  1.
         11    1    3    3    0    0 -0.13568748542E+01 -0.20281821588E+01 -0.19593601071E+02  0.19744969877E+02  0.51100000000E-03 0. -1.
        -11    1    3    3    0    0 -0.83555968640E+01  0.74664622634E+01 -0.57229705995E+01  0.12582386516E+02  0.51100000000E-03 0.  1.
        -12    1    3    3    0    0  0.73572371842E+01 -0.66654384687E+01 -0.15255742784E+02  0.18201502599E+02  0.00000000000E+00 0.  1.
</event>
<event>
 7    1  0.5068291E-011  0.5052887E+02  0.7816164E-02  0.1300439E+00
        -11   -1    0    0    0    0  0.00000000000E+00  0.00000000000E+00  0.45593999997E+02  0.45594000000E+02  0.51100000000E-03 0. -1.
         11   -1    0    0    0    0 -0.00000000000E+00 -0.00000000000E+00 -0.45593999997E+02  0.45594000000E+02  0.51100000000E-03 0.  1.
    9900012    2    1    2    0    0  0.13340878203E+02  0.15270616959E+02  0.35241932330E+02  0.50528873499E+02  0.30000041486E+02 0.  0.
        -12    1    1    2    0    0 -0.13340878203E+02 -0.15270616959E+02 -0.35241932330E+02  0.40659126501E+02  0.00000000000E+00 0.  1.
         11    1    3    3    0    0  0.32023112885E+01  0.34277153358E+01  0.92964244761E+01  0.10412854475E+02  0.51100000000E-03 0. -1.
        -11    1    3    3    0    0 -0.49778233550E+01  0.13420078982E+02  0.73208121850E+01  0.16077049995E+02  0.51100000000E-03 0.  1.
        -12    1    3    3    0    0  0.15116390270E+02 -0.15771773593E+01  0.18624695668E+02  0.24038969029E+02  0.00000000000E+00 0.  1.
</event>
<event>
 7    1  0.5068291E-011  0.5052887E+02  0.7816164E-02  0.1300439E+00
        -11   -1    0    0    0    0  0.00000000000E+00  0.00000000000E+00  0.45593999997E+02  0.45594000000E+02  0.51100000000E-03 0. -1.
         11   -1    0    0    0    0 -0.00000000000E+00 -0.00000000000E+00 -0.45593999997E+02  0.45594000000E+02  0.51100000000E-03 0.  1.
    9900012    2    1    2    0    0 -0.32614644811E+02 -0.21431298568E+02  0.11408292997E+02  0.50528871092E+02  0.30000034171E+02 0.  0.
        -12    1    1    2    0    0  0.32614644811E+02  0.21431298568E+02 -0.11408292997E+02  0.40659128908E+02  0.00000000000E+00 0.  1.
         11    1    3    3    0    0 -0.62683960003E+01 -0.65936318842E+01  0.15815819176E+02  0.18245791469E+02  0.51100000000E-03 0. -1.
        -11    1    3    3    0    0 -0.18349208182E+02 -0.10101008084E+02 -0.78544200322E+01  0.22369973615E+02  0.51100000000E-03 0.  1.
         12    1    3    3    0    0 -0.79970406283E+01 -0.47366585994E+01  0.34468938533E+01  0.99131060084E+01  0.00000000000E+00 0. -1.
</event>
<event>
 7    1  0.5068291E-011  0.5052886E+02  0.7816164E-02  0.1300439E+00
        -11   -1    0    0    0    0  0.00000000000E+00  0.00000000000E+00  0.45593999997E+02  0.45594000000E+02  0.51100000000E-03 0.  1.
         11   -1    0    0    0    0 -0.00000000000E+00 -0.00000000000E+00 -0.45593999997E+02  0.45594000000E+02  0.51100000000E-03 0. -1.
    9900012    2    1    2    0    0 -0.12999111428E+02  0.38094264826E+02  0.57459550020E+01  0.50528857001E+02  0.29999991339E+02 0.  0.
        -12    1    1    2    0    0  0.12999111428E+02 -0.38094264826E+02 -0.57459550020E+01  0.40659142999E+02  0.00000000000E+00 0.  1.
         11    1    3    3    0    0  0.38205363672E+01  0.12694131958E+02 -0.87909833943E+01  0.15906566996E+02  0.51100000000E-03 0. -1.
        -11    1    3    3    0    0 -0.14991930121E+02  0.23956392717E+02  0.10871907090E+02  0.30279780132E+02  0.51100000000E-03 0.  1.
        -12    1    3    3    0    0 -0.18277176742E+01  0.14437401509E+01  0.36650313065E+01  0.43425098731E+01  0.00000000000E+00 0.  1.
</event>
<event>
 7    1  0.5068291E-011  0.5052886E+02  0.7816164E-02  0.1300439E+00
        -11   -1    0    0    0    0  0.00000000000E+00  0.00000000000E+00  0.45593999997E+02  0.45594000000E+02  0.51100000000E-03 0.  1.
         11   -1    0    0    0    0 -0.00000000000E+00 -0.00000000000E+00 -0.45593999997E+02  0.45594000000E+02  0.51100000000E-03 0. -1.
    9900012    2    1    2    0    0 -0.25502363190E+02 -0.15352590922E+02 -0.27696447717E+02  0.50528858440E+02  0.29999995714E+02 0.  0.
        -12    1    1    2    0    0  0.25502363190E+02  0.15352590922E+02  0.27696447717E+02  0.40659141560E+02  0.00000000000E+00 0.  1.
         11    1    3    3    0    0 -0.23730435010E+02  0.97089894415E+00 -0.21000052543E+02  0.31702971432E+02  0.51100000000E-03 0. -1.
        -11    1    3    3    0    0 -0.41047879310E+01 -0.10867991959E+02 -0.50565670952E+01  0.12670098824E+02  0.51100000000E-03 0.  1.
         12    1    3    3    0    0  0.23328597511E+01 -0.54554979075E+01 -0.16398280782E+01  0.61557881837E+01  0.00000000000E+00 0. -1.
</event>
<event>
 7    1  0.5068291E-011  0.5052886E+02  0.7816164E-02  0.1300439E+00
        -11   -1    0    0    0    0  0.00000000000E+00  0.00000000000E+00  0.45593999997E+02  0.45594000000E+02  0.51100000000E-03 0. -1.
         11   -1    0    0    0    0 -0.00000000000E+00 -0.00000000000E+00 -0.45593999997E+02  0.45594000000E+02  0.51100000000E-03 0.  1.
    9900012    2    1    2    0    0 -0.51673219324E+01 -0.17167638035E+02  0.36492970779E+02  0.50528856773E+02  0.29999990648E+02 0.  0.
        -12    1    1    2    0    0  0.51673219324E+01  0.17167638035E+02 -0.36492970779E+02  0.40659143227E+02  0.00000000000E+00 0.  1.
         11    1    3    3    0    0 -0.31290011703E+01 -0.24942551931E+00  0.12931038145E+02  0.13306562635E+02  0.51100000000E-03 0. -1.
        -11    1    3    3    0    0  0.17262766528E+01 -0.19826046893E+02  0.88861798062E+01  0.21794870000E+02  0.51100000000E-03 0.  1.
        -12    1    3    3    0    0 -0.37645974149E+01  0.29078343777E+01  0.14675752828E+02  0.15427424138E+02  0.00000000000E+00 0.  1.
</event>
<event>
 7    1  0.5068291E-011  0.5052885E+02  0.7816164E-02  0.1300439E+00
        -11   -1    0    0    0    0  0.00000000000E+00  0.00000000000E+00  0.45593999997E+02  0.45594000000E+02  0.51100000000E-03 0. -1.
         11   -1    0    0    0    0 -0.00000000000E+00 -0.00000000000E+00 -0.45593999997E+02  0.45594000000E+02  0.51100000000E-03 0.  1.
    9900012    2    1    2    0    0  0.70414484963E+00  0.36521131891E+02  0.17857146045E+02  0.50528849007E+02  0.29999967042E+02 0.  0.
        -12    1    1    2    0    0 -0.70414484963E+00 -0.36521131891E+02 -0.17857146045E+02  0.40659150993E+02  0.00000000000E+00 0.  1.
         11    1    3    3    0    0  0.82850682941E+01  0.33994758509E+02  0.13812423266E+02  0.37617402880E+02  0.51100000000E-03 0. -1.
        -11    1    3    3    0    0 -0.88191239234E+01  0.33336005314E+01  0.54347810223E+01  0.10882402506E+02  0.51100000000E-03 0.  1.
         12    1    3    3    0    0  0.12382004789E+01 -0.80722714925E+00 -0.13900582431E+01  0.20290436210E+01  0.00000000000E+00 0. -1.
</event>
<event>
 7    1  0.5068291E-011  0.5052885E+02  0.7816164E-02  0.1300439E+00
        -11   -1    0    0    0    0  0.00000000000E+00  0.00000000000E+00  0.45593999997E+02  0.45594000000E+02  0.51100000000E-03 0. -1.
         11   -1    0    0    0    0 -0.00000000000E+00 -0.00000000000E+00 -0.45593999997E+02  0.45594000000E+02  0.51100000000E-03 0.  1.
    9900012    2    1    2    0    0 -0.33701506547E+02 -0.18380454524E+02 -0.13399024399E+02  0.50528849654E+02  0.29999969008E+02 0.  0.
        -12    1    1    2    0    0  0.33701506547E+02  0.18380454524E+02  0.13399024399E+02  0.40659150346E+02  0.00000000000E+00 0.  1.
         11    1    3    3    0    0 -0.14819407004E+02 -0.89846419011E+01 -0.16185405712E+00  0.17331036064E+02  0.51100000000E-03 0. -1.
        -11    1    3    3    0    0 -0.13807327097E+02 -0.11009707028E+02 -0.18594598865E+02  0.25644005881E+02  0.51100000000E-03 0.  1.
        -12    1    3    3    0    0 -0.50747724454E+01  0.16138944057E+01  0.53574285232E+01  0.75538077092E+01  0.00000000000E+00 0.  1.
</event>
<event>
 7    1  0.5068291E-011  0.5052886E+02  0.7816164E-02  0.1300439E+00
        -11   -1    0    0    0    0  0.00000000000E+00  0.00000000000E+00  0.45593999997E+02  0.45594000000E+02  0.51100000000E-03 0.  1.
         11   -1    0    0    0    0 -0.00000000000E+00 -0.00000000000E+00 -0.45593999997E+02  0.45594000000E+02  0.51100000000E-03 0. -1.
    9900012    2    1    2    0    0 -0.11805465272E+02 -0.35328078361E+02 -0.16301035172E+02  0.50528857379E+02  0.29999992490E+02 0.  0.
        -12    1    1    2    0    0  0.11805465272E+02  0.35328078361E+02  0.16301035172E+02  0.40659142621E+02  0.00000000000E+00 0.  1.
         11    1    3    3    0    0 -0.77090210164E+00 -0.28635388947E+02 -0.15054848384E+02  0.32360906204E+02  0.51100000000E-03 0. -1.
        -11    1    3    3    0    0 -0.18578787807E+01  0.13568690347E+01  0.42096960626E+01  0.47973272081E+01  0.51100000000E-03 0.  1.
         12    1    3    3    0    0 -0.91766843896E+01 -0.80495584488E+01 -0.54558828499E+01  0.13370623967E+02  0.00000000000E+00 0. -1.
</event>
<event>
 7    1  0.5068291E-011  0.5052886E+02  0.7816164E-02  0.1300439E+00
        -11   -1    0    0    0    0  0.00000000000E+00  0.00000000000E+00  0.45593999997E+02  0.45594000000E+02  0.51100000000E-03 0.  1.
         11   -1    0    0    0    0 -0.00000000000E+00 -0.00000000000E+00 -0.45593999997E+02  0.45594000000E+02  0.51100000000E-03 0. -1.
    9900012    2    1    2    0    0  0.28067979699E+02  0.24644226025E+02 -0.16062880273E+02  0.50528862240E+02  0.30000007264E+02 0.  0.
        -12    1    1    2    0    0 -0.28067979699E+02 -0.24644226025E+02  0.16062880273E+02  0.40659137760E+02  0.00000000000E+00 0.  1.
         11    1    3    3    0    0  0.22751163870E+02  0.27094546205E+02 -0.18989105886E+02  0.40153655302E+02  0.51100000000E-03 0. -1.
        -11    1    3    3    0    0  0.66233922479E+01 -0.26884043404E+00  0.38547374790E+01  0.76681550155E+01  0.51100000000E-03 0.  1.
         12    1    3    3    0    0 -0.13065764185E+01 -0.21814797468E+01 -0.92851186671E+00  0.27070519223E+01  0.00000000000E+00 0. -1.
</event>
<event>
 7    1  0.5068291E-011  0.5052887E+02  0.7816164E-02  0.1300439E+00
        -11   -1    0    0    0    0  0.00000000000E+00  0.00000000000E+00  0.45593999997E+02  0.45594000000E+02  0.51100000000E-03 0.  1.
         11   -1    0    0    0    0 -0.00000000000E+00 -0.00000000000E+00 -0.45593999997E+02  0.45594000000E+02  0.51100000000E-03 0. -1.
    9900012    2    1    2    0    0  0.19898913111E+02  0.29699305555E+01 -0.35332393315E+02  0.50528865137E+02  0.30000016069E+02 0.  0.
        -12    1    1    2    0    0 -0.19898913111E+02 -0.29699305555E+01  0.35332393315E+02  0.40659134863E+02  0.00000000000E+00 0.  1.
         11    1    3    3    0    0  0.11085482567E+02 -0.54985205485E+01 -0.91371929285E+01  0.15382130764E+02  0.51100000000E-03 0. -1.
        -11    1    3    3    0    0 -0.49356487976E+01  0.59877697664E+01 -0.35378823766E+01  0.85282253605E+01  0.51100000000E-03 0.  1.
         12    1    3    3    0    0  0.13749079342E+02  0.24806813375E+01 -0.22657318009E+02  0.26618509012E+02  0.00000000000E+00 0. -1.
</event>
<event>
 7    1  0.5068291E-011  0.5052886E+02  0.7816164E-02  0.1300439E+00
        -11   -1    0    0    0    0  0.00000000000E+00  0.00000000000E+00  0.45593999997E+02  0.45594000000E+02  0.51100000000E-03 0.  1.
         11   -1    0    0    0    0 -0.00000000000E+00 -0.00000000000E+00 -0.45593999997E+02  0.45594000000E+02  0.51100000000E-03 0. -1.
    9900012    2    1    2    0    0 -0.11962740363E+02 -0.27148189213E+02 -0.27803492476E+02  0.50528861687E+02  0.30000005583E+02 0.  0.
        -12    1    1    2    0    0  0.11962740363E+02  0.27148189213E+02  0.27803492476E+02  0.40659138313E+02  0.00000000000E+00 0.  1.
         11    1    3    3    0    0  0.13759264212E+01 -0.60654786974E+01 -0.41037662250E+01  0.74514497137E+01  0.51100000000E-03 0. -1.
        -11    1    3    3    0    0 -0.84668680350E+01 -0.62044297526E+01 -0.25250308431E+02  0.27345216748E+02  0.51100000000E-03 0.  1.
        -12    1    3    3    0    0 -0.48717987497E+01 -0.14878280763E+02  0.15505821803E+01  0.15732195225E+02  0.00000000000E+00 0.  1.
</event>
<event>
 7    1  0.5068291E-011  0.5052885E+02  0.7816164E-02  0.1300439E+00
        -11   -1    0    0    0    0  0.00000000000E+00  0.00000000000E+00  0.45593999997E+02  0.45594000000E+02  0.51100000000E-03 0. -1.
         11   -1    0    0    0    0 -0.00000000000E+00 -0.00000000000E+00 -0.45593999997E+02  0.45594000000E+02  0.51100000000E-03 0.  1.
    9900012    2    1    2    0    0  0.31551951960E+02  0.50559211532E+01  0.25141167502E+02  0.50528852019E+02  0.29999976196E+02 0.  0.
        -12    1    1    2    0    0 -0.31551951960E+02 -0.50559211532E+01 -0.25141167502E+02  0.40659147981E+02  0.00000000000E+00 0.  1.
         11    1    3    3    0    0  0.92724361469E+01  0.19416287240E+01  0.22231325836E+02  0.24165674890E+02  0.51100000000E-03 0. -1.
        -11    1    3    3    0    0  0.19400365058E+02 -0.74984972702E-01 -0.23825444534E+01  0.19546260652E+02  0.51100000000E-03 0.  1.
        -12    1    3    3    0    0  0.28791507549E+01  0.31892774019E+01  0.52923861193E+01  0.68169164768E+01  0.00000000000E+00 0.  1.
</event>
<event>
 7    1  0.5068291E-011  0.5052886E+02  0.7816164E-02  0.1300439E+00
        -11   -1    0    0    0    0  0.00000000000E+00  0.00000000000E+00  0.45593999997E+02  0.45594000000E+02  0.51100000000E-03 0.  1.
         11   -1    0    0    0    0 -0.00000000000E+00 -0.00000000000E+00 -0.45593999997E+02  0.45594000000E+02  0.51100000000E-03 0. -1.
    9900012    2    1    2    0    0 -0.26214156244E+02 -0.15763255884E+02 -0.26786249712E+02  0.50528863299E+02  0.30000010483E+02 0.  0.
        -12    1    1    2    0    0  0.26214156244E+02  0.15763255884E+02  0.26786249712E+02  0.40659136701E+02  0.00000000000E+00 0.  1.
         11    1    3    3    0    0 -0.21788566929E+02 -0.15979822990E+01 -0.19587988377E+02  0.29342537129E+02  0.51100000000E-03 0. -1.
        -11    1    3    3    0    0 -0.55314475718E+01 -0.13992227702E+02 -0.12101455234E+01  0.15094495711E+02  0.51100000000E-03 0.  1.
         12    1    3    3    0    0  0.11058582570E+01 -0.17304588238E+00 -0.59881158122E+01  0.60918304590E+01  0.00000000000E+00 0. -1.
</event>
<event>
 7    1  0.5068291E-011  0.5052887E+02  0.7816164E-02  0.1300439E+00
        -11   -1    0    0    0    0  0.00000000000E+00  0.00000000000E+00  0.45593999997E+02  0.45594000000E+02  0.51100000000E-03 0.  1.
         11   -1    0    0    0    0 -0.00000000000E+00 -0.00000000000E+00 -0.45593999997E+02  0.45594000000E+02  0.51100000000E-03 0. -1.
    9900012    2    1    2    0    0  0.56960109240E+00 -0.29544638678E+02 -0.27927663421E+02  0.50528874282E+02  0.30000043867E+02 0.  0.
        -12    1    1    2    0    0 -0.56960109240E+00  0.29544638678E+02  0.27927663421E+02  0.40659125718E+02  0.00000000000E+00 0.  1.
         11    1    3    3    0    0  0.36543760272E+01 -0.20437526806E+02 -0.27991793215E+02  0.34850931892E+02  0.51100000000E-03 0. -1.
        -11    1    3    3    0    0  0.45359310631E+01 -0.49621801867E+01  0.14912375047E+01  0.68863410002E+01  0.51100000000E-03 0.  1.
         12    1    3    3    0    0 -0.76207059979E+01 -0.41449316852E+01 -0.14271077108E+01  0.87916013900E+01  0.00000000000E+00 0. -1.
</event>
<event>
 7    1  0.5068291E-011  0.5052895E+02  0.7816164E-02  0.1300438E+00
        -11   -1    0    0    0    0  0.00000000000E+00  0.00000000000E+00  0.45593999997E+02  0.45594000000E+02  0.51100000000E-03 0. -1.
         11   -1    0    0    0    0 -0.00000000000E+00 -0.00000000000E+00 -0.45593999997E+02  0.45594000000E+02  0.51100000000E-03 0.  1.
    9900012    2    1    2    0    0 -0.32347096854E+02  0.35227082134E+01  0.24380612057E+02  0.50528949441E+02  0.30000272321E+02 0.  0.
        -12    1    1    2    0    0  0.32347096854E+02 -0.35227082134E+01 -0.24380612057E+02  0.40659050559E+02  0.00000000000E+00 0.  1.
         11    1    3    3    0    0 -0.31325157735E+00  0.80193359785E+01  0.64783471361E+01  0.10313915743E+02  0.51100000000E-03 0. -1.
        -11    1    3    3    0    0 -0.12593910313E+02 -0.31662586232E+01 -0.10560052300E+01  0.13028695942E+02  0.51100000000E-03 0.  1.
        -12    1    3    3    0    0 -0.19439934963E+02 -0.13303691419E+01  0.18958270151E+02  0.27186337756E+02  0.00000000000E+00 0.  1.
</event>
<event>
 7    1  0.5068291E-011  0.5052886E+02  0.7816164E-02  0.1300439E+00
        -11   -1    0    0    0    0  0.00000000000E+00  0.00000000000E+00  0.45593999997E+02  0.45594000000E+02  0.51100000000E-03 0. -1.
         11   -1    0    0    0    0 -0.00000000000E+00 -0.00000000000E+00 -0.45593999997E+02  0.45594000000E+02  0.51100000000E-03 0.  1.
    9900012    2    1    2    0    0 -0.31210513122E+01  0.14473974971E+02  0.37867251684E+02  0.50528860033E+02  0.30000000556E+02 0.  0.
        -12    1    1    2    0    0  0.31210513122E+01 -0.14473974971E+02 -0.37867251684E+02  0.40659139967E+02  0.00000000000E+00 0.  1.
         11    1    3    3    0    0  0.81468793661E+01  0.31476269521E+01  0.20615429326E+02  0.22389174290E+02  0.51100000000E-03 0. -1.
        -11    1    3    3    0    0 -0.11703387285E+02  0.22693376304E+01  0.50725532440E+01  0.12955692336E+02  0.51100000000E-03 0.  1.
         12    1    3    3    0    0  0.43545660659E+00  0.90570103885E+01  0.12179269114E+02  0.15183993407E+02  0.00000000000E+00 0. -1.
</event>
<event>
 7    1  0.5068291E-011  0.5052886E+02  0.7816164E-02  0.1300439E+00
        -11   -1    0    0    0    0  0.00000000000E+00  0.00000000000E+00  0.45593999997E+02  0.45594000000E+02  0.51100000000E-03 0.  1.
         11   -1    0    0    0    0 -0.00000000000E+00 -0.00000000000E+00 -0.45593999997E+02  0.45594000000E+02  0.51100000000E-03 0. -1.
    9900012    2    1    2    0    0 -0.80046755754E+01  0.28469010340E+02 -0.27903514390E+02  0.50528862083E+02  0.30000006789E+02 0.  0.
        -12    1    1    2    0    0  0.80046755754E+01 -0.28469010340E+02  0.27903514390E+02  0.40659137917E+02  0.00000000000E+00 0.  1.
         11    1    3    3    0    0 -0.10800231059E+02  0.13877807406E+02 -0.24973770231E+02  0.30543865654E+02  0.51100000000E-03 0. -1.
        -11    1    3    3    0    0  0.58923779072E+01  0.53987695620E+01 -0.57938398418E+01  0.98709376737E+01  0.51100000000E-03 0.  1.
         12    1    3    3    0    0 -0.30968224233E+01  0.91924333724E+01  0.28640956824E+01  0.10114058755E+02  0.00000000000E+00 0. -1.
</event>
<event>
 7    1  0.5068291E-011  0.5052886E+02  0.7816164E-02  0.1300439E+00
        -11   -1    0    0    0    0  0.00000000000E+00  0.00000000000E+00  0.45593999997E+02  0.45594000000E+02  0.51100000000E-03 0.  1.
         11   -1    0    0    0    0 -0.00000000000E+00 -0.00000000000E+00 -0.45593999997E+02  0.45594000000E+02  0.51100000000E-03 0. -1.
    9900012    2    1    2    0    0 -0.26010380258E+00  0.16336723859E+02 -0.37231834863E+02  0.50528859236E+02  0.29999998133E+02 0.  0.
        -12    1    1    2    0    0  0.26010380258E+00 -0.16336723859E+02  0.37231834863E+02  0.40659140764E+02  0.00000000000E+00 0.  1.
         11    1    3    3    0    0 -0.35110087805E+01  0.14500152125E+02 -0.23363836439E+02  0.27720938795E+02  0.51100000000E-03 0. -1.
        -11    1    3    3    0    0  0.73667257123E+01  0.22584801960E+01  0.63024294117E+00  0.77308852625E+01  0.51100000000E-03 0.  1.
         12    1    3    3    0    0 -0.41158207344E+01 -0.42190846234E+00 -0.14498241365E+02  0.15077035178E+02  0.00000000000E+00 0. -1.
</event>
<event>
 7    1  0.5068291E-011  0.5052881E+02  0.7816164E-02  0.1300439E+00
        -11   -1    0    0    0    0  0.00000000000E+00  0.00000000000E+00  0.45593999997E+02  0.45594000000E+02  0.51100000000E-03 0.  1.
         11   -1    0    0    0    0 -0.00000000000E+00 -0.00000000000E+00 -0.45593999997E+02  0.45594000000E+02  0.51100000000E-03 0. -1.
    9900012    2    1    2    0    0 -0.26865409825E+01 -0.12536990446E+02 -0.38584664764E+02  0.50528806860E+02  0.29999838931E+02 0.  0.
        -12    1    1    2    0    0  0.26865409825E+01  0.12536990446E+02  0.38584664764E+02  0.40659193140E+02  0.00000000000E+00 0.  1.
         11    1    3    3    0    0 -0.22307659377E+01 -0.57688541821E+01 -0.16173086841E+02  0.17315447828E+02  0.51100000000E-03 0. -1.
        -11    1    3    3    0    0  0.88262664360E+01  0.57432534198E+00 -0.12033863976E+01  0.89264196563E+01  0.51100000000E-03 0.  1.
        -12    1    3    3    0    0 -0.92820414807E+01 -0.73424616058E+01 -0.21208191525E+02  0.24286939376E+02  0.00000000000E+00 0.  1.
</event>
<event>
 7    1  0.5068291E-011  0.5052886E+02  0.7816164E-02  0.1300439E+00
        -11   -1    0    0    0    0  0.00000000000E+00  0.00000000000E+00  0.45593999997E+02  0.45594000000E+02  0.51100000000E-03 0.  1.
         11   -1    0    0    0    0 -0.00000000000E+00 -0.00000000000E+00 -0.45593999997E+02  0.45594000000E+02  0.51100000000E-03 0. -1.
    9900012    2    1    2    0    0  0.18631873020E+02 -0.73580391822E+01 -0.35381891252E+02  0.50528860051E+02  0.30000000610E+02 0.  0.
        -12    1    1    2    0    0 -0.18631873020E+02  0.73580391822E+01  0.35381891252E+02  0.40659139949E+02  0.00000000000E+00 0.  1.
         11    1    3    3    0    0  0.17894524446E+02 -0.15466960833E+02 -0.14139579235E+02  0.27556643187E+02  0.51100000000E-03 0. -1.
        -11    1    3    3    0    0 -0.57849567068E+00  0.57081773457E+01 -0.16814376907E+02  0.17766294405E+02  0.51100000000E-03 0.  1.
         12    1    3    3    0    0  0.13158442449E+01  0.24007443055E+01 -0.44279351104E+01  0.52059224580E+01  0.00000000000E+00 0. -1.
</event>
<event>
 7    1  0.5068291E-011  0.5052885E+02  0.7816164E-02  0.1300439E+00
        -11   -1    0    0    0    0  0.00000000000E+00  0.00000000000E+00  0.45593999997E+02  0.45594000000E+02  0.51100000000E-03 0.  1.
         11   -1    0    0    0    0 -0.00000000000E+00 -0.00000000000E+00 -0.45593999997E+02  0.45594000000E+02  0.51100000000E-03 0. -1.
    9900012    2    1    2    0    0 -0.26160556828E+02  0.10490535924E+02 -0.29304269273E+02  0.50528852504E+02  0.29999977670E+02 0.  0.
        -12    1    1    2    0    0  0.26160556828E+02 -0.10490535924E+02  0.29304269273E+02  0.40659147496E+02  0.00000000000E+00 0.  1.
         11    1    3    3    0    0 -0.46084856894E+01  0.67234381498E+00 -0.97647977251E+01  0.10818570212E+02  0.51100000000E-03 0. -1.
        -11    1    3    3    0    0 -0.26530767567E+01  0.14641354607E+02 -0.64318151190E+01  0.16210377139E+02  0.51100000000E-03 0.  1.
        -12    1    3    3    0    0 -0.18898994381E+02 -0.48231624981E+01 -0.13107656429E+02  0.23499905152E+02  0.00000000000E+00 0.  1.
</event>
<event>
 7    1  0.5068291E-011  0.5052886E+02  0.7816164E-02  0.1300439E+00
        -11   -1    0    0    0    0  0.00000000000E+00  0.00000000000E+00  0.45593999997E+02  0.45594000000E+02  0.51100000000E-03 0.  1.
         11   -1    0    0    0    0 -0.00000000000E+00 -0.00000000000E+00 -0.45593999997E+02  0.45594000000E+02  0.51100000000E-03 0. -1.
    9900012    2    1    2    0    0 -0.18177520552E+02  0.12702224423E+02 -0.34079274329E+02  0.50528859607E+02  0.29999999262E+02 0.  0.
        -12    1    1    2    0    0  0.18177520552E+02 -0.12702224423E+02  0.34079274329E+02  0.40659140393E+02  0.00000000000E+00 0.  1.
         11    1    3    3    0    0 -0.11717948972E+01  0.10317699547E+02 -0.14391203869E+02  0.17746401784E+02  0.51100000000E-03 0. -1.
        -11    1    3    3    0    0 -0.19070947907E+02 -0.23775654219E+01 -0.19796282847E+02  0.27590699270E+02  0.51100000000E-03 0.  1.
        -12    1    3    3    0    0  0.20652222523E+01  0.47620902975E+01  0.10821238685E+00  0.51917585531E+01  0.00000000000E+00 0.  1.
</event>
<event>
 7    1  0.5068291E-011  0.5052887E+02  0.7816164E-02  0.1300439E+00
        -11   -1    0    0    0    0  0.00000000000E+00  0.00000000000E+00  0.45593999997E+02  0.45594000000E+02  0.51100000000E-03 0. -1.
         11   -1    0    0    0    0 -0.00000000000E+00 -0.00000000000E+00 -0.45593999997E+02  0.45594000000E+02  0.51100000000E-03 0.  1.
    9900012    2    1    2    0    0  0.36486813467E+02  0.17807929545E+02 -0.21806567974E+01  0.50528866023E+02  0.30000018764E+02 0.  0.
        -12    1    1    2    0    0 -0.36486813467E+02 -0.17807929545E+02  0.21806567974E+01  0.40659133977E+02  0.00000000000E+00 0.  1.
         11    1    3    3    0    0  0.59960980111E-02 -0.40886299503E+01  0.45398686026E+01  0.61096102997E+01  0.51100000000E-03 0. -1.
        -11    1    3    3    0    0  0.13246648486E+02  0.37216406198E+01 -0.57280428508E+01  0.14904186666E+02  0.51100000000E-03 0.  1.
         12    1    3    3    0    0  0.23234168883E+02  0.18174918876E+02 -0.99248254919E+00  0.29515069057E+02  0.00000000000E+00 0. -1.
</event>
<event>
 7    1  0.5068291E-011  0.5052886E+02  0.7816164E-02  0.1300439E+00
        -11   -1    0    0    0    0  0.00000000000E+00  0.00000000000E+00  0.45593999997E+02  0.45594000000E+02  0.51100000000E-03 0.  1.
         11   -1    0    0    0    0 -0.00000000000E+00 -0.00000000000E+00 -0.45593999997E+02  0.45594000000E+02  0.51100000000E-03 0. -1.
    9900012    2    1    2    0    0 -0.25719534886E+02  0.12026234418E+02 -0.29103965116E+02  0.50528861119E+02  0.30000003858E+02 0.  0.
        -12    1    1    2    0    0  0.25719534886E+02 -0.12026234418E+02  0.29103965116E+02  0.40659138881E+02  0.00000000000E+00 0.  1.
         11    1    3    3    0    0 -0.12521187023E+02 -0.13241760744E+01 -0.20361926896E+02  0.23940376645E+02  0.51100000000E-03 0. -1.
        -11    1    3    3    0    0 -0.12978588899E+02  0.14237055987E+02 -0.12338773784E+02  0.22877562627E+02  0.51100000000E-03 0.  1.
         12    1    3    3    0    0 -0.21975896469E+00 -0.88664549502E+00  0.35967355642E+01  0.37109218471E+01  0.00000000000E+00 0. -1.
</event>
<event>
 7    1  0.5068291E-011  0.5052891E+02  0.7816164E-02  0.1300439E+00
        -11   -1    0    0    0    0  0.00000000000E+00  0.00000000000E+00  0.45593999997E+02  0.45594000000E+02  0.51100000000E-03 0.  1.
         11   -1    0    0    0    0 -0.00000000000E+00 -0.00000000000E+00 -0.45593999997E+02  0.45594000000E+02  0.51100000000E-03 0. -1.
    9900012    2    1    2    0    0  0.54050047285E+01 -0.82364323362E+01 -0.39447546660E+02  0.50528907152E+02  0.30000143777E+02 0.  0.
        -12    1    1    2    0    0 -0.54050047285E+01  0.82364323362E+01  0.39447546660E+02  0.40659092848E+02  0.00000000000E+00 0.  1.
         11    1    3    3    0    0  0.30422975334E+01  0.16049322173E+00 -0.37185386700E+02  0.37309976101E+02  0.51100000000E-03 0. -1.
        -11    1    3    3    0    0 -0.17024092600E+01  0.11411659151E+01 -0.19757160632E+01  0.28467369316E+01  0.51100000000E-03 0.  1.
         12    1    3    3    0    0  0.40651164551E+01 -0.95380914730E+01 -0.28644389726E+00  0.10372194119E+02  0.00000000000E+00 0. -1.
</event>
<event>
 7    1  0.5068291E-011  0.5052886E+02  0.7816164E-02  0.1300439E+00
        -11   -1    0    0    0    0  0.00000000000E+00  0.00000000000E+00  0.45593999997E+02  0.45594000000E+02  0.51100000000E-03 0.  1.
         11   -1    0    0    0    0 -0.00000000000E+00 -0.00000000000E+00 -0.45593999997E+02  0.45594000000E+02  0.51100000000E-03 0. -1.
    9900012    2    1    2    0    0  0.29557215153E+01 -0.23126985833E+02 -0.33310234191E+02  0.50528862463E+02  0.30000007943E+02 0.  0.
        -12    1    1    2    0    0 -0.29557215153E+01  0.23126985833E+02  0.33310234191E+02  0.40659137537E+02  0.00000000000E+00 0.  1.
         11    1    3    3    0    0  0.14011057545E+02 -0.21328909722E+02 -0.26473088176E+02  0.36770321202E+02  0.51100000000E-03 0. -1.
        -11    1    3    3    0    0 -0.23125391725E+01 -0.16228421864E+01 -0.30087707325E+00  0.28411232744E+01  0.51100000000E-03 0.  1.
         12    1    3    3    0    0 -0.87427968573E+01 -0.17523392467E+00 -0.65362689415E+01  0.10917417987E+02  0.00000000000E+00 0. -1.
</event>
<event>
 7    1  0.5068291E-011  0.5052886E+02  0.7816164E-02  0.1300439E+00
        -11   -1    0    0    0    0  0.00000000000E+00  0.00000000000E+00  0.45593999997E+02  0.45594000000E+02  0.51100000000E-03 0.  1.
         11   -1    0    0    0    0 -0.00000000000E+00 -0.00000000000E+00 -0.45593999997E+02  0.45594000000E+02  0.51100000000E-03 0. -1.
    9900012    2    1    2    0    0  0.12896717230E+02  0.35408454111E+02 -0.15267005472E+02  0.50528863340E+02  0.30000010609E+02 0.  0.
        -12    1    1    2    0    0 -0.12896717230E+02 -0.35408454111E+02  0.15267005472E+02  0.40659136660E+02  0.00000000000E+00 0.  1.
         11    1    3    3    0    0  0.27185545390E+01 -0.48762054082E+00  0.46715327935E+01  0.54269265220E+01  0.51100000000E-03 0.  1.
        -11    1    3    3    0    0  0.13047055923E+02  0.25099938803E+02 -0.18590106458E+02  0.33850031825E+02  0.51100000000E-03 0. -1.
         12    1    3    3    0    0 -0.28688932315E+01  0.10796135849E+02 -0.13484318074E+01  0.11251904993E+02  0.00000000000E+00 0. -1.
</event>
<event>
 7    1  0.5068291E-011  0.5052888E+02  0.7816164E-02  0.1300439E+00
        -11   -1    0    0    0    0  0.00000000000E+00  0.00000000000E+00  0.45593999997E+02  0.45594000000E+02  0.51100000000E-03 0. -1.
         11   -1    0    0    0    0 -0.00000000000E+00 -0.00000000000E+00 -0.45593999997E+02  0.45594000000E+02  0.51100000000E-03 0.  1.
    9900012    2    1    2    0    0 -0.31078288810E+02 -0.25655652215E+02 -0.53936659179E+01  0.50528878539E+02  0.30000056808E+02 0.  0.
        -12    1    1    2    0    0  0.31078288810E+02  0.25655652215E+02  0.53936659179E+01  0.40659121461E+02  0.00000000000E+00 0.  1.
         11    1    3    3    0    0 -0.11743338457E+02 -0.46482434128E+01 -0.39699554262E+01  0.13239060060E+02  0.51100000000E-03 0. -1.
        -11    1    3    3    0    0 -0.15922470641E+02 -0.11702296116E+02  0.10016086530E+02  0.22153798666E+02  0.51100000000E-03 0.  1.
        -12    1    3    3    0    0 -0.34124797120E+01 -0.93051126860E+01 -0.11439797021E+02  0.15136019813E+02  0.00000000000E+00 0.  1.
</event>
<event>
 7    1  0.5068291E-011  0.5052886E+02  0.7816164E-02  0.1300439E+00
        -11   -1    0    0    0    0  0.00000000000E+00  0.00000000000E+00  0.45593999997E+02  0.45594000000E+02  0.51100000000E-03 0.  1.
         11   -1    0    0    0    0 -0.00000000000E+00 -0.00000000000E+00 -0.45593999997E+02  0.45594000000E+02  0.51100000000E-03 0. -1.
    9900012    2    1    2    0    0  0.13699031441E+02 -0.26106558319E+02 -0.27999100020E+02  0.50528862631E+02  0.30000008453E+02 0.  0.
        -12    1    1    2    0    0 -0.13699031441E+02  0.26106558319E+02  0.27999100020E+02  0.40659137369E+02  0.00000000000E+00 0.  1.
         11    1    3    3    0    0 -0.42064725495E+01 -0.20236271356E+02 -0.16858370639E+02  0.26672190584E+02  0.51100000000E-03 0.  1.
        -11    1    3    3    0    0  0.41376893359E+01  0.13314289081E+01 -0.61621814310E+01  0.75409320530E+01  0.51100000000E-03 0. -1.
         12    1    3    3    0    0  0.13767814654E+02 -0.72017158711E+01 -0.49785479498E+01  0.16315739994E+02  0.00000000000E+00 0. -1.
</event>
<event>
 7    1  0.5068291E-011  0.5052885E+02  0.7816164E-02  0.1300439E+00
        -11   -1    0    0    0    0  0.00000000000E+00  0.00000000000E+00  0.45593999997E+02  0.45594000000E+02  0.51100000000E-03 0.  1.
         11   -1    0    0    0    0 -0.00000000000E+00 -0.00000000000E+00 -0.45593999997E+02  0.45594000000E+02  0.51100000000E-03 0. -1.
    9900012    2    1    2    0    0 -0.28587261432E+02  0.13421186735E+02 -0.25608715539E+02  0.50528854890E+02  0.29999984923E+02 0.  0.
        -12    1    1    2    0    0  0.28587261432E+02 -0.13421186735E+02  0.25608715539E+02  0.40659145110E+02  0.00000000000E+00 0.  1.
         11    1    3    3    0    0 -0.17682206744E+01 -0.75886296493E+00 -0.52739820112E+01  0.56140327634E+01  0.51100000000E-03 0. -1.
        -11    1    3    3    0    0 -0.21347598761E+02  0.10221464559E+02 -0.19109995393E+00  0.23669280302E+02  0.51100000000E-03 0.  1.
        -12    1    3    3    0    0 -0.54714419966E+01  0.39585851411E+01 -0.20143633574E+02  0.21245541824E+02  0.00000000000E+00 0.  1.
</event>
<event>
 7    1  0.5068291E-011  0.5052886E+02  0.7816164E-02  0.1300439E+00
        -11   -1    0    0    0    0  0.00000000000E+00  0.00000000000E+00  0.45593999997E+02  0.45594000000E+02  0.51100000000E-03 0. -1.
         11   -1    0    0    0    0 -0.00000000000E+00 -0.00000000000E+00 -0.45593999997E+02  0.45594000000E+02  0.51100000000E-03 0.  1.
    9900012    2    1    2    0    0  0.24303614618E+02 -0.23222597178E+02  0.22873807134E+02  0.50528858888E+02  0.29999997075E+02 0.  0.
        -12    1    1    2    0    0 -0.24303614618E+02  0.23222597178E+02 -0.22873807134E+02  0.40659141112E+02  0.00000000000E+00 0.  1.
         11    1    3    3    0    0  0.13247013669E+02 -0.17544531759E+02  0.10636502996E+02  0.24421899231E+02  0.51100000000E-03 0. -1.
        -11    1    3    3    0    0  0.12365432465E+02  0.31459590308E+01  0.26883583084E+01  0.13039488062E+02  0.51100000000E-03 0.  1.
         12    1    3    3    0    0 -0.13088315159E+01 -0.88240244498E+01  0.95489458300E+01  0.13067471595E+02  0.00000000000E+00 0. -1.
</event>
<event>
 7    1  0.5068291E-011  0.5052883E+02  0.7816164E-02  0.1300439E+00
        -11   -1    0    0    0    0  0.00000000000E+00  0.00000000000E+00  0.45593999997E+02  0.45594000000E+02  0.51100000000E-03 0. -1.
         11   -1    0    0    0    0 -0.00000000000E+00 -0.00000000000E+00 -0.45593999997E+02  0.45594000000E+02  0.51100000000E-03 0.  1.
    9900012    2    1    2    0    0 -0.25938150125E+02 -0.30985787865E+02 -0.45012888813E+01  0.50528827810E+02  0.29999902612E+02 0.  0.
        -12    1    1    2    0    0  0.25938150125E+02  0.30985787865E+02  0.45012888813E+01  0.40659172190E+02  0.00000000000E+00 0.  1.
         11    1    3    3    0    0 -0.94800440525E+01 -0.14070911225E+02  0.59465033897E+01  0.17978394833E+02  0.51100000000E-03 0. -1.
        -11    1    3    3    0    0 -0.82798336321E+01  0.12155194267E+01 -0.94686158953E+01  0.12636764605E+02  0.51100000000E-03 0.  1.
        -12    1    3    3    0    0 -0.81782724407E+01 -0.18130396067E+02 -0.97917637569E+00  0.19913668372E+02  0.00000000000E+00 0.  1.
</event>
<event>
 7    1  0.5068291E-011  0.5052886E+02  0.7816164E-02  0.1300439E+00
        -11   -1    0    0    0    0  0.00000000000E+00  0.00000000000E+00  0.45593999997E+02  0.45594000000E+02  0.51100000000E-03 0. -1.
         11   -1    0    0    0    0 -0.00000000000E+00 -0.00000000000E+00 -0.45593999997E+02  0.45594000000E+02  0.51100000000E-03 0.  1.
    9900012    2    1    2    0    0  0.33058978652E+02  0.14861964513E+02  0.18422581560E+02  0.50528861174E+02  0.30000004024E+02 0.  0.
        -12    1    1    2    0    0 -0.33058978652E+02 -0.14861964513E+02 -0.18422581560E+02  0.40659138826E+02  0.00000000000E+00 0.  1.
         11    1    3    3    0    0  0.30439475288E+02  0.50255029079E+01  0.73731618762E+01  0.31720353901E+02  0.51100000000E-03 0. -1.
        -11    1    3    3    0    0  0.46494765500E+01  0.11194440798E+02  0.10995435998E+02  0.16365596537E+02  0.51100000000E-03 0.  1.
        -12    1    3    3    0    0 -0.20299731858E+01 -0.13579791932E+01  0.53983686656E-01  0.24429107357E+01  0.00000000000E+00 0.  1.
</event>
<event>
 7    1  0.5068291E-011  0.5052887E+02  0.7816164E-02  0.1300439E+00
        -11   -1    0    0    0    0  0.00000000000E+00  0.00000000000E+00  0.45593999997E+02  0.45594000000E+02  0.51100000000E-03 0.  1.
         11   -1    0    0    0    0 -0.00000000000E+00 -0.00000000000E+00 -0.45593999997E+02  0.45594000000E+02  0.51100000000E-03 0. -1.
    9900012    2    1    2    0    0 -0.28790007469E+02  0.28522069288E+02 -0.32850659706E+01  0.50528872796E+02  0.30000039352E+02 0.  0.
        -12    1    1    2    0    0  0.28790007469E+02 -0.28522069288E+02  0.32850659706E+01  0.40659127204E+02  0.00000000000E+00 0.  1.
         11    1    3    3    0    0  0.19979327232E+01  0.20429220011E+01 -0.80079005076E-01  0.28586147655E+01  0.51100000000E-03 0. -1.
        -11    1    3    3    0    0 -0.29619510902E+02  0.11862747114E+02  0.23432060742E+01  0.31992668068E+02  0.51100000000E-03 0.  1.
        -12    1    3    3    0    0 -0.11684292902E+01  0.14616400174E+02 -0.55481930397E+01  0.15677589963E+02  0.00000000000E+00 0.  1.
</event>
<event>
 7    1  0.5068291E-011  0.5052886E+02  0.7816164E-02  0.1300439E+00
        -11   -1    0    0    0    0  0.00000000000E+00  0.00000000000E+00  0.45593999997E+02  0.45594000000E+02  0.51100000000E-03 0.  1.
         11   -1    0    0    0    0 -0.00000000000E+00 -0.00000000000E+00 -0.45593999997E+02  0.45594000000E+02  0.51100000000E-03 0. -1.
    9900012    2    1    2    0    0 -0.29969833081E+02  0.19728737467E+02 -0.19124630894E+02  0.50528862235E+02  0.30000007250E+02 0.  0.
        -12    1    1    2    0    0  0.29969833081E+02 -0.19728737467E+02  0.19124630894E+02  0.40659137765E+02  0.00000000000E+00 0.  1.
         11    1    3    3    0    0 -0.14885213664E+02  0.21993748435E+02 -0.18347884806E+02  0.32279086622E+02  0.51100000000E-03 0. -1.
        -11    1    3    3    0    0 -0.15642402407E+02 -0.93462686770E+00 -0.26423200427E+01  0.15891511442E+02  0.51100000000E-03 0.  1.
         12    1    3    3    0    0  0.55778298955E+00 -0.13303841004E+01  0.18655739552E+01  0.23582641710E+01  0.00000000000E+00 0. -1.
</event>
<event>
 7    1  0.5068291E-011  0.5052889E+02  0.7816164E-02  0.1300439E+00
        -11   -1    0    0    0    0  0.00000000000E+00  0.00000000000E+00  0.45593999997E+02  0.45594000000E+02  0.51100000000E-03 0.  1.
         11   -1    0    0    0    0 -0.00000000000E+00 -0.00000000000E+00 -0.45593999997E+02  0.45594000000E+02  0.51100000000E-03 0. -1.
    9900012    2    1    2    0    0 -0.86483053162E+01 -0.96473228789E+01 -0.38539581982E+02  0.50528887824E+02  0.30000085030E+02 0.  0.
        -12    1    1    2    0    0  0.86483053162E+01  0.96473228789E+01  0.38539581982E+02  0.40659112176E+02  0.00000000000E+00 0.  1.
         11    1    3    3    0    0 -0.82390261967E+01 -0.87220838587E+01 -0.19426629185E+02  0.22833094868E+02  0.51100000000E-03 0. -1.
        -11    1    3    3    0    0  0.87280628579E+01  0.29548257549E+01 -0.51271562996E+01  0.10545037149E+02  0.51100000000E-03 0.  1.
        -12    1    3    3    0    0 -0.91373419773E+01 -0.38800647751E+01 -0.13985796497E+02  0.17150755807E+02  0.00000000000E+00 0.  1.
</event>
<event>
 7    1  0.5068291E-011  0.5052891E+02  0.7816164E-02  0.1300439E+00
        -11   -1    0    0    0    0  0.00000000000E+00  0.00000000000E+00  0.45593999997E+02  0.45594000000E+02  0.51100000000E-03 0.  1.
         11   -1    0    0    0    0 -0.00000000000E+00 -0.00000000000E+00 -0.45593999997E+02  0.45594000000E+02  0.51100000000E-03 0. -1.
    9900012    2    1    2    0    0 -0.83344016199E+01  0.27563952782E+02 -0.28704148730E+02  0.50528906335E+02  0.30000141296E+02 0.  0.
        -12    1    1    2    0    0  0.83344016199E+01 -0.27563952782E+02  0.28704148730E+02  0.40659093665E+02  0.00000000000E+00 0.  1.
         11    1    3    3    0    0 -0.63444198875E+01  0.18342141166E+02 -0.32402570906E+02  0.37770523002E+02  0.51100000000E-03 0. -1.
        -11    1    3    3    0    0  0.14234446066E+01  0.85472994938E+01  0.20300667910E+01  0.88996457582E+01  0.51100000000E-03 0.  1.
        -12    1    3    3    0    0 -0.34134263390E+01  0.67451212232E+00  0.16683553857E+01  0.38587375743E+01  0.00000000000E+00 0.  1.
</event>
<event>
 7    1  0.5068291E-011  0.5052885E+02  0.7816164E-02  0.1300439E+00
        -11   -1    0    0    0    0  0.00000000000E+00  0.00000000000E+00  0.45593999997E+02  0.45594000000E+02  0.51100000000E-03 0. -1.
         11   -1    0    0    0    0 -0.00000000000E+00 -0.00000000000E+00 -0.45593999997E+02  0.45594000000E+02  0.51100000000E-03 0.  1.
    9900012    2    1    2    0    0  0.43498725203E+01  0.31794788779E+02  0.24966701883E+02  0.50528853583E+02  0.29999980951E+02 0.  0.
        -12    1    1    2    0    0 -0.43498725203E+01 -0.31794788779E+02 -0.24966701883E+02  0.40659146417E+02  0.00000000000E+00 0.  1.
         11    1    3    3    0    0  0.13693905508E+02  0.16430147193E+02  0.16801739400E+02  0.27198735853E+02  0.51100000000E-03 0. -1.
        -11    1    3    3    0    0  0.18974633933E+00  0.18567470809E+01 -0.28906624269E+01  0.34408491573E+01  0.51100000000E-03 0.  1.
         12    1    3    3    0    0 -0.95337793274E+01  0.13507894505E+02  0.11055624909E+02  0.19889268573E+02  0.00000000000E+00 0. -1.
</event>
<event>
 7    1  0.5068291E-011  0.5052886E+02  0.7816164E-02  0.1300439E+00
        -11   -1    0    0    0    0  0.00000000000E+00  0.00000000000E+00  0.45593999997E+02  0.45594000000E+02  0.51100000000E-03 0.  1.
         11   -1    0    0    0    0 -0.00000000000E+00 -0.00000000000E+00 -0.45593999997E+02  0.45594000000E+02  0.51100000000E-03 0. -1.
    9900012    2    1    2    0    0 -0.17701571429E+02 -0.32691616103E+02  0.16464452255E+02  0.50528861021E+02  0.30000003558E+02 0.  0.
        -12    1    1    2    0    0  0.17701571429E+02  0.32691616103E+02 -0.16464452255E+02  0.40659138979E+02  0.00000000000E+00 0.  1.
         11    1    3    3    0    0 -0.35346539280E+01 -0.13604065084E+02 -0.30520831784E+01  0.14383308980E+02  0.51100000000E-03 0. -1.
        -11    1    3    3    0    0  0.24994811582E+01 -0.73539714159E+01  0.12253247682E+02  0.14507597343E+02  0.51100000000E-03 0.  1.
        -12    1    3    3    0    0 -0.16666398659E+02 -0.11733579603E+02  0.72632877509E+01  0.21637954698E+02  0.00000000000E+00 0.  1.
</event>
<event>
 7    1  0.5068291E-011  0.5052886E+02  0.7816164E-02  0.1300439E+00
        -11   -1    0    0    0    0  0.00000000000E+00  0.00000000000E+00  0.45593999997E+02  0.45594000000E+02  0.51100000000E-03 0.  1.
         11   -1    0    0    0    0 -0.00000000000E+00 -0.00000000000E+00 -0.45593999997E+02  0.45594000000E+02  0.51100000000E-03 0. -1.
    9900012    2    1    2    0    0  0.32992795827E+02  0.14216742842E+02 -0.19040093333E+02  0.50528861941E+02  0.30000006357E+02 0.  0.
        -12    1    1    2    0    0 -0.32992795827E+02 -0.14216742842E+02  0.19040093333E+02  0.40659138059E+02  0.00000000000E+00 0.  1.
         11    1    3    3    0    0  0.19133843048E+02 -0.16759030924E+01 -0.18650307918E+02  0.26772123312E+02  0.51100000000E-03 0. -1.
        -11    1    3    3    0    0  0.90922522981E+01  0.54300624744E+01  0.41789201478E+01  0.11384990303E+02  0.51100000000E-03 0.  1.
         12    1    3    3    0    0  0.47667004817E+01  0.10462583460E+02 -0.45687055628E+01  0.12371748327E+02  0.00000000000E+00 0. -1.
</event>
<event>
 7    1  0.5068291E-011  0.5052887E+02  0.7816164E-02  0.1300439E+00
        -11   -1    0    0    0    0  0.00000000000E+00  0.00000000000E+00  0.45593999997E+02  0.45594000000E+02  0.51100000000E-03 0. -1.
         11   -1    0    0    0    0 -0.00000000000E+00 -0.00000000000E+00 -0.45593999997E+02  0.45594000000E+02  0.51100000000E-03 0.  1.
    9900012    2    1    2    0    0  0.64339329547E+01  0.68966588621E+01  0.39550036053E+02  0.50528871277E+02  0.30000034732E+02 0.  0.
        -12    1    1    2    0    0 -0.64339329547E+01 -0.68966588621E+01 -0.39550036053E+02  0.40659128723E+02  0.00000000000E+00 0.  1.
         11    1    3    3    0    0 -0.28344018653E+01  0.69692152244E+01  0.72237609673E+00  0.75581493942E+01  0.51100000000E-03 0.  1.
        -11    1    3    3    0    0  0.37249792100E+01 -0.60745801925E+01  0.30434507916E+02  0.31257563357E+02  0.51100000000E-03 0. -1.
         12    1    3    3    0    0  0.55433556099E+01  0.60020238302E+01  0.83931520402E+01  0.11713158526E+02  0.00000000000E+00 0. -1.
</event>
<event>
 7    1  0.5068291E-011  0.5052882E+02  0.7816164E-02  0.1300439E+00
        -11   -1    0    0    0    0  0.00000000000E+00  0.00000000000E+00  0.45593999997E+02  0.45594000000E+02  0.51100000000E-03 0.  1.
         11   -1    0    0    0    0 -0.00000000000E+00 -0.00000000000E+00 -0.45593999997E+02  0.45594000000E+02  0.51100000000E-03 0. -1.
    9900012    2    1    2    0    0 -0.37746243645E+02 -0.14764359143E+01 -0.15040286746E+02  0.50528819023E+02  0.29999875903E+02 0.  0.
        -12    1    1    2    0    0  0.37746243645E+02  0.14764359143E+01  0.15040286746E+02  0.40659180977E+02  0.00000000000E+00 0.  1.
         11    1    3    3    0    0 -0.23899980569E+02 -0.11154356964E+02 -0.18490089007E+01  0.26439508026E+02  0.51100000000E-03 0. -1.
        -11    1    3    3    0    0 -0.10788040583E+02  0.12041923682E+02 -0.95416087013E+01  0.18773173478E+02  0.51100000000E-03 0.  1.
        -12    1    3    3    0    0 -0.30582224929E+01 -0.23640026321E+01 -0.36496691444E+01  0.53161375193E+01  0.00000000000E+00 0.  1.
</event>
<event>
 7    1  0.5068291E-011  0.5052886E+02  0.7816164E-02  0.1300439E+00
        -11   -1    0    0    0    0  0.00000000000E+00  0.00000000000E+00  0.45593999997E+02  0.45594000000E+02  0.51100000000E-03 0.  1.
         11   -1    0    0    0    0 -0.00000000000E+00 -0.00000000000E+00 -0.45593999997E+02  0.45594000000E+02  0.51100000000E-03 0. -1.
    9900012    2    1    2    0    0 -0.33311615443E+01 -0.21185845723E+02 -0.34543146325E+02  0.50528860138E+02  0.30000000877E+02 0.  0.
        -12    1    1    2    0    0  0.33311615443E+01  0.21185845723E+02  0.34543146325E+02  0.40659139862E+02  0.00000000000E+00 0.  1.
         11    1    3    3    0    0 -0.80436568243E+00 -0.10629734468E+02 -0.15996333086E+02  0.19222927235E+02  0.51100000000E-03 0. -1.
        -11    1    3    3    0    0  0.90831423340E+01 -0.79273954744E+01 -0.44395289788E+01  0.12847431318E+02  0.51100000000E-03 0.  1.
        -12    1    3    3    0    0 -0.11609938196E+02 -0.26287157808E+01 -0.14107284260E+02  0.18458501585E+02  0.00000000000E+00 0.  1.
</event>
<event>
 7    1  0.5068291E-011  0.5052887E+02  0.7816164E-02  0.1300439E+00
        -11   -1    0    0    0    0  0.00000000000E+00  0.00000000000E+00  0.45593999997E+02  0.45594000000E+02  0.51100000000E-03 0. -1.
         11   -1    0    0    0    0 -0.00000000000E+00 -0.00000000000E+00 -0.45593999997E+02  0.45594000000E+02  0.51100000000E-03 0.  1.
    9900012    2    1    2    0    0  0.56050409570E+01 -0.16303696126E+02  0.36823065104E+02  0.50528866768E+02  0.30000021029E+02 0.  0.
        -12    1    1    2    0    0 -0.56050409570E+01  0.16303696126E+02 -0.36823065104E+02  0.40659133232E+02  0.00000000000E+00 0.  1.
         11    1    3    3    0    0  0.14751482779E+02 -0.34733059120E+01  0.17800107177E+02  0.23377637048E+02  0.51100000000E-03 0. -1.
        -11    1    3    3    0    0 -0.53055587823E+01 -0.85117310122E+01  0.18869638703E+02  0.21369646320E+02  0.51100000000E-03 0.  1.
         12    1    3    3    0    0 -0.38408830401E+01 -0.43186592021E+01  0.15331922395E+00  0.57815834004E+01  0.00000000000E+00 0. -1.
</event>
<event>
 7    1  0.5068291E-011  0.5052886E+02  0.7816164E-02  0.1300439E+00
        -11   -1    0    0    0    0  0.00000000000E+00  0.00000000000E+00  0.45593999997E+02  0.45594000000E+02  0.51100000000E-03 0. -1.
         11   -1    0    0    0    0 -0.00000000000E+00 -0.00000000000E+00 -0.45593999997E+02  0.45594000000E+02  0.51100000000E-03 0.  1.
    9900012    2    1    2    0    0  0.31557825559E+02 -0.24431798498E+02 -0.77689370503E+01  0.50528861854E+02  0.30000006092E+02 0.  0.
        -12    1    1    2    0    0 -0.31557825559E+02  0.24431798498E+02  0.77689370503E+01  0.40659138146E+02  0.00000000000E+00 0.  1.
         11    1    3    3    0    0  0.18596609178E+02 -0.11575085934E+02  0.10314782563E+01  0.21928986182E+02  0.51100000000E-03 0. -1.
        -11    1    3    3    0    0 -0.16645783434E+00 -0.10955018897E+02 -0.10562529502E+02  0.15218645701E+02  0.51100000000E-03 0.  1.
        -12    1    3    3    0    0  0.13127674215E+02 -0.19016936682E+01  0.17621141956E+01  0.13381229971E+02  0.00000000000E+00 0.  1.
</event>
<event>
 7    1  0.5068291E-011  0.5052887E+02  0.7816164E-02  0.1300439E+00
        -11   -1    0    0    0    0  0.00000000000E+00  0.00000000000E+00  0.45593999997E+02  0.45594000000E+02  0.51100000000E-03 0.  1.
         11   -1    0    0    0    0 -0.00000000000E+00 -0.00000000000E+00 -0.45593999997E+02  0.45594000000E+02  0.51100000000E-03 0. -1.
    9900012    2    1    2    0    0 -0.18200274188E+02  0.36338306980E+02 -0.12009143868E+01  0.50528871504E+02  0.30000035422E+02 0.  0.
        -12    1    1    2    0    0  0.18200274188E+02 -0.36338306980E+02  0.12009143868E+01  0.40659128496E+02  0.00000000000E+00 0.  1.
         11    1    3    3    0    0 -0.11247490733E+02  0.34185968845E+01 -0.23943625884E+01  0.11996908974E+02  0.51100000000E-03 0. -1.
        -11    1    3    3    0    0  0.12160297152E+00  0.31071746161E+02 -0.27983559328E+00  0.31073244198E+02  0.51100000000E-03 0.  1.
        -12    1    3    3    0    0 -0.70743864265E+01  0.18479639350E+01  0.14732837949E+01  0.74587183321E+01  0.00000000000E+00 0.  1.
</event>
<event>
 7    1  0.5068291E-011  0.5052886E+02  0.7816164E-02  0.1300439E+00
        -11   -1    0    0    0    0  0.00000000000E+00  0.00000000000E+00  0.45593999997E+02  0.45594000000E+02  0.51100000000E-03 0.  1.
         11   -1    0    0    0    0 -0.00000000000E+00 -0.00000000000E+00 -0.45593999997E+02  0.45594000000E+02  0.51100000000E-03 0. -1.
    9900012    2    1    2    0    0 -0.94908854630E+00  0.20111228303E+02 -0.35324264058E+02  0.50528857066E+02  0.29999991537E+02 0.  0.
        -12    1    1    2    0    0  0.94908854630E+00 -0.20111228303E+02  0.35324264058E+02  0.40659142934E+02  0.00000000000E+00 0.  1.
         11    1    3    3    0    0  0.21356202139E+01  0.14961258124E+02 -0.89482276576E+01  0.17563339569E+02  0.51100000000E-03 0. -1.
        -11    1    3    3    0    0  0.67629387535E+01 -0.11344681750E+01 -0.15731775693E+02  0.17161384715E+02  0.51100000000E-03 0.  1.
        -12    1    3    3    0    0 -0.98476475137E+01  0.62844383536E+01 -0.10644260708E+02  0.15804132782E+02  0.00000000000E+00 0.  1.
</event>
<event>
 7    1  0.8521435E-011  0.5052886E+02  0.7816164E-02  0.1300439E+00
        -11   -1    0    0    0    0  0.00000000000E+00  0.00000000000E+00  0.45593999997E+02  0.45594000000E+02  0.51100000000E-03 0.  1.
         11   -1    0    0    0    0 -0.00000000000E+00 -0.00000000000E+00 -0.45593999997E+02  0.45594000000E+02  0.51100000000E-03 0. -1.
    9900012    2    1    2    0    0 -0.31485149787E+02  0.25698083884E+02 -0.12082332130E+01  0.50528855888E+02  0.29999987958E+02 0.  0.
        -12    1    1    2    0    0  0.31485149787E+02 -0.25698083884E+02  0.12082332130E+01  0.40659144112E+02  0.00000000000E+00 0.  1.
         11    1    3    3    0    0 -0.24832370928E+02  0.76131369912E+01  0.49441241328E+01  0.26439570050E+02  0.51100000000E-03 0. -1.
        -11    1    3    3    0    0  0.12775385774E+01  0.36187390051E+01 -0.65452111440E+01  0.75873029454E+01  0.51100000000E-03 0.  1.
         12    1    3    3    0    0 -0.79303174365E+01  0.14466207888E+02  0.39285379819E+00  0.16501982893E+02  0.00000000000E+00 0. -1.
</event>
<event>
 7    1  0.5068291E-011  0.5052886E+02  0.7816164E-02  0.1300439E+00
        -11   -1    0    0    0    0  0.00000000000E+00  0.00000000000E+00  0.45593999997E+02  0.45594000000E+02  0.51100000000E-03 0. -1.
         11   -1    0    0    0    0 -0.00000000000E+00 -0.00000000000E+00 -0.45593999997E+02  0.45594000000E+02  0.51100000000E-03 0.  1.
    9900012    2    1    2    0    0 -0.23108956476E+02 -0.33453105556E+02  0.17688843927E+00  0.50528862893E+02  0.30000009251E+02 0.  0.
        -12    1    1    2    0    0  0.23108956476E+02  0.33453105556E+02 -0.17688843927E+00  0.40659137107E+02  0.00000000000E+00 0.  1.
         11    1    3    3    0    0  0.25221474943E+01 -0.41676872009E+01  0.49222115227E+01  0.69252444811E+01  0.51100000000E-03 0. -1.
        -11    1    3    3    0    0 -0.20755427348E+02 -0.31606894831E+02 -0.52704047270E+01  0.38178013719E+02  0.51100000000E-03 0.  1.
        -12    1    3    3    0    0 -0.48756766227E+01  0.23214764763E+01  0.52508164356E+00  0.54256046936E+01  0.00000000000E+00 0.  1.
</event>
<event>
 7    1  0.5068291E-011  0.5052886E+02  0.7816164E-02  0.1300439E+00
        -11   -1    0    0    0    0  0.00000000000E+00  0.00000000000E+00  0.45593999997E+02  0.45594000000E+02  0.51100000000E-03 0.  1.
         11   -1    0    0    0    0 -0.00000000000E+00 -0.00000000000E+00 -0.45593999997E+02  0.45594000000E+02  0.51100000000E-03 0. -1.
    9900012    2    1    2    0    0 -0.21760016681E+02 -0.16454159784E+02  0.30148431014E+02  0.50528860895E+02  0.30000003176E+02 0.  0.
        -12    1    1    2    0    0  0.21760016681E+02  0.16454159784E+02 -0.30148431014E+02  0.40659139105E+02  0.00000000000E+00 0.  1.
         11    1    3    3    0    0 -0.13437378984E+02 -0.10242972656E+02  0.69657768931E+01  0.18275767858E+02  0.51100000000E-03 0. -1.
        -11    1    3    3    0    0 -0.47004584999E+01 -0.28947933274E+01  0.26007926545E+02  0.26587334991E+02  0.51100000000E-03 0.  1.
        -12    1    3    3    0    0 -0.36221791970E+01 -0.33163937998E+01 -0.28252724235E+01  0.56657580462E+01  0.00000000000E+00 0.  1.
</event>
<event>
 7    1  0.5068291E-011  0.5052887E+02  0.7816164E-02  0.1300439E+00
        -11   -1    0    0    0    0  0.00000000000E+00  0.00000000000E+00  0.45593999997E+02  0.45594000000E+02  0.51100000000E-03 0.  1.
         11   -1    0    0    0    0 -0.00000000000E+00 -0.00000000000E+00 -0.45593999997E+02  0.45594000000E+02  0.51100000000E-03 0. -1.
    9900012    2    1    2    0    0 -0.62010196497E+01  0.23711749409E+02 -0.32441723988E+02  0.50528866216E+02  0.30000019352E+02 0.  0.
        -12    1    1    2    0    0  0.62010196497E+01 -0.23711749409E+02  0.32441723988E+02  0.40659133784E+02  0.00000000000E+00 0.  1.
         11    1    3    3    0    0 -0.41481680826E+00  0.89538615705E+01 -0.15868649851E+02  0.18225195701E+02  0.51100000000E-03 0. -1.
        -11    1    3    3    0    0 -0.17155127728E+01  0.13350830871E+02  0.16656877197E+01  0.13563266010E+02  0.51100000000E-03 0.  1.
        -12    1    3    3    0    0 -0.40706900686E+01  0.14070569675E+01 -0.18238761857E+02  0.18740404505E+02  0.00000000000E+00 0.  1.
</event>
<event>
 7    1  0.5068291E-011  0.5052886E+02  0.7816164E-02  0.1300439E+00
        -11   -1    0    0    0    0  0.00000000000E+00  0.00000000000E+00  0.45593999997E+02  0.45594000000E+02  0.51100000000E-03 0. -1.
         11   -1    0    0    0    0 -0.00000000000E+00 -0.00000000000E+00 -0.45593999997E+02  0.45594000000E+02  0.51100000000E-03 0.  1.
    9900012    2    1    2    0    0  0.79411130095E+01  0.38255424352E+02  0.11252848991E+02  0.50528863529E+02  0.30000011183E+02 0.  0.
        -12    1    1    2    0    0 -0.79411130095E+01 -0.38255424352E+02 -0.11252848991E+02  0.40659136471E+02  0.00000000000E+00 0.  1.
         11    1    3    3    0    0  0.24492343081E+01  0.82655911173E+01 -0.81330782347E+01  0.11851822942E+02  0.51100000000E-03 0. -1.
        -11    1    3    3    0    0 -0.44630911490E+01  0.12770580146E+02  0.68149544350E+01  0.15147623711E+02  0.51100000000E-03 0.  1.
         12    1    3    3    0    0  0.99549698503E+01  0.17219253088E+02  0.12570972790E+02  0.23529416876E+02  0.00000000000E+00 0. -1.
</event>
<event>
 7    1  0.5068291E-011  0.5052887E+02  0.7816164E-02  0.1300439E+00
        -11   -1    0    0    0    0  0.00000000000E+00  0.00000000000E+00  0.45593999997E+02  0.45594000000E+02  0.51100000000E-03 0.  1.
         11   -1    0    0    0    0 -0.00000000000E+00 -0.00000000000E+00 -0.45593999997E+02  0.45594000000E+02  0.51100000000E-03 0. -1.
    9900012    2    1    2    0    0  0.27490708581E+02 -0.17940985021E+02 -0.23990564970E+02  0.50528865609E+02  0.30000017505E+02 0.  0.
        -12    1    1    2    0    0 -0.27490708581E+02  0.17940985021E+02  0.23990564970E+02  0.40659134391E+02  0.00000000000E+00 0.  1.
         11    1    3    3    0    0  0.21799793746E+02 -0.13405057160E+02 -0.69093646693E+01  0.26507845730E+02  0.51100000000E-03 0. -1.
        -11    1    3    3    0    0  0.80712998292E+01  0.96686806682E+00 -0.15974889435E+02  0.17924224042E+02  0.51100000000E-03 0.  1.
        -12    1    3    3    0    0 -0.23803849941E+01 -0.55027959283E+01 -0.11063108656E+01  0.60967958372E+01  0.00000000000E+00 0.  1.
</event>
<event>
 7    1  0.5068291E-011  0.5052882E+02  0.7816164E-02  0.1300439E+00
        -11   -1    0    0    0    0  0.00000000000E+00  0.00000000000E+00  0.45593999997E+02  0.45594000000E+02  0.51100000000E-03 0.  1.
         11   -1    0    0    0    0 -0.00000000000E+00 -0.00000000000E+00 -0.45593999997E+02  0.45594000000E+02  0.51100000000E-03 0. -1.
    9900012    2    1    2    0    0 -0.31784503261E+02  0.57677942116E+01 -0.24691019848E+02  0.50528824421E+02  0.29999892310E+02 0.  0.
        -12    1    1    2    0    0  0.31784503261E+02 -0.57677942116E+01  0.24691019848E+02  0.40659175579E+02  0.00000000000E+00 0.  1.
         11    1    3    3    0    0 -0.13501510115E+02 -0.21014035501E+01 -0.30356062931E+01  0.13997198938E+02  0.51100000000E-03 0. -1.
        -11    1    3    3    0    0 -0.66616824476E+01  0.41888632625E+01 -0.22960731184E+02  0.24271789494E+02  0.51100000000E-03 0.  1.
        -12    1    3    3    0    0 -0.11621310698E+02  0.36803344992E+01  0.13053176292E+01  0.12259835989E+02  0.00000000000E+00 0.  1.
</event>
<event>
 7    1  0.5068291E-011  0.5052886E+02  0.7816164E-02  0.1300439E+00
        -11   -1    0    0    0    0  0.00000000000E+00  0.00000000000E+00  0.45593999997E+02  0.45594000000E+02  0.51100000000E-03 0.  1.
         11   -1    0    0    0    0 -0.00000000000E+00 -0.00000000000E+00 -0.45593999997E+02  0.45594000000E+02  0.51100000000E-03 0. -1.
    9900012    2    1    2    0    0  0.14925272951E+02 -0.18190783449E+02 -0.33158663381E+02  0.50528864097E+02  0.30000012909E+02 0.  0.
        -12    1    1    2    0    0 -0.14925272951E+02  0.18190783449E+02  0.33158663381E+02  0.40659135903E+02  0.00000000000E+00 0.  1.
         11    1    3    3    0    0  0.14919969374E+02 -0.19643271955E+02 -0.15402013262E+02  0.29080674545E+02  0.51100000000E-03 0. -1.
        -11    1    3    3    0    0  0.14636940460E+01  0.65549367234E+01 -0.95527596689E+01  0.11677534554E+02  0.51100000000E-03 0.  1.
         12    1    3    3    0    0 -0.14583904682E+01 -0.51024482181E+01 -0.82038904497E+01  0.97706549978E+01  0.00000000000E+00 0. -1.
</event>
<event>
 7    1  0.5068291E-011  0.5052886E+02  0.7816164E-02  0.1300439E+00
        -11   -1    0    0    0    0  0.00000000000E+00  0.00000000000E+00  0.45593999997E+02  0.45594000000E+02  0.51100000000E-03 0.  1.
         11   -1    0    0    0    0 -0.00000000000E+00 -0.00000000000E+00 -0.45593999997E+02  0.45594000000E+02  0.51100000000E-03 0. -1.
    9900012    2    1    2    0    0  0.66510339714E+01  0.22888387848E+02 -0.32940119390E+02  0.50528855683E+02  0.29999987334E+02 0.  0.
        -12    1    1    2    0    0 -0.66510339714E+01 -0.22888387848E+02  0.32940119390E+02  0.40659144317E+02  0.00000000000E+00 0.  1.
         11    1    3    3    0    0  0.23814569245E+01  0.14478568338E+02  0.12647075600E+01  0.14727517227E+02  0.51100000000E-03 0. -1.
        -11    1    3    3    0    0  0.44428265817E+01  0.41203582239E+01 -0.16322147004E+02  0.17410587095E+02  0.51100000000E-03 0.  1.
         12    1    3    3    0    0 -0.17324953482E+00  0.42894612854E+01 -0.17882679946E+02  0.18390751360E+02  0.00000000000E+00 0. -1.
</event>
<event>
 7    1  0.5068291E-011  0.5052885E+02  0.7816164E-02  0.1300439E+00
        -11   -1    0    0    0    0  0.00000000000E+00  0.00000000000E+00  0.45593999997E+02  0.45594000000E+02  0.51100000000E-03 0.  1.
         11   -1    0    0    0    0 -0.00000000000E+00 -0.00000000000E+00 -0.45593999997E+02  0.45594000000E+02  0.51100000000E-03 0. -1.
    9900012    2    1    2    0    0  0.12269657692E+02 -0.15865765038E+02 -0.35368057602E+02  0.50528849755E+02  0.29999969315E+02 0.  0.
        -12    1    1    2    0    0 -0.12269657692E+02  0.15865765038E+02  0.35368057602E+02  0.40659150245E+02  0.00000000000E+00 0.  1.
         11    1    3    3    0    0  0.12856017370E+02 -0.10743423112E+02 -0.28710408228E+02  0.33241327646E+02  0.51100000000E-03 0. -1.
        -11    1    3    3    0    0 -0.65852895920E+01  0.11652606348E+01 -0.52099660645E+01  0.84774771018E+01  0.51100000000E-03 0.  1.
        -12    1    3    3    0    0  0.59989299137E+01 -0.62876025603E+01 -0.14476833097E+01  0.88100450073E+01  0.00000000000E+00 0.  1.
</event>
<event>
 7    1  0.5068291E-011  0.5052887E+02  0.7816164E-02  0.1300439E+00
        -11   -1    0    0    0    0  0.00000000000E+00  0.00000000000E+00  0.45593999997E+02  0.45594000000E+02  0.51100000000E-03 0. -1.
         11   -1    0    0    0    0 -0.00000000000E+00 -0.00000000000E+00 -0.45593999997E+02  0.45594000000E+02  0.51100000000E-03 0.  1.
    9900012    2    1    2    0    0  0.21584036432E+02  0.15491434851E+02  0.30778391090E+02  0.50528873835E+02  0.30000042508E+02 0.  0.
        -12    1    1    2    0    0 -0.21584036432E+02 -0.15491434851E+02 -0.30778391090E+02  0.40659126165E+02  0.00000000000E+00 0.  1.
         11    1    3    3    0    0  0.11034333874E+02  0.12727416267E+02 -0.29094392650E+00  0.16847204442E+02  0.51100000000E-03 0. -1.
        -11    1    3    3    0    0  0.21717551501E+01 -0.10747011770E+01  0.14684131569E+02  0.14882715587E+02  0.51100000000E-03 0.  1.
         12    1    3    3    0    0  0.83779474080E+01  0.38387197610E+01  0.16385203447E+02  0.18798953805E+02  0.00000000000E+00 0. -1.
</event>
<event>
 7    1  0.5068291E-011  0.5052886E+02  0.7816164E-02  0.1300439E+00
        -11   -1    0    0    0    0  0.00000000000E+00  0.00000000000E+00  0.45593999997E+02  0.45594000000E+02  0.51100000000E-03 0. -1.
         11   -1    0    0    0    0 -0.00000000000E+00 -0.00000000000E+00 -0.45593999997E+02  0.45594000000E+02  0.51100000000E-03 0.  1.
    9900012    2    1    2    0    0 -0.13600435886E+02  0.32115493853E+02 -0.20899497289E+02  0.50528858486E+02  0.29999995853E+02 0.  0.
        -12    1    1    2    0    0  0.13600435886E+02 -0.32115493853E+02  0.20899497289E+02  0.40659141514E+02  0.00000000000E+00 0.  1.
         11    1    3    3    0    0  0.57670183444E+00  0.24120697126E+01 -0.58501114906E+01  0.63540908097E+01  0.51100000000E-03 0.  1.
        -11    1    3    3    0    0 -0.83043950170E+01  0.29017893695E+02 -0.24804047198E+01  0.30284542904E+02  0.51100000000E-03 0. -1.
        -12    1    3    3    0    0 -0.58727427033E+01  0.68553044595E+00 -0.12568981079E+02  0.13890224772E+02  0.00000000000E+00 0.  1.
</event>
<event>
 7    1  0.5068291E-011  0.5052888E+02  0.7816164E-02  0.1300439E+00
        -11   -1    0    0    0    0  0.00000000000E+00  0.00000000000E+00  0.45593999997E+02  0.45594000000E+02  0.51100000000E-03 0.  1.
         11   -1    0    0    0    0 -0.00000000000E+00 -0.00000000000E+00 -0.45593999997E+02  0.45594000000E+02  0.51100000000E-03 0. -1.
    9900012    2    1    2    0    0 -0.25138764204E+02 -0.30359572898E+02  0.99751223342E+01  0.50528878049E+02  0.30000055318E+02 0.  0.
        -12    1    1    2    0    0  0.25138764204E+02  0.30359572898E+02 -0.99751223342E+01  0.40659121951E+02  0.00000000000E+00 0.  1.
         11    1    3    3    0    0 -0.92032449491E+01 -0.19895465936E+01 -0.77515020941E+01  0.12196056667E+02  0.51100000000E-03 0. -1.
        -11    1    3    3    0    0 -0.74917878043E+01 -0.13095363901E+02  0.13793468092E+02  0.20441996049E+02  0.51100000000E-03 0.  1.
         12    1    3    3    0    0 -0.84437314505E+01 -0.15274662403E+02  0.39331563362E+01  0.17890825333E+02  0.00000000000E+00 0. -1.
</event>
<event>
 7    1  0.5068291E-011  0.5052886E+02  0.7816164E-02  0.1300439E+00
        -11   -1    0    0    0    0  0.00000000000E+00  0.00000000000E+00  0.45593999997E+02  0.45594000000E+02  0.51100000000E-03 0.  1.
         11   -1    0    0    0    0 -0.00000000000E+00 -0.00000000000E+00 -0.45593999997E+02  0.45594000000E+02  0.51100000000E-03 0. -1.
    9900012    2    1    2    0    0 -0.40614246669E+02 -0.18880699587E+01  0.28965883446E+00  0.50528859049E+02  0.29999997566E+02 0.  0.
        -12    1    1    2    0    0  0.40614246669E+02  0.18880699587E+01 -0.28965883446E+00  0.40659140951E+02  0.00000000000E+00 0.  1.
         11    1    3    3    0    0 -0.76006049162E+01  0.17333678162E+01 -0.26605964776E+01  0.82372648954E+01  0.51100000000E-03 0. -1.
        -11    1    3    3    0    0 -0.14585238113E+02 -0.48712456885E+01  0.13976704781E+02  0.20779953853E+02  0.51100000000E-03 0.  1.
        -12    1    3    3    0    0 -0.18428403640E+02  0.12498079136E+01 -0.11026449469E+02  0.21511640300E+02  0.00000000000E+00 0.  1.
</event>
<event>
 7    1  0.5068291E-011  0.5052887E+02  0.7816164E-02  0.1300439E+00
        -11   -1    0    0    0    0  0.00000000000E+00  0.00000000000E+00  0.45593999997E+02  0.45594000000E+02  0.51100000000E-03 0.  1.
         11   -1    0    0    0    0 -0.00000000000E+00 -0.00000000000E+00 -0.45593999997E+02  0.45594000000E+02  0.51100000000E-03 0. -1.
    9900012    2    1    2    0    0 -0.50579218687E+01 -0.11264093663E+02 -0.38738897121E+02  0.50528873966E+02  0.30000042908E+02 0.  0.
        -12    1    1    2    0    0  0.50579218687E+01  0.11264093663E+02  0.38738897121E+02  0.40659126034E+02  0.00000000000E+00 0.  1.
         11    1    3    3    0    0  0.51208331459E+01 -0.14631760922E+02 -0.29207406833E+02  0.33066357132E+02  0.51100000000E-03 0. -1.
        -11    1    3    3    0    0  0.12547759506E+01  0.28196662684E+01 -0.12293172333E+01  0.33220779150E+01  0.51100000000E-03 0.  1.
         12    1    3    3    0    0 -0.11433530965E+02  0.54800099000E+00 -0.83021730542E+01  0.14140438920E+02  0.00000000000E+00 0. -1.
</event>
<event>
 7    1  0.5068291E-011  0.5052883E+02  0.7816164E-02  0.1300439E+00
        -11   -1    0    0    0    0  0.00000000000E+00  0.00000000000E+00  0.45593999997E+02  0.45594000000E+02  0.51100000000E-03 0.  1.
         11   -1    0    0    0    0 -0.00000000000E+00 -0.00000000000E+00 -0.45593999997E+02  0.45594000000E+02  0.51100000000E-03 0. -1.
    9900012    2    1    2    0    0  0.76433681846E+01 -0.25337019772E+02 -0.30867167869E+02  0.50528834977E+02  0.29999924396E+02 0.  0.
        -12    1    1    2    0    0 -0.76433681846E+01  0.25337019772E+02  0.30867167869E+02  0.40659165023E+02  0.00000000000E+00 0.  1.
         11    1    3    3    0    0  0.76763040611E+01 -0.80886055006E+01  0.29220061844E+01  0.11527762289E+02  0.51100000000E-03 0.  1.
        -11    1    3    3    0    0 -0.24241657810E+00  0.75531161085E+00 -0.96228786334E-01  0.79907550786E+00  0.51100000000E-03 0. -1.
         12    1    3    3    0    0  0.20948070156E+00 -0.18003725883E+02 -0.33692945267E+02  0.38201997180E+02  0.00000000000E+00 0. -1.
</event>
<event>
 7    1  0.5068291E-011  0.5052887E+02  0.7816164E-02  0.1300439E+00
        -11   -1    0    0    0    0  0.00000000000E+00  0.00000000000E+00  0.45593999997E+02  0.45594000000E+02  0.51100000000E-03 0.  1.
         11   -1    0    0    0    0 -0.00000000000E+00 -0.00000000000E+00 -0.45593999997E+02  0.45594000000E+02  0.51100000000E-03 0. -1.
    9900012    2    1    2    0    0  0.19203667206E+02  0.20578382705E+02 -0.29341336928E+02  0.50528871608E+02  0.30000035739E+02 0.  0.
        -12    1    1    2    0    0 -0.19203667206E+02 -0.20578382705E+02  0.29341336928E+02  0.40659128392E+02  0.00000000000E+00 0.  1.
         11    1    3    3    0    0  0.26064007008E+02  0.18878613044E+02 -0.25090402052E+02  0.40807631237E+02  0.51100000000E-03 0. -1.
        -11    1    3    3    0    0 -0.74899103272E+01  0.14184466243E+01 -0.28111750450E+01  0.81248663331E+01  0.51100000000E-03 0.  1.
        -12    1    3    3    0    0  0.62957052508E+00  0.28132303653E+00 -0.14397598312E+01  0.15963740378E+01  0.00000000000E+00 0.  1.
</event>
<event>
 7    1  0.5068291E-011  0.5052885E+02  0.7816164E-02  0.1300439E+00
        -11   -1    0    0    0    0  0.00000000000E+00  0.00000000000E+00  0.45593999997E+02  0.45594000000E+02  0.51100000000E-03 0.  1.
         11   -1    0    0    0    0 -0.00000000000E+00 -0.00000000000E+00 -0.45593999997E+02  0.45594000000E+02  0.51100000000E-03 0. -1.
    9900012    2    1    2    0    0 -0.14364069015E+02 -0.31151484374E+02 -0.21827165163E+02  0.50528848553E+02  0.29999965661E+02 0.  0.
        -12    1    1    2    0    0  0.14364069015E+02  0.31151484374E+02  0.21827165163E+02  0.40659151447E+02  0.00000000000E+00 0.  1.
         11    1    3    3    0    0 -0.12564736453E+02 -0.22662298991E+02 -0.26037870754E+02  0.36734494843E+02  0.51100000000E-03 0. -1.
        -11    1    3    3    0    0 -0.53208053278E+01 -0.24146219597E+01  0.33096725505E+01  0.67153035075E+01  0.51100000000E-03 0.  1.
        -12    1    3    3    0    0  0.35214727665E+01 -0.60745634234E+01  0.90103304067E+00  0.70790502026E+01  0.00000000000E+00 0.  1.
</event>
<event>
 7    1  0.5068291E-011  0.5052886E+02  0.7816164E-02  0.1300439E+00
        -11   -1    0    0    0    0  0.00000000000E+00  0.00000000000E+00  0.45593999997E+02  0.45594000000E+02  0.51100000000E-03 0. -1.
         11   -1    0    0    0    0 -0.00000000000E+00 -0.00000000000E+00 -0.45593999997E+02  0.45594000000E+02  0.51100000000E-03 0.  1.
    9900012    2    1    2    0    0  0.31544158004E+02  0.25442638164E+02 -0.32869600882E+01  0.50528857762E+02  0.29999993653E+02 0.  0.
        -12    1    1    2    0    0 -0.31544158004E+02 -0.25442638164E+02  0.32869600882E+01  0.40659142238E+02  0.00000000000E+00 0.  1.
         11    1    3    3    0    0  0.26012775584E+02  0.95156522976E+01 -0.25531009060E+00  0.27699771041E+02  0.51100000000E-03 0. -1.
        -11    1    3    3    0    0  0.13610391387E+01  0.16504299645E+02  0.15187211643E+01  0.16629818055E+02  0.51100000000E-03 0.  1.
        -12    1    3    3    0    0  0.41703432816E+01 -0.57731377800E+00 -0.45503711620E+01  0.61992686663E+01  0.00000000000E+00 0.  1.
</event>
<event>
 7    1  0.5068291E-011  0.5052886E+02  0.7816164E-02  0.1300439E+00
        -11   -1    0    0    0    0  0.00000000000E+00  0.00000000000E+00  0.45593999997E+02  0.45594000000E+02  0.51100000000E-03 0. -1.
         11   -1    0    0    0    0 -0.00000000000E+00 -0.00000000000E+00 -0.45593999997E+02  0.45594000000E+02  0.51100000000E-03 0.  1.
    9900012    2    1    2    0    0  0.12454825978E+02 -0.34876319833E+02  0.16783480274E+02  0.50528860986E+02  0.30000003454E+02 0.  0.
        -12    1    1    2    0    0 -0.12454825978E+02  0.34876319833E+02 -0.16783480274E+02  0.40659139014E+02  0.00000000000E+00 0.  1.
         11    1    3    3    0    0 -0.68175614640E+00 -0.27495678776E+02  0.76336699473E+01  0.28543827002E+02  0.51100000000E-03 0. -1.
        -11    1    3    3    0    0  0.89728867348E+01  0.13460311326E+01  0.62533051128E+00  0.90948081165E+01  0.51100000000E-03 0.  1.
         12    1    3    3    0    0  0.41636953896E+01 -0.87266721897E+01  0.85244798154E+01  0.12890225868E+02  0.00000000000E+00 0. -1.
</event>
<event>
 7    1  0.5068291E-011  0.5052886E+02  0.7816164E-02  0.1300439E+00
        -11   -1    0    0    0    0  0.00000000000E+00  0.00000000000E+00  0.45593999997E+02  0.45594000000E+02  0.51100000000E-03 0.  1.
         11   -1    0    0    0    0 -0.00000000000E+00 -0.00000000000E+00 -0.45593999997E+02  0.45594000000E+02  0.51100000000E-03 0. -1.
    9900012    2    1    2    0    0 -0.17678341031E+02 -0.26990827979E+02 -0.24741403424E+02  0.50528861052E+02  0.30000003653E+02 0.  0.
        -12    1    1    2    0    0  0.17678341031E+02  0.26990827979E+02  0.24741403424E+02  0.40659138948E+02  0.00000000000E+00 0.  1.
         11    1    3    3    0    0 -0.10997365747E+02 -0.24808743777E+02 -0.18848754212E+02  0.33040752969E+02  0.51100000000E-03 0. -1.
        -11    1    3    3    0    0 -0.13411305444E+01  0.23630209960E+01  0.43178343290E+01  0.51015872940E+01  0.51100000000E-03 0.  1.
        -12    1    3    3    0    0 -0.53398447404E+01 -0.45451051985E+01 -0.10210483541E+02  0.12386520789E+02  0.00000000000E+00 0.  1.
</event>
<event>
 7    1  0.5068291E-011  0.5052886E+02  0.7816164E-02  0.1300439E+00
        -11   -1    0    0    0    0  0.00000000000E+00  0.00000000000E+00  0.45593999997E+02  0.45594000000E+02  0.51100000000E-03 0.  1.
         11   -1    0    0    0    0 -0.00000000000E+00 -0.00000000000E+00 -0.45593999997E+02  0.45594000000E+02  0.51100000000E-03 0. -1.
    9900012    2    1    2    0    0  0.33879590130E+02  0.20989795939E+02  0.80478271909E+01  0.50528859780E+02  0.29999999786E+02 0.  0.
        -12    1    1    2    0    0 -0.33879590130E+02 -0.20989795939E+02 -0.80478271909E+01  0.40659140220E+02  0.00000000000E+00 0.  1.
         11    1    3    3    0    0  0.29710078488E+02  0.15779644561E+02 -0.36854532252E+01  0.33841816026E+02  0.51100000000E-03 0. -1.
        -11    1    3    3    0    0 -0.76164496936E+00  0.65760315809E+01  0.53867200836E+01  0.85346967100E+01  0.51100000000E-03 0.  1.
         12    1    3    3    0    0  0.49311566119E+01 -0.13658802028E+01  0.63465603325E+01  0.81523470432E+01  0.00000000000E+00 0. -1.
</event>
<event>
 7    1  0.5068291E-011  0.5052886E+02  0.7816164E-02  0.1300439E+00
        -11   -1    0    0    0    0  0.00000000000E+00  0.00000000000E+00  0.45593999997E+02  0.45594000000E+02  0.51100000000E-03 0.  1.
         11   -1    0    0    0    0 -0.00000000000E+00 -0.00000000000E+00 -0.45593999997E+02  0.45594000000E+02  0.51100000000E-03 0. -1.
    9900012    2    1    2    0    0 -0.14133851763E+02  0.37766979844E+02 -0.52014742605E+01  0.50528857527E+02  0.29999992938E+02 0.  0.
        -12    1    1    2    0    0  0.14133851763E+02 -0.37766979844E+02  0.52014742605E+01  0.40659142473E+02  0.00000000000E+00 0.  1.
         11    1    3    3    0    0 -0.92588862928E+01  0.15712026953E+02 -0.46712929554E+01  0.18825932766E+02  0.51100000000E-03 0. -1.
        -11    1    3    3    0    0  0.31348326002E+01  0.21314832497E+02  0.47751752978E+01  0.22066978932E+02  0.51100000000E-03 0.  1.
        -12    1    3    3    0    0 -0.80097980705E+01  0.74012039341E+00 -0.53053566030E+01  0.96359458286E+01  0.00000000000E+00 0.  1.
</event>
<event>
 7    1  0.5068291E-011  0.5052887E+02  0.7816164E-02  0.1300439E+00
        -11   -1    0    0    0    0  0.00000000000E+00  0.00000000000E+00  0.45593999997E+02  0.45594000000E+02  0.51100000000E-03 0.  1.
         11   -1    0    0    0    0 -0.00000000000E+00 -0.00000000000E+00 -0.45593999997E+02  0.45594000000E+02  0.51100000000E-03 0. -1.
    9900012    2    1    2    0    0 -0.15986221170E+02  0.17975160976E+02 -0.32779557193E+02  0.50528867579E+02  0.30000023495E+02 0.  0.
        -12    1    1    2    0    0  0.15986221170E+02 -0.17975160976E+02  0.32779557193E+02  0.40659132421E+02  0.00000000000E+00 0.  1.
         11    1    3    3    0    0 -0.48070207862E+01  0.19353587637E+02 -0.11497678271E+02  0.23018805555E+02  0.51100000000E-03 0. -1.
        -11    1    3    3    0    0 -0.35010631753E+01 -0.56065945341E+01 -0.30481830827E+01  0.72789261566E+01  0.51100000000E-03 0.  1.
         12    1    3    3    0    0 -0.76781372086E+01  0.42281678724E+01 -0.18233695840E+02  0.20231135868E+02  0.00000000000E+00 0. -1.
</event>
<event>
 7    1  0.5068291E-011  0.5052886E+02  0.7816164E-02  0.1300439E+00
        -11   -1    0    0    0    0  0.00000000000E+00  0.00000000000E+00  0.45593999997E+02  0.45594000000E+02  0.51100000000E-03 0.  1.
         11   -1    0    0    0    0 -0.00000000000E+00 -0.00000000000E+00 -0.45593999997E+02  0.45594000000E+02  0.51100000000E-03 0. -1.
    9900012    2    1    2    0    0 -0.83229995596E+01 -0.93978194224E+01 -0.38672661395E+02  0.50528855014E+02  0.29999985301E+02 0.  0.
        -12    1    1    2    0    0  0.83229995596E+01  0.93978194224E+01  0.38672661395E+02  0.40659144986E+02  0.00000000000E+00 0.  1.
         11    1    3    3    0    0  0.63161745606E+01 -0.43284153785E+01 -0.81632749278E+01  0.11192332133E+02  0.51100000000E-03 0. -1.
        -11    1    3    3    0    0 -0.15116195821E+02 -0.11112521355E+02 -0.23454820852E+02  0.30035248100E+02  0.51100000000E-03 0.  1.
        -12    1    3    3    0    0  0.47702170069E+00  0.60431173108E+01 -0.70545656159E+01  0.93012747817E+01  0.00000000000E+00 0.  1.
</event>
<event>
 7    1  0.5068291E-011  0.5052886E+02  0.7816164E-02  0.1300439E+00
        -11   -1    0    0    0    0  0.00000000000E+00  0.00000000000E+00  0.45593999997E+02  0.45594000000E+02  0.51100000000E-03 0.  1.
         11   -1    0    0    0    0 -0.00000000000E+00 -0.00000000000E+00 -0.45593999997E+02  0.45594000000E+02  0.51100000000E-03 0. -1.
    9900012    2    1    2    0    0 -0.61948130528E+01 -0.25151543513E+02 -0.31339907206E+02  0.50528860394E+02  0.30000001654E+02 0.  0.
        -12    1    1    2    0    0  0.61948130528E+01  0.25151543513E+02  0.31339907206E+02  0.40659139606E+02  0.00000000000E+00 0.  1.
         11    1    3    3    0    0 -0.97702045487E+01 -0.20269695138E+02 -0.21573029068E+02  0.31172311774E+02  0.51100000000E-03 0. -1.
        -11    1    3    3    0    0  0.49590527721E+01  0.40116096157E+01 -0.79189842740E+01  0.10168359174E+02  0.51100000000E-03 0.  1.
        -12    1    3    3    0    0 -0.13836612763E+01 -0.88934579907E+01 -0.18478938639E+01  0.91881894458E+01  0.00000000000E+00 0.  1.
</event>
<event>
 7    1  0.5068291E-011  0.5052883E+02  0.7816164E-02  0.1300439E+00
        -11   -1    0    0    0    0  0.00000000000E+00  0.00000000000E+00  0.45593999997E+02  0.45594000000E+02  0.51100000000E-03 0.  1.
         11   -1    0    0    0    0 -0.00000000000E+00 -0.00000000000E+00 -0.45593999997E+02  0.45594000000E+02  0.51100000000E-03 0. -1.
    9900012    2    1    2    0    0  0.65904019444E+01  0.28890906078E+01 -0.40017346170E+02  0.50528828380E+02  0.29999904344E+02 0.  0.
        -12    1    1    2    0    0 -0.65904019444E+01 -0.28890906078E+01  0.40017346170E+02  0.40659171620E+02  0.00000000000E+00 0.  1.
         11    1    3    3    0    0  0.43997653001E+01  0.13651296191E+02 -0.34832256474E+02  0.37669641805E+02  0.51100000000E-03 0. -1.
        -11    1    3    3    0    0  0.29201308924E+01 -0.71722296330E+01 -0.19832938950E+01  0.79938412089E+01  0.51100000000E-03 0.  1.
         12    1    3    3    0    0 -0.72949424812E+00 -0.35899759501E+01 -0.32017958007E+01  0.48653453659E+01  0.00000000000E+00 0. -1.
</event>
<event>
 7    1  0.5068291E-011  0.5052886E+02  0.7816164E-02  0.1300439E+00
        -11   -1    0    0    0    0  0.00000000000E+00  0.00000000000E+00  0.45593999997E+02  0.45594000000E+02  0.51100000000E-03 0. -1.
         11   -1    0    0    0    0 -0.00000000000E+00 -0.00000000000E+00 -0.45593999997E+02  0.45594000000E+02  0.51100000000E-03 0.  1.
    9900012    2    1    2    0    0  0.11165965649E+00  0.20688366854E+02  0.35002067936E+02  0.50528858952E+02  0.29999997271E+02 0.  0.
        -12    1    1    2    0    0 -0.11165965649E+00 -0.20688366854E+02 -0.35002067936E+02  0.40659141048E+02  0.00000000000E+00 0.  1.
         11    1    3    3    0    0  0.53865478485E+01  0.18140936553E+02  0.12039369681E+02  0.22428885378E+02  0.51100000000E-03 0. -1.
        -11    1    3    3    0    0 -0.69787231088E+01 -0.43684156577E+01  0.16684627900E+02  0.18605441140E+02  0.51100000000E-03 0.  1.
        -12    1    3    3    0    0  0.17038349169E+01  0.69158459589E+01  0.62780703550E+01  0.94945324337E+01  0.00000000000E+00 0.  1.
</event>
<event>
 7    1  0.5068291E-011  0.5052887E+02  0.7816164E-02  0.1300439E+00
        -11   -1    0    0    0    0  0.00000000000E+00  0.00000000000E+00  0.45593999997E+02  0.45594000000E+02  0.51100000000E-03 0. -1.
         11   -1    0    0    0    0 -0.00000000000E+00 -0.00000000000E+00 -0.45593999997E+02  0.45594000000E+02  0.51100000000E-03 0.  1.
    9900012    2    1    2    0    0  0.67385932068E+01 -0.39636161616E+02  0.60606345609E+01  0.50528865266E+02  0.30000016461E+02 0.  0.
        -12    1    1    2    0    0 -0.67385932068E+01  0.39636161616E+02 -0.60606345609E+01  0.40659134734E+02  0.00000000000E+00 0.  1.
         11    1    3    3    0    0  0.93469188391E-01 -0.59227393519E+01  0.17802675822E+01  0.61852187387E+01  0.51100000000E-03 0. -1.
        -11    1    3    3    0    0 -0.78972021613E+00 -0.32965688924E+02 -0.39689950958E+01  0.33213148399E+02  0.51100000000E-03 0.  1.
        -12    1    3    3    0    0  0.74348442346E+01 -0.74773334065E+00  0.82493620745E+01  0.11130498128E+02  0.00000000000E+00 0.  1.
</event>
<event>
 7    1  0.5068291E-011  0.5052886E+02  0.7816164E-02  0.1300439E+00
        -11   -1    0    0    0    0  0.00000000000E+00  0.00000000000E+00  0.45593999997E+02  0.45594000000E+02  0.51100000000E-03 0.  1.
         11   -1    0    0    0    0 -0.00000000000E+00 -0.00000000000E+00 -0.45593999997E+02  0.45594000000E+02  0.51100000000E-03 0. -1.
    9900012    2    1    2    0    0 -0.29798464268E+02 -0.12566451247E+02 -0.24643480808E+02  0.50528864298E+02  0.30000013521E+02 0.  0.
        -12    1    1    2    0    0  0.29798464268E+02  0.12566451247E+02  0.24643480808E+02  0.40659135702E+02  0.00000000000E+00 0.  1.
         11    1    3    3    0    0 -0.12269225310E+02 -0.21520766102E+01  0.94547095001E+00  0.12492367230E+02  0.51100000000E-03 0. -1.
        -11    1    3    3    0    0 -0.14731657724E+02  0.49887109414E+00 -0.21466162632E+02  0.26039714861E+02  0.51100000000E-03 0.  1.
        -12    1    3    3    0    0 -0.27975812344E+01 -0.10913245730E+02 -0.41227891259E+01  0.11996782207E+02  0.00000000000E+00 0.  1.
</event>
<event>
 7    1  0.5068291E-011  0.5052885E+02  0.7816164E-02  0.1300439E+00
        -11   -1    0    0    0    0  0.00000000000E+00  0.00000000000E+00  0.45593999997E+02  0.45594000000E+02  0.51100000000E-03 0. -1.
         11   -1    0    0    0    0 -0.00000000000E+00 -0.00000000000E+00 -0.45593999997E+02  0.45594000000E+02  0.51100000000E-03 0.  1.
    9900012    2    1    2    0    0 -0.36581100136E+02  0.14564456861E+02  0.10142284161E+02  0.50528853197E+02  0.29999979776E+02 0.  0.
        -12    1    1    2    0    0  0.36581100136E+02 -0.14564456861E+02 -0.10142284161E+02  0.40659146803E+02  0.00000000000E+00 0.  1.
         11    1    3    3    0    0 -0.12504894169E+02  0.32461860520E+01  0.18301038588E+02  0.22401743587E+02  0.51100000000E-03 0. -1.
        -11    1    3    3    0    0 -0.18345333423E+02  0.68770220148E+01 -0.68800125178E+01  0.20764856433E+02  0.51100000000E-03 0.  1.
         12    1    3    3    0    0 -0.57308725436E+01  0.44412487939E+01 -0.12787419096E+01  0.73622531763E+01  0.00000000000E+00 0. -1.
</event>
<event>
 7    1  0.5755628E-011  0.5052886E+02  0.7816164E-02  0.1300439E+00
        -11   -1    0    0    0    0  0.00000000000E+00  0.00000000000E+00  0.45593999997E+02  0.45594000000E+02  0.51100000000E-03 0.  1.
         11   -1    0    0    0    0 -0.00000000000E+00 -0.00000000000E+00 -0.45593999997E+02  0.45594000000E+02  0.51100000000E-03 0. -1.
    9900012    2    1    2    0    0  0.31118414921E+02  0.20537911009E+02  0.16217394731E+02  0.50528862925E+02  0.30000009348E+02 0.  0.
        -12    1    1    2    0    0 -0.31118414921E+02 -0.20537911009E+02 -0.16217394731E+02  0.40659137075E+02  0.00000000000E+00 0.  1.
         11    1    3    3    0    0  0.29765178879E+02  0.85210674750E+01  0.97070506880E+01  0.32446899666E+02  0.51100000000E-03 0. -1.
        -11    1    3    3    0    0 -0.29657190244E+01 -0.32171873966E+00 -0.82082262098E+00  0.30939848602E+01  0.51100000000E-03 0.  1.
         12    1    3    3    0    0  0.43189550665E+01  0.12338562274E+02  0.73311666637E+01  0.14987978399E+02  0.00000000000E+00 0. -1.
</event>
<event>
 7    1  0.5068291E-011  0.5052892E+02  0.7816164E-02  0.1300439E+00
        -11   -1    0    0    0    0  0.00000000000E+00  0.00000000000E+00  0.45593999997E+02  0.45594000000E+02  0.51100000000E-03 0.  1.
         11   -1    0    0    0    0 -0.00000000000E+00 -0.00000000000E+00 -0.45593999997E+02  0.45594000000E+02  0.51100000000E-03 0. -1.
    9900012    2    1    2    0    0 -0.18718400005E+02  0.34103895466E+02 -0.11819753133E+02  0.50528920462E+02  0.30000184236E+02 0.  0.
        -12    1    1    2    0    0  0.18718400005E+02 -0.34103895466E+02  0.11819753133E+02  0.40659079538E+02  0.00000000000E+00 0.  1.
         11    1    3    3    0    0 -0.16321743204E+02  0.34409928881E+02 -0.79484976094E+01  0.38905283977E+02  0.51100000000E-03 0. -1.
        -11    1    3    3    0    0 -0.36220385553E+01  0.99334700086E+00  0.28209498933E+01  0.46971970495E+01  0.51100000000E-03 0.  1.
         12    1    3    3    0    0  0.12253817534E+01 -0.12993804161E+01 -0.66922054173E+01  0.69264394356E+01  0.00000000000E+00 0. -1.
</event>
<event>
 7    1  0.5068291E-011  0.5052887E+02  0.7816164E-02  0.1300439E+00
        -11   -1    0    0    0    0  0.00000000000E+00  0.00000000000E+00  0.45593999997E+02  0.45594000000E+02  0.51100000000E-03 0.  1.
         11   -1    0    0    0    0 -0.00000000000E+00 -0.00000000000E+00 -0.45593999997E+02  0.45594000000E+02  0.51100000000E-03 0. -1.
    9900012    2    1    2    0    0  0.94801933643E+01 -0.18719486780E+02 -0.34826307337E+02  0.50528868993E+02  0.30000027790E+02 0.  0.
        -12    1    1    2    0    0 -0.94801933643E+01  0.18719486780E+02  0.34826307337E+02  0.40659131007E+02  0.00000000000E+00 0.  1.
         11    1    3    3    0    0  0.68918644339E+01 -0.13612293901E+02 -0.19383024093E+02  0.24667670418E+02  0.51100000000E-03 0. -1.
        -11    1    3    3    0    0 -0.75430433014E+01  0.22298515747E+01 -0.83905125442E+01  0.11500888718E+02  0.51100000000E-03 0.  1.
         12    1    3    3    0    0  0.10131372232E+02 -0.73370444538E+01 -0.70527707001E+01  0.14360309856E+02  0.00000000000E+00 0. -1.
</event>
<event>
 7    1  0.5068291E-011  0.5052889E+02  0.7816164E-02  0.1300439E+00
        -11   -1    0    0    0    0  0.00000000000E+00  0.00000000000E+00  0.45593999997E+02  0.45594000000E+02  0.51100000000E-03 0.  1.
         11   -1    0    0    0    0 -0.00000000000E+00 -0.00000000000E+00 -0.45593999997E+02  0.45594000000E+02  0.51100000000E-03 0. -1.
    9900012    2    1    2    0    0  0.12191337837E+02  0.38009340739E+02  0.77346220175E+01  0.50528891803E+02  0.30000097123E+02 0.  0.
        -12    1    1    2    0    0 -0.12191337837E+02 -0.38009340739E+02 -0.77346220175E+01  0.40659108197E+02  0.00000000000E+00 0.  1.
         11    1    3    3    0    0  0.15495159982E+00  0.13480307201E+02 -0.44819356712E+01  0.14206704046E+02  0.51100000000E-03 0. -1.
        -11    1    3    3    0    0 -0.35022946186E+01  0.10684667654E+02  0.10592206976E+02  0.15447428244E+02  0.51100000000E-03 0.  1.
        -12    1    3    3    0    0  0.15538680856E+02  0.13844365884E+02  0.16243507129E+01  0.20874759513E+02  0.00000000000E+00 0.  1.
</event>
<event>
 7    1  0.6714087E-011  0.5052887E+02  0.7816164E-02  0.1300439E+00
        -11   -1    0    0    0    0  0.00000000000E+00  0.00000000000E+00  0.45593999997E+02  0.45594000000E+02  0.51100000000E-03 0. -1.
         11   -1    0    0    0    0 -0.00000000000E+00 -0.00000000000E+00 -0.45593999997E+02  0.45594000000E+02  0.51100000000E-03 0.  1.
    9900012    2    1    2    0    0 -0.31508623725E+02 -0.25625606915E+02 -0.19234217200E+01  0.50528872489E+02  0.30000038418E+02 0.  0.
        -12    1    1    2    0    0  0.31508623725E+02  0.25625606915E+02  0.19234217200E+01  0.40659127511E+02  0.00000000000E+00 0.  1.
         11    1    3    3    0    0 -0.12295669282E+02 -0.11117294688E+02  0.91922072172E+01  0.18954535026E+02  0.51100000000E-03 0. -1.
        -11    1    3    3    0    0 -0.51775610887E+00 -0.52058026709E+01 -0.92276137945E+01  0.10607417661E+02  0.51100000000E-03 0.  1.
         12    1    3    3    0    0 -0.18695198334E+02 -0.93025095566E+01 -0.18880151427E+01  0.20966919802E+02  0.00000000000E+00 0. -1.
</event>
<event>
 7    1  0.5068291E-011  0.5052886E+02  0.7816164E-02  0.1300439E+00
        -11   -1    0    0    0    0  0.00000000000E+00  0.00000000000E+00  0.45593999997E+02  0.45594000000E+02  0.51100000000E-03 0. -1.
         11   -1    0    0    0    0 -0.00000000000E+00 -0.00000000000E+00 -0.45593999997E+02  0.45594000000E+02  0.51100000000E-03 0.  1.
    9900012    2    1    2    0    0  0.16930359742E+02 -0.25151230157E+02 -0.27091403381E+02  0.50528860848E+02  0.30000003035E+02 0.  0.
        -12    1    1    2    0    0 -0.16930359742E+02  0.25151230157E+02  0.27091403381E+02  0.40659139152E+02  0.00000000000E+00 0.  1.
         11    1    3    3    0    0  0.59366592819E+01  0.13451293267E+01 -0.14600574883E+02  0.15818662507E+02  0.51100000000E-03 0.  1.
        -11    1    3    3    0    0 -0.41679726488E+00 -0.10296318641E+02  0.15555331201E+01  0.10421496105E+02  0.51100000000E-03 0. -1.
         12    1    3    3    0    0  0.11410497725E+02 -0.16200040843E+02 -0.14046361618E+02  0.24288702237E+02  0.00000000000E+00 0. -1.
</event>
<event>
 7    1  0.5068291E-011  0.5052887E+02  0.7816164E-02  0.1300439E+00
        -11   -1    0    0    0    0  0.00000000000E+00  0.00000000000E+00  0.45593999997E+02  0.45594000000E+02  0.51100000000E-03 0.  1.
         11   -1    0    0    0    0 -0.00000000000E+00 -0.00000000000E+00 -0.45593999997E+02  0.45594000000E+02  0.51100000000E-03 0. -1.
    9900012    2    1    2    0    0  0.58271681521E+01  0.32416976006E+02 -0.23840067631E+02  0.50528867611E+02  0.30000023590E+02 0.  0.
        -12    1    1    2    0    0 -0.58271681521E+01 -0.32416976006E+02  0.23840067631E+02  0.40659132389E+02  0.00000000000E+00 0.  1.
         11    1    3    3    0    0 -0.28288863925E+01  0.22042034354E+02 -0.18785974743E+02  0.29099256417E+02  0.51100000000E-03 0. -1.
        -11    1    3    3    0    0  0.13166067017E+02  0.63279992789E+01 -0.23562861195E+01  0.14796654355E+02  0.51100000000E-03 0.  1.
        -12    1    3    3    0    0 -0.45100124725E+01  0.40469423727E+01 -0.26978067676E+01  0.66329568388E+01  0.00000000000E+00 0.  1.
</event>
<event>
 7    1  0.5068291E-011  0.5052886E+02  0.7816164E-02  0.1300439E+00
        -11   -1    0    0    0    0  0.00000000000E+00  0.00000000000E+00  0.45593999997E+02  0.45594000000E+02  0.51100000000E-03 0.  1.
         11   -1    0    0    0    0 -0.00000000000E+00 -0.00000000000E+00 -0.45593999997E+02  0.45594000000E+02  0.51100000000E-03 0. -1.
    9900012    2    1    2    0    0  0.24471155534E+02 -0.24918949532E+02 -0.20817639423E+02  0.50528860682E+02  0.30000002530E+02 0.  0.
        -12    1    1    2    0    0 -0.24471155534E+02  0.24918949532E+02  0.20817639423E+02  0.40659139318E+02  0.00000000000E+00 0.  1.
         11    1    3    3    0    0 -0.42747157753E+01 -0.10063027463E+02 -0.40453683395E+01  0.11657732281E+02  0.51100000000E-03 0. -1.
        -11    1    3    3    0    0  0.11511996322E+02 -0.25606684504E+01  0.10963717324E+00  0.11793858690E+02  0.51100000000E-03 0.  1.
         12    1    3    3    0    0  0.17233874987E+02 -0.12295253619E+02 -0.16881908257E+02  0.27077269711E+02  0.00000000000E+00 0. -1.
</event>
<event>
 7    1  0.5068291E-011  0.5052886E+02  0.7816164E-02  0.1300439E+00
        -11   -1    0    0    0    0  0.00000000000E+00  0.00000000000E+00  0.45593999997E+02  0.45594000000E+02  0.51100000000E-03 0.  1.
         11   -1    0    0    0    0 -0.00000000000E+00 -0.00000000000E+00 -0.45593999997E+02  0.45594000000E+02  0.51100000000E-03 0. -1.
    9900012    2    1    2    0    0 -0.91862025169E+01 -0.22444693849E+01 -0.39544172248E+02  0.50528861811E+02  0.30000005960E+02 0.  0.
        -12    1    1    2    0    0  0.91862025169E+01  0.22444693849E+01  0.39544172248E+02  0.40659138189E+02  0.00000000000E+00 0.  1.
         11    1    3    3    0    0 -0.61325555133E+01  0.16839853255E+01 -0.93372176664E+01  0.11297242040E+02  0.51100000000E-03 0. -1.
        -11    1    3    3    0    0 -0.78786955920E+00 -0.67629884113E+01  0.17815491794E+01  0.70379449013E+01  0.51100000000E-03 0.  1.
        -12    1    3    3    0    0 -0.22657774444E+01  0.28345337010E+01 -0.31988503761E+02  0.32193674869E+02  0.00000000000E+00 0.  1.
</event>
<event>
 7    1  0.5068291E-011  0.5052883E+02  0.7816164E-02  0.1300439E+00
        -11   -1    0    0    0    0  0.00000000000E+00  0.00000000000E+00  0.45593999997E+02  0.45594000000E+02  0.51100000000E-03 0.  1.
         11   -1    0    0    0    0 -0.00000000000E+00 -0.00000000000E+00 -0.45593999997E+02  0.45594000000E+02  0.51100000000E-03 0. -1.
    9900012    2    1    2    0    0  0.15712580416E+02  0.10186609410E+02 -0.36090385789E+02  0.50528829558E+02  0.29999907925E+02 0.  0.
        -12    1    1    2    0    0 -0.15712580416E+02 -0.10186609410E+02  0.36090385789E+02  0.40659170442E+02  0.00000000000E+00 0.  1.
         11    1    3    3    0    0 -0.35174637689E+01  0.14386359508E+02 -0.13115553230E+02  0.19782760880E+02  0.51100000000E-03 0. -1.
        -11    1    3    3    0    0  0.11642883616E+02  0.13001237207E+00 -0.14213355047E+02  0.18373706867E+02  0.51100000000E-03 0.  1.
         12    1    3    3    0    0  0.75871605693E+01 -0.43297624707E+01 -0.87614775130E+01  0.12372361810E+02  0.00000000000E+00 0. -1.
</event>
<event>
 7    1  0.5068291E-011  0.5052887E+02  0.7816164E-02  0.1300439E+00
        -11   -1    0    0    0    0  0.00000000000E+00  0.00000000000E+00  0.45593999997E+02  0.45594000000E+02  0.51100000000E-03 0. -1.
         11   -1    0    0    0    0 -0.00000000000E+00 -0.00000000000E+00 -0.45593999997E+02  0.45594000000E+02  0.51100000000E-03 0.  1.
    9900012    2    1    2    0    0  0.16244600819E+02 -0.30038516991E+02  0.22067285905E+02  0.50528872291E+02  0.30000037817E+02 0.  0.
        -12    1    1    2    0    0 -0.16244600819E+02  0.30038516991E+02 -0.22067285905E+02  0.40659127709E+02  0.00000000000E+00 0.  1.
         11    1    3    3    0    0  0.18449940430E+02 -0.25855524507E+02  0.15058074593E+02  0.35151871360E+02  0.51100000000E-03 0. -1.
        -11    1    3    3    0    0  0.28477874309E+00  0.41023425192E+01  0.50391218530E+01  0.65040804414E+01  0.51100000000E-03 0.  1.
         12    1    3    3    0    0 -0.24901183546E+01 -0.82853350038E+01  0.19700894590E+01  0.88729204900E+01  0.00000000000E+00 0. -1.
</event>
<event>
 7    1  0.5068291E-011  0.5052888E+02  0.7816164E-02  0.1300439E+00
        -11   -1    0    0    0    0  0.00000000000E+00  0.00000000000E+00  0.45593999997E+02  0.45594000000E+02  0.51100000000E-03 0. -1.
         11   -1    0    0    0    0 -0.00000000000E+00 -0.00000000000E+00 -0.45593999997E+02  0.45594000000E+02  0.51100000000E-03 0.  1.
    9900012    2    1    2    0    0 -0.25692232878E+02  0.27249676970E+02  0.15828095111E+02  0.50528876545E+02  0.30000050747E+02 0.  0.
        -12    1    1    2    0    0  0.25692232878E+02 -0.27249676970E+02 -0.15828095111E+02  0.40659123455E+02  0.00000000000E+00 0.  1.
         11    1    3    3    0    0 -0.52029541373E+01  0.26408913206E+02  0.11790590625E+02  0.29385701558E+02  0.51100000000E-03 0. -1.
        -11    1    3    3    0    0 -0.50413065646E+01 -0.68858606727E+00  0.20796229429E+01  0.54967039666E+01  0.51100000000E-03 0.  1.
         12    1    3    3    0    0 -0.15447972176E+02  0.15293498310E+01  0.19578815429E+01  0.15646471021E+02  0.00000000000E+00 0. -1.
</event>
<event>
 7    1  0.5068291E-011  0.5052888E+02  0.7816164E-02  0.1300439E+00
        -11   -1    0    0    0    0  0.00000000000E+00  0.00000000000E+00  0.45593999997E+02  0.45594000000E+02  0.51100000000E-03 0. -1.
         11   -1    0    0    0    0 -0.00000000000E+00 -0.00000000000E+00 -0.45593999997E+02  0.45594000000E+02  0.51100000000E-03 0.  1.
    9900012    2    1    2    0    0 -0.58765159267E+01 -0.39784267668E+02  0.59869056117E+01  0.50528875168E+02  0.30000046561E+02 0.  0.
        -12    1    1    2    0    0  0.58765159267E+01  0.39784267668E+02 -0.59869056117E+01  0.40659124832E+02  0.00000000000E+00 0.  1.
         11    1    3    3    0    0 -0.69315988677E+01 -0.29016999438E+02  0.15468503152E+02  0.33605176822E+02  0.51100000000E-03 0. -1.
        -11    1    3    3    0    0 -0.33284151197E+01 -0.13338871865E+01 -0.29271319881E+01  0.46287907894E+01  0.51100000000E-03 0.  1.
         12    1    3    3    0    0  0.43834980606E+01 -0.94333810430E+01 -0.65544655517E+01  0.12294907556E+02  0.00000000000E+00 0. -1.
</event>
<event>
 7    1  0.5068291E-011  0.5052884E+02  0.7816164E-02  0.1300439E+00
        -11   -1    0    0    0    0  0.00000000000E+00  0.00000000000E+00  0.45593999997E+02  0.45594000000E+02  0.51100000000E-03 0.  1.
         11   -1    0    0    0    0 -0.00000000000E+00 -0.00000000000E+00 -0.45593999997E+02  0.45594000000E+02  0.51100000000E-03 0. -1.
    9900012    2    1    2    0    0  0.31617639557E+02  0.24210853568E+02  0.82052749754E+01  0.50528842371E+02  0.29999946872E+02 0.  0.
        -12    1    1    2    0    0 -0.31617639557E+02 -0.24210853568E+02 -0.82052749754E+01  0.40659157629E+02  0.00000000000E+00 0.  1.
         11    1    3    3    0    0  0.12605272702E+02 -0.43382892768E+01  0.65265106910E+01  0.14842809566E+02  0.51100000000E-03 0.  1.
        -11    1    3    3    0    0  0.12557036819E+01  0.66002519846E+00 -0.19652124935E+01  0.24237337735E+01  0.51100000000E-03 0. -1.
         12    1    3    3    0    0  0.17756663174E+02  0.27889117646E+02  0.36439767778E+01  0.33262299032E+02  0.00000000000E+00 0. -1.
</event>
<event>
 7    1  0.5068291E-011  0.5052884E+02  0.7816164E-02  0.1300439E+00
        -11   -1    0    0    0    0  0.00000000000E+00  0.00000000000E+00  0.45593999997E+02  0.45594000000E+02  0.51100000000E-03 0.  1.
         11   -1    0    0    0    0 -0.00000000000E+00 -0.00000000000E+00 -0.45593999997E+02  0.45594000000E+02  0.51100000000E-03 0. -1.
    9900012    2    1    2    0    0 -0.24857053734E+02  0.59697552812E+01 -0.31617335261E+02  0.50528843744E+02  0.29999951044E+02 0.  0.
        -12    1    1    2    0    0  0.24857053734E+02 -0.59697552812E+01  0.31617335261E+02  0.40659156256E+02  0.00000000000E+00 0.  1.
         11    1    3    3    0    0 -0.22747399868E+02  0.10182341089E+01 -0.35849149682E+02  0.42469312858E+02  0.51100000000E-03 0. -1.
        -11    1    3    3    0    0  0.11485479101E+01  0.16404365770E+01  0.22415609475E+01  0.30057927752E+01  0.51100000000E-03 0.  1.
         12    1    3    3    0    0 -0.32582017760E+01  0.33110845953E+01  0.19902534730E+01  0.50537381113E+01  0.00000000000E+00 0. -1.
</event>
<event>
 7    1  0.5068291E-011  0.5052887E+02  0.7816164E-02  0.1300439E+00
        -11   -1    0    0    0    0  0.00000000000E+00  0.00000000000E+00  0.45593999997E+02  0.45594000000E+02  0.51100000000E-03 0.  1.
         11   -1    0    0    0    0 -0.00000000000E+00 -0.00000000000E+00 -0.45593999997E+02  0.45594000000E+02  0.51100000000E-03 0. -1.
    9900012    2    1    2    0    0  0.33830941870E+01  0.53768726075E+01 -0.40159794734E+02  0.50528865745E+02  0.30000017918E+02 0.  0.
        -12    1    1    2    0    0 -0.33830941870E+01 -0.53768726075E+01  0.40159794734E+02  0.40659134255E+02  0.00000000000E+00 0.  1.
         11    1    3    3    0    0 -0.96707890903E+01 -0.32547256493E+01 -0.18291538279E+02  0.20945113358E+02  0.51100000000E-03 0. -1.
        -11    1    3    3    0    0  0.48621229605E+01  0.10192544262E+02 -0.15027848280E+02  0.18797989850E+02  0.51100000000E-03 0.  1.
        -12    1    3    3    0    0  0.81917603168E+01 -0.15609460050E+01 -0.68404081748E+01  0.10785762538E+02  0.00000000000E+00 0.  1.
</event>
<event>
 7    1  0.5068291E-011  0.5052887E+02  0.7816164E-02  0.1300439E+00
        -11   -1    0    0    0    0  0.00000000000E+00  0.00000000000E+00  0.45593999997E+02  0.45594000000E+02  0.51100000000E-03 0.  1.
         11   -1    0    0    0    0 -0.00000000000E+00 -0.00000000000E+00 -0.45593999997E+02  0.45594000000E+02  0.51100000000E-03 0. -1.
    9900012    2    1    2    0    0  0.32437586119E+02 -0.60245649241E+01 -0.23762832930E+02  0.50528873046E+02  0.30000040111E+02 0.  0.
        -12    1    1    2    0    0 -0.32437586119E+02  0.60245649241E+01  0.23762832930E+02  0.40659126954E+02  0.00000000000E+00 0.  1.
         11    1    3    3    0    0  0.25615282741E+02 -0.13578273202E+02 -0.16946078104E+02  0.33580973428E+02  0.51100000000E-03 0. -1.
        -11    1    3    3    0    0  0.27550097784E+01  0.64203234828E+01  0.19190515936E+01  0.72452323485E+01  0.51100000000E-03 0.  1.
         12    1    3    3    0    0  0.40672935999E+01  0.11333847952E+01 -0.87358064205E+01  0.97026672693E+01  0.00000000000E+00 0. -1.
</event>
<event>
 7    1  0.5068291E-011  0.5052887E+02  0.7816164E-02  0.1300439E+00
        -11   -1    0    0    0    0  0.00000000000E+00  0.00000000000E+00  0.45593999997E+02  0.45594000000E+02  0.51100000000E-03 0. -1.
         11   -1    0    0    0    0 -0.00000000000E+00 -0.00000000000E+00 -0.45593999997E+02  0.45594000000E+02  0.51100000000E-03 0.  1.
    9900012    2    1    2    0    0  0.25651367438E+02 -0.23400204550E+02  0.21156626769E+02  0.50528867192E+02  0.30000022317E+02 0.  0.
        -12    1    1    2    0    0 -0.25651367438E+02  0.23400204550E+02 -0.21156626769E+02  0.40659132808E+02  0.00000000000E+00 0.  1.
         11    1    3    3    0    0 -0.12362864760E+01 -0.10088115247E+02  0.11787102874E+02  0.15563877020E+02  0.51100000000E-03 0. -1.
        -11    1    3    3    0    0  0.13690423962E+02  0.48743217865E+00  0.76657730803E-02  0.13699100606E+02  0.51100000000E-03 0.  1.
        -12    1    3    3    0    0  0.13197229953E+02 -0.13799521481E+02  0.93618581225E+01  0.21265889566E+02  0.00000000000E+00 0.  1.
</event>
<event>
 7    1  0.5068291E-011  0.5052885E+02  0.7816164E-02  0.1300439E+00
        -11   -1    0    0    0    0  0.00000000000E+00  0.00000000000E+00  0.45593999997E+02  0.45594000000E+02  0.51100000000E-03 0.  1.
         11   -1    0    0    0    0 -0.00000000000E+00 -0.00000000000E+00 -0.45593999997E+02  0.45594000000E+02  0.51100000000E-03 0. -1.
    9900012    2    1    2    0    0  0.23227774852E+02 -0.31708979761E+02 -0.10400837172E+02  0.50528851756E+02  0.29999975396E+02 0.  0.
        -12    1    1    2    0    0 -0.23227774852E+02  0.31708979761E+02  0.10400837172E+02  0.40659148244E+02  0.00000000000E+00 0.  1.
         11    1    3    3    0    0  0.71521350321E+01 -0.27379911438E+02  0.29750715756E+01  0.28454589033E+02  0.51100000000E-03 0. -1.
        -11    1    3    3    0    0  0.14070701936E+02 -0.56456328981E+01 -0.11491297902E+02  0.19023873200E+02  0.51100000000E-03 0.  1.
         12    1    3    3    0    0  0.20049378842E+01  0.13165645752E+01 -0.18846108463E+01  0.30503895230E+01  0.00000000000E+00 0. -1.
</event>
<event>
 7    1  0.5068291E-011  0.5052886E+02  0.7816164E-02  0.1300439E+00
        -11   -1    0    0    0    0  0.00000000000E+00  0.00000000000E+00  0.45593999997E+02  0.45594000000E+02  0.51100000000E-03 0. -1.
         11   -1    0    0    0    0 -0.00000000000E+00 -0.00000000000E+00 -0.45593999997E+02  0.45594000000E+02  0.51100000000E-03 0.  1.
    9900012    2    1    2    0    0  0.37376261554E+02  0.14188484486E+02 -0.74072745551E+01  0.50528859133E+02  0.29999997819E+02 0.  0.
        -12    1    1    2    0    0 -0.37376261554E+02 -0.14188484486E+02  0.74072745551E+01  0.40659140867E+02  0.00000000000E+00 0.  1.
         11    1    3    3    0    0  0.23549252731E+02  0.42236149998E+01 -0.13617429692E+02  0.27528905164E+02  0.51100000000E-03 0. -1.
        -11    1    3    3    0    0 -0.21874019187E+00 -0.91887539183E+00  0.51103467446E+01  0.51969051721E+01  0.51100000000E-03 0.  1.
         12    1    3    3    0    0  0.14045749015E+02  0.10883744878E+02  0.10998083919E+01  0.17803048796E+02  0.00000000000E+00 0. -1.
</event>
<event>
 7    1  0.5068291E-011  0.5052886E+02  0.7816164E-02  0.1300439E+00
        -11   -1    0    0    0    0  0.00000000000E+00  0.00000000000E+00  0.45593999997E+02  0.45594000000E+02  0.51100000000E-03 0.  1.
         11   -1    0    0    0    0 -0.00000000000E+00 -0.00000000000E+00 -0.45593999997E+02  0.45594000000E+02  0.51100000000E-03 0. -1.
    9900012    2    1    2    0    0  0.37688902497E+02 -0.31753678740E+00 -0.15251606064E+02  0.50528859717E+02  0.29999999595E+02 0.  0.
        -12    1    1    2    0    0 -0.37688902497E+02  0.31753678740E+00  0.15251606064E+02  0.40659140283E+02  0.00000000000E+00 0.  1.
         11    1    3    3    0    0  0.28974087743E+02 -0.11383980439E+02 -0.59653236038E+01  0.31696653722E+02  0.51100000000E-03 0. -1.
        -11    1    3    3    0    0  0.97111836411E+01  0.11492080252E+02 -0.94031582088E+01  0.17742445739E+02  0.51100000000E-03 0.  1.
         12    1    3    3    0    0 -0.99636888750E+00 -0.42563660028E+00  0.11687574837E+00  0.10897602562E+01  0.00000000000E+00 0. -1.
</event>
<event>
 7    1  0.5068291E-011  0.5052886E+02  0.7816164E-02  0.1300439E+00
        -11   -1    0    0    0    0  0.00000000000E+00  0.00000000000E+00  0.45593999997E+02  0.45594000000E+02  0.51100000000E-03 0.  1.
         11   -1    0    0    0    0 -0.00000000000E+00 -0.00000000000E+00 -0.45593999997E+02  0.45594000000E+02  0.51100000000E-03 0. -1.
    9900012    2    1    2    0    0 -0.21921219874E+02 -0.31926024759E+02 -0.12383658295E+02  0.50528856742E+02  0.29999990554E+02 0.  0.
        -12    1    1    2    0    0  0.21921219874E+02  0.31926024759E+02  0.12383658295E+02  0.40659143258E+02  0.00000000000E+00 0.  1.
         11    1    3    3    0    0 -0.15882216649E+02 -0.92130523825E+01 -0.10800332374E+02  0.21301932296E+02  0.51100000000E-03 0. -1.
        -11    1    3    3    0    0 -0.13120161387E+01 -0.23942680233E+02 -0.29387763923E+01  0.24158015855E+02  0.51100000000E-03 0.  1.
         12    1    3    3    0    0 -0.47269870862E+01  0.12297078572E+01  0.13554504708E+01  0.50689085912E+01  0.00000000000E+00 0. -1.
</event>
<event>
 7    1  0.5068291E-011  0.5052889E+02  0.7816164E-02  0.1300439E+00
        -11   -1    0    0    0    0  0.00000000000E+00  0.00000000000E+00  0.45593999997E+02  0.45594000000E+02  0.51100000000E-03 0. -1.
         11   -1    0    0    0    0 -0.00000000000E+00 -0.00000000000E+00 -0.45593999997E+02  0.45594000000E+02  0.51100000000E-03 0.  1.
    9900012    2    1    2    0    0 -0.17027272204E+02 -0.25958609145E+02  0.26256161122E+02  0.50528888053E+02  0.30000085726E+02 0.  0.
        -12    1    1    2    0    0  0.17027272204E+02  0.25958609145E+02 -0.26256161122E+02  0.40659111947E+02  0.00000000000E+00 0.  1.
         11    1    3    3    0    0 -0.19999425501E+02 -0.74439875477E+01  0.60636149267E+01  0.22184620736E+02  0.51100000000E-03 0. -1.
        -11    1    3    3    0    0  0.33161814953E+01 -0.41462131104E+01  0.37187311725E+01  0.64820602173E+01  0.51100000000E-03 0.  1.
         12    1    3    3    0    0 -0.34402819799E+00 -0.14368408487E+02  0.16473815023E+02  0.21862207099E+02  0.00000000000E+00 0. -1.
</event>
<event>
 7    1  0.5068291E-011  0.5052885E+02  0.7816164E-02  0.1300439E+00
        -11   -1    0    0    0    0  0.00000000000E+00  0.00000000000E+00  0.45593999997E+02  0.45594000000E+02  0.51100000000E-03 0. -1.
         11   -1    0    0    0    0 -0.00000000000E+00 -0.00000000000E+00 -0.45593999997E+02  0.45594000000E+02  0.51100000000E-03 0.  1.
    9900012    2    1    2    0    0  0.35574570950E+02  0.19667830221E+02 -0.89024971649E+00  0.50528853570E+02  0.29999980911E+02 0.  0.
        -12    1    1    2    0    0 -0.35574570950E+02 -0.19667830221E+02  0.89024971649E+00  0.40659146430E+02  0.00000000000E+00 0.  1.
         11    1    3    3    0    0  0.10096869565E+02  0.11795511239E+02  0.30606685099E+01  0.15825566416E+02  0.51100000000E-03 0. -1.
        -11    1    3    3    0    0  0.21147208994E+02 -0.42642368428E+01 -0.19186504117E+01  0.21658009690E+02  0.51100000000E-03 0.  1.
        -12    1    3    3    0    0  0.43304923917E+01  0.12136555825E+02 -0.20322678147E+01  0.13045277464E+02  0.00000000000E+00 0.  1.
</event>
<event>
 7    1  0.5068291E-011  0.5052886E+02  0.7816164E-02  0.1300439E+00
        -11   -1    0    0    0    0  0.00000000000E+00  0.00000000000E+00  0.45593999997E+02  0.45594000000E+02  0.51100000000E-03 0. -1.
         11   -1    0    0    0    0 -0.00000000000E+00 -0.00000000000E+00 -0.45593999997E+02  0.45594000000E+02  0.51100000000E-03 0.  1.
    9900012    2    1    2    0    0  0.11060518532E+01  0.30319391278E+02  0.27068004779E+02  0.50528859320E+02  0.29999998388E+02 0.  0.
        -12    1    1    2    0    0 -0.11060518532E+01 -0.30319391278E+02 -0.27068004779E+02  0.40659140680E+02  0.00000000000E+00 0.  1.
         11    1    3    3    0    0 -0.16658752097E+01  0.33398523481E+01 -0.54408682312E+01  0.65979391701E+01  0.51100000000E-03 0.  1.
        -11    1    3    3    0    0 -0.31507919250E+01  0.16915769642E+02  0.14678182739E+02  0.22616803512E+02  0.51100000000E-03 0. -1.
         12    1    3    3    0    0  0.59227189879E+01  0.10063769287E+02  0.17830690271E+02  0.21314116637E+02  0.00000000000E+00 0. -1.
</event>
<event>
 7    1  0.5068291E-011  0.5052885E+02  0.7816164E-02  0.1300439E+00
        -11   -1    0    0    0    0  0.00000000000E+00  0.00000000000E+00  0.45593999997E+02  0.45594000000E+02  0.51100000000E-03 0.  1.
         11   -1    0    0    0    0 -0.00000000000E+00 -0.00000000000E+00 -0.45593999997E+02  0.45594000000E+02  0.51100000000E-03 0. -1.
    9900012    2    1    2    0    0 -0.23831151989E+02  0.31717338269E+02 -0.89024135977E+01  0.50528851954E+02  0.29999975999E+02 0.  0.
        -12    1    1    2    0    0  0.23831151989E+02 -0.31717338269E+02  0.89024135977E+01  0.40659148046E+02  0.00000000000E+00 0.  1.
         11    1    3    3    0    0 -0.17504963681E+01 -0.19113928433E+01  0.32036630447E+01  0.41208151258E+01  0.51100000000E-03 0.  1.
        -11    1    3    3    0    0 -0.23330019745E+01  0.21480340239E+02 -0.53659004369E+01  0.22262991775E+02  0.51100000000E-03 0. -1.
        -12    1    3    3    0    0 -0.19747653647E+02  0.12148390872E+02 -0.67401762055E+01  0.24145045053E+02  0.00000000000E+00 0.  1.
</event>
<event>
 7    1  0.5068291E-011  0.5052887E+02  0.7816164E-02  0.1300439E+00
        -11   -1    0    0    0    0  0.00000000000E+00  0.00000000000E+00  0.45593999997E+02  0.45594000000E+02  0.51100000000E-03 0.  1.
         11   -1    0    0    0    0 -0.00000000000E+00 -0.00000000000E+00 -0.45593999997E+02  0.45594000000E+02  0.51100000000E-03 0. -1.
    9900012    2    1    2    0    0  0.37132932685E+02  0.28712733493E+00 -0.16559830717E+02  0.50528866643E+02  0.30000020649E+02 0.  0.
        -12    1    1    2    0    0 -0.37132932685E+02 -0.28712733493E+00  0.16559830717E+02  0.40659133357E+02  0.00000000000E+00 0.  1.
         11    1    3    3    0    0  0.71009105388E+00  0.20857072566E+01  0.48217639956E+01  0.53013028922E+01  0.51100000000E-03 0.  1.
        -11    1    3    3    0    0  0.19643666124E+02 -0.49311644594E+01 -0.19397112997E+02  0.28043501825E+02  0.51100000000E-03 0. -1.
         12    1    3    3    0    0  0.16779175508E+02  0.31325845378E+01 -0.19844817152E+01  0.17184061926E+02  0.00000000000E+00 0. -1.
</event>
<event>
 7    1  0.5068291E-011  0.5052886E+02  0.7816164E-02  0.1300439E+00
        -11   -1    0    0    0    0  0.00000000000E+00  0.00000000000E+00  0.45593999997E+02  0.45594000000E+02  0.51100000000E-03 0.  1.
         11   -1    0    0    0    0 -0.00000000000E+00 -0.00000000000E+00 -0.45593999997E+02  0.45594000000E+02  0.51100000000E-03 0. -1.
    9900012    2    1    2    0    0  0.72347810210E+01 -0.36169842329E+02 -0.17104561939E+02  0.50528860933E+02  0.30000003293E+02 0.  0.
        -12    1    1    2    0    0 -0.72347810210E+01  0.36169842329E+02  0.17104561939E+02  0.40659139067E+02  0.00000000000E+00 0.  1.
         11    1    3    3    0    0  0.10122235321E+02 -0.17540686041E+02 -0.21593646466E+02  0.29604406473E+02  0.51100000000E-03 0. -1.
        -11    1    3    3    0    0 -0.45847841424E+01 -0.78712891330E+01 -0.90978770435E-01  0.91096495896E+01  0.51100000000E-03 0.  1.
         12    1    3    3    0    0  0.16973298423E+01 -0.10757867155E+02  0.45800632973E+01  0.11814804871E+02  0.00000000000E+00 0. -1.
</event>
<event>
 7    1  0.5068291E-011  0.5052886E+02  0.7816164E-02  0.1300439E+00
        -11   -1    0    0    0    0  0.00000000000E+00  0.00000000000E+00  0.45593999997E+02  0.45594000000E+02  0.51100000000E-03 0.  1.
         11   -1    0    0    0    0 -0.00000000000E+00 -0.00000000000E+00 -0.45593999997E+02  0.45594000000E+02  0.51100000000E-03 0. -1.
    9900012    2    1    2    0    0 -0.15456249757E+02 -0.30601395730E+02 -0.21859196515E+02  0.50528861427E+02  0.30000004795E+02 0.  0.
        -12    1    1    2    0    0  0.15456249757E+02  0.30601395730E+02  0.21859196515E+02  0.40659138573E+02  0.00000000000E+00 0.  1.
         11    1    3    3    0    0 -0.11411727857E+02 -0.62418068044E+01 -0.18915369261E+02  0.22956020548E+02  0.51100000000E-03 0. -1.
        -11    1    3    3    0    0 -0.31543124425E+01 -0.76488643888E+01  0.43156605618E+01  0.93316525744E+01  0.51100000000E-03 0.  1.
        -12    1    3    3    0    0 -0.89020945825E+00 -0.16710724537E+02 -0.72594878157E+01  0.18241188305E+02  0.00000000000E+00 0.  1.
</event>
<event>
 7    1  0.5068291E-011  0.5052886E+02  0.7816164E-02  0.1300439E+00
        -11   -1    0    0    0    0  0.00000000000E+00  0.00000000000E+00  0.45593999997E+02  0.45594000000E+02  0.51100000000E-03 0. -1.
         11   -1    0    0    0    0 -0.00000000000E+00 -0.00000000000E+00 -0.45593999997E+02  0.45594000000E+02  0.51100000000E-03 0.  1.
    9900012    2    1    2    0    0 -0.10227303016E+02 -0.38276097515E+02  0.91382716879E+01  0.50528863543E+02  0.30000011225E+02 0.  0.
        -12    1    1    2    0    0  0.10227303016E+02  0.38276097515E+02 -0.91382716879E+01  0.40659136457E+02  0.00000000000E+00 0.  1.
         11    1    3    3    0    0 -0.78541220520E+01 -0.15660023882E+02 -0.18755346825E+01  0.17619341980E+02  0.51100000000E-03 0. -1.
        -11    1    3    3    0    0 -0.27755636253E+01  0.36679399979E+01  0.27262455707E+01  0.53469573067E+01  0.51100000000E-03 0.  1.
        -12    1    3    3    0    0  0.40238266113E+00 -0.26284013631E+02  0.82875607998E+01  0.27562564257E+02  0.00000000000E+00 0.  1.
</event>
<event>
 7    1  0.5068291E-011  0.5052886E+02  0.7816164E-02  0.1300439E+00
        -11   -1    0    0    0    0  0.00000000000E+00  0.00000000000E+00  0.45593999997E+02  0.45594000000E+02  0.51100000000E-03 0.  1.
         11   -1    0    0    0    0 -0.00000000000E+00 -0.00000000000E+00 -0.45593999997E+02  0.45594000000E+02  0.51100000000E-03 0. -1.
    9900012    2    1    2    0    0 -0.21739642479E+02  0.27116589342E+01 -0.34252011363E+02  0.50528862875E+02  0.30000009196E+02 0.  0.
        -12    1    1    2    0    0  0.21739642479E+02 -0.27116589342E+01  0.34252011363E+02  0.40659137125E+02  0.00000000000E+00 0.  1.
         11    1    3    3    0    0 -0.43378116562E+01 -0.88150932238E+01 -0.19717259650E+02  0.22029362380E+02  0.51100000000E-03 0. -1.
        -11    1    3    3    0    0 -0.14518428438E+02  0.13939196058E+02 -0.96087614783E+01  0.22302785666E+02  0.51100000000E-03 0.  1.
        -12    1    3    3    0    0 -0.28834023856E+01 -0.24124439001E+01 -0.49259902352E+01  0.61967148301E+01  0.00000000000E+00 0.  1.
</event>
<event>
 7    1  0.5068291E-011  0.5052886E+02  0.7816164E-02  0.1300439E+00
        -11   -1    0    0    0    0  0.00000000000E+00  0.00000000000E+00  0.45593999997E+02  0.45594000000E+02  0.51100000000E-03 0.  1.
         11   -1    0    0    0    0 -0.00000000000E+00 -0.00000000000E+00 -0.45593999997E+02  0.45594000000E+02  0.51100000000E-03 0. -1.
    9900012    2    1    2    0    0  0.13576896662E+02 -0.13611139424E+02 -0.35826951013E+02  0.50528860089E+02  0.30000000727E+02 0.  0.
        -12    1    1    2    0    0 -0.13576896662E+02  0.13611139424E+02  0.35826951013E+02  0.40659139911E+02  0.00000000000E+00 0.  1.
         11    1    3    3    0    0  0.74971761975E+01 -0.30415367561E+01  0.31652769039E+01  0.86877830840E+01  0.51100000000E-03 0. -1.
        -11    1    3    3    0    0 -0.59734452151E+00 -0.13382593467E+01 -0.17091188448E+02  0.17153905718E+02  0.51100000000E-03 0.  1.
         12    1    3    3    0    0  0.66770649859E+01 -0.92313433213E+01 -0.21901039469E+02  0.24687171288E+02  0.00000000000E+00 0. -1.
</event>
<event>
 7    1  0.5068291E-011  0.5052891E+02  0.7816164E-02  0.1300439E+00
        -11   -1    0    0    0    0  0.00000000000E+00  0.00000000000E+00  0.45593999997E+02  0.45594000000E+02  0.51100000000E-03 0. -1.
         11   -1    0    0    0    0 -0.00000000000E+00 -0.00000000000E+00 -0.45593999997E+02  0.45594000000E+02  0.51100000000E-03 0.  1.
    9900012    2    1    2    0    0  0.12315299041E+02  0.26210678008E+02  0.28539363245E+02  0.50528911390E+02  0.30000156662E+02 0.  0.
        -12    1    1    2    0    0 -0.12315299041E+02 -0.26210678008E+02 -0.28539363245E+02  0.40659088610E+02  0.00000000000E+00 0.  1.
         11    1    3    3    0    0  0.17068092837E+02  0.10963535013E+02  0.27546195212E+02  0.34209819701E+02  0.51100000000E-03 0. -1.
        -11    1    3    3    0    0 -0.31171810892E+01  0.13185175356E+02  0.13003325316E+00  0.13549264778E+02  0.51100000000E-03 0.  1.
         12    1    3    3    0    0 -0.16356127069E+01  0.20619676389E+01  0.86313478024E+00  0.27698269115E+01  0.00000000000E+00 0. -1.
</event>
<event>
 7    1  0.5068291E-011  0.5052888E+02  0.7816164E-02  0.1300439E+00
        -11   -1    0    0    0    0  0.00000000000E+00  0.00000000000E+00  0.45593999997E+02  0.45594000000E+02  0.51100000000E-03 0.  1.
         11   -1    0    0    0    0 -0.00000000000E+00 -0.00000000000E+00 -0.45593999997E+02  0.45594000000E+02  0.51100000000E-03 0. -1.
    9900012    2    1    2    0    0  0.63557561084E+01  0.33373182720E+02  0.22338287156E+02  0.50528880068E+02  0.30000061455E+02 0.  0.
        -12    1    1    2    0    0 -0.63557561084E+01 -0.33373182720E+02 -0.22338287156E+02  0.40659119932E+02  0.00000000000E+00 0.  1.
         11    1    3    3    0    0 -0.35115842018E+01  0.12853512663E+02  0.46992482538E+01  0.14128940009E+02  0.51100000000E-03 0. -1.
        -11    1    3    3    0    0  0.45535733566E+01 -0.24479292118E+01  0.10605986248E+02  0.11798912335E+02  0.51100000000E-03 0.  1.
        -12    1    3    3    0    0  0.53137669537E+01  0.22967599269E+02  0.70330526542E+01  0.24601027724E+02  0.00000000000E+00 0.  1.
</event>
<event>
 7    1  0.5068291E-011  0.5052886E+02  0.7816164E-02  0.1300439E+00
        -11   -1    0    0    0    0  0.00000000000E+00  0.00000000000E+00  0.45593999997E+02  0.45594000000E+02  0.51100000000E-03 0.  1.
         11   -1    0    0    0    0 -0.00000000000E+00 -0.00000000000E+00 -0.45593999997E+02  0.45594000000E+02  0.51100000000E-03 0. -1.
    9900012    2    1    2    0    0 -0.25822337158E+02  0.30196447530E+02 -0.86340510143E+01  0.50528863553E+02  0.30000011255E+02 0.  0.
        -12    1    1    2    0    0  0.25822337158E+02 -0.30196447530E+02  0.86340510143E+01  0.40659136447E+02  0.00000000000E+00 0.  1.
         11    1    3    3    0    0  0.25278117574E+01  0.53805710198E+01 -0.29807042272E+01  0.66501860674E+01  0.51100000000E-03 0. -1.
        -11    1    3    3    0    0 -0.21927390592E+02  0.62575892732E+01  0.17996300365E+01  0.22873708712E+02  0.51100000000E-03 0.  1.
        -12    1    3    3    0    0 -0.64227583230E+01  0.18558287237E+02 -0.74529768235E+01  0.21004968773E+02  0.00000000000E+00 0.  1.
</event>
<event>
 7    1  0.5068291E-011  0.5052886E+02  0.7816164E-02  0.1300439E+00
        -11   -1    0    0    0    0  0.00000000000E+00  0.00000000000E+00  0.45593999997E+02  0.45594000000E+02  0.51100000000E-03 0.  1.
         11   -1    0    0    0    0 -0.00000000000E+00 -0.00000000000E+00 -0.45593999997E+02  0.45594000000E+02  0.51100000000E-03 0. -1.
    9900012    2    1    2    0    0 -0.30797362668E+02  0.26395086784E+02  0.28262462921E+01  0.50528858079E+02  0.29999994616E+02 0.  0.
        -12    1    1    2    0    0  0.30797362668E+02 -0.26395086784E+02 -0.28262462921E+01  0.40659141921E+02  0.00000000000E+00 0.  1.
         11    1    3    3    0    0 -0.92087240591E+01  0.10548543749E+02  0.81084065802E+01  0.16180810596E+02  0.51100000000E-03 0. -1.
        -11    1    3    3    0    0 -0.12699800011E+02  0.32392317736E+01 -0.11767904524E+02  0.17614230609E+02  0.51100000000E-03 0.  1.
        -12    1    3    3    0    0 -0.88888385981E+01  0.12607311261E+02  0.64857442358E+01  0.16733816873E+02  0.00000000000E+00 0.  1.
</event>
<event>
 7    1  0.5068291E-011  0.5052889E+02  0.7816164E-02  0.1300439E+00
        -11   -1    0    0    0    0  0.00000000000E+00  0.00000000000E+00  0.45593999997E+02  0.45594000000E+02  0.51100000000E-03 0.  1.
         11   -1    0    0    0    0 -0.00000000000E+00 -0.00000000000E+00 -0.45593999997E+02  0.45594000000E+02  0.51100000000E-03 0. -1.
    9900012    2    1    2    0    0 -0.32323588287E+02 -0.11370613450E+02 -0.21887397436E+02  0.50528888150E+02  0.30000086019E+02 0.  0.
        -12    1    1    2    0    0  0.32323588287E+02  0.11370613450E+02  0.21887397436E+02  0.40659111850E+02  0.00000000000E+00 0.  1.
         11    1    3    3    0    0 -0.19447412526E+02 -0.14663035202E+02 -0.17710279153E+02  0.30114123650E+02  0.51100000000E-03 0. -1.
        -11    1    3    3    0    0 -0.23140398101E+01  0.56126353718E+01  0.36333467366E+01  0.70751441561E+01  0.51100000000E-03 0.  1.
         12    1    3    3    0    0 -0.10562135951E+02 -0.23202136205E+01 -0.78104650188E+01  0.13339620343E+02  0.00000000000E+00 0. -1.
</event>
<event>
 7    1  0.5068291E-011  0.5052886E+02  0.7816164E-02  0.1300439E+00
        -11   -1    0    0    0    0  0.00000000000E+00  0.00000000000E+00  0.45593999997E+02  0.45594000000E+02  0.51100000000E-03 0.  1.
         11   -1    0    0    0    0 -0.00000000000E+00 -0.00000000000E+00 -0.45593999997E+02  0.45594000000E+02  0.51100000000E-03 0. -1.
    9900012    2    1    2    0    0  0.82092054870E+01  0.11301550338E+01 -0.39805749558E+02  0.50528855850E+02  0.29999987843E+02 0.  0.
        -12    1    1    2    0    0 -0.82092054870E+01 -0.11301550338E+01  0.39805749558E+02  0.40659144150E+02  0.00000000000E+00 0.  1.
         11    1    3    3    0    0  0.65246760847E+01  0.11465082554E+02 -0.31983371949E+02  0.34597046080E+02  0.51100000000E-03 0. -1.
        -11    1    3    3    0    0  0.20092990531E+01 -0.69822831831E+01  0.16048173599E+00  0.72674146561E+01  0.51100000000E-03 0.  1.
         12    1    3    3    0    0 -0.32476965080E+00 -0.33526443371E+01 -0.79828593450E+01  0.86643951144E+01  0.00000000000E+00 0. -1.
</event>
<event>
 7    1  0.5068291E-011  0.5052886E+02  0.7816164E-02  0.1300439E+00
        -11   -1    0    0    0    0  0.00000000000E+00  0.00000000000E+00  0.45593999997E+02  0.45594000000E+02  0.51100000000E-03 0.  1.
         11   -1    0    0    0    0 -0.00000000000E+00 -0.00000000000E+00 -0.45593999997E+02  0.45594000000E+02  0.51100000000E-03 0. -1.
    9900012    2    1    2    0    0 -0.15396743040E+01  0.20008812309E+02 -0.35361596480E+02  0.50528859913E+02  0.30000000191E+02 0.  0.
        -12    1    1    2    0    0  0.15396743040E+01 -0.20008812309E+02  0.35361596480E+02  0.40659140087E+02  0.00000000000E+00 0.  1.
         11    1    3    3    0    0  0.95029072242E+01  0.63537470816E+01 -0.16949845366E+02  0.20444378344E+02  0.51100000000E-03 0. -1.
        -11    1    3    3    0    0 -0.10444936516E+02  0.22657643116E+01 -0.33674495035E+01  0.11205806671E+02  0.51100000000E-03 0.  1.
         12    1    3    3    0    0 -0.59764501218E+00  0.11389300916E+02 -0.15044301611E+02  0.18878674897E+02  0.00000000000E+00 0. -1.
</event>
<event>
 7    1  0.5068291E-011  0.5052886E+02  0.7816164E-02  0.1300439E+00
        -11   -1    0    0    0    0  0.00000000000E+00  0.00000000000E+00  0.45593999997E+02  0.45594000000E+02  0.51100000000E-03 0.  1.
         11   -1    0    0    0    0 -0.00000000000E+00 -0.00000000000E+00 -0.45593999997E+02  0.45594000000E+02  0.51100000000E-03 0. -1.
    9900012    2    1    2    0    0 -0.25934109735E+02 -0.27518089309E+02  0.14944644591E+02  0.50528859713E+02  0.29999999583E+02 0.  0.
        -12    1    1    2    0    0  0.25934109735E+02  0.27518089309E+02 -0.14944644591E+02  0.40659140287E+02  0.00000000000E+00 0.  1.
         11    1    3    3    0    0  0.42974550900E+01 -0.46379815014E+00 -0.23179329567E+01  0.49046959567E+01  0.51100000000E-03 0. -1.
        -11    1    3    3    0    0 -0.21413822694E+02 -0.23932600026E+02  0.16837539997E+02  0.36260500545E+02  0.51100000000E-03 0.  1.
        -12    1    3    3    0    0 -0.88177421306E+01 -0.31216911324E+01  0.42503755111E+00  0.93636632109E+01  0.00000000000E+00 0.  1.
</event>
<event>
 7    1  0.5068291E-011  0.5052881E+02  0.7816164E-02  0.1300439E+00
        -11   -1    0    0    0    0  0.00000000000E+00  0.00000000000E+00  0.45593999997E+02  0.45594000000E+02  0.51100000000E-03 0.  1.
         11   -1    0    0    0    0 -0.00000000000E+00 -0.00000000000E+00 -0.45593999997E+02  0.45594000000E+02  0.51100000000E-03 0. -1.
    9900012    2    1    2    0    0 -0.10235335295E+01 -0.33668190925E+02  0.22772244466E+02  0.50528808923E+02  0.29999845201E+02 0.  0.
        -12    1    1    2    0    0  0.10235335295E+01  0.33668190925E+02 -0.22772244466E+02  0.40659191077E+02  0.00000000000E+00 0.  1.
         11    1    3    3    0    0 -0.53984934382E+01 -0.27419598376E+01  0.14605214336E+02  0.15810577510E+02  0.51100000000E-03 0. -1.
        -11    1    3    3    0    0  0.11759728968E+01 -0.29538578346E+02  0.93987274491E+01  0.31020099949E+02  0.51100000000E-03 0.  1.
        -12    1    3    3    0    0  0.31989870119E+01 -0.13876527413E+01 -0.12316973189E+01  0.36981314631E+01  0.00000000000E+00 0.  1.
</event>
<event>
 7    1  0.5068291E-011  0.5052883E+02  0.7816164E-02  0.1300439E+00
        -11   -1    0    0    0    0  0.00000000000E+00  0.00000000000E+00  0.45593999997E+02  0.45594000000E+02  0.51100000000E-03 0.  1.
         11   -1    0    0    0    0 -0.00000000000E+00 -0.00000000000E+00 -0.45593999997E+02  0.45594000000E+02  0.51100000000E-03 0. -1.
    9900012    2    1    2    0    0 -0.15646796764E+02  0.34282837019E+02 -0.15265427936E+02  0.50528825720E+02  0.29999896258E+02 0.  0.
        -12    1    1    2    0    0  0.15646796764E+02 -0.34282837019E+02  0.15265427936E+02  0.40659174280E+02  0.00000000000E+00 0.  1.
         11    1    3    3    0    0 -0.18532914262E+02  0.25312271460E+02 -0.17185810417E+02  0.35770547626E+02  0.51100000000E-03 0. -1.
        -11    1    3    3    0    0  0.60647782793E+01  0.61529141432E+01 -0.21201428712E+01  0.88957795660E+01  0.51100000000E-03 0.  1.
         12    1    3    3    0    0 -0.31786607813E+01  0.28176514164E+01  0.40405253527E+01  0.58624985282E+01  0.00000000000E+00 0. -1.
</event>
<event>
 7    1  0.5068291E-011  0.5052886E+02  0.7816164E-02  0.1300439E+00
        -11   -1    0    0    0    0  0.00000000000E+00  0.00000000000E+00  0.45593999997E+02  0.45594000000E+02  0.51100000000E-03 0. -1.
         11   -1    0    0    0    0 -0.00000000000E+00 -0.00000000000E+00 -0.45593999997E+02  0.45594000000E+02  0.51100000000E-03 0.  1.
    9900012    2    1    2    0    0 -0.39852938627E+02  0.67708895250E+00  0.80281095107E+01  0.50528859466E+02  0.29999998833E+02 0.  0.
        -12    1    1    2    0    0  0.39852938627E+02 -0.67708895250E+00 -0.80281095107E+01  0.40659140534E+02  0.00000000000E+00 0.  1.
         11    1    3    3    0    0 -0.12741405349E+02 -0.41431530448E+01 -0.10185952518E+02  0.16830411652E+02  0.51100000000E-03 0. -1.
        -11    1    3    3    0    0 -0.24189649852E+02  0.60922575987E+01  0.14698200075E+02  0.28953270080E+02  0.51100000000E-03 0.  1.
         12    1    3    3    0    0 -0.29218834254E+01 -0.12720156014E+01  0.35158619544E+01  0.47451777337E+01  0.00000000000E+00 0. -1.
</event>
<event>
 7    1  0.5068291E-011  0.5052886E+02  0.7816164E-02  0.1300439E+00
        -11   -1    0    0    0    0  0.00000000000E+00  0.00000000000E+00  0.45593999997E+02  0.45594000000E+02  0.51100000000E-03 0.  1.
         11   -1    0    0    0    0 -0.00000000000E+00 -0.00000000000E+00 -0.45593999997E+02  0.45594000000E+02  0.51100000000E-03 0. -1.
    9900012    2    1    2    0    0 -0.30979296130E+02  0.20081305493E+02 -0.17034956908E+02  0.50528863562E+02  0.30000011283E+02 0.  0.
        -12    1    1    2    0    0  0.30979296130E+02 -0.20081305493E+02  0.17034956908E+02  0.40659136438E+02  0.00000000000E+00 0.  1.
         11    1    3    3    0    0 -0.10706183827E+02  0.83230015391E+01 -0.16117942711E+02  0.21063779439E+02  0.51100000000E-03 0. -1.
        -11    1    3    3    0    0 -0.66876271307E+01  0.13676108217E+02  0.22367089491E+01  0.15387110183E+02  0.51100000000E-03 0.  1.
         12    1    3    3    0    0 -0.13585485173E+02 -0.19178042632E+01 -0.31537231457E+01  0.14077973940E+02  0.00000000000E+00 0. -1.
</event>
<event>
 7    1  0.5068291E-011  0.5052886E+02  0.7816164E-02  0.1300439E+00
        -11   -1    0    0    0    0  0.00000000000E+00  0.00000000000E+00  0.45593999997E+02  0.45594000000E+02  0.51100000000E-03 0. -1.
         11   -1    0    0    0    0 -0.00000000000E+00 -0.00000000000E+00 -0.45593999997E+02  0.45594000000E+02  0.51100000000E-03 0.  1.
    9900012    2    1    2    0    0  0.19665055665E+02 -0.31603166832E+02  0.16361264445E+02  0.50528861515E+02  0.30000005061E+02 0.  0.
        -12    1    1    2    0    0 -0.19665055665E+02  0.31603166832E+02 -0.16361264445E+02  0.40659138485E+02  0.00000000000E+00 0.  1.
         11    1    3    3    0    0  0.12109035707E+02 -0.97958753535E+00  0.13549820244E+02  0.18198515500E+02  0.51100000000E-03 0. -1.
        -11    1    3    3    0    0  0.44697863093E+01 -0.17258618219E+02  0.48182323405E+01  0.18467654308E+02  0.51100000000E-03 0.  1.
         12    1    3    3    0    0  0.30862336487E+01 -0.13364961078E+02 -0.20067881394E+01  0.13862691707E+02  0.00000000000E+00 0. -1.
</event>
<event>
 7    1  0.5068291E-011  0.5052886E+02  0.7816164E-02  0.1300439E+00
        -11   -1    0    0    0    0  0.00000000000E+00  0.00000000000E+00  0.45593999997E+02  0.45594000000E+02  0.51100000000E-03 0.  1.
         11   -1    0    0    0    0 -0.00000000000E+00 -0.00000000000E+00 -0.45593999997E+02  0.45594000000E+02  0.51100000000E-03 0. -1.
    9900012    2    1    2    0    0  0.30465709354E+02  0.26371182676E+02 -0.54375512863E+01  0.50528859747E+02  0.29999999686E+02 0.  0.
        -12    1    1    2    0    0 -0.30465709354E+02 -0.26371182676E+02  0.54375512863E+01  0.40659140253E+02  0.00000000000E+00 0.  1.
         11    1    3    3    0    0  0.21553762931E+02  0.19783481818E+02 -0.10119865215E+02  0.30957430797E+02  0.51100000000E-03 0. -1.
        -11    1    3    3    0    0  0.26306713060E+01 -0.47676369251E+01  0.36462305556E+01  0.65533038153E+01  0.51100000000E-03 0.  1.
        -12    1    3    3    0    0  0.62812751170E+01  0.11355337783E+02  0.10360833733E+01  0.13018125135E+02  0.00000000000E+00 0.  1.
</event>
<event>
 7    1  0.5068291E-011  0.5052886E+02  0.7816164E-02  0.1300439E+00
        -11   -1    0    0    0    0  0.00000000000E+00  0.00000000000E+00  0.45593999997E+02  0.45594000000E+02  0.51100000000E-03 0.  1.
         11   -1    0    0    0    0 -0.00000000000E+00 -0.00000000000E+00 -0.45593999997E+02  0.45594000000E+02  0.51100000000E-03 0. -1.
    9900012    2    1    2    0    0 -0.32713600221E+02  0.83777186557E+01 -0.22645079242E+02  0.50528862981E+02  0.30000009517E+02 0.  0.
        -12    1    1    2    0    0  0.32713600221E+02 -0.83777186557E+01  0.22645079242E+02  0.40659137019E+02  0.00000000000E+00 0.  1.
         11    1    3    3    0    0 -0.78308900202E+01  0.12110620836E+02 -0.15000421014E+02  0.20808714674E+02  0.51100000000E-03 0. -1.
        -11    1    3    3    0    0 -0.17558684018E+02  0.31088729521E+01 -0.13455081145E+01  0.17882473762E+02  0.51100000000E-03 0.  1.
         12    1    3    3    0    0 -0.73240261819E+01 -0.68417751328E+01 -0.62991501135E+01  0.11837674545E+02  0.00000000000E+00 0. -1.
</event>
<event>
 7    1  0.5068291E-011  0.5052886E+02  0.7816164E-02  0.1300439E+00
        -11   -1    0    0    0    0  0.00000000000E+00  0.00000000000E+00  0.45593999997E+02  0.45594000000E+02  0.51100000000E-03 0.  1.
         11   -1    0    0    0    0 -0.00000000000E+00 -0.00000000000E+00 -0.45593999997E+02  0.45594000000E+02  0.51100000000E-03 0. -1.
    9900012    2    1    2    0    0 -0.14609232863E+02  0.21598663353E+02 -0.31196692621E+02  0.50528861126E+02  0.30000003878E+02 0.  0.
        -12    1    1    2    0    0  0.14609232863E+02 -0.21598663353E+02  0.31196692621E+02  0.40659138874E+02  0.00000000000E+00 0.  1.
         11    1    3    3    0    0  0.32544887861E+00  0.23920608546E+01 -0.70465073161E+01  0.74485661521E+01  0.51100000000E-03 0. -1.
        -11    1    3    3    0    0 -0.22298647328E+02  0.12096105053E+02 -0.18407198139E+02  0.31342788225E+02  0.51100000000E-03 0.  1.
        -12    1    3    3    0    0  0.73639655866E+01  0.71104974460E+01 -0.57429871661E+01  0.11737506749E+02  0.00000000000E+00 0.  1.
</event>
<event>
 7    1  0.5068291E-011  0.5052886E+02  0.7816164E-02  0.1300439E+00
        -11   -1    0    0    0    0  0.00000000000E+00  0.00000000000E+00  0.45593999997E+02  0.45594000000E+02  0.51100000000E-03 0. -1.
         11   -1    0    0    0    0 -0.00000000000E+00 -0.00000000000E+00 -0.45593999997E+02  0.45594000000E+02  0.51100000000E-03 0.  1.
    9900012    2    1    2    0    0  0.31762158356E+02  0.13505637647E+02  0.21492528663E+02  0.50528859084E+02  0.29999997671E+02 0.  0.
        -12    1    1    2    0    0 -0.31762158356E+02 -0.13505637647E+02 -0.21492528663E+02  0.40659140916E+02  0.00000000000E+00 0.  1.
         11    1    3    3    0    0  0.22051253723E+02  0.73478550027E+01  0.22046770938E+02  0.32036055827E+02  0.51100000000E-03 0. -1.
        -11    1    3    3    0    0 -0.25960388794E+01  0.45801244252E+01 -0.26748548618E+01  0.59052355082E+01  0.51100000000E-03 0.  1.
         12    1    3    3    0    0  0.12306943513E+02  0.15776582188E+01  0.21206125873E+01  0.12587567749E+02  0.00000000000E+00 0. -1.
</event>
<event>
 7    1  0.5068291E-011  0.5052886E+02  0.7816164E-02  0.1300439E+00
        -11   -1    0    0    0    0  0.00000000000E+00  0.00000000000E+00  0.45593999997E+02  0.45594000000E+02  0.51100000000E-03 0. -1.
         11   -1    0    0    0    0 -0.00000000000E+00 -0.00000000000E+00 -0.45593999997E+02  0.45594000000E+02  0.51100000000E-03 0.  1.
    9900012    2    1    2    0    0  0.35240006110E+02  0.18734993792E+02  0.77657893296E+01  0.50528861950E+02  0.30000006383E+02 0.  0.
        -12    1    1    2    0    0 -0.35240006110E+02 -0.18734993792E+02 -0.77657893296E+01  0.40659138050E+02  0.00000000000E+00 0.  1.
         11    1    3    3    0    0  0.33605834269E+02  0.71117129991E+01  0.24625168542E+01  0.34438242525E+02  0.51100000000E-03 0. -1.
        -11    1    3    3    0    0 -0.15726022009E+01  0.68214051301E+01 -0.15082744428E+01  0.71609732361E+01  0.51100000000E-03 0.  1.
         12    1    3    3    0    0  0.32067740427E+01  0.48018756631E+01  0.68115469182E+01  0.89296461891E+01  0.00000000000E+00 0. -1.
</event>
<event>
 7    1  0.5068291E-011  0.5052885E+02  0.7816164E-02  0.1300439E+00
        -11   -1    0    0    0    0  0.00000000000E+00  0.00000000000E+00  0.45593999997E+02  0.45594000000E+02  0.51100000000E-03 0. -1.
         11   -1    0    0    0    0 -0.00000000000E+00 -0.00000000000E+00 -0.45593999997E+02  0.45594000000E+02  0.51100000000E-03 0.  1.
    9900012    2    1    2    0    0  0.87480470094E+01  0.11469586445E+02  0.38014299467E+02  0.50528847234E+02  0.29999961652E+02 0.  0.
        -12    1    1    2    0    0 -0.87480470094E+01 -0.11469586445E+02 -0.38014299467E+02  0.40659152766E+02  0.00000000000E+00 0.  1.
         11    1    3    3    0    0 -0.27645935787E+01 -0.77040817704E+01  0.12388049813E+02  0.14847883082E+02  0.51100000000E-03 0. -1.
        -11    1    3    3    0    0  0.96073695581E+01  0.59424824272E+01  0.97137352211E+01  0.14898701267E+02  0.51100000000E-03 0.  1.
         12    1    3    3    0    0  0.19052710300E+01  0.13231185788E+02  0.15912514433E+02  0.20782262886E+02  0.00000000000E+00 0. -1.
</event>
<event>
 7    1  0.5068291E-011  0.5052886E+02  0.7816164E-02  0.1300439E+00
        -11   -1    0    0    0    0  0.00000000000E+00  0.00000000000E+00  0.45593999997E+02  0.45594000000E+02  0.51100000000E-03 0.  1.
         11   -1    0    0    0    0 -0.00000000000E+00 -0.00000000000E+00 -0.45593999997E+02  0.45594000000E+02  0.51100000000E-03 0. -1.
    9900012    2    1    2    0    0  0.64930392610E+01 -0.36422675099E+02 -0.16864006578E+02  0.50528861568E+02  0.30000005221E+02 0.  0.
        -12    1    1    2    0    0 -0.64930392610E+01  0.36422675099E+02  0.16864006578E+02  0.40659138432E+02  0.00000000000E+00 0.  1.
         11    1    3    3    0    0 -0.81201357594E+01 -0.17043386213E+02 -0.10249990322E+01  0.18906724773E+02  0.51100000000E-03 0. -1.
        -11    1    3    3    0    0  0.54102782320E+01 -0.20899257095E+01 -0.93243635108E+01  0.10981013394E+02  0.51100000000E-03 0.  1.
         12    1    3    3    0    0  0.92028967883E+01 -0.17289363176E+02 -0.65146440346E+01  0.20641123400E+02  0.00000000000E+00 0. -1.
</event>
<event>
 7    1  0.5068291E-011  0.5052889E+02  0.7816164E-02  0.1300439E+00
        -11   -1    0    0    0    0  0.00000000000E+00  0.00000000000E+00  0.45593999997E+02  0.45594000000E+02  0.51100000000E-03 0. -1.
         11   -1    0    0    0    0 -0.00000000000E+00 -0.00000000000E+00 -0.45593999997E+02  0.45594000000E+02  0.51100000000E-03 0.  1.
    9900012    2    1    2    0    0 -0.39780313451E+02 -0.73979563496E+01 -0.39949861979E+01  0.50528892642E+02  0.30000099676E+02 0.  0.
        -12    1    1    2    0    0  0.39780313451E+02  0.73979563496E+01  0.39949861979E+01  0.40659107358E+02  0.00000000000E+00 0.  1.
         11    1    3    3    0    0 -0.30121751475E+02 -0.12811963906E+02 -0.56891054999E+01  0.33223971056E+02  0.51100000000E-03 0. -1.
        -11    1    3    3    0    0  0.32845593953E+01  0.61889486208E+00 -0.31284644886E+00  0.33569680417E+01  0.51100000000E-03 0.  1.
         12    1    3    3    0    0 -0.12943121371E+02  0.47951126942E+01  0.20069657509E+01  0.13947953545E+02  0.00000000000E+00 0. -1.
</event>
<event>
 7    1  0.5068291E-011  0.5052886E+02  0.7816164E-02  0.1300439E+00
        -11   -1    0    0    0    0  0.00000000000E+00  0.00000000000E+00  0.45593999997E+02  0.45594000000E+02  0.51100000000E-03 0.  1.
         11   -1    0    0    0    0 -0.00000000000E+00 -0.00000000000E+00 -0.45593999997E+02  0.45594000000E+02  0.51100000000E-03 0. -1.
    9900012    2    1    2    0    0 -0.14101420968E+02 -0.10491588328E+02 -0.36663903135E+02  0.50528864593E+02  0.30000014417E+02 0.  0.
        -12    1    1    2    0    0  0.14101420968E+02  0.10491588328E+02  0.36663903135E+02  0.40659135407E+02  0.00000000000E+00 0.  1.
         11    1    3    3    0    0 -0.12419656917E+02 -0.13040593721E+02 -0.15048651386E+02  0.23468422856E+02  0.51100000000E-03 0. -1.
        -11    1    3    3    0    0  0.28260385949E+01  0.43651276953E+01 -0.31151186042E+00  0.52094024452E+01  0.51100000000E-03 0.  1.
         12    1    3    3    0    0 -0.45078026458E+01 -0.18161223020E+01 -0.21303739888E+02  0.21851039292E+02  0.00000000000E+00 0. -1.
</event>
<event>
 7    1  0.5068291E-011  0.5052886E+02  0.7816164E-02  0.1300439E+00
        -11   -1    0    0    0    0  0.00000000000E+00  0.00000000000E+00  0.45593999997E+02  0.45594000000E+02  0.51100000000E-03 0.  1.
         11   -1    0    0    0    0 -0.00000000000E+00 -0.00000000000E+00 -0.45593999997E+02  0.45594000000E+02  0.51100000000E-03 0. -1.
    9900012    2    1    2    0    0  0.30595738618E+02 -0.21420030252E+02 -0.16070110712E+02  0.50528863562E+02  0.30000011283E+02 0.  0.
        -12    1    1    2    0    0 -0.30595738618E+02  0.21420030252E+02  0.16070110712E+02  0.40659136438E+02  0.00000000000E+00 0.  1.
         11    1    3    3    0    0  0.19281672804E+02 -0.38526915872E+01 -0.66078184369E+01  0.20743418314E+02  0.51100000000E-03 0. -1.
        -11    1    3    3    0    0  0.11965358692E+02 -0.20446145662E+02 -0.46529048113E+01  0.24142580735E+02  0.51100000000E-03 0.  1.
        -12    1    3    3    0    0 -0.65129287827E+00  0.28788069975E+01 -0.48093874642E+01  0.56428645140E+01  0.00000000000E+00 0.  1.
</event>
<event>
 7    1  0.5068291E-011  0.5052886E+02  0.7816164E-02  0.1300439E+00
        -11   -1    0    0    0    0  0.00000000000E+00  0.00000000000E+00  0.45593999997E+02  0.45594000000E+02  0.51100000000E-03 0.  1.
         11   -1    0    0    0    0 -0.00000000000E+00 -0.00000000000E+00 -0.45593999997E+02  0.45594000000E+02  0.51100000000E-03 0. -1.
    9900012    2    1    2    0    0 -0.29654139206E+01  0.36734281245E+02 -0.17174532553E+02  0.50528859986E+02  0.30000000412E+02 0.  0.
        -12    1    1    2    0    0  0.29654139206E+01 -0.36734281245E+02  0.17174532553E+02  0.40659140014E+02  0.00000000000E+00 0.  1.
         11    1    3    3    0    0 -0.38347802566E+01  0.77713665718E+00 -0.11757928803E+02  0.12391867131E+02  0.51100000000E-03 0. -1.
        -11    1    3    3    0    0  0.56746189329E+01  0.24241809194E+02 -0.17705554524E+01  0.24959997594E+02  0.51100000000E-03 0.  1.
         12    1    3    3    0    0 -0.48052525969E+01  0.11715335394E+02 -0.36460482981E+01  0.13176995261E+02  0.00000000000E+00 0. -1.
</event>
<event>
 7    1  0.5068291E-011  0.5052886E+02  0.7816164E-02  0.1300439E+00
        -11   -1    0    0    0    0  0.00000000000E+00  0.00000000000E+00  0.45593999997E+02  0.45594000000E+02  0.51100000000E-03 0. -1.
         11   -1    0    0    0    0 -0.00000000000E+00 -0.00000000000E+00 -0.45593999997E+02  0.45594000000E+02  0.51100000000E-03 0.  1.
    9900012    2    1    2    0    0  0.22255349078E+02  0.29855150358E+02  0.16325898009E+02  0.50528861897E+02  0.30000006221E+02 0.  0.
        -12    1    1    2    0    0 -0.22255349078E+02 -0.29855150358E+02 -0.16325898009E+02  0.40659138103E+02  0.00000000000E+00 0.  1.
         11    1    3    3    0    0  0.14619210737E+02  0.20527604590E+02  0.10274778041E+02  0.27215343775E+02  0.51100000000E-03 0. -1.
        -11    1    3    3    0    0  0.66551010547E+01 -0.48906444366E+01  0.24233217274E+01  0.86070472003E+01  0.51100000000E-03 0.  1.
         12    1    3    3    0    0  0.98103728632E+00  0.14218190205E+02  0.36277982405E+01  0.14706470921E+02  0.00000000000E+00 0. -1.
</event>
<event>
 7    1  0.5068291E-011  0.5052886E+02  0.7816164E-02  0.1300439E+00
        -11   -1    0    0    0    0  0.00000000000E+00  0.00000000000E+00  0.45593999997E+02  0.45594000000E+02  0.51100000000E-03 0. -1.
         11   -1    0    0    0    0 -0.00000000000E+00 -0.00000000000E+00 -0.45593999997E+02  0.45594000000E+02  0.51100000000E-03 0.  1.
    9900012    2    1    2    0    0 -0.28158442684E+02 -0.20284385009E+02  0.21185170297E+02  0.50528860682E+02  0.30000002528E+02 0.  0.
        -12    1    1    2    0    0  0.28158442684E+02  0.20284385009E+02 -0.21185170297E+02  0.40659139318E+02  0.00000000000E+00 0.  1.
         11    1    3    3    0    0  0.39630362250E+01 -0.21403792333E+01  0.10045870093E+02  0.11009377165E+02  0.51100000000E-03 0.  1.
        -11    1    3    3    0    0 -0.25300236862E+02 -0.17951461877E+02  0.10049578763E+02  0.32609063194E+02  0.51100000000E-03 0. -1.
         12    1    3    3    0    0 -0.68212420471E+01 -0.19254389926E+00  0.10897214412E+01  0.69104203228E+01  0.00000000000E+00 0. -1.
</event>
<event>
 7    1  0.5068291E-011  0.5052886E+02  0.7816164E-02  0.1300439E+00
        -11   -1    0    0    0    0  0.00000000000E+00  0.00000000000E+00  0.45593999997E+02  0.45594000000E+02  0.51100000000E-03 0.  1.
         11   -1    0    0    0    0 -0.00000000000E+00 -0.00000000000E+00 -0.45593999997E+02  0.45594000000E+02  0.51100000000E-03 0. -1.
    9900012    2    1    2    0    0  0.28484377047E+02  0.11071376709E+02 -0.26818467288E+02  0.50528864426E+02  0.30000013908E+02 0.  0.
        -12    1    1    2    0    0 -0.28484377047E+02 -0.11071376709E+02  0.26818467288E+02  0.40659135574E+02  0.00000000000E+00 0.  1.
         11    1    3    3    0    0  0.46739088417E+00  0.38860235298E+01 -0.14688454481E+02  0.15200997613E+02  0.51100000000E-03 0. -1.
        -11    1    3    3    0    0  0.28619347713E+02  0.37977337364E+01 -0.13171527015E+02  0.31732931936E+02  0.51100000000E-03 0.  1.
        -12    1    3    3    0    0 -0.60236155092E+00  0.33876194428E+01  0.10415142077E+01  0.35949348773E+01  0.00000000000E+00 0.  1.
</event>
<event>
 7    1  0.5068291E-011  0.5052887E+02  0.7816164E-02  0.1300439E+00
        -11   -1    0    0    0    0  0.00000000000E+00  0.00000000000E+00  0.45593999997E+02  0.45594000000E+02  0.51100000000E-03 0.  1.
         11   -1    0    0    0    0 -0.00000000000E+00 -0.00000000000E+00 -0.45593999997E+02  0.45594000000E+02  0.51100000000E-03 0. -1.
    9900012    2    1    2    0    0 -0.39421854073E+02 -0.96948805495E+01  0.22565131517E+01  0.50528866474E+02  0.30000020136E+02 0.  0.
        -12    1    1    2    0    0  0.39421854073E+02  0.96948805495E+01 -0.22565131517E+01  0.40659133526E+02  0.00000000000E+00 0.  1.
         11    1    3    3    0    0 -0.18531683424E+02 -0.11279480061E+02  0.14263855833E+02  0.25963581118E+02  0.51100000000E-03 0.  1.
        -11    1    3    3    0    0 -0.15833300034E+02  0.31364602051E+01 -0.90831988953E+01  0.18521211489E+02  0.51100000000E-03 0. -1.
         12    1    3    3    0    0 -0.50568706158E+01 -0.15518606937E+01 -0.29241437865E+01  0.60440738679E+01  0.00000000000E+00 0. -1.
</event>
<event>
 7    1  0.5068291E-011  0.5052886E+02  0.7816164E-02  0.1300439E+00
        -11   -1    0    0    0    0  0.00000000000E+00  0.00000000000E+00  0.45593999997E+02  0.45594000000E+02  0.51100000000E-03 0.  1.
         11   -1    0    0    0    0 -0.00000000000E+00 -0.00000000000E+00 -0.45593999997E+02  0.45594000000E+02  0.51100000000E-03 0. -1.
    9900012    2    1    2    0    0  0.20784771474E+02 -0.21072051296E+02 -0.27877008138E+02  0.50528860145E+02  0.30000000896E+02 0.  0.
        -12    1    1    2    0    0 -0.20784771474E+02  0.21072051296E+02  0.27877008138E+02  0.40659139855E+02  0.00000000000E+00 0.  1.
         11    1    3    3    0    0  0.80618994816E+01  0.33323030059E+01 -0.12459556530E+02  0.15209832864E+02  0.51100000000E-03 0. -1.
        -11    1    3    3    0    0  0.14742896901E+02 -0.12618509339E+02 -0.67332795187E+01  0.20540614409E+02  0.51100000000E-03 0.  1.
        -12    1    3    3    0    0 -0.20200249084E+01 -0.11785844963E+02 -0.86841720890E+01  0.14778412871E+02  0.00000000000E+00 0.  1.
</event>
<event>
 7    1  0.5068291E-011  0.5052891E+02  0.7816164E-02  0.1300439E+00
        -11   -1    0    0    0    0  0.00000000000E+00  0.00000000000E+00  0.45593999997E+02  0.45594000000E+02  0.51100000000E-03 0.  1.
         11   -1    0    0    0    0 -0.00000000000E+00 -0.00000000000E+00 -0.45593999997E+02  0.45594000000E+02  0.51100000000E-03 0. -1.
    9900012    2    1    2    0    0 -0.15429556548E+01  0.39622357824E+02 -0.89916215904E+01  0.50528914785E+02  0.30000166980E+02 0.  0.
        -12    1    1    2    0    0  0.15429556548E+01 -0.39622357824E+02  0.89916215904E+01  0.40659085215E+02  0.00000000000E+00 0.  1.
         11    1    3    3    0    0 -0.94676658110E+01  0.20381447452E+02  0.56329142399E+01  0.23168293404E+02  0.51100000000E-03 0. -1.
        -11    1    3    3    0    0  0.95050427231E+01  0.12175005378E+02 -0.73809700970E+01  0.17118858401E+02  0.51100000000E-03 0.  1.
        -12    1    3    3    0    0 -0.15803325670E+01  0.70659049939E+01 -0.72435657333E+01  0.10241762980E+02  0.00000000000E+00 0.  1.
</event>
<event>
 7    1  0.5068291E-011  0.5052885E+02  0.7816164E-02  0.1300439E+00
        -11   -1    0    0    0    0  0.00000000000E+00  0.00000000000E+00  0.45593999997E+02  0.45594000000E+02  0.51100000000E-03 0.  1.
         11   -1    0    0    0    0 -0.00000000000E+00 -0.00000000000E+00 -0.45593999997E+02  0.45594000000E+02  0.51100000000E-03 0. -1.
    9900012    2    1    2    0    0 -0.10362921436E+02 -0.39140939473E+02 -0.37099087053E+01  0.50528847203E+02  0.29999961559E+02 0.  0.
        -12    1    1    2    0    0  0.10362921436E+02  0.39140939473E+02  0.37099087053E+01  0.40659152797E+02  0.00000000000E+00 0.  1.
         11    1    3    3    0    0 -0.13243771993E+01 -0.10107086219E+02 -0.11482219191E+02  0.15354104488E+02  0.51100000000E-03 0. -1.
        -11    1    3    3    0    0 -0.30108985687E+01 -0.18501825584E+01 -0.36486614515E+01  0.50795094585E+01  0.51100000000E-03 0.  1.
         12    1    3    3    0    0 -0.60276456681E+01 -0.27183670696E+02  0.11420971937E+02  0.30095233257E+02  0.00000000000E+00 0. -1.
</event>
<event>
 7    1  0.5068291E-011  0.5052886E+02  0.7816164E-02  0.1300439E+00
        -11   -1    0    0    0    0  0.00000000000E+00  0.00000000000E+00  0.45593999997E+02  0.45594000000E+02  0.51100000000E-03 0.  1.
         11   -1    0    0    0    0 -0.00000000000E+00 -0.00000000000E+00 -0.45593999997E+02  0.45594000000E+02  0.51100000000E-03 0. -1.
    9900012    2    1    2    0    0 -0.92020870716E+01 -0.20797564470E+02 -0.33703841966E+02  0.50528855178E+02  0.29999985800E+02 0.  0.
        -12    1    1    2    0    0  0.92020870716E+01  0.20797564470E+02  0.33703841966E+02  0.40659144822E+02  0.00000000000E+00 0.  1.
         11    1    3    3    0    0 -0.11230773954E+01 -0.10493581673E+02 -0.21367802250E+02  0.23831901569E+02  0.51100000000E-03 0. -1.
        -11    1    3    3    0    0 -0.11716411294E+02  0.54840945991E+00 -0.35091616837E+01  0.12242927041E+02  0.51100000000E-03 0.  1.
        -12    1    3    3    0    0  0.36374016178E+01 -0.10852392257E+02 -0.88268780323E+01  0.14454026568E+02  0.00000000000E+00 0.  1.
</event>
<event>
 7    1  0.5068291E-011  0.5052885E+02  0.7816164E-02  0.1300439E+00
        -11   -1    0    0    0    0  0.00000000000E+00  0.00000000000E+00  0.45593999997E+02  0.45594000000E+02  0.51100000000E-03 0.  1.
         11   -1    0    0    0    0 -0.00000000000E+00 -0.00000000000E+00 -0.45593999997E+02  0.45594000000E+02  0.51100000000E-03 0. -1.
    9900012    2    1    2    0    0  0.79161031684E+01 -0.18811274487E+02 -0.35165856589E+02  0.50528853343E+02  0.29999980222E+02 0.  0.
        -12    1    1    2    0    0 -0.79161031684E+01  0.18811274487E+02  0.35165856589E+02  0.40659146657E+02  0.00000000000E+00 0.  1.
         11    1    3    3    0    0  0.31667173480E+01 -0.10179464451E+02  0.28599805753E+01  0.11037621321E+02  0.51100000000E-03 0. -1.
        -11    1    3    3    0    0  0.31128352326E+00 -0.65451244910E+00 -0.97811326564E+01  0.98079478120E+01  0.51100000000E-03 0.  1.
         12    1    3    3    0    0  0.44381022972E+01 -0.79772975872E+01 -0.28244704508E+02  0.29683284211E+02  0.00000000000E+00 0. -1.
</event>
<event>
 7    1  0.5068291E-011  0.5052886E+02  0.7816164E-02  0.1300439E+00
        -11   -1    0    0    0    0  0.00000000000E+00  0.00000000000E+00  0.45593999997E+02  0.45594000000E+02  0.51100000000E-03 0.  1.
         11   -1    0    0    0    0 -0.00000000000E+00 -0.00000000000E+00 -0.45593999997E+02  0.45594000000E+02  0.51100000000E-03 0. -1.
    9900012    2    1    2    0    0  0.23755003413E+02 -0.28457594754E+02 -0.16704204878E+02  0.50528863918E+02  0.30000012366E+02 0.  0.
        -12    1    1    2    0    0 -0.23755003413E+02  0.28457594754E+02  0.16704204878E+02  0.40659136082E+02  0.00000000000E+00 0.  1.
         11    1    3    3    0    0  0.18541114278E+02 -0.28760455134E+02 -0.15204813927E+02  0.37444933770E+02  0.51100000000E-03 0. -1.
        -11    1    3    3    0    0  0.51302934165E+01 -0.31079478589E+01  0.35648309946E+01  0.69776264384E+01  0.51100000000E-03 0.  1.
         12    1    3    3    0    0  0.83595718299E-01  0.34108082392E+01 -0.50642219449E+01  0.61063037098E+01  0.00000000000E+00 0. -1.
</event>
<event>
 7    1  0.5068291E-011  0.5052886E+02  0.7816164E-02  0.1300439E+00
        -11   -1    0    0    0    0  0.00000000000E+00  0.00000000000E+00  0.45593999997E+02  0.45594000000E+02  0.51100000000E-03 0. -1.
         11   -1    0    0    0    0 -0.00000000000E+00 -0.00000000000E+00 -0.45593999997E+02  0.45594000000E+02  0.51100000000E-03 0.  1.
    9900012    2    1    2    0    0  0.24187199453E+02 -0.22672608215E+02  0.23539279234E+02  0.50528862681E+02  0.30000008606E+02 0.  0.
        -12    1    1    2    0    0 -0.24187199453E+02  0.22672608215E+02 -0.23539279234E+02  0.40659137319E+02  0.00000000000E+00 0.  1.
         11    1    3    3    0    0  0.22391023150E+02 -0.21623645469E+02  0.12890100405E+02  0.33691165753E+02  0.51100000000E-03 0. -1.
        -11    1    3    3    0    0  0.26131468681E+01  0.56750076333E+01  0.46309428212E+01  0.77768811144E+01  0.51100000000E-03 0.  1.
         12    1    3    3    0    0 -0.81697056499E+00 -0.67239703798E+01  0.60182360076E+01  0.90608158140E+01  0.00000000000E+00 0. -1.
</event>
<event>
 7    1  0.5068291E-011  0.5052885E+02  0.7816164E-02  0.1300439E+00
        -11   -1    0    0    0    0  0.00000000000E+00  0.00000000000E+00  0.45593999997E+02  0.45594000000E+02  0.51100000000E-03 0. -1.
         11   -1    0    0    0    0 -0.00000000000E+00 -0.00000000000E+00 -0.45593999997E+02  0.45594000000E+02  0.51100000000E-03 0.  1.
    9900012    2    1    2    0    0 -0.34259602558E+02 -0.14076749388E+02 -0.16771732775E+02  0.50528852677E+02  0.29999978197E+02 0.  0.
        -12    1    1    2    0    0  0.34259602558E+02  0.14076749388E+02  0.16771732775E+02  0.40659147323E+02  0.00000000000E+00 0.  1.
         11    1    3    3    0    0 -0.34907784997E+02 -0.16046153593E+02 -0.19471582051E+02  0.43071742550E+02  0.51100000000E-03 0. -1.
        -11    1    3    3    0    0  0.36479881490E+01  0.83707906722E+00  0.13645762473E+01  0.39837905939E+01  0.51100000000E-03 0.  1.
         12    1    3    3    0    0 -0.29998057103E+01  0.11323251374E+01  0.13352730287E+01  0.34733195329E+01  0.00000000000E+00 0. -1.
</event>
<event>
 7    1  0.5068291E-011  0.5052886E+02  0.7816164E-02  0.1300439E+00
        -11   -1    0    0    0    0  0.00000000000E+00  0.00000000000E+00  0.45593999997E+02  0.45594000000E+02  0.51100000000E-03 0.  1.
         11   -1    0    0    0    0 -0.00000000000E+00 -0.00000000000E+00 -0.45593999997E+02  0.45594000000E+02  0.51100000000E-03 0. -1.
    9900012    2    1    2    0    0 -0.17893710108E+02 -0.29450483140E+02 -0.21578928232E+02  0.50528856351E+02  0.29999989365E+02 0.  0.
        -12    1    1    2    0    0  0.17893710108E+02  0.29450483140E+02  0.21578928232E+02  0.40659143649E+02  0.00000000000E+00 0.  1.
         11    1    3    3    0    0 -0.40548161121E+01 -0.17814036267E+02 -0.14740201282E+02  0.23474559760E+02  0.51100000000E-03 0. -1.
        -11    1    3    3    0    0  0.59725651478E+00 -0.22557807862E+01  0.54324119952E+01  0.59123906033E+01  0.51100000000E-03 0.  1.
        -12    1    3    3    0    0 -0.14436150510E+02 -0.93806660868E+01 -0.12271138946E+02  0.21141905988E+02  0.00000000000E+00 0.  1.
</event>
<event>
 7    1  0.5068291E-011  0.5052887E+02  0.7816164E-02  0.1300439E+00
        -11   -1    0    0    0    0  0.00000000000E+00  0.00000000000E+00  0.45593999997E+02  0.45594000000E+02  0.51100000000E-03 0.  1.
         11   -1    0    0    0    0 -0.00000000000E+00 -0.00000000000E+00 -0.45593999997E+02  0.45594000000E+02  0.51100000000E-03 0. -1.
    9900012    2    1    2    0    0 -0.21876243915E+02 -0.10844812347E+02 -0.32511308682E+02  0.50528865788E+02  0.30000018048E+02 0.  0.
        -12    1    1    2    0    0  0.21876243915E+02  0.10844812347E+02  0.32511308682E+02  0.40659134212E+02  0.00000000000E+00 0.  1.
         11    1    3    3    0    0 -0.15193496430E+02 -0.19588692648E+02 -0.12991640904E+02  0.27988246588E+02  0.51100000000E-03 0. -1.
        -11    1    3    3    0    0 -0.46473416708E+01  0.56650955056E+01 -0.10585825982E+02  0.12874424402E+02  0.51100000000E-03 0.  1.
         12    1    3    3    0    0 -0.20354058139E+01  0.30787847947E+01 -0.89338417959E+01  0.96661947980E+01  0.00000000000E+00 0. -1.
</event>
<event>
 7    1  0.5068291E-011  0.5052886E+02  0.7816164E-02  0.1300439E+00
        -11   -1    0    0    0    0  0.00000000000E+00  0.00000000000E+00  0.45593999997E+02  0.45594000000E+02  0.51100000000E-03 0.  1.
         11   -1    0    0    0    0 -0.00000000000E+00 -0.00000000000E+00 -0.45593999997E+02  0.45594000000E+02  0.51100000000E-03 0. -1.
    9900012    2    1    2    0    0  0.48646356499E+01  0.65497686264E+01 -0.39832167996E+02  0.50528858883E+02  0.29999997061E+02 0.  0.
        -12    1    1    2    0    0 -0.48646356499E+01 -0.65497686264E+01  0.39832167996E+02  0.40659141117E+02  0.00000000000E+00 0.  1.
         11    1    3    3    0    0  0.21520770852E+00 -0.66216630495E+01 -0.14344547463E+02  0.15800594232E+02  0.51100000000E-03 0. -1.
        -11    1    3    3    0    0  0.10407873523E+02  0.69645001673E+01 -0.68883959167E+01  0.14292588724E+02  0.51100000000E-03 0.  1.
         12    1    3    3    0    0 -0.57584455821E+01  0.62069315087E+01 -0.18599224616E+02  0.20435675927E+02  0.00000000000E+00 0. -1.
</event>
<event>
 7    1  0.5068291E-011  0.5052886E+02  0.7816164E-02  0.1300439E+00
        -11   -1    0    0    0    0  0.00000000000E+00  0.00000000000E+00  0.45593999997E+02  0.45594000000E+02  0.51100000000E-03 0. -1.
         11   -1    0    0    0    0 -0.00000000000E+00 -0.00000000000E+00 -0.45593999997E+02  0.45594000000E+02  0.51100000000E-03 0.  1.
    9900012    2    1    2    0    0  0.56266976483E+01  0.12929999778E+02  0.38135556571E+02  0.50528864549E+02  0.30000014282E+02 0.  0.
        -12    1    1    2    0    0 -0.56266976483E+01 -0.12929999778E+02 -0.38135556571E+02  0.40659135451E+02  0.00000000000E+00 0.  1.
         11    1    3    3    0    0 -0.99628616834E+01  0.97419897415E+00  0.11238601072E+02  0.15050376436E+02  0.51100000000E-03 0. -1.
        -11    1    3    3    0    0  0.49950992019E+01 -0.15388897987E+01  0.28942446078E+01  0.59746004017E+01  0.51100000000E-03 0.  1.
         12    1    3    3    0    0  0.10594460130E+02  0.13494690603E+02  0.24002710891E+02  0.29503887710E+02  0.00000000000E+00 0. -1.
</event>
<event>
 7    1  0.5068291E-011  0.5052886E+02  0.7816164E-02  0.1300439E+00
        -11   -1    0    0    0    0  0.00000000000E+00  0.00000000000E+00  0.45593999997E+02  0.45594000000E+02  0.51100000000E-03 0.  1.
         11   -1    0    0    0    0 -0.00000000000E+00 -0.00000000000E+00 -0.45593999997E+02  0.45594000000E+02  0.51100000000E-03 0. -1.
    9900012    2    1    2    0    0  0.20531675152E+02  0.19871013360E+02 -0.28926779537E+02  0.50528862885E+02  0.30000009226E+02 0.  0.
        -12    1    1    2    0    0 -0.20531675152E+02 -0.19871013360E+02  0.28926779537E+02  0.40659137115E+02  0.00000000000E+00 0.  1.
         11    1    3    3    0    0  0.13779613619E+02  0.21469001272E+02 -0.76358121987E+01  0.26628957833E+02  0.51100000000E-03 0. -1.
        -11    1    3    3    0    0  0.39458649088E+00 -0.28587871580E+01 -0.13307229918E+02  0.13616560904E+02  0.51100000000E-03 0.  1.
         12    1    3    3    0    0  0.63574750427E+01  0.12607992461E+01 -0.79837374209E+01  0.10283344148E+02  0.00000000000E+00 0. -1.
</event>
<event>
 7    1  0.5068291E-011  0.5052880E+02  0.7816164E-02  0.1300439E+00
        -11   -1    0    0    0    0  0.00000000000E+00  0.00000000000E+00  0.45593999997E+02  0.45594000000E+02  0.51100000000E-03 0.  1.
         11   -1    0    0    0    0 -0.00000000000E+00 -0.00000000000E+00 -0.45593999997E+02  0.45594000000E+02  0.51100000000E-03 0. -1.
    9900012    2    1    2    0    0  0.34115557958E+02  0.12823899618E+02 -0.18023508581E+02  0.50528799838E+02  0.29999817588E+02 0.  0.
        -12    1    1    2    0    0 -0.34115557958E+02 -0.12823899618E+02  0.18023508581E+02  0.40659200162E+02  0.00000000000E+00 0.  1.
         11    1    3    3    0    0  0.82683401564E+01 -0.95309872779E+01 -0.75214607125E+01  0.14689368228E+02  0.51100000000E-03 0. -1.
        -11    1    3    3    0    0  0.21314214826E+02  0.17452512583E+02 -0.91436902055E+01  0.29025730308E+02  0.51100000000E-03 0.  1.
         12    1    3    3    0    0  0.45330029764E+01  0.49023743136E+01 -0.13583576628E+01  0.68137013021E+01  0.00000000000E+00 0. -1.
</event>
<event>
 7    1  0.5068291E-011  0.5052878E+02  0.7816164E-02  0.1300439E+00
        -11   -1    0    0    0    0  0.00000000000E+00  0.00000000000E+00  0.45593999997E+02  0.45594000000E+02  0.51100000000E-03 0. -1.
         11   -1    0    0    0    0 -0.00000000000E+00 -0.00000000000E+00 -0.45593999997E+02  0.45594000000E+02  0.51100000000E-03 0.  1.
    9900012    2    1    2    0    0 -0.23770897231E+02 -0.13282922198E+02  0.30194052471E+02  0.50528777406E+02  0.29999749403E+02 0.  0.
        -12    1    1    2    0    0  0.23770897231E+02  0.13282922198E+02 -0.30194052471E+02  0.40659222594E+02  0.00000000000E+00 0.  1.
         11    1    3    3    0    0  0.25777697383E+01  0.55412760975E+00 -0.23484306296E+01  0.35308753752E+01  0.51100000000E-03 0.  1.
        -11    1    3    3    0    0 -0.26209139513E+02 -0.16615490030E+02  0.28820038381E+02  0.42350774674E+02  0.51100000000E-03 0. -1.
         12    1    3    3    0    0 -0.13952745621E+00  0.27784402221E+01  0.37224447197E+01  0.46471273568E+01  0.00000000000E+00 0. -1.
</event>
<event>
 7    1  0.5068291E-011  0.5052883E+02  0.7816164E-02  0.1300439E+00
        -11   -1    0    0    0    0  0.00000000000E+00  0.00000000000E+00  0.45593999997E+02  0.45594000000E+02  0.51100000000E-03 0.  1.
         11   -1    0    0    0    0 -0.00000000000E+00 -0.00000000000E+00 -0.45593999997E+02  0.45594000000E+02  0.51100000000E-03 0. -1.
    9900012    2    1    2    0    0 -0.20570249513E+02  0.13875145998E+02 -0.32210447301E+02  0.50528834283E+02  0.29999922287E+02 0.  0.
        -12    1    1    2    0    0  0.20570249513E+02 -0.13875145998E+02  0.32210447301E+02  0.40659165717E+02  0.00000000000E+00 0.  1.
         11    1    3    3    0    0  0.12156600249E+01  0.63750466165E+01 -0.65410964115E+01  0.92143904402E+01  0.51100000000E-03 0. -1.
        -11    1    3    3    0    0 -0.21604119862E+02 -0.15413623636E+01 -0.11547062411E+02  0.24544825188E+02  0.51100000000E-03 0.  1.
        -12    1    3    3    0    0 -0.18178967566E+00  0.90414617447E+01 -0.14122288478E+02  0.16769618655E+02  0.00000000000E+00 0.  1.
</event>
<event>
 7    1  0.5068291E-011  0.5052886E+02  0.7816164E-02  0.1300439E+00
        -11   -1    0    0    0    0  0.00000000000E+00  0.00000000000E+00  0.45593999997E+02  0.45594000000E+02  0.51100000000E-03 0. -1.
         11   -1    0    0    0    0 -0.00000000000E+00 -0.00000000000E+00 -0.45593999997E+02  0.45594000000E+02  0.51100000000E-03 0.  1.
    9900012    2    1    2    0    0  0.21900317121E+01  0.18143188035E+02  0.36320716793E+02  0.50528856141E+02  0.29999988727E+02 0.  0.
        -12    1    1    2    0    0 -0.21900317121E+01 -0.18143188035E+02 -0.36320716793E+02  0.40659143859E+02  0.00000000000E+00 0.  1.
         11    1    3    3    0    0  0.75592080499E+01  0.14032046988E+02  0.78353375687E+01  0.17760419029E+02  0.51100000000E-03 0. -1.
        -11    1    3    3    0    0 -0.95899082722E+00 -0.49481536962E+01  0.45159595698E+01  0.67674056702E+01  0.51100000000E-03 0.  1.
         12    1    3    3    0    0 -0.44101855107E+01  0.90592947434E+01  0.23969419654E+02  0.26001031442E+02  0.00000000000E+00 0. -1.
</event>
<event>
 7    1  0.5068291E-011  0.5052886E+02  0.7816164E-02  0.1300439E+00
        -11   -1    0    0    0    0  0.00000000000E+00  0.00000000000E+00  0.45593999997E+02  0.45594000000E+02  0.51100000000E-03 0. -1.
         11   -1    0    0    0    0 -0.00000000000E+00 -0.00000000000E+00 -0.45593999997E+02  0.45594000000E+02  0.51100000000E-03 0.  1.
    9900012    2    1    2    0    0 -0.10408688079E+02  0.19583636993E+02  0.34077939121E+02  0.50528861296E+02  0.30000004396E+02 0.  0.
        -12    1    1    2    0    0  0.10408688079E+02 -0.19583636993E+02 -0.34077939121E+02  0.40659138704E+02  0.00000000000E+00 0.  1.
         11    1    3    3    0    0 -0.91310384697E+01  0.23818947974E+01  0.43215603026E+01  0.10379073662E+02  0.51100000000E-03 0. -1.
        -11    1    3    3    0    0  0.47606699688E+01  0.13402287426E+02  0.29794886421E+02  0.33015459165E+02  0.51100000000E-03 0.  1.
        -12    1    3    3    0    0 -0.60383195783E+01  0.37994547693E+01 -0.38507602748E-01  0.71343284694E+01  0.00000000000E+00 0.  1.
</event>
<event>
 7    1  0.5068291E-011  0.5052886E+02  0.7816164E-02  0.1300439E+00
        -11   -1    0    0    0    0  0.00000000000E+00  0.00000000000E+00  0.45593999997E+02  0.45594000000E+02  0.51100000000E-03 0.  1.
         11   -1    0    0    0    0 -0.00000000000E+00 -0.00000000000E+00 -0.45593999997E+02  0.45594000000E+02  0.51100000000E-03 0. -1.
    9900012    2    1    2    0    0  0.18511247198E+02 -0.15170591991E+02 -0.32868716583E+02  0.50528860019E+02  0.30000000513E+02 0.  0.
        -12    1    1    2    0    0 -0.18511247198E+02  0.15170591991E+02  0.32868716583E+02  0.40659139981E+02  0.00000000000E+00 0.  1.
         11    1    3    3    0    0  0.10716403672E+02 -0.18631817712E+02 -0.11621399867E+02  0.24434460789E+02  0.51100000000E-03 0.  1.
        -11    1    3    3    0    0  0.90293907643E+01  0.49753409684E+01 -0.21756516264E+02  0.24075504471E+02  0.51100000000E-03 0. -1.
         12    1    3    3    0    0 -0.12345472388E+01 -0.15141152475E+01  0.50919954787E+00  0.20188947588E+01  0.00000000000E+00 0. -1.
</event>
<event>
 7    1  0.5068291E-011  0.5052882E+02  0.7816164E-02  0.1300439E+00
        -11   -1    0    0    0    0  0.00000000000E+00  0.00000000000E+00  0.45593999997E+02  0.45594000000E+02  0.51100000000E-03 0. -1.
         11   -1    0    0    0    0 -0.00000000000E+00 -0.00000000000E+00 -0.45593999997E+02  0.45594000000E+02  0.51100000000E-03 0.  1.
    9900012    2    1    2    0    0 -0.33241078826E+02  0.20676552539E+02  0.10985442809E+02  0.50528817764E+02  0.29999872075E+02 0.  0.
        -12    1    1    2    0    0  0.33241078826E+02 -0.20676552539E+02 -0.10985442809E+02  0.40659182236E+02  0.00000000000E+00 0.  1.
         11    1    3    3    0    0 -0.84047962687E+01  0.12307790798E+02  0.64038590379E+01  0.16221335502E+02  0.51100000000E-03 0. -1.
        -11    1    3    3    0    0 -0.12490783327E+02  0.13246763112E+01 -0.83568768579E+01  0.15086809687E+02  0.51100000000E-03 0.  1.
        -12    1    3    3    0    0 -0.12345499230E+02  0.70440854295E+01  0.12938460629E+02  0.19220672575E+02  0.00000000000E+00 0.  1.
</event>
<event>
 7    1  0.5068291E-011  0.5052887E+02  0.7816164E-02  0.1300439E+00
        -11   -1    0    0    0    0  0.00000000000E+00  0.00000000000E+00  0.45593999997E+02  0.45594000000E+02  0.51100000000E-03 0.  1.
         11   -1    0    0    0    0 -0.00000000000E+00 -0.00000000000E+00 -0.45593999997E+02  0.45594000000E+02  0.51100000000E-03 0. -1.
    9900012    2    1    2    0    0  0.13761791504E+02  0.16923821039E+02 -0.34312718082E+02  0.50528865157E+02  0.30000016132E+02 0.  0.
        -12    1    1    2    0    0 -0.13761791504E+02 -0.16923821039E+02  0.34312718082E+02  0.40659134843E+02  0.00000000000E+00 0.  1.
         11    1    3    3    0    0 -0.66531689826E+01  0.13065190924E+01 -0.10075964953E+02  0.12144822751E+02  0.51100000000E-03 0. -1.
        -11    1    3    3    0    0  0.14304060610E+02  0.17641388668E+02 -0.15357391403E+02  0.27416677680E+02  0.51100000000E-03 0.  1.
         12    1    3    3    0    0  0.61108998767E+01 -0.20240867218E+01 -0.88793617268E+01  0.10967364726E+02  0.00000000000E+00 0. -1.
</event>
<event>
 7    1  0.5068291E-011  0.5052887E+02  0.7816164E-02  0.1300439E+00
        -11   -1    0    0    0    0  0.00000000000E+00  0.00000000000E+00  0.45593999997E+02  0.45594000000E+02  0.51100000000E-03 0. -1.
         11   -1    0    0    0    0 -0.00000000000E+00 -0.00000000000E+00 -0.45593999997E+02  0.45594000000E+02  0.51100000000E-03 0.  1.
    9900012    2    1    2    0    0 -0.52211202410E+01  0.25054628163E+02  0.31593837280E+02  0.50528867655E+02  0.30000023725E+02 0.  0.
        -12    1    1    2    0    0  0.52211202410E+01 -0.25054628163E+02 -0.31593837280E+02  0.40659132345E+02  0.00000000000E+00 0.  1.
         11    1    3    3    0    0 -0.10128851315E+01  0.71721045509E+01  0.63670957815E+01  0.96439063108E+01  0.51100000000E-03 0. -1.
        -11    1    3    3    0    0 -0.10883746010E+02  0.75782710491E+01  0.49273457674E+00  0.13271356635E+02  0.51100000000E-03 0.  1.
        -12    1    3    3    0    0  0.66755109004E+01  0.10304252563E+02  0.24734006922E+02  0.27613604710E+02  0.00000000000E+00 0.  1.
</event>
<event>
 7    1  0.5068291E-011  0.5052885E+02  0.7816164E-02  0.1300439E+00
        -11   -1    0    0    0    0  0.00000000000E+00  0.00000000000E+00  0.45593999997E+02  0.45594000000E+02  0.51100000000E-03 0.  1.
         11   -1    0    0    0    0 -0.00000000000E+00 -0.00000000000E+00 -0.45593999997E+02  0.45594000000E+02  0.51100000000E-03 0. -1.
    9900012    2    1    2    0    0  0.31479486167E+02  0.19788220977E+02 -0.16450982914E+02  0.50528848784E+02  0.29999966364E+02 0.  0.
        -12    1    1    2    0    0 -0.31479486167E+02 -0.19788220977E+02  0.16450982914E+02  0.40659151216E+02  0.00000000000E+00 0.  1.
         11    1    3    3    0    0  0.87719708329E+01  0.15506508252E+02 -0.19263701758E+02  0.26239082990E+02  0.51100000000E-03 0. -1.
        -11    1    3    3    0    0  0.40743830655E+01 -0.11736104647E+01  0.23955623231E+01  0.48699772065E+01  0.51100000000E-03 0.  1.
         12    1    3    3    0    0  0.18633132268E+02  0.54553231896E+01  0.41715652086E+00  0.19419788588E+02  0.00000000000E+00 0. -1.
</event>
<event>
 7    1  0.5068291E-011  0.5052886E+02  0.7816164E-02  0.1300439E+00
        -11   -1    0    0    0    0  0.00000000000E+00  0.00000000000E+00  0.45593999997E+02  0.45594000000E+02  0.51100000000E-03 0. -1.
         11   -1    0    0    0    0 -0.00000000000E+00 -0.00000000000E+00 -0.45593999997E+02  0.45594000000E+02  0.51100000000E-03 0.  1.
    9900012    2    1    2    0    0 -0.99213775032E+01  0.14388706046E+02  0.36710989504E+02  0.50528863959E+02  0.30000012489E+02 0.  0.
        -12    1    1    2    0    0  0.99213775032E+01 -0.14388706046E+02 -0.36710989504E+02  0.40659136041E+02  0.00000000000E+00 0.  1.
         11    1    3    3    0    0 -0.11485044544E+02  0.18687358744E+01  0.33095446946E+02  0.35081434274E+02  0.51100000000E-03 0. -1.
        -11    1    3    3    0    0  0.11442113379E+01  0.66743909859E+01 -0.22695380965E+01  0.71419547780E+01  0.51100000000E-03 0.  1.
         12    1    3    3    0    0  0.41945570270E+00  0.58455791856E+01  0.58850806553E+01  0.83054749064E+01  0.00000000000E+00 0. -1.
</event>
<event>
 7    1  0.8839551E-011  0.5052888E+02  0.7816164E-02  0.1300439E+00
        -11   -1    0    0    0    0  0.00000000000E+00  0.00000000000E+00  0.45593999997E+02  0.45594000000E+02  0.51100000000E-03 0. -1.
         11   -1    0    0    0    0 -0.00000000000E+00 -0.00000000000E+00 -0.45593999997E+02  0.45594000000E+02  0.51100000000E-03 0.  1.
    9900012    2    1    2    0    0  0.38130785802E+02  0.72869677348E+01  0.12087492841E+02  0.50528877925E+02  0.30000054942E+02 0.  0.
        -12    1    1    2    0    0 -0.38130785802E+02 -0.72869677348E+01 -0.12087492841E+02  0.40659122075E+02  0.00000000000E+00 0.  1.
         11    1    3    3    0    0  0.26247135676E+02  0.75547247693E+01  0.12917285300E+02  0.30213279486E+02  0.51100000000E-03 0. -1.
        -11    1    3    3    0    0 -0.19956966952E+01  0.48924371813E+01 -0.15008456792E+01  0.54928394193E+01  0.51100000000E-03 0.  1.
         12    1    3    3    0    0  0.13879346822E+02 -0.51601942158E+01  0.67105322087E+00  0.14822759020E+02  0.00000000000E+00 0. -1.
</event>
<event>
 7    1  0.5068291E-011  0.5052887E+02  0.7816164E-02  0.1300439E+00
        -11   -1    0    0    0    0  0.00000000000E+00  0.00000000000E+00  0.45593999997E+02  0.45594000000E+02  0.51100000000E-03 0.  1.
         11   -1    0    0    0    0 -0.00000000000E+00 -0.00000000000E+00 -0.45593999997E+02  0.45594000000E+02  0.51100000000E-03 0. -1.
    9900012    2    1    2    0    0 -0.63659465570E+01  0.95557003817E+01 -0.39004210995E+02  0.50528866208E+02  0.30000019327E+02 0.  0.
        -12    1    1    2    0    0  0.63659465570E+01 -0.95557003817E+01  0.39004210995E+02  0.40659133792E+02  0.00000000000E+00 0.  1.
         11    1    3    3    0    0 -0.55031413763E+01  0.95935381881E+01 -0.21530783513E+02  0.24205271717E+02  0.51100000000E-03 0. -1.
        -11    1    3    3    0    0 -0.51598273689E+01 -0.72109335737E+01 -0.15300678788E+02  0.17684234592E+02  0.51100000000E-03 0.  1.
        -12    1    3    3    0    0  0.42970221881E+01  0.71730957674E+01 -0.21727486946E+01  0.86393598990E+01  0.00000000000E+00 0.  1.
</event>
<event>
 7    1  0.5068291E-011  0.5052885E+02  0.7816164E-02  0.1300439E+00
        -11   -1    0    0    0    0  0.00000000000E+00  0.00000000000E+00  0.45593999997E+02  0.45594000000E+02  0.51100000000E-03 0.  1.
         11   -1    0    0    0    0 -0.00000000000E+00 -0.00000000000E+00 -0.45593999997E+02  0.45594000000E+02  0.51100000000E-03 0. -1.
    9900012    2    1    2    0    0  0.13900367217E+01 -0.38866512507E+02 -0.11858695638E+02  0.50528847785E+02  0.29999963329E+02 0.  0.
        -12    1    1    2    0    0 -0.13900367217E+01  0.38866512507E+02  0.11858695638E+02  0.40659152215E+02  0.00000000000E+00 0.  1.
         11    1    3    3    0    0  0.10915942682E+02 -0.64169289214E+01 -0.45178580292E+01  0.13444174309E+02  0.51100000000E-03 0. -1.
        -11    1    3    3    0    0 -0.73441039190E+01 -0.18376781297E+02  0.22467764324E+01  0.19917077039E+02  0.51100000000E-03 0.  1.
        -12    1    3    3    0    0 -0.21818020412E+01 -0.14072802289E+02 -0.95876140416E+01  0.17167596437E+02  0.00000000000E+00 0.  1.
</event>
<event>
 7    1  0.5068291E-011  0.5052884E+02  0.7816164E-02  0.1300439E+00
        -11   -1    0    0    0    0  0.00000000000E+00  0.00000000000E+00  0.45593999997E+02  0.45594000000E+02  0.51100000000E-03 0.  1.
         11   -1    0    0    0    0 -0.00000000000E+00 -0.00000000000E+00 -0.45593999997E+02  0.45594000000E+02  0.51100000000E-03 0. -1.
    9900012    2    1    2    0    0 -0.24898417886E+02 -0.10059757165E+01 -0.32128241654E+02  0.50528842211E+02  0.29999946384E+02 0.  0.
        -12    1    1    2    0    0  0.24898417886E+02  0.10059757165E+01  0.32128241654E+02  0.40659157789E+02  0.00000000000E+00 0.  1.
         11    1    3    3    0    0 -0.24001887461E+02 -0.90105616210E+01 -0.12650568401E+02  0.28588768836E+02  0.51100000000E-03 0. -1.
        -11    1    3    3    0    0 -0.31957731028E+01  0.44571109584E+01 -0.79200988360E+01  0.96336270248E+01  0.51100000000E-03 0.  1.
         12    1    3    3    0    0  0.22992426774E+01  0.35474749461E+01 -0.11557574416E+02  0.12306446350E+02  0.00000000000E+00 0. -1.
</event>
<event>
 7    1  0.5068291E-011  0.5052887E+02  0.7816164E-02  0.1300439E+00
        -11   -1    0    0    0    0  0.00000000000E+00  0.00000000000E+00  0.45593999997E+02  0.45594000000E+02  0.51100000000E-03 0.  1.
         11   -1    0    0    0    0 -0.00000000000E+00 -0.00000000000E+00 -0.45593999997E+02  0.45594000000E+02  0.51100000000E-03 0. -1.
    9900012    2    1    2    0    0  0.12185748494E+00 -0.17552170690E+02 -0.36675213808E+02  0.50528869992E+02  0.30000030827E+02 0.  0.
        -12    1    1    2    0    0 -0.12185748494E+00  0.17552170690E+02  0.36675213808E+02  0.40659130008E+02  0.00000000000E+00 0.  1.
         11    1    3    3    0    0 -0.12245825543E+01 -0.23140220821E+02 -0.30773441946E+02  0.38522385071E+02  0.51100000000E-03 0. -1.
        -11    1    3    3    0    0 -0.34119078322E+01  0.36695015999E+01 -0.14564825091E+01  0.52180167313E+01  0.51100000000E-03 0.  1.
         12    1    3    3    0    0  0.47583478715E+01  0.19185485310E+01 -0.44452893523E+01  0.67884681893E+01  0.00000000000E+00 0. -1.
</event>
<event>
 7    1  0.5068291E-011  0.5052886E+02  0.7816164E-02  0.1300439E+00
        -11   -1    0    0    0    0  0.00000000000E+00  0.00000000000E+00  0.45593999997E+02  0.45594000000E+02  0.51100000000E-03 0.  1.
         11   -1    0    0    0    0 -0.00000000000E+00 -0.00000000000E+00 -0.45593999997E+02  0.45594000000E+02  0.51100000000E-03 0. -1.
    9900012    2    1    2    0    0  0.24340211669E+02 -0.15750039059E+02 -0.28507125217E+02  0.50528858069E+02  0.29999994585E+02 0.  0.
        -12    1    1    2    0    0 -0.24340211669E+02  0.15750039059E+02  0.28507125217E+02  0.40659141931E+02  0.00000000000E+00 0.  1.
         11    1    3    3    0    0  0.46351825514E+01 -0.10200852284E+02 -0.25403217337E+02  0.27764469307E+02  0.51100000000E-03 0. -1.
        -11    1    3    3    0    0  0.13035154258E+02 -0.74783283389E+01  0.30141310657E+00  0.15031017644E+02  0.51100000000E-03 0.  1.
        -12    1    3    3    0    0  0.66698748596E+01  0.19291415639E+01 -0.34053209865E+01  0.77333711173E+01  0.00000000000E+00 0.  1.
</event>
<event>
 7    1  0.5068291E-011  0.5052885E+02  0.7816164E-02  0.1300439E+00
        -11   -1    0    0    0    0  0.00000000000E+00  0.00000000000E+00  0.45593999997E+02  0.45594000000E+02  0.51100000000E-03 0.  1.
         11   -1    0    0    0    0 -0.00000000000E+00 -0.00000000000E+00 -0.45593999997E+02  0.45594000000E+02  0.51100000000E-03 0. -1.
    9900012    2    1    2    0    0 -0.27885876556E+02 -0.24515286061E+02 -0.16569399102E+02  0.50528851601E+02  0.29999974927E+02 0.  0.
        -12    1    1    2    0    0  0.27885876556E+02  0.24515286061E+02  0.16569399102E+02  0.40659148399E+02  0.00000000000E+00 0.  1.
         11    1    3    3    0    0 -0.12342629605E+02 -0.19911568653E+02 -0.92991747140E+01  0.25204874973E+02  0.51100000000E-03 0. -1.
        -11    1    3    3    0    0 -0.30337554767E+01  0.57109610490E+01  0.18436822146E+01  0.67244265752E+01  0.51100000000E-03 0.  1.
        -12    1    3    3    0    0 -0.12509491473E+02 -0.10314678457E+02 -0.91139066025E+01  0.18599550053E+02  0.00000000000E+00 0.  1.
</event>
<event>
 7    1  0.5068291E-011  0.5052877E+02  0.7816164E-02  0.1300439E+00
        -11   -1    0    0    0    0  0.00000000000E+00  0.00000000000E+00  0.45593999997E+02  0.45594000000E+02  0.51100000000E-03 0.  1.
         11   -1    0    0    0    0 -0.00000000000E+00 -0.00000000000E+00 -0.45593999997E+02  0.45594000000E+02  0.51100000000E-03 0. -1.
    9900012    2    1    2    0    0  0.69392931498E+01 -0.17162610696E+02 -0.36200329236E+02  0.50528771870E+02  0.29999732576E+02 0.  0.
        -12    1    1    2    0    0 -0.69392931498E+01  0.17162610696E+02  0.36200329236E+02  0.40659228130E+02  0.00000000000E+00 0.  1.
         11    1    3    3    0    0  0.87157209877E+01 -0.10219070945E+02 -0.62268422817E+00  0.13445480253E+02  0.51100000000E-03 0. -1.
        -11    1    3    3    0    0 -0.12665828289E+01 -0.32602831265E+00 -0.21280865244E+02  0.21321016681E+02  0.51100000000E-03 0.  1.
         12    1    3    3    0    0 -0.50984500894E+00 -0.66175114387E+01 -0.14296779763E+02  0.15762274936E+02  0.00000000000E+00 0. -1.
</event>
<event>
 7    1  0.5068291E-011  0.5052886E+02  0.7816164E-02  0.1300439E+00
        -11   -1    0    0    0    0  0.00000000000E+00  0.00000000000E+00  0.45593999997E+02  0.45594000000E+02  0.51100000000E-03 0.  1.
         11   -1    0    0    0    0 -0.00000000000E+00 -0.00000000000E+00 -0.45593999997E+02  0.45594000000E+02  0.51100000000E-03 0. -1.
    9900012    2    1    2    0    0 -0.39057981461E+02 -0.29819167711E-02 -0.11297784822E+02  0.50528857527E+02  0.29999992940E+02 0.  0.
        -12    1    1    2    0    0  0.39057981461E+02  0.29819167711E-02  0.11297784822E+02  0.40659142473E+02  0.00000000000E+00 0.  1.
         11    1    3    3    0    0  0.97168332622E+00 -0.19964756538E+01 -0.61235759259E+01  0.65136983277E+01  0.51100000000E-03 0. -1.
        -11    1    3    3    0    0 -0.33203313540E+02  0.65968908050E+01  0.76851161789E+00  0.33861033780E+02  0.51100000000E-03 0.  1.
        -12    1    3    3    0    0 -0.68263512480E+01 -0.46033970680E+01 -0.59427205138E+01  0.10154125419E+02  0.00000000000E+00 0.  1.
</event>
<event>
 7    1  0.5110039E-011  0.5052878E+02  0.7816164E-02  0.1300439E+00
        -11   -1    0    0    0    0  0.00000000000E+00  0.00000000000E+00  0.45593999997E+02  0.45594000000E+02  0.51100000000E-03 0.  1.
         11   -1    0    0    0    0 -0.00000000000E+00 -0.00000000000E+00 -0.45593999997E+02  0.45594000000E+02  0.51100000000E-03 0. -1.
    9900012    2    1    2    0    0 -0.29733008059E+02  0.14792350481E+02 -0.23458613455E+02  0.50528782764E+02  0.29999765690E+02 0.  0.
        -12    1    1    2    0    0  0.29733008059E+02 -0.14792350481E+02  0.23458613455E+02  0.40659217236E+02  0.00000000000E+00 0.  1.
         11    1    3    3    0    0 -0.25620262954E+02  0.87054723520E+01 -0.23858822623E+02  0.36075289880E+02  0.51100000000E-03 0. -1.
        -11    1    3    3    0    0 -0.41417247441E+01 -0.28842246735E+01  0.18311053466E+01  0.53689461605E+01  0.51100000000E-03 0.  1.
         12    1    3    3    0    0  0.28979639318E-01  0.89711028023E+01 -0.14308961789E+01  0.90845467242E+01  0.00000000000E+00 0. -1.
</event>
<event>
 7    1  0.5068291E-011  0.5052886E+02  0.7816164E-02  0.1300439E+00
        -11   -1    0    0    0    0  0.00000000000E+00  0.00000000000E+00  0.45593999997E+02  0.45594000000E+02  0.51100000000E-03 0.  1.
         11   -1    0    0    0    0 -0.00000000000E+00 -0.00000000000E+00 -0.45593999997E+02  0.45594000000E+02  0.51100000000E-03 0. -1.
    9900012    2    1    2    0    0 -0.21518363645E+02 -0.19341208656E+02 -0.28566469786E+02  0.50528861762E+02  0.30000005811E+02 0.  0.
        -12    1    1    2    0    0  0.21518363645E+02  0.19341208656E+02  0.28566469786E+02  0.40659138238E+02  0.00000000000E+00 0.  1.
         11    1    3    3    0    0  0.59808804308E+01 -0.13444787942E+01 -0.84699881151E+01  0.10455584770E+02  0.51100000000E-03 0.  1.
        -11    1    3    3    0    0 -0.55945709138E+01 -0.22716119284E+01  0.61921661918E+00  0.60698331069E+01  0.51100000000E-03 0. -1.
         12    1    3    3    0    0 -0.21904673162E+02 -0.15725117933E+02 -0.20715698290E+02  0.34003443885E+02  0.00000000000E+00 0. -1.
</event>
<event>
 7    1  0.5068291E-011  0.5052886E+02  0.7816164E-02  0.1300439E+00
        -11   -1    0    0    0    0  0.00000000000E+00  0.00000000000E+00  0.45593999997E+02  0.45594000000E+02  0.51100000000E-03 0.  1.
         11   -1    0    0    0    0 -0.00000000000E+00 -0.00000000000E+00 -0.45593999997E+02  0.45594000000E+02  0.51100000000E-03 0. -1.
    9900012    2    1    2    0    0  0.19058901157E+02 -0.35504799277E+02  0.54160035950E+01  0.50528861052E+02  0.30000003654E+02 0.  0.
        -12    1    1    2    0    0 -0.19058901157E+02  0.35504799277E+02 -0.54160035950E+01  0.40659138948E+02  0.00000000000E+00 0.  1.
         11    1    3    3    0    0  0.14424995534E+02 -0.30746340508E+02 -0.68629945291E+01  0.34648501338E+02  0.51100000000E-03 0. -1.
        -11    1    3    3    0    0  0.52090282506E+01 -0.22933434037E+00  0.84138752468E+01  0.98984779883E+01  0.51100000000E-03 0.  1.
         12    1    3    3    0    0 -0.57512262750E+00 -0.45291244284E+01  0.38651228774E+01  0.59818817258E+01  0.00000000000E+00 0. -1.
</event>
<event>
 7    1  0.5068291E-011  0.5052885E+02  0.7816164E-02  0.1300439E+00
        -11   -1    0    0    0    0  0.00000000000E+00  0.00000000000E+00  0.45593999997E+02  0.45594000000E+02  0.51100000000E-03 0. -1.
         11   -1    0    0    0    0 -0.00000000000E+00 -0.00000000000E+00 -0.45593999997E+02  0.45594000000E+02  0.51100000000E-03 0.  1.
    9900012    2    1    2    0    0 -0.37091985950E+02 -0.87890920768E+01  0.14145771535E+02  0.50528850801E+02  0.29999972495E+02 0.  0.
        -12    1    1    2    0    0  0.37091985950E+02  0.87890920768E+01 -0.14145771535E+02  0.40659149199E+02  0.00000000000E+00 0.  1.
         11    1    3    3    0    0  0.55215955907E+00  0.55283574857E+01 -0.12316626540E+01  0.56907477384E+01  0.51100000000E-03 0. -1.
        -11    1    3    3    0    0 -0.37492557478E+02 -0.11386359390E+02  0.14350616641E+02  0.41728662147E+02  0.51100000000E-03 0.  1.
        -12    1    3    3    0    0 -0.15158803141E+00 -0.29310901722E+01  0.10268175482E+01  0.31094409154E+01  0.00000000000E+00 0.  1.
</event>
<event>
 7    1  0.5068291E-011  0.5052886E+02  0.7816164E-02  0.1300439E+00
        -11   -1    0    0    0    0  0.00000000000E+00  0.00000000000E+00  0.45593999997E+02  0.45594000000E+02  0.51100000000E-03 0.  1.
         11   -1    0    0    0    0 -0.00000000000E+00 -0.00000000000E+00 -0.45593999997E+02  0.45594000000E+02  0.51100000000E-03 0. -1.
    9900012    2    1    2    0    0  0.31929157142E+02  0.44346425945E+01 -0.24779591123E+02  0.50528864901E+02  0.30000015354E+02 0.  0.
        -12    1    1    2    0    0 -0.31929157142E+02 -0.44346425945E+01  0.24779591123E+02  0.40659135099E+02  0.00000000000E+00 0.  1.
         11    1    3    3    0    0  0.21814714486E+02 -0.10134679690E+02 -0.68512427112E+01  0.25010658278E+02  0.51100000000E-03 0. -1.
        -11    1    3    3    0    0  0.50138229391E+01  0.44769310520E+01 -0.52455147424E+01  0.85262393400E+01  0.51100000000E-03 0.  1.
         12    1    3    3    0    0  0.51006197167E+01  0.10092391232E+02 -0.12682833670E+02  0.16991967284E+02  0.00000000000E+00 0. -1.
</event>
<event>
 7    1  0.5068291E-011  0.5052885E+02  0.7816164E-02  0.1300439E+00
        -11   -1    0    0    0    0  0.00000000000E+00  0.00000000000E+00  0.45593999997E+02  0.45594000000E+02  0.51100000000E-03 0.  1.
         11   -1    0    0    0    0 -0.00000000000E+00 -0.00000000000E+00 -0.45593999997E+02  0.45594000000E+02  0.51100000000E-03 0. -1.
    9900012    2    1    2    0    0 -0.24963188521E+02  0.19512313790E+02 -0.25480884832E+02  0.50528847741E+02  0.29999963195E+02 0.  0.
        -12    1    1    2    0    0  0.24963188521E+02 -0.19512313790E+02  0.25480884832E+02  0.40659152259E+02  0.00000000000E+00 0.  1.
         11    1    3    3    0    0 -0.55367706449E+01  0.77378562955E+01 -0.16607096495E+02  0.19139642198E+02  0.51100000000E-03 0. -1.
        -11    1    3    3    0    0 -0.66148200115E+00 -0.48844155923E+01 -0.58810947062E+00  0.49639648596E+01  0.51100000000E-03 0.  1.
         12    1    3    3    0    0 -0.18764935875E+02  0.16658873087E+02 -0.82856788664E+01  0.26425240684E+02  0.00000000000E+00 0. -1.
</event>
<event>
 7    1  0.5068291E-011  0.5052888E+02  0.7816164E-02  0.1300439E+00
        -11   -1    0    0    0    0  0.00000000000E+00  0.00000000000E+00  0.45593999997E+02  0.45594000000E+02  0.51100000000E-03 0.  1.
         11   -1    0    0    0    0 -0.00000000000E+00 -0.00000000000E+00 -0.45593999997E+02  0.45594000000E+02  0.51100000000E-03 0. -1.
    9900012    2    1    2    0    0 -0.28476741150E+02 -0.18958354223E+02 -0.21973157752E+02  0.50528884872E+02  0.30000076057E+02 0.  0.
        -12    1    1    2    0    0  0.28476741150E+02  0.18958354223E+02  0.21973157752E+02  0.40659115128E+02  0.00000000000E+00 0.  1.
         11    1    3    3    0    0 -0.15047361275E+02  0.16566236754E+01 -0.49792264193E+01  0.15936128117E+02  0.51100000000E-03 0. -1.
        -11    1    3    3    0    0  0.52443645211E+00 -0.11671983138E+02 -0.13127868172E+02  0.17574161345E+02  0.51100000000E-03 0.  1.
        -12    1    3    3    0    0 -0.13953816327E+02 -0.89429947608E+01 -0.38660631602E+01  0.17018595410E+02  0.00000000000E+00 0.  1.
</event>
<event>
 7    1  0.5068291E-011  0.5052894E+02  0.7816164E-02  0.1300439E+00
        -11   -1    0    0    0    0  0.00000000000E+00  0.00000000000E+00  0.45593999997E+02  0.45594000000E+02  0.51100000000E-03 0.  1.
         11   -1    0    0    0    0 -0.00000000000E+00 -0.00000000000E+00 -0.45593999997E+02  0.45594000000E+02  0.51100000000E-03 0. -1.
    9900012    2    1    2    0    0  0.30859458775E+02  0.21218650127E+02 -0.15831052364E+02  0.50528935475E+02  0.30000229868E+02 0.  0.
        -12    1    1    2    0    0 -0.30859458775E+02 -0.21218650127E+02  0.15831052364E+02  0.40659064525E+02  0.00000000000E+00 0.  1.
         11    1    3    3    0    0  0.35339665667E+01 -0.59908720343E+01  0.12802758564E+01  0.70723810669E+01  0.51100000000E-03 0. -1.
        -11    1    3    3    0    0  0.41884190930E+01  0.10571764183E+02 -0.36793644736E+01  0.11951685054E+02  0.51100000000E-03 0.  1.
         12    1    3    3    0    0  0.23137073116E+02  0.16637757979E+02 -0.13431963747E+02  0.31504869354E+02  0.00000000000E+00 0. -1.
</event>
<event>
 7    1  0.5068291E-011  0.5052887E+02  0.7816164E-02  0.1300439E+00
        -11   -1    0    0    0    0  0.00000000000E+00  0.00000000000E+00  0.45593999997E+02  0.45594000000E+02  0.51100000000E-03 0.  1.
         11   -1    0    0    0    0 -0.00000000000E+00 -0.00000000000E+00 -0.45593999997E+02  0.45594000000E+02  0.51100000000E-03 0. -1.
    9900012    2    1    2    0    0 -0.84184976843E+01  0.97745043813E+01 -0.38558429686E+02  0.50528873853E+02  0.30000042564E+02 0.  0.
        -12    1    1    2    0    0  0.84184976843E+01 -0.97745043813E+01  0.38558429686E+02  0.40659126147E+02  0.00000000000E+00 0.  1.
         11    1    3    3    0    0  0.26594624559E+01  0.13045136499E+02 -0.20428267663E+02  0.24383651220E+02  0.51100000000E-03 0. -1.
        -11    1    3    3    0    0 -0.14019211971E+02 -0.21453165650E+01 -0.18101702875E+02  0.22995919957E+02  0.51100000000E-03 0.  1.
        -12    1    3    3    0    0  0.29412518304E+01 -0.11253155528E+01 -0.28459148005E-01  0.31493026762E+01  0.00000000000E+00 0.  1.
</event>
<event>
 7    1  0.5068291E-011  0.5052886E+02  0.7816164E-02  0.1300439E+00
        -11   -1    0    0    0    0  0.00000000000E+00  0.00000000000E+00  0.45593999997E+02  0.45594000000E+02  0.51100000000E-03 0. -1.
         11   -1    0    0    0    0 -0.00000000000E+00 -0.00000000000E+00 -0.45593999997E+02  0.45594000000E+02  0.51100000000E-03 0.  1.
    9900012    2    1    2    0    0 -0.35423777222E+02  0.34801660137E+01 -0.19652226456E+02  0.50528861386E+02  0.30000004668E+02 0.  0.
        -12    1    1    2    0    0  0.35423777222E+02 -0.34801660137E+01  0.19652226456E+02  0.40659138614E+02  0.00000000000E+00 0.  1.
         11    1    3    3    0    0 -0.25416245167E+02  0.98657412593E+01 -0.11197150176E+02  0.29473624502E+02  0.51100000000E-03 0. -1.
        -11    1    3    3    0    0 -0.22204279058E+01 -0.49020502263E+01  0.37092102085E+01  0.65359495972E+01  0.51100000000E-03 0.  1.
        -12    1    3    3    0    0 -0.77871041492E+01 -0.14835250193E+01 -0.12164286489E+02  0.14519287286E+02  0.00000000000E+00 0.  1.
</event>
<event>
 7    1  0.5068291E-011  0.5052887E+02  0.7816164E-02  0.1300439E+00
        -11   -1    0    0    0    0  0.00000000000E+00  0.00000000000E+00  0.45593999997E+02  0.45594000000E+02  0.51100000000E-03 0.  1.
         11   -1    0    0    0    0 -0.00000000000E+00 -0.00000000000E+00 -0.45593999997E+02  0.45594000000E+02  0.51100000000E-03 0. -1.
    9900012    2    1    2    0    0 -0.58902594908E+01  0.38073178196E+02 -0.12996264796E+02  0.50528868756E+02  0.30000027072E+02 0.  0.
        -12    1    1    2    0    0  0.58902594908E+01 -0.38073178196E+02  0.12996264796E+02  0.40659131244E+02  0.00000000000E+00 0.  1.
         11    1    3    3    0    0 -0.21947370784E+01  0.34765243484E+01 -0.12505032836E+02  0.13163545832E+02  0.51100000000E-03 0. -1.
        -11    1    3    3    0    0  0.18322501733E+01  0.50468337438E+01  0.43569075568E+01  0.69145003619E+01  0.51100000000E-03 0.  1.
         12    1    3    3    0    0 -0.55277725857E+01  0.29549820104E+02 -0.48481395171E+01  0.30450822562E+02  0.00000000000E+00 0. -1.
</event>
<event>
 7    1  0.5068291E-011  0.5052885E+02  0.7816164E-02  0.1300439E+00
        -11   -1    0    0    0    0  0.00000000000E+00  0.00000000000E+00  0.45593999997E+02  0.45594000000E+02  0.51100000000E-03 0.  1.
         11   -1    0    0    0    0 -0.00000000000E+00 -0.00000000000E+00 -0.45593999997E+02  0.45594000000E+02  0.51100000000E-03 0. -1.
    9900012    2    1    2    0    0  0.20981676318E+02 -0.53605080349E+01 -0.34412215345E+02  0.50528851553E+02  0.29999974780E+02 0.  0.
        -12    1    1    2    0    0 -0.20981676318E+02  0.53605080349E+01  0.34412215345E+02  0.40659148447E+02  0.00000000000E+00 0.  1.
         11    1    3    3    0    0  0.76565669060E+01  0.11831756545E+02 -0.16206155224E+02  0.21476800207E+02  0.51100000000E-03 0. -1.
        -11    1    3    3    0    0  0.11973587371E+02 -0.17077924522E+02 -0.18221544215E+02  0.27695612908E+02  0.51100000000E-03 0.  1.
         12    1    3    3    0    0  0.13515220415E+01 -0.11434005748E+00  0.15484094411E-01  0.13564384374E+01  0.00000000000E+00 0. -1.
</event>
<event>
 7    1  0.5068291E-011  0.5052877E+02  0.7816164E-02  0.1300439E+00
        -11   -1    0    0    0    0  0.00000000000E+00  0.00000000000E+00  0.45593999997E+02  0.45594000000E+02  0.51100000000E-03 0.  1.
         11   -1    0    0    0    0 -0.00000000000E+00 -0.00000000000E+00 -0.45593999997E+02  0.45594000000E+02  0.51100000000E-03 0. -1.
    9900012    2    1    2    0    0 -0.78899149794E+01 -0.50569653212E+01 -0.39564499032E+02  0.50528766850E+02  0.29999717317E+02 0.  0.
        -12    1    1    2    0    0  0.78899149794E+01  0.50569653212E+01  0.39564499032E+02  0.40659233150E+02  0.00000000000E+00 0.  1.
         11    1    3    3    0    0  0.31570403716E+01 -0.99447858323E+01 -0.29338239862E+02  0.31138368416E+02  0.51100000000E-03 0. -1.
        -11    1    3    3    0    0  0.12988210792E+01  0.27506841882E+01  0.25846106490E+00  0.30528678455E+01  0.51100000000E-03 0.  1.
        -12    1    3    3    0    0 -0.12345776430E+02  0.21371363230E+01 -0.10484720235E+02  0.16337530588E+02  0.00000000000E+00 0.  1.
</event>
<event>
 7    1  0.5068291E-011  0.5052899E+02  0.7816164E-02  0.1300438E+00
        -11   -1    0    0    0    0  0.00000000000E+00  0.00000000000E+00  0.45593999997E+02  0.45594000000E+02  0.51100000000E-03 0.  1.
         11   -1    0    0    0    0 -0.00000000000E+00 -0.00000000000E+00 -0.45593999997E+02  0.45594000000E+02  0.51100000000E-03 0. -1.
    9900012    2    1    2    0    0  0.55303067833E+01 -0.37544272089E+02  0.14594456029E+02  0.50528993537E+02  0.30000406352E+02 0.  0.
        -12    1    1    2    0    0 -0.55303067833E+01  0.37544272089E+02 -0.14594456029E+02  0.40659006463E+02  0.00000000000E+00 0.  1.
         11    1    3    3    0    0  0.31624926256E+01  0.38674794561E+01  0.11922151824E+01  0.51361594847E+01  0.51100000000E-03 0.  1.
        -11    1    3    3    0    0  0.51092754338E+01 -0.38411517129E+02  0.14165146605E+02  0.41257735302E+02  0.51100000000E-03 0. -1.
        -12    1    3    3    0    0 -0.27414612761E+01 -0.30002344155E+01 -0.76290575838E+00  0.41350987501E+01  0.00000000000E+00 0.  1.
</event>
<event>
 7    1  0.5068291E-011  0.5052888E+02  0.7816164E-02  0.1300439E+00
        -11   -1    0    0    0    0  0.00000000000E+00  0.00000000000E+00  0.45593999997E+02  0.45594000000E+02  0.51100000000E-03 0. -1.
         11   -1    0    0    0    0 -0.00000000000E+00 -0.00000000000E+00 -0.45593999997E+02  0.45594000000E+02  0.51100000000E-03 0.  1.
    9900012    2    1    2    0    0  0.41483237549E+01 -0.39608353271E+02  0.81935118719E+01  0.50528882011E+02  0.30000067360E+02 0.  0.
        -12    1    1    2    0    0 -0.41483237549E+01  0.39608353271E+02 -0.81935118719E+01  0.40659117989E+02  0.00000000000E+00 0.  1.
         11    1    3    3    0    0  0.13452064603E+01 -0.34675909870E+02 -0.50722659431E+01  0.35070731213E+02  0.51100000000E-03 0. -1.
        -11    1    3    3    0    0 -0.61944683332E+00 -0.44124427376E+01  0.69450191548E+01  0.82514639073E+01  0.51100000000E-03 0.  1.
         12    1    3    3    0    0  0.34225641279E+01 -0.52000066346E+00  0.63207586601E+01  0.72066868906E+01  0.00000000000E+00 0. -1.
</event>
<event>
 7    1  0.5068291E-011  0.5052885E+02  0.7816164E-02  0.1300439E+00
        -11   -1    0    0    0    0  0.00000000000E+00  0.00000000000E+00  0.45593999997E+02  0.45594000000E+02  0.51100000000E-03 0. -1.
         11   -1    0    0    0    0 -0.00000000000E+00 -0.00000000000E+00 -0.45593999997E+02  0.45594000000E+02  0.51100000000E-03 0.  1.
    9900012    2    1    2    0    0  0.20626392780E+02  0.30446666479E+02  0.17341258376E+02  0.50528845792E+02  0.29999957270E+02 0.  0.
        -12    1    1    2    0    0 -0.20626392780E+02 -0.30446666479E+02 -0.17341258376E+02  0.40659154208E+02  0.00000000000E+00 0.  1.
         11    1    3    3    0    0  0.36331006428E+01  0.11589298751E+02  0.16923129205E+02  0.20830352089E+02  0.51100000000E-03 0. -1.
        -11    1    3    3    0    0  0.11264002434E+02  0.20390938043E+02  0.24625557324E+01  0.23425035456E+02  0.51100000000E-03 0.  1.
        -12    1    3    3    0    0  0.57292897038E+01 -0.15335703146E+01 -0.20444265612E+01  0.62734582476E+01  0.00000000000E+00 0.  1.
</event>
<event>
 7    1  0.5068291E-011  0.5052886E+02  0.7816164E-02  0.1300439E+00
        -11   -1    0    0    0    0  0.00000000000E+00  0.00000000000E+00  0.45593999997E+02  0.45594000000E+02  0.51100000000E-03 0.  1.
         11   -1    0    0    0    0 -0.00000000000E+00 -0.00000000000E+00 -0.45593999997E+02  0.45594000000E+02  0.51100000000E-03 0. -1.
    9900012    2    1    2    0    0 -0.18084081681E+02  0.35941539994E+02  0.58598046376E+01  0.50528860587E+02  0.30000002241E+02 0.  0.
        -12    1    1    2    0    0  0.18084081681E+02 -0.35941539994E+02 -0.58598046376E+01  0.40659139413E+02  0.00000000000E+00 0.  1.
         11    1    3    3    0    0 -0.15689391412E+02  0.32613836512E+02 -0.62502381409E+01  0.36727167220E+02  0.51100000000E-03 0. -1.
        -11    1    3    3    0    0 -0.10055136565E+01  0.43464146325E+01  0.61500126815E+01  0.75976992645E+01  0.51100000000E-03 0.  1.
         12    1    3    3    0    0 -0.13891766127E+01 -0.10187111509E+01  0.59600300970E+01  0.62039941028E+01  0.00000000000E+00 0. -1.
</event>
<event>
 7    1  0.5068291E-011  0.5052887E+02  0.7816164E-02  0.1300439E+00
        -11   -1    0    0    0    0  0.00000000000E+00  0.00000000000E+00  0.45593999997E+02  0.45594000000E+02  0.51100000000E-03 0. -1.
         11   -1    0    0    0    0 -0.00000000000E+00 -0.00000000000E+00 -0.45593999997E+02  0.45594000000E+02  0.51100000000E-03 0.  1.
    9900012    2    1    2    0    0 -0.37577104085E+02 -0.84911094607E+01  0.13001037195E+02  0.50528872372E+02  0.30000038063E+02 0.  0.
        -12    1    1    2    0    0  0.37577104085E+02  0.84911094607E+01 -0.13001037195E+02  0.40659127628E+02  0.00000000000E+00 0.  1.
         11    1    3    3    0    0 -0.33007428657E+02 -0.41852250758E+01  0.16555683557E+02  0.37163114964E+02  0.51100000000E-03 0. -1.
        -11    1    3    3    0    0  0.34404817580E+01  0.59831958579E+00 -0.94446950724E+00  0.36175853777E+01  0.51100000000E-03 0.  1.
        -12    1    3    3    0    0 -0.80101571857E+01 -0.49042039708E+01 -0.26101768550E+01  0.97481720307E+01  0.00000000000E+00 0.  1.
</event>
<event>
 7    1  0.5068291E-011  0.5052887E+02  0.7816164E-02  0.1300439E+00
        -11   -1    0    0    0    0  0.00000000000E+00  0.00000000000E+00  0.45593999997E+02  0.45594000000E+02  0.51100000000E-03 0. -1.
         11   -1    0    0    0    0 -0.00000000000E+00 -0.00000000000E+00 -0.45593999997E+02  0.45594000000E+02  0.51100000000E-03 0.  1.
    9900012    2    1    2    0    0 -0.24867181754E+02 -0.17639724190E+02  0.26900341132E+02  0.50528868788E+02  0.30000027168E+02 0.  0.
        -12    1    1    2    0    0  0.24867181754E+02  0.17639724190E+02 -0.26900341132E+02  0.40659131212E+02  0.00000000000E+00 0.  1.
         11    1    3    3    0    0 -0.76314394163E+01 -0.31747375217E+01  0.15230777243E+02  0.17329004633E+02  0.51100000000E-03 0. -1.
        -11    1    3    3    0    0 -0.21786363704E+02 -0.93159897256E+01  0.64098938422E+01  0.24546283778E+02  0.51100000000E-03 0.  1.
        -12    1    3    3    0    0  0.45506213654E+01 -0.51489969430E+01  0.52596700465E+01  0.86535803763E+01  0.00000000000E+00 0.  1.
</event>
<event>
 7    1  0.5068291E-011  0.5052886E+02  0.7816164E-02  0.1300439E+00
        -11   -1    0    0    0    0  0.00000000000E+00  0.00000000000E+00  0.45593999997E+02  0.45594000000E+02  0.51100000000E-03 0.  1.
         11   -1    0    0    0    0 -0.00000000000E+00 -0.00000000000E+00 -0.45593999997E+02  0.45594000000E+02  0.51100000000E-03 0. -1.
    9900012    2    1    2    0    0  0.74939282149E+01  0.29048248771E+00 -0.39961506033E+02  0.50528864439E+02  0.30000013949E+02 0.  0.
        -12    1    1    2    0    0 -0.74939282149E+01 -0.29048248771E+00  0.39961506033E+02  0.40659135561E+02  0.00000000000E+00 0.  1.
         11    1    3    3    0    0 -0.56675672612E+00  0.25326777908E+01 -0.95756132079E+01  0.99210905927E+01  0.51100000000E-03 0. -1.
        -11    1    3    3    0    0  0.12740167148E+02 -0.90017844128E+01 -0.27991707799E+02  0.32044963525E+02  0.51100000000E-03 0.  1.
        -12    1    3    3    0    0 -0.46794822070E+01  0.67595891097E+01 -0.23941850259E+01  0.85628103212E+01  0.00000000000E+00 0.  1.
</event>
<event>
 7    1  0.5068291E-011  0.5052885E+02  0.7816164E-02  0.1300439E+00
        -11   -1    0    0    0    0  0.00000000000E+00  0.00000000000E+00  0.45593999997E+02  0.45594000000E+02  0.51100000000E-03 0. -1.
         11   -1    0    0    0    0 -0.00000000000E+00 -0.00000000000E+00 -0.45593999997E+02  0.45594000000E+02  0.51100000000E-03 0.  1.
    9900012    2    1    2    0    0  0.14425656546E+02  0.20860311609E+01  0.37956756952E+02  0.50528849848E+02  0.29999969597E+02 0.  0.
        -12    1    1    2    0    0 -0.14425656546E+02 -0.20860311609E+01 -0.37956756952E+02  0.40659150152E+02  0.00000000000E+00 0.  1.
         11    1    3    3    0    0  0.19903859398E+02  0.56348618575E+01  0.26668429182E+02  0.33750857802E+02  0.51100000000E-03 0. -1.
        -11    1    3    3    0    0 -0.58690210475E+01 -0.25112383320E+01  0.13146338014E+02  0.14614305644E+02  0.51100000000E-03 0.  1.
        -12    1    3    3    0    0  0.39081819531E+00 -0.10375923647E+01 -0.18580102437E+01  0.21636864012E+01  0.00000000000E+00 0.  1.
</event>
<event>
 7    1  0.5068291E-011  0.5052888E+02  0.7816164E-02  0.1300439E+00
        -11   -1    0    0    0    0  0.00000000000E+00  0.00000000000E+00  0.45593999997E+02  0.45594000000E+02  0.51100000000E-03 0.  1.
         11   -1    0    0    0    0 -0.00000000000E+00 -0.00000000000E+00 -0.45593999997E+02  0.45594000000E+02  0.51100000000E-03 0. -1.
    9900012    2    1    2    0    0 -0.15182361961E+02  0.32072872230E+02 -0.19849209038E+02  0.50528876211E+02  0.30000049732E+02 0.  0.
        -12    1    1    2    0    0  0.15182361961E+02 -0.32072872230E+02  0.19849209038E+02  0.40659123789E+02  0.00000000000E+00 0.  1.
         11    1    3    3    0    0 -0.16328292327E+02  0.31652983584E+02 -0.17823668863E+02  0.39827222752E+02  0.51100000000E-03 0. -1.
        -11    1    3    3    0    0 -0.23865387776E+00 -0.46594165465E+01  0.78919254306E+00  0.47318012805E+01  0.51100000000E-03 0.  1.
         12    1    3    3    0    0  0.13845842436E+01  0.50793051923E+01 -0.28147327181E+01  0.59698521790E+01  0.00000000000E+00 0. -1.
</event>
<event>
 7    1  0.5068291E-011  0.5052885E+02  0.7816164E-02  0.1300439E+00
        -11   -1    0    0    0    0  0.00000000000E+00  0.00000000000E+00  0.45593999997E+02  0.45594000000E+02  0.51100000000E-03 0.  1.
         11   -1    0    0    0    0 -0.00000000000E+00 -0.00000000000E+00 -0.45593999997E+02  0.45594000000E+02  0.51100000000E-03 0. -1.
    9900012    2    1    2    0    0 -0.29896236280E+02  0.24125367481E+02 -0.13317203047E+02  0.50528853468E+02  0.29999980600E+02 0.  0.
        -12    1    1    2    0    0  0.29896236280E+02 -0.24125367481E+02  0.13317203047E+02  0.40659146532E+02  0.00000000000E+00 0.  1.
         11    1    3    3    0    0 -0.24585142921E+02  0.17986397106E+02 -0.40186131389E+01  0.30726031067E+02  0.51100000000E-03 0. -1.
        -11    1    3    3    0    0  0.11239305649E+00 -0.42000363743E+01 -0.65934937436E+01  0.78183820419E+01  0.51100000000E-03 0.  1.
        -12    1    3    3    0    0 -0.54234864146E+01  0.10339006749E+02 -0.27050961646E+01  0.11984440359E+02  0.00000000000E+00 0.  1.
</event>
<event>
 7    1  0.5068291E-011  0.5052887E+02  0.7816164E-02  0.1300439E+00
        -11   -1    0    0    0    0  0.00000000000E+00  0.00000000000E+00  0.45593999997E+02  0.45594000000E+02  0.51100000000E-03 0.  1.
         11   -1    0    0    0    0 -0.00000000000E+00 -0.00000000000E+00 -0.45593999997E+02  0.45594000000E+02  0.51100000000E-03 0. -1.
    9900012    2    1    2    0    0 -0.38123950003E+01  0.11297607540E+02 -0.38871511052E+02  0.50528872326E+02  0.30000037921E+02 0.  0.
        -12    1    1    2    0    0  0.38123950003E+01 -0.11297607540E+02  0.38871511052E+02  0.40659127674E+02  0.00000000000E+00 0.  1.
         11    1    3    3    0    0 -0.34321173406E+01  0.57421993245E+01 -0.29153100781E+02  0.29910793502E+02  0.51100000000E-03 0. -1.
        -11    1    3    3    0    0  0.77184049316E+01  0.22024202481E+01 -0.72412053634E+00  0.80590806206E+01  0.51100000000E-03 0.  1.
        -12    1    3    3    0    0 -0.80986825913E+01  0.33529879675E+01 -0.89942897351E+01  0.12558998203E+02  0.00000000000E+00 0.  1.
</event>
<event>
 7    1  0.5068291E-011  0.5052886E+02  0.7816164E-02  0.1300439E+00
        -11   -1    0    0    0    0  0.00000000000E+00  0.00000000000E+00  0.45593999997E+02  0.45594000000E+02  0.51100000000E-03 0. -1.
         11   -1    0    0    0    0 -0.00000000000E+00 -0.00000000000E+00 -0.45593999997E+02  0.45594000000E+02  0.51100000000E-03 0.  1.
    9900012    2    1    2    0    0 -0.16100199718E+02 -0.35293409021E+02  0.12178863907E+02  0.50528857395E+02  0.29999992539E+02 0.  0.
        -12    1    1    2    0    0  0.16100199718E+02  0.35293409021E+02 -0.12178863907E+02  0.40659142605E+02  0.00000000000E+00 0.  1.
         11    1    3    3    0    0 -0.15855343584E+02 -0.30291570584E+02  0.14252308344E+02  0.37041860941E+02  0.51100000000E-03 0. -1.
        -11    1    3    3    0    0  0.48549626742E+01 -0.13805415744E+01 -0.45154522052E+01  0.67724343101E+01  0.51100000000E-03 0.  1.
        -12    1    3    3    0    0 -0.50998188082E+01 -0.36212968630E+01  0.24420077676E+01  0.67145621438E+01  0.00000000000E+00 0.  1.
</event>
<event>
 7    1  0.5068291E-011  0.5052884E+02  0.7816164E-02  0.1300439E+00
        -11   -1    0    0    0    0  0.00000000000E+00  0.00000000000E+00  0.45593999997E+02  0.45594000000E+02  0.51100000000E-03 0. -1.
         11   -1    0    0    0    0 -0.00000000000E+00 -0.00000000000E+00 -0.45593999997E+02  0.45594000000E+02  0.51100000000E-03 0.  1.
    9900012    2    1    2    0    0 -0.33340227911E+02  0.49408379750E+01  0.22741698082E+02  0.50528837333E+02  0.29999931559E+02 0.  0.
        -12    1    1    2    0    0  0.33340227911E+02 -0.49408379750E+01 -0.22741698082E+02  0.40659162667E+02  0.00000000000E+00 0.  1.
         11    1    3    3    0    0 -0.15721848401E+02  0.11743758424E+02  0.12875768127E+02  0.23470785760E+02  0.51100000000E-03 0. -1.
        -11    1    3    3    0    0 -0.45694723680E+01 -0.10543073402E+02  0.31581258388E+01  0.11916804670E+02  0.51100000000E-03 0.  1.
        -12    1    3    3    0    0 -0.13048907143E+02  0.37401529525E+01  0.67078041164E+01  0.15141246903E+02  0.00000000000E+00 0.  1.
</event>
<event>
 7    1  0.5068291E-011  0.5052886E+02  0.7816164E-02  0.1300439E+00
        -11   -1    0    0    0    0  0.00000000000E+00  0.00000000000E+00  0.45593999997E+02  0.45594000000E+02  0.51100000000E-03 0. -1.
         11   -1    0    0    0    0 -0.00000000000E+00 -0.00000000000E+00 -0.45593999997E+02  0.45594000000E+02  0.51100000000E-03 0.  1.
    9900012    2    1    2    0    0 -0.13364466848E+02  0.29479893142E+02  0.24606751916E+02  0.50528864328E+02  0.30000013610E+02 0.  0.
        -12    1    1    2    0    0  0.13364466848E+02 -0.29479893142E+02 -0.24606751916E+02  0.40659135672E+02  0.00000000000E+00 0.  1.
         11    1    3    3    0    0 -0.31987363723E+01  0.14672385596E+02  0.10975645052E+02  0.18600419297E+02  0.51100000000E-03 0. -1.
        -11    1    3    3    0    0 -0.71239618177E+01  0.96847910209E+01 -0.45048450289E+01  0.12838988983E+02  0.51100000000E-03 0.  1.
        -12    1    3    3    0    0 -0.30417686583E+01  0.51227165247E+01  0.18135951892E+02  0.19089456048E+02  0.00000000000E+00 0.  1.
</event>
<event>
 7    1  0.5068291E-011  0.5052884E+02  0.7816164E-02  0.1300439E+00
        -11   -1    0    0    0    0  0.00000000000E+00  0.00000000000E+00  0.45593999997E+02  0.45594000000E+02  0.51100000000E-03 0.  1.
         11   -1    0    0    0    0 -0.00000000000E+00 -0.00000000000E+00 -0.45593999997E+02  0.45594000000E+02  0.51100000000E-03 0. -1.
    9900012    2    1    2    0    0  0.20612096794E+02 -0.93093499281E+01 -0.33788232184E+02  0.50528841567E+02  0.29999944427E+02 0.  0.
        -12    1    1    2    0    0 -0.20612096794E+02  0.93093499281E+01  0.33788232184E+02  0.40659158433E+02  0.00000000000E+00 0.  1.
         11    1    3    3    0    0  0.16427662621E+01  0.18005083708E+01 -0.19091435711E+02  0.19246387431E+02  0.51100000000E-03 0. -1.
        -11    1    3    3    0    0  0.93282705417E+01  0.14586841562E+01  0.33148349979E+00  0.94474479272E+01  0.51100000000E-03 0.  1.
        -12    1    3    3    0    0  0.96410599901E+01 -0.12568542455E+02 -0.15028279973E+02  0.21835006208E+02  0.00000000000E+00 0.  1.
</event>
<event>
 7    1  0.5068291E-011  0.5052886E+02  0.7816164E-02  0.1300439E+00
        -11   -1    0    0    0    0  0.00000000000E+00  0.00000000000E+00  0.45593999997E+02  0.45594000000E+02  0.51100000000E-03 0.  1.
         11   -1    0    0    0    0 -0.00000000000E+00 -0.00000000000E+00 -0.45593999997E+02  0.45594000000E+02  0.51100000000E-03 0. -1.
    9900012    2    1    2    0    0 -0.28988991965E+02  0.17117382809E+01 -0.28458290890E+02  0.50528855598E+02  0.29999987077E+02 0.  0.
        -12    1    1    2    0    0  0.28988991965E+02 -0.17117382809E+01  0.28458290890E+02  0.40659144402E+02  0.00000000000E+00 0.  1.
         11    1    3    3    0    0 -0.12581194657E+02  0.12431392228E+02 -0.12378600684E+02  0.21588323855E+02  0.51100000000E-03 0. -1.
        -11    1    3    3    0    0  0.85936937791E+00 -0.15680212592E+01  0.17388924105E+01  0.24941839294E+01  0.51100000000E-03 0.  1.
         12    1    3    3    0    0 -0.17267166686E+02 -0.91516326879E+01 -0.17818582617E+02  0.26446347814E+02  0.00000000000E+00 0. -1.
</event>
<event>
 7    1  0.5068291E-011  0.5052887E+02  0.7816164E-02  0.1300439E+00
        -11   -1    0    0    0    0  0.00000000000E+00  0.00000000000E+00  0.45593999997E+02  0.45594000000E+02  0.51100000000E-03 0.  1.
         11   -1    0    0    0    0 -0.00000000000E+00 -0.00000000000E+00 -0.45593999997E+02  0.45594000000E+02  0.51100000000E-03 0. -1.
    9900012    2    1    2    0    0 -0.29993706234E+02 -0.25451216587E+02  0.10284847622E+02  0.50528869045E+02  0.30000027948E+02 0.  0.
        -12    1    1    2    0    0  0.29993706234E+02  0.25451216587E+02 -0.10284847622E+02  0.40659130955E+02  0.00000000000E+00 0.  1.
         11    1    3    3    0    0 -0.20168468923E+01 -0.16894623540E+02  0.14737122761E+01  0.17078284577E+02  0.51100000000E-03 0. -1.
        -11    1    3    3    0    0 -0.28233802085E+02 -0.89604317606E+01  0.10705457865E+02  0.31496725955E+02  0.51100000000E-03 0.  1.
        -12    1    3    3    0    0  0.25694274370E+00  0.40383871321E+00 -0.18943225196E+01  0.19538585129E+01  0.00000000000E+00 0.  1.
</event>
<event>
 7    1  0.5068291E-011  0.5052887E+02  0.7816164E-02  0.1300439E+00
        -11   -1    0    0    0    0  0.00000000000E+00  0.00000000000E+00  0.45593999997E+02  0.45594000000E+02  0.51100000000E-03 0.  1.
         11   -1    0    0    0    0 -0.00000000000E+00 -0.00000000000E+00 -0.45593999997E+02  0.45594000000E+02  0.51100000000E-03 0. -1.
    9900012    2    1    2    0    0 -0.22258735637E+02 -0.60587205054E+00 -0.34019797592E+02  0.50528867922E+02  0.30000024537E+02 0.  0.
        -12    1    1    2    0    0  0.22258735637E+02  0.60587205054E+00  0.34019797592E+02  0.40659132078E+02  0.00000000000E+00 0.  1.
         11    1    3    3    0    0 -0.19787604962E+01  0.64592387670E+01 -0.27768457691E+01  0.73039805064E+01  0.51100000000E-03 0.  1.
        -11    1    3    3    0    0 -0.55197378392E+01 -0.80814714633E+01 -0.25570890509E+02  0.27379702857E+02  0.51100000000E-03 0. -1.
        -12    1    3    3    0    0 -0.14760237302E+02  0.10163606457E+01 -0.56720613137E+01  0.15845184559E+02  0.00000000000E+00 0.  1.
</event>
<event>
 7    1  0.5068291E-011  0.5052885E+02  0.7816164E-02  0.1300439E+00
        -11   -1    0    0    0    0  0.00000000000E+00  0.00000000000E+00  0.45593999997E+02  0.45594000000E+02  0.51100000000E-03 0.  1.
         11   -1    0    0    0    0 -0.00000000000E+00 -0.00000000000E+00 -0.45593999997E+02  0.45594000000E+02  0.51100000000E-03 0. -1.
    9900012    2    1    2    0    0 -0.29159307691E+02 -0.77662809312E+01 -0.27250436634E+02  0.50528848001E+02  0.29999963983E+02 0.  0.
        -12    1    1    2    0    0  0.29159307691E+02  0.77662809312E+01  0.27250436634E+02  0.40659151999E+02  0.00000000000E+00 0.  1.
         11    1    3    3    0    0 -0.90963034066E+01 -0.10828073539E+02 -0.15056390280E+02  0.20656350131E+02  0.51100000000E-03 0. -1.
        -11    1    3    3    0    0 -0.53496270736E+01  0.85649105116E+01 -0.18646565241E+00  0.10100048099E+02  0.51100000000E-03 0.  1.
        -12    1    3    3    0    0 -0.14713377211E+02 -0.55031179042E+01 -0.12007580702E+02  0.19772449771E+02  0.00000000000E+00 0.  1.
</event>
<event>
 7    1  0.5068291E-011  0.5052886E+02  0.7816164E-02  0.1300439E+00
        -11   -1    0    0    0    0  0.00000000000E+00  0.00000000000E+00  0.45593999997E+02  0.45594000000E+02  0.51100000000E-03 0.  1.
         11   -1    0    0    0    0 -0.00000000000E+00 -0.00000000000E+00 -0.45593999997E+02  0.45594000000E+02  0.51100000000E-03 0. -1.
    9900012    2    1    2    0    0 -0.27911519222E+02 -0.18982127686E+02 -0.22666972044E+02  0.50528859596E+02  0.29999999227E+02 0.  0.
        -12    1    1    2    0    0  0.27911519222E+02  0.18982127686E+02  0.22666972044E+02  0.40659140404E+02  0.00000000000E+00 0.  1.
         11    1    3    3    0    0 -0.26340353131E+02 -0.25007796237E+02 -0.21913228670E+02  0.42419260563E+02  0.51100000000E-03 0. -1.
        -11    1    3    3    0    0 -0.11626160289E+01  0.39178063371E+01 -0.29484735657E+01  0.50392835954E+01  0.51100000000E-03 0.  1.
         12    1    3    3    0    0 -0.40855006228E+00  0.21078622142E+01  0.21947301918E+01  0.30703154370E+01  0.00000000000E+00 0. -1.
</event>
<event>
 7    1  0.5068291E-011  0.5052886E+02  0.7816164E-02  0.1300439E+00
        -11   -1    0    0    0    0  0.00000000000E+00  0.00000000000E+00  0.45593999997E+02  0.45594000000E+02  0.51100000000E-03 0.  1.
         11   -1    0    0    0    0 -0.00000000000E+00 -0.00000000000E+00 -0.45593999997E+02  0.45594000000E+02  0.51100000000E-03 0. -1.
    9900012    2    1    2    0    0 -0.22334565092E+02 -0.33370203714E+02  0.63845533476E+01  0.50528858159E+02  0.29999994861E+02 0.  0.
        -12    1    1    2    0    0  0.22334565092E+02  0.33370203714E+02 -0.63845533476E+01  0.40659141841E+02  0.00000000000E+00 0.  1.
         11    1    3    3    0    0 -0.11814830190E+02 -0.22921330133E+02 -0.46161638025E+00  0.25791290728E+02  0.51100000000E-03 0. -1.
        -11    1    3    3    0    0 -0.91090238583E+01  0.23129349269E+01  0.72843131922E+01  0.11890550978E+02  0.51100000000E-03 0.  1.
        -12    1    3    3    0    0 -0.14107110434E+01 -0.12761808508E+02 -0.43814346433E+00  0.12847016453E+02  0.00000000000E+00 0.  1.
</event>
<event>
 7    1  0.5068291E-011  0.5052886E+02  0.7816164E-02  0.1300439E+00
        -11   -1    0    0    0    0  0.00000000000E+00  0.00000000000E+00  0.45593999997E+02  0.45594000000E+02  0.51100000000E-03 0.  1.
         11   -1    0    0    0    0 -0.00000000000E+00 -0.00000000000E+00 -0.45593999997E+02  0.45594000000E+02  0.51100000000E-03 0. -1.
    9900012    2    1    2    0    0  0.61090628884E+01  0.39916499364E+02  0.47453494792E+01  0.50528856962E+02  0.29999991223E+02 0.  0.
        -12    1    1    2    0    0 -0.61090628884E+01 -0.39916499364E+02 -0.47453494792E+01  0.40659143038E+02  0.00000000000E+00 0.  1.
         11    1    3    3    0    0  0.10661543358E+02  0.15854581803E+02 -0.24639337852E+01  0.19264143917E+02  0.51100000000E-03 0. -1.
        -11    1    3    3    0    0 -0.10681894068E+01  0.15800367444E+01  0.82725889601E+01  0.84895979343E+01  0.51100000000E-03 0.  1.
         12    1    3    3    0    0 -0.34842910631E+01  0.22481880817E+02 -0.10633056956E+01  0.22775115111E+02  0.00000000000E+00 0. -1.
</event>
<event>
 7    1  0.5068291E-011  0.5052886E+02  0.7816164E-02  0.1300439E+00
        -11   -1    0    0    0    0  0.00000000000E+00  0.00000000000E+00  0.45593999997E+02  0.45594000000E+02  0.51100000000E-03 0. -1.
         11   -1    0    0    0    0 -0.00000000000E+00 -0.00000000000E+00 -0.45593999997E+02  0.45594000000E+02  0.51100000000E-03 0.  1.
    9900012    2    1    2    0    0 -0.10056132069E+02  0.25845456092E+02  0.29733019990E+02  0.50528857479E+02  0.29999992794E+02 0.  0.
        -12    1    1    2    0    0  0.10056132069E+02 -0.25845456092E+02 -0.29733019990E+02  0.40659142521E+02  0.00000000000E+00 0.  1.
         11    1    3    3    0    0 -0.17322561653E+01  0.13326477053E+02 -0.15888027634E+00  0.13439529206E+02  0.51100000000E-03 0.  1.
        -11    1    3    3    0    0 -0.11819512793E+02  0.40077582446E+01  0.20043307404E+02  0.23611378205E+02  0.51100000000E-03 0. -1.
         12    1    3    3    0    0  0.34956368896E+01  0.85112207940E+01  0.98485928630E+01  0.13477950068E+02  0.00000000000E+00 0. -1.
</event>
<event>
 7    1  0.5068291E-011  0.5052886E+02  0.7816164E-02  0.1300439E+00
        -11   -1    0    0    0    0  0.00000000000E+00  0.00000000000E+00  0.45593999997E+02  0.45594000000E+02  0.51100000000E-03 0. -1.
         11   -1    0    0    0    0 -0.00000000000E+00 -0.00000000000E+00 -0.45593999997E+02  0.45594000000E+02  0.51100000000E-03 0.  1.
    9900012    2    1    2    0    0 -0.53188795705E+00 -0.40413078780E+02  0.44346159827E+01  0.50528860066E+02  0.30000000655E+02 0.  0.
        -12    1    1    2    0    0  0.53188795705E+00  0.40413078780E+02 -0.44346159827E+01  0.40659139934E+02  0.00000000000E+00 0.  1.
         11    1    3    3    0    0 -0.74481181064E+01 -0.15430934972E+02  0.66203075864E+01  0.18368905527E+02  0.51100000000E-03 0. -1.
        -11    1    3    3    0    0  0.12636339492E+02 -0.22571234558E+02 -0.20869276945E+01  0.25951743153E+02  0.51100000000E-03 0.  1.
        -12    1    3    3    0    0 -0.57201093423E+01 -0.24109092498E+01 -0.98763909182E-01  0.62082113856E+01  0.00000000000E+00 0.  1.
</event>
<event>
 7    1  0.5929546E-011  0.5052886E+02  0.7816164E-02  0.1300439E+00
        -11   -1    0    0    0    0  0.00000000000E+00  0.00000000000E+00  0.45593999997E+02  0.45594000000E+02  0.51100000000E-03 0. -1.
         11   -1    0    0    0    0 -0.00000000000E+00 -0.00000000000E+00 -0.45593999997E+02  0.45594000000E+02  0.51100000000E-03 0.  1.
    9900012    2    1    2    0    0 -0.84848024740E+00 -0.10831407383E+02  0.39180691819E+02  0.50528856919E+02  0.29999991092E+02 0.  0.
        -12    1    1    2    0    0  0.84848024740E+00  0.10831407383E+02 -0.39180691819E+02  0.40659143081E+02  0.00000000000E+00 0.  1.
         11    1    3    3    0    0 -0.39981402752E+01 -0.12983049377E+02  0.28896848013E+02  0.31930745718E+02  0.51100000000E-03 0. -1.
        -11    1    3    3    0    0  0.25340906627E+01 -0.36055370245E+01 -0.21342161411E+01  0.48965693623E+01  0.51100000000E-03 0.  1.
         12    1    3    3    0    0  0.61556936508E+00  0.57571790192E+01  0.12418059948E+02  0.13701541839E+02  0.00000000000E+00 0. -1.
</event>
<event>
 7    1  0.5068291E-011  0.5052884E+02  0.7816164E-02  0.1300439E+00
        -11   -1    0    0    0    0  0.00000000000E+00  0.00000000000E+00  0.45593999997E+02  0.45594000000E+02  0.51100000000E-03 0. -1.
         11   -1    0    0    0    0 -0.00000000000E+00 -0.00000000000E+00 -0.45593999997E+02  0.45594000000E+02  0.51100000000E-03 0.  1.
    9900012    2    1    2    0    0  0.25439641184E+02  0.30351013475E+02  0.92091374780E+01  0.50528836511E+02  0.29999929058E+02 0.  0.
        -12    1    1    2    0    0 -0.25439641184E+02 -0.30351013475E+02 -0.92091374780E+01  0.40659163489E+02  0.00000000000E+00 0.  1.
         11    1    3    3    0    0  0.48681562815E+01  0.13735993182E+02  0.13954592146E+02  0.20176895116E+02  0.51100000000E-03 0.  1.
        -11    1    3    3    0    0  0.21947823198E+02  0.12104364783E+02 -0.52524472148E+01  0.25608803017E+02  0.51100000000E-03 0. -1.
         12    1    3    3    0    0 -0.13763382954E+01  0.45106555102E+01  0.50699254637E+00  0.47431383784E+01  0.00000000000E+00 0. -1.
</event>
<event>
 7    1  0.5068291E-011  0.5052888E+02  0.7816164E-02  0.1300439E+00
        -11   -1    0    0    0    0  0.00000000000E+00  0.00000000000E+00  0.45593999997E+02  0.45594000000E+02  0.51100000000E-03 0.  1.
         11   -1    0    0    0    0 -0.00000000000E+00 -0.00000000000E+00 -0.45593999997E+02  0.45594000000E+02  0.51100000000E-03 0. -1.
    9900012    2    1    2    0    0 -0.12273986658E+02 -0.18692070713E+02 -0.33957619347E+02  0.50528878419E+02  0.30000056443E+02 0.  0.
        -12    1    1    2    0    0  0.12273986658E+02  0.18692070713E+02  0.33957619347E+02  0.40659121581E+02  0.00000000000E+00 0.  1.
         11    1    3    3    0    0  0.37771767875E+01 -0.15683055502E+02 -0.24273641959E+02  0.29145067997E+02  0.51100000000E-03 0. -1.
        -11    1    3    3    0    0 -0.11716786877E+02 -0.16629224747E+01 -0.13720293804E+01  0.11913474337E+02  0.51100000000E-03 0.  1.
         12    1    3    3    0    0 -0.43343765683E+01 -0.13460927359E+01 -0.83119480075E+01  0.94703360853E+01  0.00000000000E+00 0. -1.
</event>
<event>
 7    1  0.5068291E-011  0.5052886E+02  0.7816164E-02  0.1300439E+00
        -11   -1    0    0    0    0  0.00000000000E+00  0.00000000000E+00  0.45593999997E+02  0.45594000000E+02  0.51100000000E-03 0. -1.
         11   -1    0    0    0    0 -0.00000000000E+00 -0.00000000000E+00 -0.45593999997E+02  0.45594000000E+02  0.51100000000E-03 0.  1.
    9900012    2    1    2    0    0 -0.14342250519E+02  0.17240384095E+02  0.33915104281E+02  0.50528864592E+02  0.30000014415E+02 0.  0.
        -12    1    1    2    0    0  0.14342250519E+02 -0.17240384095E+02 -0.33915104281E+02  0.40659135408E+02  0.00000000000E+00 0.  1.
         11    1    3    3    0    0 -0.83241329846E+01 -0.25507339416E+00  0.14213173168E+02  0.16473328265E+02  0.51100000000E-03 0. -1.
        -11    1    3    3    0    0  0.53140416318E+00  0.15548329157E+02  0.21912871612E+02  0.26873906909E+02  0.51100000000E-03 0.  1.
        -12    1    3    3    0    0 -0.65495216979E+01  0.19471283321E+01 -0.22109404993E+01  0.71816294185E+01  0.00000000000E+00 0.  1.
</event>
<event>
 7    1  0.5068291E-011  0.5052892E+02  0.7816164E-02  0.1300439E+00
        -11   -1    0    0    0    0  0.00000000000E+00  0.00000000000E+00  0.45593999997E+02  0.45594000000E+02  0.51100000000E-03 0.  1.
         11   -1    0    0    0    0 -0.00000000000E+00 -0.00000000000E+00 -0.45593999997E+02  0.45594000000E+02  0.51100000000E-03 0. -1.
    9900012    2    1    2    0    0 -0.89921731465E+01  0.36789359482E+02  0.14793396755E+02  0.50528920613E+02  0.30000184695E+02 0.  0.
        -12    1    1    2    0    0  0.89921731465E+01 -0.36789359482E+02 -0.14793396755E+02  0.40659079387E+02  0.00000000000E+00 0.  1.
         11    1    3    3    0    0  0.64269246622E+01  0.13270922515E+02  0.52263186400E+01  0.15644077212E+02  0.51100000000E-03 0. -1.
        -11    1    3    3    0    0 -0.13375750707E+02  0.16559574335E+02 -0.18412100011E+01  0.21366334820E+02  0.51100000000E-03 0.  1.
        -12    1    3    3    0    0 -0.20433471014E+01  0.69588626327E+01  0.11408288116E+02  0.13518508581E+02  0.00000000000E+00 0.  1.
</event>
<event>
 7    1  0.5068291E-011  0.5052886E+02  0.7816164E-02  0.1300439E+00
        -11   -1    0    0    0    0  0.00000000000E+00  0.00000000000E+00  0.45593999997E+02  0.45594000000E+02  0.51100000000E-03 0.  1.
         11   -1    0    0    0    0 -0.00000000000E+00 -0.00000000000E+00 -0.45593999997E+02  0.45594000000E+02  0.51100000000E-03 0. -1.
    9900012    2    1    2    0    0  0.25139991832E+02 -0.15011951335E+02 -0.28209713346E+02  0.50528858356E+02  0.29999995458E+02 0.  0.
        -12    1    1    2    0    0 -0.25139991832E+02  0.15011951335E+02  0.28209713346E+02  0.40659141644E+02  0.00000000000E+00 0.  1.
         11    1    3    3    0    0  0.19758573404E+02 -0.24056661034E+00 -0.25687722797E+02  0.32408613023E+02  0.51100000000E-03 0. -1.
        -11    1    3    3    0    0 -0.28458019221E+00 -0.11137630239E+02 -0.78638463321E+00  0.11168983583E+02  0.51100000000E-03 0.  1.
         12    1    3    3    0    0  0.56659986200E+01 -0.36337544864E+01 -0.17356059151E+01  0.69512617503E+01  0.00000000000E+00 0. -1.
</event>
<event>
 7    1  0.5068291E-011  0.5052887E+02  0.7816164E-02  0.1300439E+00
        -11   -1    0    0    0    0  0.00000000000E+00  0.00000000000E+00  0.45593999997E+02  0.45594000000E+02  0.51100000000E-03 0.  1.
         11   -1    0    0    0    0 -0.00000000000E+00 -0.00000000000E+00 -0.45593999997E+02  0.45594000000E+02  0.51100000000E-03 0. -1.
    9900012    2    1    2    0    0 -0.28440721922E+02  0.11920972537E+02 -0.26498689062E+02  0.50528870992E+02  0.30000033867E+02 0.  0.
        -12    1    1    2    0    0  0.28440721922E+02 -0.11920972537E+02  0.26498689062E+02  0.40659129008E+02  0.00000000000E+00 0.  1.
         11    1    3    3    0    0 -0.12827050079E+02 -0.95940483276E+01 -0.98220781731E+01  0.18789683258E+02  0.51100000000E-03 0. -1.
        -11    1    3    3    0    0 -0.19972015565E+01  0.45172639031E+01 -0.49967425665E+01  0.70258041365E+01  0.51100000000E-03 0.  1.
         12    1    3    3    0    0 -0.13616470286E+02  0.16997756962E+02 -0.11679868323E+02  0.24713383597E+02  0.00000000000E+00 0. -1.
</event>
<event>
 7    1  0.5068291E-011  0.5052888E+02  0.7816164E-02  0.1300439E+00
        -11   -1    0    0    0    0  0.00000000000E+00  0.00000000000E+00  0.45593999997E+02  0.45594000000E+02  0.51100000000E-03 0.  1.
         11   -1    0    0    0    0 -0.00000000000E+00 -0.00000000000E+00 -0.45593999997E+02  0.45594000000E+02  0.51100000000E-03 0. -1.
    9900012    2    1    2    0    0 -0.78773998014E+01  0.70470250224E+01 -0.39261309539E+02  0.50528875365E+02  0.30000047161E+02 0.  0.
        -12    1    1    2    0    0  0.78773998014E+01 -0.70470250224E+01  0.39261309539E+02  0.40659124635E+02  0.00000000000E+00 0.  1.
         11    1    3    3    0    0 -0.11120856091E+02  0.43658278790E+01 -0.23076655889E+01  0.12167958498E+02  0.51100000000E-03 0. -1.
        -11    1    3    3    0    0  0.18876030822E+01 -0.30032965669E+01 -0.70558306271E+01  0.78973148452E+01  0.51100000000E-03 0.  1.
         12    1    3    3    0    0  0.13558532076E+01  0.56844937103E+01 -0.29897813323E+02  0.30463602023E+02  0.00000000000E+00 0. -1.
</event>
<event>
 7    1  0.5068291E-011  0.5052887E+02  0.7816164E-02  0.1300439E+00
        -11   -1    0    0    0    0  0.00000000000E+00  0.00000000000E+00  0.45593999997E+02  0.45594000000E+02  0.51100000000E-03 0.  1.
         11   -1    0    0    0    0 -0.00000000000E+00 -0.00000000000E+00 -0.45593999997E+02  0.45594000000E+02  0.51100000000E-03 0. -1.
    9900012    2    1    2    0    0  0.98297881554E+01 -0.35444475514E+02 -0.17327136262E+02  0.50528865347E+02  0.30000016710E+02 0.  0.
        -12    1    1    2    0    0 -0.98297881554E+01  0.35444475514E+02  0.17327136262E+02  0.40659134653E+02  0.00000000000E+00 0.  1.
         11    1    3    3    0    0  0.16783728597E+02 -0.31545567951E+02 -0.70631214938E+01  0.36423949380E+02  0.51100000000E-03 0. -1.
        -11    1    3    3    0    0 -0.35458256810E+01  0.10194707944E+01 -0.37993213933E+01  0.52959459751E+01  0.51100000000E-03 0.  1.
         12    1    3    3    0    0 -0.34081147605E+01 -0.49183783581E+01 -0.64646933748E+01  0.88089699922E+01  0.00000000000E+00 0. -1.
</event>
<event>
 7    1  0.5068291E-011  0.5052886E+02  0.7816164E-02  0.1300439E+00
        -11   -1    0    0    0    0  0.00000000000E+00  0.00000000000E+00  0.45593999997E+02  0.45594000000E+02  0.51100000000E-03 0.  1.
         11   -1    0    0    0    0 -0.00000000000E+00 -0.00000000000E+00 -0.45593999997E+02  0.45594000000E+02  0.51100000000E-03 0. -1.
    9900012    2    1    2    0    0 -0.23851853932E+02  0.24381789162E+02  0.22131051605E+02  0.50528855593E+02  0.29999987061E+02 0.  0.
        -12    1    1    2    0    0  0.23851853932E+02 -0.24381789162E+02 -0.22131051605E+02  0.40659144407E+02  0.00000000000E+00 0.  1.
         11    1    3    3    0    0 -0.13111763963E+02  0.15690872082E+02  0.22924288885E+02  0.30718802745E+02  0.51100000000E-03 0.  1.
        -11    1    3    3    0    0 -0.21831537075E+01 -0.30154081810E+01 -0.34416125508E+01  0.50698662527E+01  0.51100000000E-03 0. -1.
        -12    1    3    3    0    0 -0.85569362620E+01  0.11706325261E+02  0.26483752702E+01  0.14740186596E+02  0.00000000000E+00 0.  1.
</event>
<event>
 7    1  0.5068291E-011  0.5052886E+02  0.7816164E-02  0.1300439E+00
        -11   -1    0    0    0    0  0.00000000000E+00  0.00000000000E+00  0.45593999997E+02  0.45594000000E+02  0.51100000000E-03 0.  1.
         11   -1    0    0    0    0 -0.00000000000E+00 -0.00000000000E+00 -0.45593999997E+02  0.45594000000E+02  0.51100000000E-03 0. -1.
    9900012    2    1    2    0    0  0.22882394872E+02 -0.26747392251E+02 -0.20350393896E+02  0.50528861801E+02  0.30000005931E+02 0.  0.
        -12    1    1    2    0    0 -0.22882394872E+02  0.26747392251E+02  0.20350393896E+02  0.40659138199E+02  0.00000000000E+00 0.  1.
         11    1    3    3    0    0  0.94833377945E+00  0.12483446582E+01  0.54399589758E+01  0.56613474776E+01  0.51100000000E-03 0. -1.
        -11    1    3    3    0    0  0.27044055617E+01 -0.26494747677E+00 -0.34725589999E+01  0.44093846370E+01  0.51100000000E-03 0.  1.
         12    1    3    3    0    0  0.19229655531E+02 -0.27730789433E+02 -0.22317793872E+02  0.40458129687E+02  0.00000000000E+00 0. -1.
</event>
<event>
 7    1  0.5068291E-011  0.5052886E+02  0.7816164E-02  0.1300439E+00
        -11   -1    0    0    0    0  0.00000000000E+00  0.00000000000E+00  0.45593999997E+02  0.45594000000E+02  0.51100000000E-03 0. -1.
         11   -1    0    0    0    0 -0.00000000000E+00 -0.00000000000E+00 -0.45593999997E+02  0.45594000000E+02  0.51100000000E-03 0.  1.
    9900012    2    1    2    0    0  0.24838472657E+02 -0.26972820975E+02 -0.17569380735E+02  0.50528856691E+02  0.29999990397E+02 0.  0.
        -12    1    1    2    0    0 -0.24838472657E+02  0.26972820975E+02  0.17569380735E+02  0.40659143309E+02  0.00000000000E+00 0.  1.
         11    1    3    3    0    0  0.16016784483E+02 -0.10674379611E+02 -0.70811086872E+01  0.20509067891E+02  0.51100000000E-03 0. -1.
        -11    1    3    3    0    0  0.12860930560E+01 -0.19223716910E+02 -0.10487941071E+02  0.21936322284E+02  0.51100000000E-03 0.  1.
        -12    1    3    3    0    0  0.75355951172E+01  0.29252755462E+01 -0.33097676021E-03  0.80834665151E+01  0.00000000000E+00 0.  1.
</event>
<event>
 7    1  0.5068291E-011  0.5052884E+02  0.7816164E-02  0.1300439E+00
        -11   -1    0    0    0    0  0.00000000000E+00  0.00000000000E+00  0.45593999997E+02  0.45594000000E+02  0.51100000000E-03 0.  1.
         11   -1    0    0    0    0 -0.00000000000E+00 -0.00000000000E+00 -0.45593999997E+02  0.45594000000E+02  0.51100000000E-03 0. -1.
    9900012    2    1    2    0    0  0.35969953962E+02 -0.18714291445E+02 -0.30173846216E+01  0.50528844791E+02  0.29999954228E+02 0.  0.
        -12    1    1    2    0    0 -0.35969953962E+02  0.18714291445E+02  0.30173846216E+01  0.40659155209E+02  0.00000000000E+00 0.  1.
         11    1    3    3    0    0  0.50655195564E+01 -0.73304396873E+01 -0.56152544376E+00  0.89280538456E+01  0.51100000000E-03 0. -1.
        -11    1    3    3    0    0  0.15130443783E+01  0.63683379327E+01  0.22969484229E+01  0.69369304188E+01  0.51100000000E-03 0.  1.
        -12    1    3    3    0    0  0.29391390028E+02 -0.17752189690E+02 -0.47528076007E+01  0.34663860527E+02  0.00000000000E+00 0.  1.
</event>
<event>
 7    1  0.5068291E-011  0.5052886E+02  0.7816164E-02  0.1300439E+00
        -11   -1    0    0    0    0  0.00000000000E+00  0.00000000000E+00  0.45593999997E+02  0.45594000000E+02  0.51100000000E-03 0.  1.
         11   -1    0    0    0    0 -0.00000000000E+00 -0.00000000000E+00 -0.45593999997E+02  0.45594000000E+02  0.51100000000E-03 0. -1.
    9900012    2    1    2    0    0 -0.10846964216E+02 -0.17989389707E+02 -0.34812222460E+02  0.50528860715E+02  0.30000002631E+02 0.  0.
        -12    1    1    2    0    0  0.10846964216E+02  0.17989389707E+02  0.34812222460E+02  0.40659139285E+02  0.00000000000E+00 0.  1.
         11    1    3    3    0    0  0.78936801178E+01 -0.49555788435E+01 -0.16362187744E+02  0.18830537313E+02  0.51100000000E-03 0. -1.
        -11    1    3    3    0    0 -0.32026650734E+01 -0.30733169014E+01  0.13409389127E+01  0.46368586108E+01  0.51100000000E-03 0.  1.
         12    1    3    3    0    0 -0.15537979261E+02 -0.99604939627E+01 -0.19790973629E+02  0.27061464792E+02  0.00000000000E+00 0. -1.
</event>
<event>
 7    1  0.6280084E-011  0.5052886E+02  0.7816164E-02  0.1300439E+00
        -11   -1    0    0    0    0  0.00000000000E+00  0.00000000000E+00  0.45593999997E+02  0.45594000000E+02  0.51100000000E-03 0. -1.
         11   -1    0    0    0    0 -0.00000000000E+00 -0.00000000000E+00 -0.45593999997E+02  0.45594000000E+02  0.51100000000E-03 0.  1.
    9900012    2    1    2    0    0 -0.21534961254E+02  0.23163579248E+02  0.25551121411E+02  0.50528858775E+02  0.29999996732E+02 0.  0.
        -12    1    1    2    0    0  0.21534961254E+02 -0.23163579248E+02 -0.25551121411E+02  0.40659141225E+02  0.00000000000E+00 0.  1.
         11    1    3    3    0    0 -0.20264679497E+02  0.14084283384E+02  0.27567337710E+02  0.36999761921E+02  0.51100000000E-03 0. -1.
        -11    1    3    3    0    0 -0.42166511508E+01  0.46074890781E+01 -0.44277349509E+01  0.76559741111E+01  0.51100000000E-03 0.  1.
         12    1    3    3    0    0  0.29463693939E+01  0.44718067860E+01  0.24115186524E+01  0.58731227425E+01  0.00000000000E+00 0. -1.
</event>
<event>
 7    1  0.5068291E-011  0.5052881E+02  0.7816164E-02  0.1300439E+00
        -11   -1    0    0    0    0  0.00000000000E+00  0.00000000000E+00  0.45593999997E+02  0.45594000000E+02  0.51100000000E-03 0.  1.
         11   -1    0    0    0    0 -0.00000000000E+00 -0.00000000000E+00 -0.45593999997E+02  0.45594000000E+02  0.51100000000E-03 0. -1.
    9900012    2    1    2    0    0  0.20095937643E+02  0.19507673581E+02 -0.29474970087E+02  0.50528807928E+02  0.29999842178E+02 0.  0.
        -12    1    1    2    0    0 -0.20095937643E+02 -0.19507673581E+02  0.29474970087E+02  0.40659192072E+02  0.00000000000E+00 0.  1.
         11    1    3    3    0    0 -0.56008375850E+01  0.30577840925E+01  0.98730160647E+00  0.64571038348E+01  0.51100000000E-03 0.  1.
        -11    1    3    3    0    0 -0.14214110260E+00  0.16305368729E+01 -0.36277600932E+01  0.39798866997E+01  0.51100000000E-03 0. -1.
         12    1    3    3    0    0  0.25838916331E+02  0.14819352615E+02 -0.26834511601E+02  0.40091817394E+02  0.00000000000E+00 0. -1.
</event>
<event>
 7    1  0.5068291E-011  0.5052886E+02  0.7816164E-02  0.1300439E+00
        -11   -1    0    0    0    0  0.00000000000E+00  0.00000000000E+00  0.45593999997E+02  0.45594000000E+02  0.51100000000E-03 0.  1.
         11   -1    0    0    0    0 -0.00000000000E+00 -0.00000000000E+00 -0.45593999997E+02  0.45594000000E+02  0.51100000000E-03 0. -1.
    9900012    2    1    2    0    0 -0.34872435250E+02 -0.20365031472E+02 -0.47269647181E+01  0.50528862742E+02  0.30000008792E+02 0.  0.
        -12    1    1    2    0    0  0.34872435250E+02  0.20365031472E+02  0.47269647181E+01  0.40659137258E+02  0.00000000000E+00 0.  1.
         11    1    3    3    0    0  0.18450848342E+01 -0.38855625220E+01 -0.49851717073E+01  0.65843656771E+01  0.51100000000E-03 0. -1.
        -11    1    3    3    0    0 -0.75624193009E+01  0.19446947035E+01  0.47881163645E+01  0.91595896061E+01  0.51100000000E-03 0.  1.
         12    1    3    3    0    0 -0.29155100783E+02 -0.18424163653E+02 -0.45299093753E+01  0.34784907459E+02  0.00000000000E+00 0. -1.
</event>
<event>
 7    1  0.5068291E-011  0.5052889E+02  0.7816164E-02  0.1300439E+00
        -11   -1    0    0    0    0  0.00000000000E+00  0.00000000000E+00  0.45593999997E+02  0.45594000000E+02  0.51100000000E-03 0.  1.
         11   -1    0    0    0    0 -0.00000000000E+00 -0.00000000000E+00 -0.45593999997E+02  0.45594000000E+02  0.51100000000E-03 0. -1.
    9900012    2    1    2    0    0  0.15645235698E+02 -0.27399884094E+02 -0.25644413574E+02  0.50528892829E+02  0.30000100243E+02 0.  0.
        -12    1    1    2    0    0 -0.15645235698E+02  0.27399884094E+02  0.25644413574E+02  0.40659107171E+02  0.00000000000E+00 0.  1.
         11    1    3    3    0    0  0.20065224840E+02 -0.24881154292E+02 -0.11727843173E+02  0.34047428574E+02  0.51100000000E-03 0. -1.
        -11    1    3    3    0    0 -0.57627747314E+01 -0.11573611717E+01 -0.62487186369E+01  0.85787844332E+01  0.51100000000E-03 0.  1.
         12    1    3    3    0    0  0.13427855890E+01 -0.13613686302E+01 -0.76678517642E+01  0.79026798216E+01  0.00000000000E+00 0. -1.
</event>
<event>
 7    1  0.5068291E-011  0.5052887E+02  0.7816164E-02  0.1300439E+00
        -11   -1    0    0    0    0  0.00000000000E+00  0.00000000000E+00  0.45593999997E+02  0.45594000000E+02  0.51100000000E-03 0.  1.
         11   -1    0    0    0    0 -0.00000000000E+00 -0.00000000000E+00 -0.45593999997E+02  0.45594000000E+02  0.51100000000E-03 0. -1.
    9900012    2    1    2    0    0  0.24341253452E+02 -0.72246784128E+01 -0.31756457956E+02  0.50528865483E+02  0.30000017122E+02 0.  0.
        -12    1    1    2    0    0 -0.24341253452E+02  0.72246784128E+01  0.31756457956E+02  0.40659134517E+02  0.00000000000E+00 0.  1.
         11    1    3    3    0    0  0.12915074063E+02  0.13598202605E+01 -0.30886598066E+02  0.33505673991E+02  0.51100000000E-03 0. -1.
        -11    1    3    3    0    0  0.11154119326E+02 -0.49714831146E+01  0.20337115475E+01  0.12380064831E+02  0.51100000000E-03 0.  1.
         12    1    3    3    0    0  0.27206006288E+00 -0.36130155586E+01 -0.29035714372E+01  0.46431266616E+01  0.00000000000E+00 0. -1.
</event>
<event>
 7    1  0.5068291E-011  0.5052885E+02  0.7816164E-02  0.1300439E+00
        -11   -1    0    0    0    0  0.00000000000E+00  0.00000000000E+00  0.45593999997E+02  0.45594000000E+02  0.51100000000E-03 0.  1.
         11   -1    0    0    0    0 -0.00000000000E+00 -0.00000000000E+00 -0.45593999997E+02  0.45594000000E+02  0.51100000000E-03 0. -1.
    9900012    2    1    2    0    0  0.98168051512E+01  0.22467579459E+02 -0.32434616971E+02  0.50528853819E+02  0.29999981667E+02 0.  0.
        -12    1    1    2    0    0 -0.98168051512E+01 -0.22467579459E+02  0.32434616971E+02  0.40659146181E+02  0.00000000000E+00 0.  1.
         11    1    3    3    0    0  0.11622034082E+02  0.20733320579E+02 -0.30965589506E+02  0.39036008917E+02  0.51100000000E-03 0. -1.
        -11    1    3    3    0    0  0.44856413675E+00 -0.46275917236E+01 -0.60829562085E+00  0.46889059245E+01  0.51100000000E-03 0.  1.
        -12    1    3    3    0    0 -0.22537930677E+01  0.63618506038E+01 -0.86073184420E+00  0.68039389772E+01  0.00000000000E+00 0.  1.
</event>
<event>
 7    1  0.5068291E-011  0.5052887E+02  0.7816164E-02  0.1300439E+00
        -11   -1    0    0    0    0  0.00000000000E+00  0.00000000000E+00  0.45593999997E+02  0.45594000000E+02  0.51100000000E-03 0.  1.
         11   -1    0    0    0    0 -0.00000000000E+00 -0.00000000000E+00 -0.45593999997E+02  0.45594000000E+02  0.51100000000E-03 0. -1.
    9900012    2    1    2    0    0 -0.21169934866E+02  0.43360135697E+01 -0.34441221775E+02  0.50528869251E+02  0.30000028574E+02 0.  0.
        -12    1    1    2    0    0  0.21169934866E+02 -0.43360135697E+01  0.34441221775E+02  0.40659130749E+02  0.00000000000E+00 0.  1.
         11    1    3    3    0    0 -0.17732020169E+02 -0.23256450827E+01 -0.21299482627E+02  0.27811888192E+02  0.51100000000E-03 0. -1.
        -11    1    3    3    0    0  0.36515352901E+01 -0.41666401064E+01 -0.32118739104E+01  0.64039623694E+01  0.51100000000E-03 0.  1.
         12    1    3    3    0    0 -0.70894499870E+01  0.10828298759E+02 -0.99298652377E+01  0.16313018690E+02  0.00000000000E+00 0. -1.
</event>
<event>
 7    1  0.5068291E-011  0.5052885E+02  0.7816164E-02  0.1300439E+00
        -11   -1    0    0    0    0  0.00000000000E+00  0.00000000000E+00  0.45593999997E+02  0.45594000000E+02  0.51100000000E-03 0.  1.
         11   -1    0    0    0    0 -0.00000000000E+00 -0.00000000000E+00 -0.45593999997E+02  0.45594000000E+02  0.51100000000E-03 0. -1.
    9900012    2    1    2    0    0 -0.15497263908E+02 -0.69326308179E+01 -0.36945091959E+02  0.50528851232E+02  0.29999973804E+02 0.  0.
        -12    1    1    2    0    0  0.15497263908E+02  0.69326308179E+01  0.36945091959E+02  0.40659148768E+02  0.00000000000E+00 0.  1.
         11    1    3    3    0    0 -0.10630685314E+02 -0.13802750269E+02 -0.17749615575E+02  0.24871192946E+02  0.51100000000E-03 0. -1.
        -11    1    3    3    0    0  0.12838102027E+01  0.56087019758E+01 -0.18460486331E+02  0.19336371488E+02  0.51100000000E-03 0.  1.
        -12    1    3    3    0    0 -0.61503887969E+01  0.12614174757E+01 -0.73499005355E+00  0.63212867978E+01  0.00000000000E+00 0.  1.
</event>
<event>
 7    1  0.5068291E-011  0.5052888E+02  0.7816164E-02  0.1300439E+00
        -11   -1    0    0    0    0  0.00000000000E+00  0.00000000000E+00  0.45593999997E+02  0.45594000000E+02  0.51100000000E-03 0.  1.
         11   -1    0    0    0    0 -0.00000000000E+00 -0.00000000000E+00 -0.45593999997E+02  0.45594000000E+02  0.51100000000E-03 0. -1.
    9900012    2    1    2    0    0 -0.83393466235E+01 -0.20955418230E+02 -0.33830306683E+02  0.50528881643E+02  0.30000066243E+02 0.  0.
        -12    1    1    2    0    0  0.83393466235E+01  0.20955418230E+02  0.33830306683E+02  0.40659118357E+02  0.00000000000E+00 0.  1.
         11    1    3    3    0    0 -0.23395060470E+01 -0.58309755806E+01 -0.11858517999E+02  0.13420060140E+02  0.51100000000E-03 0. -1.
        -11    1    3    3    0    0 -0.21741321986E+01  0.69345441967E+01 -0.75399692985E+01  0.10472148362E+02  0.51100000000E-03 0.  1.
        -12    1    3    3    0    0 -0.38257083779E+01 -0.22058986846E+02 -0.14431819386E+02  0.26636673142E+02  0.00000000000E+00 0.  1.
</event>
<event>
 7    1  0.5068291E-011  0.5052886E+02  0.7816164E-02  0.1300439E+00
        -11   -1    0    0    0    0  0.00000000000E+00  0.00000000000E+00  0.45593999997E+02  0.45594000000E+02  0.51100000000E-03 0.  1.
         11   -1    0    0    0    0 -0.00000000000E+00 -0.00000000000E+00 -0.45593999997E+02  0.45594000000E+02  0.51100000000E-03 0. -1.
    9900012    2    1    2    0    0 -0.88152890671E+01  0.35948724508E+02 -0.16826927524E+02  0.50528860745E+02  0.30000002720E+02 0.  0.
        -12    1    1    2    0    0  0.88152890671E+01 -0.35948724508E+02  0.16826927524E+02  0.40659139255E+02  0.00000000000E+00 0.  1.
         11    1    3    3    0    0  0.62604617326E+00  0.66593117449E+01 -0.59510551432E+01  0.89528444812E+01  0.51100000000E-03 0. -1.
        -11    1    3    3    0    0 -0.10554569365E+02  0.28460296625E+02  0.25849126787E+00  0.30355464688E+02  0.51100000000E-03 0.  1.
        -12    1    3    3    0    0  0.11132341243E+01  0.82911613806E+00 -0.11134363649E+02  0.11220551575E+02  0.00000000000E+00 0.  1.
</event>
<event>
 7    1  0.5068291E-011  0.5052886E+02  0.7816164E-02  0.1300439E+00
        -11   -1    0    0    0    0  0.00000000000E+00  0.00000000000E+00  0.45593999997E+02  0.45594000000E+02  0.51100000000E-03 0.  1.
         11   -1    0    0    0    0 -0.00000000000E+00 -0.00000000000E+00 -0.45593999997E+02  0.45594000000E+02  0.51100000000E-03 0. -1.
    9900012    2    1    2    0    0 -0.10803233267E+02 -0.15511919738E+02 -0.35997720529E+02  0.50528863434E+02  0.30000010895E+02 0.  0.
        -12    1    1    2    0    0  0.10803233267E+02  0.15511919738E+02  0.35997720529E+02  0.40659136566E+02  0.00000000000E+00 0.  1.
         11    1    3    3    0    0 -0.17128488871E+01 -0.65498625563E+01 -0.83999319740E+01  0.10788577675E+02  0.51100000000E-03 0. -1.
        -11    1    3    3    0    0  0.24891100113E+01  0.39530664521E+01 -0.20454195365E+02  0.20980860595E+02  0.51100000000E-03 0.  1.
        -12    1    3    3    0    0 -0.11579494392E+02 -0.12915123634E+02 -0.71435931902E+01  0.18759425165E+02  0.00000000000E+00 0.  1.
</event>
<event>
 7    1  0.5068291E-011  0.5052886E+02  0.7816164E-02  0.1300439E+00
        -11   -1    0    0    0    0  0.00000000000E+00  0.00000000000E+00  0.45593999997E+02  0.45594000000E+02  0.51100000000E-03 0. -1.
         11   -1    0    0    0    0 -0.00000000000E+00 -0.00000000000E+00 -0.45593999997E+02  0.45594000000E+02  0.51100000000E-03 0.  1.
    9900012    2    1    2    0    0 -0.22512096514E+02  0.32607987604E+02  0.91153956252E+01  0.50528858563E+02  0.29999996087E+02 0.  0.
        -12    1    1    2    0    0  0.22512096514E+02 -0.32607987604E+02 -0.91153956252E+01  0.40659141437E+02  0.00000000000E+00 0.  1.
         11    1    3    3    0    0 -0.33437775685E+01  0.23227877109E+02  0.64725352173E+01  0.24343558405E+02  0.51100000000E-03 0. -1.
        -11    1    3    3    0    0 -0.16057706943E+02  0.10488959006E+02 -0.32277687082E+01  0.19449593939E+02  0.51100000000E-03 0.  1.
         12    1    3    3    0    0 -0.31106120028E+01 -0.11088485112E+01  0.58706291161E+01  0.67357062192E+01  0.00000000000E+00 0. -1.
</event>
<event>
 7    1  0.5068291E-011  0.5052896E+02  0.7816164E-02  0.1300438E+00
        -11   -1    0    0    0    0  0.00000000000E+00  0.00000000000E+00  0.45593999997E+02  0.45594000000E+02  0.51100000000E-03 0.  1.
         11   -1    0    0    0    0 -0.00000000000E+00 -0.00000000000E+00 -0.45593999997E+02  0.45594000000E+02  0.51100000000E-03 0. -1.
    9900012    2    1    2    0    0  0.64550247644E+01 -0.17186239444E+02 -0.36278415435E+02  0.50528959217E+02  0.30000302035E+02 0.  0.
        -12    1    1    2    0    0 -0.64550247644E+01  0.17186239444E+02  0.36278415435E+02  0.40659040783E+02  0.00000000000E+00 0.  1.
         11    1    3    3    0    0  0.74906781130E+01 -0.13385632150E+02 -0.30580075301E+02  0.34211495324E+02  0.51100000000E-03 0. -1.
        -11    1    3    3    0    0  0.58891630225E+01  0.30752550099E+00  0.82530381624E+00  0.59546569750E+01  0.51100000000E-03 0.  1.
        -12    1    3    3    0    0 -0.69248163711E+01 -0.41081327945E+01 -0.65236439499E+01  0.10362806918E+02  0.00000000000E+00 0.  1.
</event>
<event>
 7    1  0.5068291E-011  0.5052886E+02  0.7816164E-02  0.1300439E+00
        -11   -1    0    0    0    0  0.00000000000E+00  0.00000000000E+00  0.45593999997E+02  0.45594000000E+02  0.51100000000E-03 0.  1.
         11   -1    0    0    0    0 -0.00000000000E+00 -0.00000000000E+00 -0.45593999997E+02  0.45594000000E+02  0.51100000000E-03 0. -1.
    9900012    2    1    2    0    0 -0.43056939473E+01  0.39596004468E+02 -0.81721000324E+01  0.50528858480E+02  0.29999995835E+02 0.  0.
        -12    1    1    2    0    0  0.43056939473E+01 -0.39596004468E+02  0.81721000324E+01  0.40659141520E+02  0.00000000000E+00 0.  1.
         11    1    3    3    0    0 -0.58209342966E+01  0.31407348374E+02 -0.79281429354E+01  0.32911400132E+02  0.51100000000E-03 0. -1.
        -11    1    3    3    0    0  0.10199104758E+01 -0.30867343159E+01  0.43512893554E+01  0.54315619697E+01  0.51100000000E-03 0.  1.
        -12    1    3    3    0    0  0.49532987361E+00  0.11275390410E+02 -0.45952464524E+01  0.12185896379E+02  0.00000000000E+00 0.  1.
</event>
<event>
 7    1  0.5068291E-011  0.5052887E+02  0.7816164E-02  0.1300439E+00
        -11   -1    0    0    0    0  0.00000000000E+00  0.00000000000E+00  0.45593999997E+02  0.45594000000E+02  0.51100000000E-03 0.  1.
         11   -1    0    0    0    0 -0.00000000000E+00 -0.00000000000E+00 -0.45593999997E+02  0.45594000000E+02  0.51100000000E-03 0. -1.
    9900012    2    1    2    0    0  0.37223796398E+02  0.16434578606E+01 -0.16274311920E+02  0.50528865719E+02  0.30000017839E+02 0.  0.
        -12    1    1    2    0    0 -0.37223796398E+02 -0.16434578606E+01  0.16274311920E+02  0.40659134281E+02  0.00000000000E+00 0.  1.
         11    1    3    3    0    0  0.16498190909E+00  0.22841696545E+01 -0.42657897437E+01  0.48416538951E+01  0.51100000000E-03 0. -1.
        -11    1    3    3    0    0  0.35592674614E+02 -0.78967539214E+01 -0.11656170265E+02  0.38276148111E+02  0.51100000000E-03 0.  1.
        -12    1    3    3    0    0  0.14661398750E+01  0.72560421275E+01 -0.35235191153E+00  0.74110637130E+01  0.00000000000E+00 0.  1.
</event>
<event>
 7    1  0.5068291E-011  0.5052887E+02  0.7816164E-02  0.1300439E+00
        -11   -1    0    0    0    0  0.00000000000E+00  0.00000000000E+00  0.45593999997E+02  0.45594000000E+02  0.51100000000E-03 0.  1.
         11   -1    0    0    0    0 -0.00000000000E+00 -0.00000000000E+00 -0.45593999997E+02  0.45594000000E+02  0.51100000000E-03 0. -1.
    9900012    2    1    2    0    0 -0.25355572713E+00  0.10624390229E+02 -0.39245677658E+02  0.50528866056E+02  0.30000018864E+02 0.  0.
        -12    1    1    2    0    0  0.25355572713E+00 -0.10624390229E+02  0.39245677658E+02  0.40659133944E+02  0.00000000000E+00 0.  1.
         11    1    3    3    0    0  0.56999936896E+01  0.77725828423E+01 -0.92428902255E+01  0.13354175081E+02  0.51100000000E-03 0. -1.
        -11    1    3    3    0    0  0.30754811606E+01 -0.75100397214E+01 -0.12801051725E+02  0.15156721496E+02  0.51100000000E-03 0.  1.
        -12    1    3    3    0    0 -0.90290305773E+01  0.10361847108E+02 -0.17201735707E+02  0.22017969479E+02  0.00000000000E+00 0.  1.
</event>
<event>
 7    1  0.5068291E-011  0.5052887E+02  0.7816164E-02  0.1300439E+00
        -11   -1    0    0    0    0  0.00000000000E+00  0.00000000000E+00  0.45593999997E+02  0.45594000000E+02  0.51100000000E-03 0.  1.
         11   -1    0    0    0    0 -0.00000000000E+00 -0.00000000000E+00 -0.45593999997E+02  0.45594000000E+02  0.51100000000E-03 0. -1.
    9900012    2    1    2    0    0  0.17817271821E+02  0.30701756978E+02 -0.19827057267E+02  0.50528865030E+02  0.30000015744E+02 0.  0.
        -12    1    1    2    0    0 -0.17817271821E+02 -0.30701756978E+02  0.19827057267E+02  0.40659134970E+02  0.00000000000E+00 0.  1.
         11    1    3    3    0    0  0.90000561789E+01  0.22753024202E+00 -0.11385788728E+01  0.90746428770E+01  0.51100000000E-03 0. -1.
        -11    1    3    3    0    0  0.91900966987E+01  0.29467927516E+02 -0.22044228211E+02  0.37931050962E+02  0.51100000000E-03 0.  1.
         12    1    3    3    0    0 -0.37288105667E+00  0.10062992200E+01  0.33557498171E+01  0.35231711905E+01  0.00000000000E+00 0. -1.
</event>
<event>
 7    1  0.5068291E-011  0.5052886E+02  0.7816164E-02  0.1300439E+00
        -11   -1    0    0    0    0  0.00000000000E+00  0.00000000000E+00  0.45593999997E+02  0.45594000000E+02  0.51100000000E-03 0.  1.
         11   -1    0    0    0    0 -0.00000000000E+00 -0.00000000000E+00 -0.45593999997E+02  0.45594000000E+02  0.51100000000E-03 0. -1.
    9900012    2    1    2    0    0 -0.21616574281E+02  0.12557246754E+02 -0.32065640006E+02  0.50528855903E+02  0.29999988003E+02 0.  0.
        -12    1    1    2    0    0  0.21616574281E+02 -0.12557246754E+02  0.32065640006E+02  0.40659144097E+02  0.00000000000E+00 0.  1.
         11    1    3    3    0    0 -0.11492970359E+02  0.12223227508E+02 -0.23288249783E+02  0.28702582403E+02  0.51100000000E-03 0. -1.
        -11    1    3    3    0    0 -0.14799763525E+02  0.10521316980E+01 -0.46521659097E+01  0.15549361061E+02  0.51100000000E-03 0.  1.
         12    1    3    3    0    0  0.46761596030E+01 -0.71811245166E+00 -0.41252243138E+01  0.62769124389E+01  0.00000000000E+00 0. -1.
</event>
<event>
 7    1  0.5068291E-011  0.5052886E+02  0.7816164E-02  0.1300439E+00
        -11   -1    0    0    0    0  0.00000000000E+00  0.00000000000E+00  0.45593999997E+02  0.45594000000E+02  0.51100000000E-03 0.  1.
         11   -1    0    0    0    0 -0.00000000000E+00 -0.00000000000E+00 -0.45593999997E+02  0.45594000000E+02  0.51100000000E-03 0. -1.
    9900012    2    1    2    0    0  0.92694546627E+01  0.30098050123E+02 -0.25716726588E+02  0.50528862806E+02  0.30000008986E+02 0.  0.
        -12    1    1    2    0    0 -0.92694546627E+01 -0.30098050123E+02  0.25716726588E+02  0.40659137194E+02  0.00000000000E+00 0.  1.
         11    1    3    3    0    0 -0.83527998572E+01  0.49570311626E+01  0.33751960277E-01  0.97130099792E+01  0.51100000000E-03 0.  1.
        -11    1    3    3    0    0  0.14299686659E+02  0.13949780400E+02 -0.16890392507E+02  0.26160328191E+02  0.51100000000E-03 0. -1.
        -12    1    3    3    0    0  0.33225678608E+01  0.11191238561E+02 -0.88600860411E+01  0.14655524636E+02  0.00000000000E+00 0.  1.
</event>
<event>
 7    1  0.5068291E-011  0.5052894E+02  0.7816164E-02  0.1300439E+00
        -11   -1    0    0    0    0  0.00000000000E+00  0.00000000000E+00  0.45593999997E+02  0.45594000000E+02  0.51100000000E-03 0.  1.
         11   -1    0    0    0    0 -0.00000000000E+00 -0.00000000000E+00 -0.45593999997E+02  0.45594000000E+02  0.51100000000E-03 0. -1.
    9900012    2    1    2    0    0  0.20948095217E+01  0.12826909267E+02 -0.38525856416E+02  0.50528936547E+02  0.30000233128E+02 0.  0.
        -12    1    1    2    0    0 -0.20948095217E+01 -0.12826909267E+02  0.38525856416E+02  0.40659063453E+02  0.00000000000E+00 0.  1.
         11    1    3    3    0    0 -0.80137765702E+00 -0.20963795033E+01 -0.14667425859E+02  0.14838139868E+02  0.51100000000E-03 0. -1.
        -11    1    3    3    0    0  0.11284355931E+02  0.11606425042E+02 -0.20371671223E+02  0.26020199455E+02  0.51100000000E-03 0.  1.
        -12    1    3    3    0    0 -0.83881687519E+01  0.33168637283E+01 -0.34867593343E+01  0.96705972235E+01  0.00000000000E+00 0.  1.
</event>
<event>
 7    1  0.5068291E-011  0.5052887E+02  0.7816164E-02  0.1300439E+00
        -11   -1    0    0    0    0  0.00000000000E+00  0.00000000000E+00  0.45593999997E+02  0.45594000000E+02  0.51100000000E-03 0.  1.
         11   -1    0    0    0    0 -0.00000000000E+00 -0.00000000000E+00 -0.45593999997E+02  0.45594000000E+02  0.51100000000E-03 0. -1.
    9900012    2    1    2    0    0  0.36649112486E+02 -0.17080254670E+02 -0.42746412586E+01  0.50528866911E+02  0.30000021464E+02 0.  0.
        -12    1    1    2    0    0 -0.36649112486E+02  0.17080254670E+02  0.42746412586E+01  0.40659133089E+02  0.00000000000E+00 0.  1.
         11    1    3    3    0    0  0.15715359265E+02 -0.21308483884E+01 -0.13936124915E+02  0.21112285750E+02  0.51100000000E-03 0. -1.
        -11    1    3    3    0    0  0.29964950792E+01 -0.17923583782E+01  0.58996316787E+01  0.68554493304E+01  0.51100000000E-03 0.  1.
         12    1    3    3    0    0  0.17937258142E+02 -0.13157047904E+02  0.37618519777E+01  0.22561131831E+02  0.00000000000E+00 0. -1.
</event>
<event>
 7    1  0.5068291E-011  0.5052886E+02  0.7816164E-02  0.1300439E+00
        -11   -1    0    0    0    0  0.00000000000E+00  0.00000000000E+00  0.45593999997E+02  0.45594000000E+02  0.51100000000E-03 0.  1.
         11   -1    0    0    0    0 -0.00000000000E+00 -0.00000000000E+00 -0.45593999997E+02  0.45594000000E+02  0.51100000000E-03 0. -1.
    9900012    2    1    2    0    0 -0.31515874916E+01  0.34993887686E+02 -0.20461200694E+02  0.50528863106E+02  0.30000009898E+02 0.  0.
        -12    1    1    2    0    0  0.31515874916E+01 -0.34993887686E+02  0.20461200694E+02  0.40659136894E+02  0.00000000000E+00 0.  1.
         11    1    3    3    0    0 -0.76669310148E+00  0.29829587519E+02 -0.23247263133E+02  0.37826278607E+02  0.51100000000E-03 0. -1.
        -11    1    3    3    0    0  0.14097368762E+01 -0.29709655597E+01  0.15694370581E+01  0.36437792685E+01  0.51100000000E-03 0.  1.
         12    1    3    3    0    0 -0.37946312663E+01  0.81352657266E+01  0.12166253804E+01  0.90588052306E+01  0.00000000000E+00 0. -1.
</event>
<event>
 7    1  0.5068291E-011  0.5052886E+02  0.7816164E-02  0.1300439E+00
        -11   -1    0    0    0    0  0.00000000000E+00  0.00000000000E+00  0.45593999997E+02  0.45594000000E+02  0.51100000000E-03 0.  1.
         11   -1    0    0    0    0 -0.00000000000E+00 -0.00000000000E+00 -0.45593999997E+02  0.45594000000E+02  0.51100000000E-03 0. -1.
    9900012    2    1    2    0    0 -0.24373176416E+02  0.17832195111E+02 -0.27223645173E+02  0.50528858745E+02  0.29999996640E+02 0.  0.
        -12    1    1    2    0    0  0.24373176416E+02 -0.17832195111E+02  0.27223645173E+02  0.40659141255E+02  0.00000000000E+00 0.  1.
         11    1    3    3    0    0 -0.89529281447E+00  0.18326167289E+01 -0.11141020310E+01  0.23240604327E+01  0.51100000000E-03 0. -1.
        -11    1    3    3    0    0  0.56497868248E+01  0.68906964998E+01 -0.10982653025E+02  0.14142858874E+02  0.51100000000E-03 0.  1.
        -12    1    3    3    0    0 -0.29127670426E+02  0.91088818827E+01 -0.15126890118E+02  0.34061939438E+02  0.00000000000E+00 0.  1.
</event>
<event>
 7    1  0.5068291E-011  0.5052887E+02  0.7816164E-02  0.1300439E+00
        -11   -1    0    0    0    0  0.00000000000E+00  0.00000000000E+00  0.45593999997E+02  0.45594000000E+02  0.51100000000E-03 0. -1.
         11   -1    0    0    0    0 -0.00000000000E+00 -0.00000000000E+00 -0.45593999997E+02  0.45594000000E+02  0.51100000000E-03 0.  1.
    9900012    2    1    2    0    0  0.38758041746E+01 -0.39292209452E+02  0.97090456870E+01  0.50528866342E+02  0.30000019734E+02 0.  0.
        -12    1    1    2    0    0 -0.38758041746E+01  0.39292209452E+02 -0.97090456870E+01  0.40659133658E+02  0.00000000000E+00 0.  1.
         11    1    3    3    0    0 -0.48339112800E+01 -0.10492493687E+02  0.42188312476E+01  0.12298685271E+02  0.51100000000E-03 0. -1.
        -11    1    3    3    0    0  0.10583421993E+02 -0.32110748255E+02  0.36569802941E+01  0.34007094549E+02  0.51100000000E-03 0.  1.
        -12    1    3    3    0    0 -0.18737065385E+01  0.33110324895E+01  0.18332341453E+01  0.42230865217E+01  0.00000000000E+00 0.  1.
</event>
<event>
 7    1  0.5068291E-011  0.5052886E+02  0.7816164E-02  0.1300439E+00
        -11   -1    0    0    0    0  0.00000000000E+00  0.00000000000E+00  0.45593999997E+02  0.45594000000E+02  0.51100000000E-03 0.  1.
         11   -1    0    0    0    0 -0.00000000000E+00 -0.00000000000E+00 -0.45593999997E+02  0.45594000000E+02  0.51100000000E-03 0. -1.
    9900012    2    1    2    0    0  0.79452024460E+01  0.17606733449E+02 -0.35777680267E+02  0.50528859454E+02  0.29999998798E+02 0.  0.
        -12    1    1    2    0    0 -0.79452024460E+01 -0.17606733449E+02  0.35777680267E+02  0.40659140546E+02  0.00000000000E+00 0.  1.
         11    1    3    3    0    0  0.50743509599E+01  0.17323732626E+02 -0.34795961815E+02  0.39199741181E+02  0.51100000000E-03 0. -1.
        -11    1    3    3    0    0  0.66864379265E+00 -0.39581129417E+01 -0.40081165126E+01  0.56726308553E+01  0.51100000000E-03 0.  1.
         12    1    3    3    0    0  0.22022076935E+01  0.42411137651E+01  0.30263980608E+01  0.56564874186E+01  0.00000000000E+00 0. -1.
</event>
<event>
 7    1  0.5068291E-011  0.5052885E+02  0.7816164E-02  0.1300439E+00
        -11   -1    0    0    0    0  0.00000000000E+00  0.00000000000E+00  0.45593999997E+02  0.45594000000E+02  0.51100000000E-03 0. -1.
         11   -1    0    0    0    0 -0.00000000000E+00 -0.00000000000E+00 -0.45593999997E+02  0.45594000000E+02  0.51100000000E-03 0.  1.
    9900012    2    1    2    0    0  0.37296698582E+02  0.14042460194E+02 -0.80580208919E+01  0.50528854484E+02  0.29999983689E+02 0.  0.
        -12    1    1    2    0    0 -0.37296698582E+02 -0.14042460194E+02  0.80580208919E+01  0.40659145516E+02  0.00000000000E+00 0.  1.
         11    1    3    3    0    0  0.21996542860E+02  0.14520838890E+02 -0.43908378069E+01  0.26720443798E+02  0.51100000000E-03 0. -1.
        -11    1    3    3    0    0  0.51715050373E+01 -0.26738262915E+01  0.68859814591E+01  0.90172364006E+01  0.51100000000E-03 0.  1.
        -12    1    3    3    0    0  0.10128650685E+02  0.21954475947E+01 -0.10553164544E+02  0.14791174285E+02  0.00000000000E+00 0.  1.
</event>
<event>
 7    1  0.5068291E-011  0.5052886E+02  0.7816164E-02  0.1300439E+00
        -11   -1    0    0    0    0  0.00000000000E+00  0.00000000000E+00  0.45593999997E+02  0.45594000000E+02  0.51100000000E-03 0. -1.
         11   -1    0    0    0    0 -0.00000000000E+00 -0.00000000000E+00 -0.45593999997E+02  0.45594000000E+02  0.51100000000E-03 0.  1.
    9900012    2    1    2    0    0 -0.38161129421E+02  0.13558511746E+02  0.36139590537E+01  0.50528859091E+02  0.29999997692E+02 0.  0.
        -12    1    1    2    0    0  0.38161129421E+02 -0.13558511746E+02 -0.36139590537E+01  0.40659140909E+02  0.00000000000E+00 0.  1.
         11    1    3    3    0    0 -0.33796032747E+02  0.12380954735E+02  0.27925540255E+01  0.36100667969E+02  0.51100000000E-03 0. -1.
        -11    1    3    3    0    0  0.89934529823E+00  0.26689117888E+01 -0.54321473374E+01  0.61188346160E+01  0.51100000000E-03 0.  1.
        -12    1    3    3    0    0 -0.52644419719E+01 -0.14913547774E+01  0.62535523656E+01  0.83093565055E+01  0.00000000000E+00 0.  1.
</event>
<event>
 7    1  0.5068291E-011  0.5052886E+02  0.7816164E-02  0.1300439E+00
        -11   -1    0    0    0    0  0.00000000000E+00  0.00000000000E+00  0.45593999997E+02  0.45594000000E+02  0.51100000000E-03 0.  1.
         11   -1    0    0    0    0 -0.00000000000E+00 -0.00000000000E+00 -0.45593999997E+02  0.45594000000E+02  0.51100000000E-03 0. -1.
    9900012    2    1    2    0    0 -0.98272703276E+01 -0.29548181241E+02 -0.26143750157E+02  0.50528856760E+02  0.29999990607E+02 0.  0.
        -12    1    1    2    0    0  0.98272703276E+01  0.29548181241E+02  0.26143750157E+02  0.40659143240E+02  0.00000000000E+00 0.  1.
         11    1    3    3    0    0  0.38033593355E+01 -0.22980791766E+01 -0.15148536127E+02  0.15786857103E+02  0.51100000000E-03 0. -1.
        -11    1    3    3    0    0 -0.13995201634E+02 -0.17102384108E+02 -0.41211644860E+01  0.22479795549E+02  0.51100000000E-03 0.  1.
        -12    1    3    3    0    0  0.36457197058E+00 -0.10147717956E+02 -0.68740495449E+01  0.12262204108E+02  0.00000000000E+00 0.  1.
</event>
<event>
 7    1  0.5068291E-011  0.5052886E+02  0.7816164E-02  0.1300439E+00
        -11   -1    0    0    0    0  0.00000000000E+00  0.00000000000E+00  0.45593999997E+02  0.45594000000E+02  0.51100000000E-03 0.  1.
         11   -1    0    0    0    0 -0.00000000000E+00 -0.00000000000E+00 -0.45593999997E+02  0.45594000000E+02  0.51100000000E-03 0. -1.
    9900012    2    1    2    0    0  0.26884637214E+02  0.30138757914E+02 -0.46943848442E+01  0.50528859628E+02  0.29999999325E+02 0.  0.
        -12    1    1    2    0    0 -0.26884637214E+02 -0.30138757914E+02  0.46943848442E+01  0.40659140372E+02  0.00000000000E+00 0.  1.
         11    1    3    3    0    0  0.10465647241E+02 -0.11915045088E+00 -0.11322776935E+02  0.15419119520E+02  0.51100000000E-03 0. -1.
        -11    1    3    3    0    0  0.10757088458E+02  0.19387760979E+02  0.33608023182E+01  0.22425325424E+02  0.51100000000E-03 0.  1.
         12    1    3    3    0    0  0.56619015145E+01  0.10870147386E+02  0.32675897723E+01  0.12684414683E+02  0.00000000000E+00 0. -1.
</event>
<event>
 7    1  0.5068291E-011  0.5052885E+02  0.7816164E-02  0.1300439E+00
        -11   -1    0    0    0    0  0.00000000000E+00  0.00000000000E+00  0.45593999997E+02  0.45594000000E+02  0.51100000000E-03 0.  1.
         11   -1    0    0    0    0 -0.00000000000E+00 -0.00000000000E+00 -0.45593999997E+02  0.45594000000E+02  0.51100000000E-03 0. -1.
    9900012    2    1    2    0    0  0.25357137199E+02 -0.20967327911E+02 -0.23886250223E+02  0.50528853472E+02  0.29999980613E+02 0.  0.
        -12    1    1    2    0    0 -0.25357137199E+02  0.20967327911E+02  0.23886250223E+02  0.40659146528E+02  0.00000000000E+00 0.  1.
         11    1    3    3    0    0  0.21569363615E+02 -0.28512000619E+02 -0.20644416302E+02  0.41283938169E+02  0.51100000000E-03 0. -1.
        -11    1    3    3    0    0  0.22527522190E+01  0.39700318039E+01 -0.27361589340E+01  0.53218991965E+01  0.51100000000E-03 0.  1.
         12    1    3    3    0    0  0.15350213653E+01  0.35746409035E+01 -0.50567498713E+00  0.39230161067E+01  0.00000000000E+00 0. -1.
</event>
<event>
 7    1  0.5068291E-011  0.5052885E+02  0.7816164E-02  0.1300439E+00
        -11   -1    0    0    0    0  0.00000000000E+00  0.00000000000E+00  0.45593999997E+02  0.45594000000E+02  0.51100000000E-03 0.  1.
         11   -1    0    0    0    0 -0.00000000000E+00 -0.00000000000E+00 -0.45593999997E+02  0.45594000000E+02  0.51100000000E-03 0. -1.
    9900012    2    1    2    0    0 -0.15543375715E+02 -0.18607530216E+02 -0.32639385177E+02  0.50528853747E+02  0.29999981449E+02 0.  0.
        -12    1    1    2    0    0  0.15543375715E+02  0.18607530216E+02  0.32639385177E+02  0.40659146253E+02  0.00000000000E+00 0.  1.
         11    1    3    3    0    0 -0.19672939329E+01 -0.12643814057E+02 -0.13700268401E+02  0.18746563254E+02  0.51100000000E-03 0. -1.
        -11    1    3    3    0    0  0.28781426032E+01  0.48974728784E+01 -0.29668483996E+01  0.64086765503E+01  0.51100000000E-03 0.  1.
        -12    1    3    3    0    0 -0.16454224385E+02 -0.10861189037E+02 -0.15972268376E+02  0.25373613942E+02  0.00000000000E+00 0.  1.
</event>
<event>
 7    1  0.5068291E-011  0.5052886E+02  0.7816164E-02  0.1300439E+00
        -11   -1    0    0    0    0  0.00000000000E+00  0.00000000000E+00  0.45593999997E+02  0.45594000000E+02  0.51100000000E-03 0.  1.
         11   -1    0    0    0    0 -0.00000000000E+00 -0.00000000000E+00 -0.45593999997E+02  0.45594000000E+02  0.51100000000E-03 0. -1.
    9900012    2    1    2    0    0 -0.78053737320E+01  0.22022982231E+01 -0.39842086930E+02  0.50528857516E+02  0.29999992907E+02 0.  0.
        -12    1    1    2    0    0  0.78053737320E+01 -0.22022982231E+01  0.39842086930E+02  0.40659142484E+02  0.00000000000E+00 0.  1.
         11    1    3    3    0    0 -0.16668414816E+02  0.60598464668E+01 -0.18903856337E+02  0.25921295808E+02  0.51100000000E-03 0. -1.
        -11    1    3    3    0    0  0.33702893210E+01  0.25253294565E+01 -0.46659124122E+01  0.62854496952E+01  0.51100000000E-03 0.  1.
         12    1    3    3    0    0  0.54927517630E+01 -0.63828777002E+01 -0.16272318181E+02  0.18322112014E+02  0.00000000000E+00 0. -1.
</event>
<event>
 7    1  0.5068291E-011  0.5052886E+02  0.7816164E-02  0.1300439E+00
        -11   -1    0    0    0    0  0.00000000000E+00  0.00000000000E+00  0.45593999997E+02  0.45594000000E+02  0.51100000000E-03 0. -1.
         11   -1    0    0    0    0 -0.00000000000E+00 -0.00000000000E+00 -0.45593999997E+02  0.45594000000E+02  0.51100000000E-03 0.  1.
    9900012    2    1    2    0    0  0.99937178773E+01  0.18308895594E+02  0.34900942795E+02  0.50528857573E+02  0.29999993080E+02 0.  0.
        -12    1    1    2    0    0 -0.99937178773E+01 -0.18308895594E+02 -0.34900942795E+02  0.40659142427E+02  0.00000000000E+00 0.  1.
         11    1    3    3    0    0 -0.88245329514E+01  0.27462887050E+01  0.14275734097E+02  0.17006206741E+02  0.51100000000E-03 0. -1.
        -11    1    3    3    0    0  0.10553292408E+02  0.30774352780E+01  0.11867673217E+02  0.16176657763E+02  0.51100000000E-03 0.  1.
         12    1    3    3    0    0  0.82649584207E+01  0.12485171611E+02  0.87575354813E+01  0.17345993069E+02  0.00000000000E+00 0. -1.
</event>
<event>
 7    1  0.5068291E-011  0.5052885E+02  0.7816164E-02  0.1300439E+00
        -11   -1    0    0    0    0  0.00000000000E+00  0.00000000000E+00  0.45593999997E+02  0.45594000000E+02  0.51100000000E-03 0.  1.
         11   -1    0    0    0    0 -0.00000000000E+00 -0.00000000000E+00 -0.45593999997E+02  0.45594000000E+02  0.51100000000E-03 0. -1.
    9900012    2    1    2    0    0 -0.10891761294E+02 -0.34896727546E+02 -0.17797589659E+02  0.50528852749E+02  0.29999978416E+02 0.  0.
        -12    1    1    2    0    0  0.10891761294E+02  0.34896727546E+02  0.17797589659E+02  0.40659147251E+02  0.00000000000E+00 0.  1.
         11    1    3    3    0    0 -0.11764360030E+02 -0.21312826067E+02 -0.52638862200E+00  0.24349821501E+02  0.51100000000E-03 0. -1.
        -11    1    3    3    0    0 -0.99489782302E+00  0.28589325236E+01 -0.36771876236E+01  0.47628800041E+01  0.51100000000E-03 0.  1.
         12    1    3    3    0    0  0.18674965596E+01 -0.16442834003E+02 -0.13594013413E+02  0.21416151244E+02  0.00000000000E+00 0. -1.
</event>
<event>
 7    1  0.5068291E-011  0.5052886E+02  0.7816164E-02  0.1300439E+00
        -11   -1    0    0    0    0  0.00000000000E+00  0.00000000000E+00  0.45593999997E+02  0.45594000000E+02  0.51100000000E-03 0.  1.
         11   -1    0    0    0    0 -0.00000000000E+00 -0.00000000000E+00 -0.45593999997E+02  0.45594000000E+02  0.51100000000E-03 0. -1.
    9900012    2    1    2    0    0  0.21001307607E+02 -0.26720461822E+02 -0.22318770733E+02  0.50528861689E+02  0.30000005590E+02 0.  0.
        -12    1    1    2    0    0 -0.21001307607E+02  0.26720461822E+02  0.22318770733E+02  0.40659138311E+02  0.00000000000E+00 0.  1.
         11    1    3    3    0    0  0.20297583173E+02 -0.17927689129E+02 -0.16553538636E+02  0.31739778856E+02  0.51100000000E-03 0. -1.
        -11    1    3    3    0    0 -0.25329932939E+01  0.23321036801E+01  0.27531502410E+01  0.44084690214E+01  0.51100000000E-03 0.  1.
         12    1    3    3    0    0  0.32367177274E+01 -0.11124876373E+02 -0.85183823375E+01  0.14380613812E+02  0.00000000000E+00 0. -1.
</event>
<event>
 7    1  0.5068291E-011  0.5052883E+02  0.7816164E-02  0.1300439E+00
        -11   -1    0    0    0    0  0.00000000000E+00  0.00000000000E+00  0.45593999997E+02  0.45594000000E+02  0.51100000000E-03 0. -1.
         11   -1    0    0    0    0 -0.00000000000E+00 -0.00000000000E+00 -0.45593999997E+02  0.45594000000E+02  0.51100000000E-03 0.  1.
    9900012    2    1    2    0    0 -0.10827673164E+02 -0.73933889349E+01  0.38487241806E+02  0.50528825292E+02  0.29999894959E+02 0.  0.
        -12    1    1    2    0    0  0.10827673164E+02  0.73933889349E+01 -0.38487241806E+02  0.40659174708E+02  0.00000000000E+00 0.  1.
         11    1    3    3    0    0 -0.15661116959E+02 -0.86244111326E+01  0.27194285271E+02  0.32545048831E+02  0.51100000000E-03 0. -1.
        -11    1    3    3    0    0  0.78045360131E+01  0.13830087355E+00  0.12381106634E+02  0.14636314811E+02  0.51100000000E-03 0.  1.
        -12    1    3    3    0    0 -0.29710922182E+01  0.10927213241E+01 -0.10881500988E+01  0.33474616501E+01  0.00000000000E+00 0.  1.
</event>
<event>
 7    1  0.5068291E-011  0.5052886E+02  0.7816164E-02  0.1300439E+00
        -11   -1    0    0    0    0  0.00000000000E+00  0.00000000000E+00  0.45593999997E+02  0.45594000000E+02  0.51100000000E-03 0.  1.
         11   -1    0    0    0    0 -0.00000000000E+00 -0.00000000000E+00 -0.45593999997E+02  0.45594000000E+02  0.51100000000E-03 0. -1.
    9900012    2    1    2    0    0  0.37063834508E+02  0.86074394163E+01 -0.14330023827E+02  0.50528862963E+02  0.30000009462E+02 0.  0.
        -12    1    1    2    0    0 -0.37063834508E+02 -0.86074394163E+01  0.14330023827E+02  0.40659137037E+02  0.00000000000E+00 0.  1.
         11    1    3    3    0    0  0.21473220830E+02  0.89263590155E+01 -0.43164071857E+01  0.23651859744E+02  0.51100000000E-03 0. -1.
        -11    1    3    3    0    0 -0.42937257546E+01 -0.63970698522E+00  0.52081079333E+00  0.43722477087E+01  0.51100000000E-03 0.  1.
        -12    1    3    3    0    0  0.19884339432E+02  0.32078738601E+00 -0.10534427435E+02  0.22504755510E+02  0.00000000000E+00 0.  1.
</event>
<event>
 7    1  0.5068291E-011  0.5052886E+02  0.7816164E-02  0.1300439E+00
        -11   -1    0    0    0    0  0.00000000000E+00  0.00000000000E+00  0.45593999997E+02  0.45594000000E+02  0.51100000000E-03 0.  1.
         11   -1    0    0    0    0 -0.00000000000E+00 -0.00000000000E+00 -0.45593999997E+02  0.45594000000E+02  0.51100000000E-03 0. -1.
    9900012    2    1    2    0    0 -0.21737517018E+02 -0.19140992923E+01 -0.34307169524E+02  0.50528864459E+02  0.30000014008E+02 0.  0.
        -12    1    1    2    0    0  0.21737517018E+02  0.19140992923E+01  0.34307169524E+02  0.40659135541E+02  0.00000000000E+00 0.  1.
         11    1    3    3    0    0 -0.24307714870E+02  0.97001382208E+00 -0.30095146799E+02  0.38697852526E+02  0.51100000000E-03 0. -1.
        -11    1    3    3    0    0 -0.76301453031E+00 -0.15085243654E+01  0.31827834487E+01  0.36038795314E+01  0.51100000000E-03 0.  1.
         12    1    3    3    0    0  0.33332123824E+01 -0.13755887491E+01 -0.73948061743E+01  0.82271324013E+01  0.00000000000E+00 0. -1.
</event>
<event>
 7    1  0.5068291E-011  0.5052887E+02  0.7816164E-02  0.1300439E+00
        -11   -1    0    0    0    0  0.00000000000E+00  0.00000000000E+00  0.45593999997E+02  0.45594000000E+02  0.51100000000E-03 0. -1.
         11   -1    0    0    0    0 -0.00000000000E+00 -0.00000000000E+00 -0.45593999997E+02  0.45594000000E+02  0.51100000000E-03 0.  1.
    9900012    2    1    2    0    0  0.61333563458E+01 -0.88577185926E+01  0.39205711842E+02  0.50528867203E+02  0.30000022350E+02 0.  0.
        -12    1    1    2    0    0 -0.61333563458E+01  0.88577185926E+01 -0.39205711842E+02  0.40659132797E+02  0.00000000000E+00 0.  1.
         11    1    3    3    0    0 -0.35901603616E+01  0.94023620598E+01  0.18336129915E+02  0.20916675746E+02  0.51100000000E-03 0. -1.
        -11    1    3    3    0    0  0.73510838912E+01 -0.16272395314E+02  0.16968803803E+02  0.24632693446E+02  0.51100000000E-03 0.  1.
         12    1    3    3    0    0  0.23724328161E+01 -0.19876853383E+01  0.39007781239E+01  0.49794980112E+01  0.00000000000E+00 0. -1.
</event>
<event>
 7    1  0.5068291E-011  0.5052887E+02  0.7816164E-02  0.1300439E+00
        -11   -1    0    0    0    0  0.00000000000E+00  0.00000000000E+00  0.45593999997E+02  0.45594000000E+02  0.51100000000E-03 0. -1.
         11   -1    0    0    0    0 -0.00000000000E+00 -0.00000000000E+00 -0.45593999997E+02  0.45594000000E+02  0.51100000000E-03 0.  1.
    9900012    2    1    2    0    0  0.23212317594E+02  0.27694986027E+02  0.18637093519E+02  0.50528865799E+02  0.30000018084E+02 0.  0.
        -12    1    1    2    0    0 -0.23212317594E+02 -0.27694986027E+02 -0.18637093519E+02  0.40659134201E+02  0.00000000000E+00 0.  1.
         11    1    3    3    0    0  0.26940499518E+02  0.22276207678E+02  0.19431209277E+02  0.39994897637E+02  0.51100000000E-03 0. -1.
        -11    1    3    3    0    0 -0.35575449419E+01  0.72338164319E+01 -0.20528906479E+01  0.83185687746E+01  0.51100000000E-03 0.  1.
        -12    1    3    3    0    0 -0.17063698191E+00 -0.18150380830E+01  0.12587748903E+01  0.22153993876E+01  0.00000000000E+00 0.  1.
</event>
<event>
 7    1  0.5068291E-011  0.5052886E+02  0.7816164E-02  0.1300439E+00
        -11   -1    0    0    0    0  0.00000000000E+00  0.00000000000E+00  0.45593999997E+02  0.45594000000E+02  0.51100000000E-03 0. -1.
         11   -1    0    0    0    0 -0.00000000000E+00 -0.00000000000E+00 -0.45593999997E+02  0.45594000000E+02  0.51100000000E-03 0.  1.
    9900012    2    1    2    0    0  0.19695829920E+02 -0.32052554345E+02  0.15423150874E+02  0.50528861554E+02  0.30000005179E+02 0.  0.
        -12    1    1    2    0    0 -0.19695829920E+02  0.32052554345E+02 -0.15423150874E+02  0.40659138446E+02  0.00000000000E+00 0.  1.
         11    1    3    3    0    0  0.14452856066E+02 -0.24143451333E+02  0.63637494681E+01  0.28849412443E+02  0.51100000000E-03 0. -1.
        -11    1    3    3    0    0  0.96027871244E+01  0.10061449681E+01  0.56442817548E+01  0.11184085347E+02  0.51100000000E-03 0.  1.
         12    1    3    3    0    0 -0.43598132711E+01 -0.89152479807E+01  0.34151196516E+01  0.10495363765E+02  0.00000000000E+00 0. -1.
</event>
<event>
 7    1  0.5068291E-011  0.5052885E+02  0.7816164E-02  0.1300439E+00
        -11   -1    0    0    0    0  0.00000000000E+00  0.00000000000E+00  0.45593999997E+02  0.45594000000E+02  0.51100000000E-03 0.  1.
         11   -1    0    0    0    0 -0.00000000000E+00 -0.00000000000E+00 -0.45593999997E+02  0.45594000000E+02  0.51100000000E-03 0. -1.
    9900012    2    1    2    0    0  0.14373269820E+02  0.23973704093E+02 -0.29526884717E+02  0.50528852267E+02  0.29999976951E+02 0.  0.
        -12    1    1    2    0    0 -0.14373269820E+02 -0.23973704093E+02  0.29526884717E+02  0.40659147733E+02  0.00000000000E+00 0.  1.
         11    1    3    3    0    0  0.95980130885E+01  0.21682834959E+01 -0.23730232570E+02  0.25689438426E+02  0.51100000000E-03 0. -1.
        -11    1    3    3    0    0  0.22446575103E+01  0.40851867668E+01  0.22948196782E+01  0.51955207511E+01  0.51100000000E-03 0.  1.
         12    1    3    3    0    0  0.25305992216E+01  0.17720233831E+02 -0.80914718249E+01  0.19643893090E+02  0.00000000000E+00 0. -1.
</event>
<event>
 7    1  0.5068291E-011  0.5052884E+02  0.7816164E-02  0.1300439E+00
        -11   -1    0    0    0    0  0.00000000000E+00  0.00000000000E+00  0.45593999997E+02  0.45594000000E+02  0.51100000000E-03 0.  1.
         11   -1    0    0    0    0 -0.00000000000E+00 -0.00000000000E+00 -0.45593999997E+02  0.45594000000E+02  0.51100000000E-03 0. -1.
    9900012    2    1    2    0    0  0.30005050899E+02 -0.19176046710E+02 -0.19625063577E+02  0.50528843992E+02  0.29999951798E+02 0.  0.
        -12    1    1    2    0    0 -0.30005050899E+02  0.19176046710E+02  0.19625063577E+02  0.40659156008E+02  0.00000000000E+00 0.  1.
         11    1    3    3    0    0  0.12687656435E+02 -0.89306053046E+00 -0.13266146177E+01  0.12788044789E+02  0.51100000000E-03 0. -1.
        -11    1    3    3    0    0  0.15639684818E+02 -0.22438059010E+02 -0.18862572241E+02  0.33224431750E+02  0.51100000000E-03 0.  1.
        -12    1    3    3    0    0  0.16777096466E+01  0.41550728310E+01  0.56412328145E+00  0.45163674525E+01  0.00000000000E+00 0.  1.
</event>
<event>
 7    1  0.6365825E-011  0.5052886E+02  0.7816164E-02  0.1300439E+00
        -11   -1    0    0    0    0  0.00000000000E+00  0.00000000000E+00  0.45593999997E+02  0.45594000000E+02  0.51100000000E-03 0.  1.
         11   -1    0    0    0    0 -0.00000000000E+00 -0.00000000000E+00 -0.45593999997E+02  0.45594000000E+02  0.51100000000E-03 0. -1.
    9900012    2    1    2    0    0 -0.18105048391E+02  0.30134322924E+02 -0.20427816257E+02  0.50528857457E+02  0.29999992726E+02 0.  0.
        -12    1    1    2    0    0  0.18105048391E+02 -0.30134322924E+02  0.20427816257E+02  0.40659142543E+02  0.00000000000E+00 0.  1.
         11    1    3    3    0    0 -0.99563784394E+01  0.25593044263E+02 -0.66351944548E+01  0.28251711311E+02  0.51100000000E-03 0. -1.
        -11    1    3    3    0    0  0.41627660286E+01  0.19427899910E+01 -0.56831086249E+01  0.73075835856E+01  0.51100000000E-03 0.  1.
         12    1    3    3    0    0 -0.12311435980E+02  0.25984886690E+01 -0.81095131778E+01  0.14969562560E+02  0.00000000000E+00 0. -1.
</event>
<event>
 7    1  0.5068291E-011  0.5052886E+02  0.7816164E-02  0.1300439E+00
        -11   -1    0    0    0    0  0.00000000000E+00  0.00000000000E+00  0.45593999997E+02  0.45594000000E+02  0.51100000000E-03 0.  1.
         11   -1    0    0    0    0 -0.00000000000E+00 -0.00000000000E+00 -0.45593999997E+02  0.45594000000E+02  0.51100000000E-03 0. -1.
    9900012    2    1    2    0    0 -0.62241595612E+01  0.39868799444E+02 -0.49904211630E+01  0.50528860379E+02  0.30000001608E+02 0.  0.
        -12    1    1    2    0    0  0.62241595612E+01 -0.39868799444E+02  0.49904211630E+01  0.40659139621E+02  0.00000000000E+00 0.  1.
         11    1    3    3    0    0 -0.62258911232E+01  0.17302889800E+02 -0.75490415177E+01  0.19878122240E+02  0.51100000000E-03 0. -1.
        -11    1    3    3    0    0  0.16827977498E+01  0.78102531944E+01  0.10979222215E+02  0.13578482387E+02  0.51100000000E-03 0.  1.
        -12    1    3    3    0    0 -0.16810661878E+01  0.14755656450E+02 -0.84206018600E+01  0.17072255752E+02  0.00000000000E+00 0.  1.
</event>
<event>
 7    1  0.8585270E-011  0.5052886E+02  0.7816164E-02  0.1300439E+00
        -11   -1    0    0    0    0  0.00000000000E+00  0.00000000000E+00  0.45593999997E+02  0.45594000000E+02  0.51100000000E-03 0. -1.
         11   -1    0    0    0    0 -0.00000000000E+00 -0.00000000000E+00 -0.45593999997E+02  0.45594000000E+02  0.51100000000E-03 0.  1.
    9900012    2    1    2    0    0 -0.16793854972E+02  0.27385392648E+02  0.24923332137E+02  0.50528858591E+02  0.29999996174E+02 0.  0.
        -12    1    1    2    0    0  0.16793854972E+02 -0.27385392648E+02 -0.24923332137E+02  0.40659141409E+02  0.00000000000E+00 0.  1.
         11    1    3    3    0    0 -0.10530349112E+02  0.22920626289E+02  0.14619050656E+02  0.29154073544E+02  0.51100000000E-03 0. -1.
        -11    1    3    3    0    0  0.39159249719E+01  0.10752543478E+01 -0.24228929667E+01  0.47287472852E+01  0.51100000000E-03 0.  1.
         12    1    3    3    0    0 -0.10179430833E+02  0.33895120108E+01  0.12727174447E+02  0.16646037762E+02  0.00000000000E+00 0. -1.
</event>
<event>
 7    1  0.5068291E-011  0.5052885E+02  0.7816164E-02  0.1300439E+00
        -11   -1    0    0    0    0  0.00000000000E+00  0.00000000000E+00  0.45593999997E+02  0.45594000000E+02  0.51100000000E-03 0.  1.
         11   -1    0    0    0    0 -0.00000000000E+00 -0.00000000000E+00 -0.45593999997E+02  0.45594000000E+02  0.51100000000E-03 0. -1.
    9900012    2    1    2    0    0 -0.41912381255E+01 -0.18383882914E+02 -0.36022673081E+02  0.50528848461E+02  0.29999965381E+02 0.  0.
        -12    1    1    2    0    0  0.41912381255E+01  0.18383882914E+02  0.36022673081E+02  0.40659151539E+02  0.00000000000E+00 0.  1.
         11    1    3    3    0    0 -0.15098140190E+02 -0.16422821097E+02 -0.23147463955E+02  0.32147596766E+02  0.51100000000E-03 0. -1.
        -11    1    3    3    0    0  0.35691124634E+01 -0.18789709019E+01 -0.59725740303E+00  0.40774761917E+01  0.51100000000E-03 0.  1.
         12    1    3    3    0    0  0.73377896015E+01 -0.82090915186E-01 -0.12277951723E+02  0.14303775504E+02  0.00000000000E+00 0. -1.
</event>
<event>
 7    1  0.5068291E-011  0.5052887E+02  0.7816164E-02  0.1300439E+00
        -11   -1    0    0    0    0  0.00000000000E+00  0.00000000000E+00  0.45593999997E+02  0.45594000000E+02  0.51100000000E-03 0.  1.
         11   -1    0    0    0    0 -0.00000000000E+00 -0.00000000000E+00 -0.45593999997E+02  0.45594000000E+02  0.51100000000E-03 0. -1.
    9900012    2    1    2    0    0 -0.19077025962E+02 -0.13851351969E+02 -0.33126611200E+02  0.50528865227E+02  0.30000016343E+02 0.  0.
        -12    1    1    2    0    0  0.19077025962E+02  0.13851351969E+02  0.33126611200E+02  0.40659134773E+02  0.00000000000E+00 0.  1.
         11    1    3    3    0    0  0.39721595239E+01 -0.20832588921E+01 -0.52801241146E+00  0.45162834569E+01  0.51100000000E-03 0. -1.
        -11    1    3    3    0    0 -0.23873442288E+02 -0.79712173836E+01 -0.33617915605E+02  0.41995783159E+02  0.51100000000E-03 0.  1.
        -12    1    3    3    0    0  0.82425680195E+00 -0.37968756933E+01  0.10193168169E+01  0.40167986107E+01  0.00000000000E+00 0.  1.
</event>
<event>
 7    1  0.5068291E-011  0.5052886E+02  0.7816164E-02  0.1300439E+00
        -11   -1    0    0    0    0  0.00000000000E+00  0.00000000000E+00  0.45593999997E+02  0.45594000000E+02  0.51100000000E-03 0.  1.
         11   -1    0    0    0    0 -0.00000000000E+00 -0.00000000000E+00 -0.45593999997E+02  0.45594000000E+02  0.51100000000E-03 0. -1.
    9900012    2    1    2    0    0 -0.18489322878E+02  0.20222814300E+02 -0.30039113269E+02  0.50528860749E+02  0.30000002732E+02 0.  0.
        -12    1    1    2    0    0  0.18489322878E+02 -0.20222814300E+02  0.30039113269E+02  0.40659139251E+02  0.00000000000E+00 0.  1.
         11    1    3    3    0    0 -0.74465835790E+01  0.11357845992E+02 -0.30111653481E+02  0.33032770822E+02  0.51100000000E-03 0. -1.
        -11    1    3    3    0    0 -0.94509101961E+01  0.10557402340E+02  0.22077093807E+01  0.14340586762E+02  0.51100000000E-03 0.  1.
         12    1    3    3    0    0 -0.15918291028E+01 -0.16924340321E+01 -0.21351691686E+01  0.31555031650E+01  0.00000000000E+00 0. -1.
</event>
<event>
 7    1  0.5068291E-011  0.5052886E+02  0.7816164E-02  0.1300439E+00
        -11   -1    0    0    0    0  0.00000000000E+00  0.00000000000E+00  0.45593999997E+02  0.45594000000E+02  0.51100000000E-03 0.  1.
         11   -1    0    0    0    0 -0.00000000000E+00 -0.00000000000E+00 -0.45593999997E+02  0.45594000000E+02  0.51100000000E-03 0. -1.
    9900012    2    1    2    0    0 -0.32991563706E+01  0.59978425004E+01 -0.40078765741E+02  0.50528855755E+02  0.29999987552E+02 0.  0.
        -12    1    1    2    0    0  0.32991563706E+01 -0.59978425004E+01  0.40078765741E+02  0.40659144245E+02  0.00000000000E+00 0.  1.
         11    1    3    3    0    0 -0.81537870407E+01  0.14824596075E+02 -0.33505934546E+02  0.37535323922E+02  0.51100000000E-03 0. -1.
        -11    1    3    3    0    0  0.58570525333E+01 -0.70224003580E+01 -0.53561117995E+01  0.10597504661E+02  0.51100000000E-03 0.  1.
         12    1    3    3    0    0 -0.10024218632E+01 -0.18043532161E+01 -0.12167193958E+01  0.23960271719E+01  0.00000000000E+00 0. -1.
</event>
<event>
 7    1  0.5068291E-011  0.5052876E+02  0.7816164E-02  0.1300439E+00
        -11   -1    0    0    0    0  0.00000000000E+00  0.00000000000E+00  0.45593999997E+02  0.45594000000E+02  0.51100000000E-03 0.  1.
         11   -1    0    0    0    0 -0.00000000000E+00 -0.00000000000E+00 -0.45593999997E+02  0.45594000000E+02  0.51100000000E-03 0. -1.
    9900012    2    1    2    0    0  0.12524803867E+02  0.17539980097E+02 -0.34476835227E+02  0.50528760202E+02  0.29999697107E+02 0.  0.
        -12    1    1    2    0    0 -0.12524803867E+02 -0.17539980097E+02  0.34476835227E+02  0.40659239798E+02  0.00000000000E+00 0.  1.
         11    1    3    3    0    0  0.12484763474E+02  0.88483650235E+01 -0.33844159938E+02  0.37142833020E+02  0.51100000000E-03 0. -1.
        -11    1    3    3    0    0 -0.38542200343E+01  0.85474969517E+01 -0.11819236075E+01  0.94504846377E+01  0.51100000000E-03 0.  1.
         12    1    3    3    0    0  0.38942604264E+01  0.14411812167E+00  0.54924831793E+00  0.39354425439E+01  0.00000000000E+00 0. -1.
</event>
<event>
 7    1  0.5068291E-011  0.5052886E+02  0.7816164E-02  0.1300439E+00
        -11   -1    0    0    0    0  0.00000000000E+00  0.00000000000E+00  0.45593999997E+02  0.45594000000E+02  0.51100000000E-03 0. -1.
         11   -1    0    0    0    0 -0.00000000000E+00 -0.00000000000E+00 -0.45593999997E+02  0.45594000000E+02  0.51100000000E-03 0.  1.
    9900012    2    1    2    0    0 -0.26013939983E+01  0.33943828304E+02  0.22230938152E+02  0.50528863981E+02  0.30000012557E+02 0.  0.
        -12    1    1    2    0    0  0.26013939983E+01 -0.33943828304E+02 -0.22230938152E+02  0.40659136019E+02  0.00000000000E+00 0.  1.
         11    1    3    3    0    0  0.16710963553E+01  0.11044650742E+02  0.11905816566E+02  0.16325603860E+02  0.51100000000E-03 0. -1.
        -11    1    3    3    0    0  0.53873615645E+01  0.24457850056E+01 -0.42585228486E+01  0.72897562396E+01  0.51100000000E-03 0.  1.
        -12    1    3    3    0    0 -0.96598519181E+01  0.20453392557E+02  0.14583644435E+02  0.26913503881E+02  0.00000000000E+00 0.  1.
</event>
<event>
 7    1  0.5068291E-011  0.5052886E+02  0.7816164E-02  0.1300439E+00
        -11   -1    0    0    0    0  0.00000000000E+00  0.00000000000E+00  0.45593999997E+02  0.45594000000E+02  0.51100000000E-03 0.  1.
         11   -1    0    0    0    0 -0.00000000000E+00 -0.00000000000E+00 -0.45593999997E+02  0.45594000000E+02  0.51100000000E-03 0. -1.
    9900012    2    1    2    0    0 -0.43156133553E+01 -0.26974564107E+02 -0.30115019395E+02  0.50528855634E+02  0.29999987185E+02 0.  0.
        -12    1    1    2    0    0  0.43156133553E+01  0.26974564107E+02  0.30115019395E+02  0.40659144366E+02  0.00000000000E+00 0.  1.
         11    1    3    3    0    0 -0.27314678893E+01 -0.97255393615E+01 -0.16798546486E+02  0.19601994720E+02  0.51100000000E-03 0. -1.
        -11    1    3    3    0    0  0.16728047453E+01 -0.20488756516E+01  0.57483421062E+01  0.63276855471E+01  0.51100000000E-03 0.  1.
        -12    1    3    3    0    0 -0.32569502112E+01 -0.15200149094E+02 -0.19064815016E+02  0.24599175367E+02  0.00000000000E+00 0.  1.
</event>
<event>
 7    1  0.5068291E-011  0.5052885E+02  0.7816164E-02  0.1300439E+00
        -11   -1    0    0    0    0  0.00000000000E+00  0.00000000000E+00  0.45593999997E+02  0.45594000000E+02  0.51100000000E-03 0.  1.
         11   -1    0    0    0    0 -0.00000000000E+00 -0.00000000000E+00 -0.45593999997E+02  0.45594000000E+02  0.51100000000E-03 0. -1.
    9900012    2    1    2    0    0  0.58364395044E+01 -0.35804451879E+02 -0.18361463861E+02  0.50528853974E+02  0.29999982139E+02 0.  0.
        -12    1    1    2    0    0 -0.58364395044E+01  0.35804451879E+02  0.18361463861E+02  0.40659146026E+02  0.00000000000E+00 0.  1.
         11    1    3    3    0    0  0.68073580506E+01 -0.76439692496E+01 -0.12958438306E+01  0.10317441592E+02  0.51100000000E-03 0. -1.
        -11    1    3    3    0    0 -0.76211898342E+01 -0.13373343307E+01 -0.79937084520E+01  0.11125213377E+02  0.51100000000E-03 0.  1.
        -12    1    3    3    0    0  0.66502712880E+01 -0.26823148299E+02 -0.90719115783E+01  0.29086199005E+02  0.00000000000E+00 0.  1.
</event>
<event>
 7    1  0.5068291E-011  0.5052886E+02  0.7816164E-02  0.1300439E+00
        -11   -1    0    0    0    0  0.00000000000E+00  0.00000000000E+00  0.45593999997E+02  0.45594000000E+02  0.51100000000E-03 0. -1.
         11   -1    0    0    0    0 -0.00000000000E+00 -0.00000000000E+00 -0.45593999997E+02  0.45594000000E+02  0.51100000000E-03 0.  1.
    9900012    2    1    2    0    0  0.15366240116E+01 -0.23645995849E+02  0.33040453914E+02  0.50528856774E+02  0.29999990650E+02 0.  0.
        -12    1    1    2    0    0 -0.15366240116E+01  0.23645995849E+02 -0.33040453914E+02  0.40659143226E+02  0.00000000000E+00 0.  1.
         11    1    3    3    0    0  0.42427616921E+01 -0.57124528704E+01  0.31169875510E+02  0.31971773241E+02  0.51100000000E-03 0. -1.
        -11    1    3    3    0    0 -0.30494567691E+01 -0.13792328522E+02  0.34239262340E+00  0.14129569902E+02  0.51100000000E-03 0.  1.
         12    1    3    3    0    0  0.34331908850E+00 -0.41412144570E+01  0.15281857802E+01  0.44275136312E+01  0.00000000000E+00 0. -1.
</event>
<event>
 7    1  0.5068291E-011  0.5052887E+02  0.7816164E-02  0.1300439E+00
        -11   -1    0    0    0    0  0.00000000000E+00  0.00000000000E+00  0.45593999997E+02  0.45594000000E+02  0.51100000000E-03 0.  1.
         11   -1    0    0    0    0 -0.00000000000E+00 -0.00000000000E+00 -0.45593999997E+02  0.45594000000E+02  0.51100000000E-03 0. -1.
    9900012    2    1    2    0    0 -0.28179650225E+02 -0.25709509142E+02 -0.14074556279E+02  0.50528872100E+02  0.30000037235E+02 0.  0.
        -12    1    1    2    0    0  0.28179650225E+02  0.25709509142E+02  0.14074556279E+02  0.40659127900E+02  0.00000000000E+00 0.  1.
         11    1    3    3    0    0 -0.24759809562E+02 -0.60706427288E+01 -0.49216170436E+01  0.25963882361E+02  0.51100000000E-03 0. -1.
        -11    1    3    3    0    0  0.18764916470E+01 -0.14743288076E+01 -0.44793914810E+01  0.50754127552E+01  0.51100000000E-03 0.  1.
         12    1    3    3    0    0 -0.52963323101E+01 -0.18164537606E+02 -0.46735477544E+01  0.19489576983E+02  0.00000000000E+00 0. -1.
</event>
<event>
 7    1  0.5068291E-011  0.5052886E+02  0.7816164E-02  0.1300439E+00
        -11   -1    0    0    0    0  0.00000000000E+00  0.00000000000E+00  0.45593999997E+02  0.45594000000E+02  0.51100000000E-03 0.  1.
         11   -1    0    0    0    0 -0.00000000000E+00 -0.00000000000E+00 -0.45593999997E+02  0.45594000000E+02  0.51100000000E-03 0. -1.
    9900012    2    1    2    0    0  0.78790959329E+01  0.26173903443E+02 -0.30100040530E+02  0.50528858174E+02  0.29999994906E+02 0.  0.
        -12    1    1    2    0    0 -0.78790959329E+01 -0.26173903443E+02  0.30100040530E+02  0.40659141826E+02  0.00000000000E+00 0.  1.
         11    1    3    3    0    0 -0.31114437778E+01  0.84920243083E+01 -0.10806618996E+02  0.14091791001E+02  0.51100000000E-03 0. -1.
        -11    1    3    3    0    0  0.13328712731E+02  0.96913186791E+01 -0.22173990469E+02  0.27627198454E+02  0.51100000000E-03 0.  1.
        -12    1    3    3    0    0 -0.23381730207E+01  0.79905604551E+01  0.28805689353E+01  0.88098687194E+01  0.00000000000E+00 0.  1.
</event>
<event>
 7    1  0.5797031E-011  0.5052886E+02  0.7816164E-02  0.1300439E+00
        -11   -1    0    0    0    0  0.00000000000E+00  0.00000000000E+00  0.45593999997E+02  0.45594000000E+02  0.51100000000E-03 0. -1.
         11   -1    0    0    0    0 -0.00000000000E+00 -0.00000000000E+00 -0.45593999997E+02  0.45594000000E+02  0.51100000000E-03 0.  1.
    9900012    2    1    2    0    0 -0.21679053110E+02  0.34287547384E+02 -0.27474093782E+01  0.50528861942E+02  0.30000006357E+02 0.  0.
        -12    1    1    2    0    0  0.21679053110E+02 -0.34287547384E+02  0.27474093782E+01  0.40659138058E+02  0.00000000000E+00 0.  1.
         11    1    3    3    0    0 -0.16871750202E+02  0.30704065596E+02  0.21091719994E+01  0.35097638179E+02  0.51100000000E-03 0. -1.
        -11    1    3    3    0    0 -0.85732743560E+01 -0.78007691555E+00 -0.14328729006E+01  0.87271231336E+01  0.51100000000E-03 0.  1.
         12    1    3    3    0    0  0.37659714474E+01  0.43635587038E+01 -0.34237084770E+01  0.67041006287E+01  0.00000000000E+00 0. -1.
</event>
<event>
 7    1  0.5068291E-011  0.5052875E+02  0.7816164E-02  0.1300439E+00
        -11   -1    0    0    0    0  0.00000000000E+00  0.00000000000E+00  0.45593999997E+02  0.45594000000E+02  0.51100000000E-03 0.  1.
         11   -1    0    0    0    0 -0.00000000000E+00 -0.00000000000E+00 -0.45593999997E+02  0.45594000000E+02  0.51100000000E-03 0. -1.
    9900012    2    1    2    0    0  0.22567611607E+02  0.32648071459E+02  0.88306729168E+01  0.50528752002E+02  0.29999672184E+02 0.  0.
        -12    1    1    2    0    0 -0.22567611607E+02 -0.32648071459E+02 -0.88306729168E+01  0.40659247998E+02  0.00000000000E+00 0.  1.
         11    1    3    3    0    0  0.16228933700E+01  0.62027155640E+01 -0.44985991443E+00  0.64272729413E+01  0.51100000000E-03 0. -1.
        -11    1    3    3    0    0  0.71655007451E+01  0.11055372238E+02  0.17469530870E+02  0.21880360266E+02  0.51100000000E-03 0.  1.
        -12    1    3    3    0    0  0.13779217491E+02  0.15389983656E+02 -0.81889980393E+01  0.22221118795E+02  0.00000000000E+00 0.  1.
</event>
<event>
 7    1  0.5068291E-011  0.5052886E+02  0.7816164E-02  0.1300439E+00
        -11   -1    0    0    0    0  0.00000000000E+00  0.00000000000E+00  0.45593999997E+02  0.45594000000E+02  0.51100000000E-03 0. -1.
         11   -1    0    0    0    0 -0.00000000000E+00 -0.00000000000E+00 -0.45593999997E+02  0.45594000000E+02  0.51100000000E-03 0.  1.
    9900012    2    1    2    0    0  0.31017479674E+02  0.22596048325E+02  0.13435041994E+02  0.50528858364E+02  0.29999995482E+02 0.  0.
        -12    1    1    2    0    0 -0.31017479674E+02 -0.22596048325E+02 -0.13435041994E+02  0.40659141636E+02  0.00000000000E+00 0.  1.
         11    1    3    3    0    0  0.92315485205E+01  0.15430109007E+01  0.59109485666E+01  0.11069854739E+02  0.51100000000E-03 0. -1.
        -11    1    3    3    0    0 -0.27209164854E+01  0.20098826021E+01 -0.49621969019E+01  0.60055318622E+01  0.51100000000E-03 0.  1.
        -12    1    3    3    0    0  0.24506847639E+02  0.19043154822E+02  0.12486290329E+02  0.33453471762E+02  0.00000000000E+00 0.  1.
</event>
<event>
 7    1  0.5068291E-011  0.5052885E+02  0.7816164E-02  0.1300439E+00
        -11   -1    0    0    0    0  0.00000000000E+00  0.00000000000E+00  0.45593999997E+02  0.45594000000E+02  0.51100000000E-03 0.  1.
         11   -1    0    0    0    0 -0.00000000000E+00 -0.00000000000E+00 -0.45593999997E+02  0.45594000000E+02  0.51100000000E-03 0. -1.
    9900012    2    1    2    0    0 -0.36845780224E+02 -0.17070426968E+02  0.20384472328E+01  0.50528852637E+02  0.29999978075E+02 0.  0.
        -12    1    1    2    0    0  0.36845780224E+02  0.17070426968E+02 -0.20384472328E+01  0.40659147363E+02  0.00000000000E+00 0.  1.
         11    1    3    3    0    0 -0.25152930187E+02 -0.11880929396E+01  0.17217830438E+01  0.25239770184E+02  0.51100000000E-03 0. -1.
        -11    1    3    3    0    0 -0.78491095024E+01 -0.14558059305E+02 -0.61541955725E+01  0.17647088545E+02  0.51100000000E-03 0.  1.
        -12    1    3    3    0    0 -0.38437405346E+01 -0.13242747231E+01  0.64708597615E+01  0.76419939082E+01  0.00000000000E+00 0.  1.
</event>
<event>
 7    1  0.5068291E-011  0.5052884E+02  0.7816164E-02  0.1300439E+00
        -11   -1    0    0    0    0  0.00000000000E+00  0.00000000000E+00  0.45593999997E+02  0.45594000000E+02  0.51100000000E-03 0. -1.
         11   -1    0    0    0    0 -0.00000000000E+00 -0.00000000000E+00 -0.45593999997E+02  0.45594000000E+02  0.51100000000E-03 0.  1.
    9900012    2    1    2    0    0 -0.20130021945E+02  0.22794574595E+02  0.26988083448E+02  0.50528842819E+02  0.29999948232E+02 0.  0.
        -12    1    1    2    0    0  0.20130021945E+02 -0.22794574595E+02 -0.26988083448E+02  0.40659157181E+02  0.00000000000E+00 0.  1.
         11    1    3    3    0    0 -0.32396622631E+01  0.42072174955E+01  0.10324101277E+02  0.11609614898E+02  0.51100000000E-03 0. -1.
        -11    1    3    3    0    0 -0.73585938344E+01  0.19272886091E+02  0.11045885739E+01  0.20659456858E+02  0.51100000000E-03 0.  1.
        -12    1    3    3    0    0 -0.95317658473E+01 -0.68552899134E+00  0.15559393597E+02  0.18259771063E+02  0.00000000000E+00 0.  1.
</event>
<event>
 7    1  0.5068291E-011  0.5052887E+02  0.7816164E-02  0.1300439E+00
        -11   -1    0    0    0    0  0.00000000000E+00  0.00000000000E+00  0.45593999997E+02  0.45594000000E+02  0.51100000000E-03 0. -1.
         11   -1    0    0    0    0 -0.00000000000E+00 -0.00000000000E+00 -0.45593999997E+02  0.45594000000E+02  0.51100000000E-03 0.  1.
    9900012    2    1    2    0    0  0.15542691135E+02 -0.23078973192E+02  0.29647101774E+02  0.50528869476E+02  0.30000029261E+02 0.  0.
        -12    1    1    2    0    0 -0.15542691135E+02  0.23078973192E+02 -0.29647101774E+02  0.40659130524E+02  0.00000000000E+00 0.  1.
         11    1    3    3    0    0 -0.51509640390E+01 -0.40230790480E+01  0.11977035646E+02  0.13644302059E+02  0.51100000000E-03 0. -1.
        -11    1    3    3    0    0  0.20147468115E+02 -0.97899503457E+01  0.88646179105E+01  0.24090351807E+02  0.51100000000E-03 0.  1.
         12    1    3    3    0    0  0.54618705971E+00 -0.92659437987E+01  0.88054482169E+01  0.12794215610E+02  0.00000000000E+00 0. -1.
</event>
<event>
 7    1  0.5068291E-011  0.5052885E+02  0.7816164E-02  0.1300439E+00
        -11   -1    0    0    0    0  0.00000000000E+00  0.00000000000E+00  0.45593999997E+02  0.45594000000E+02  0.51100000000E-03 0. -1.
         11   -1    0    0    0    0 -0.00000000000E+00 -0.00000000000E+00 -0.45593999997E+02  0.45594000000E+02  0.51100000000E-03 0.  1.
    9900012    2    1    2    0    0  0.32918753025E+02  0.96784147371E+01  0.21813988903E+02  0.50528854357E+02  0.29999983305E+02 0.  0.
        -12    1    1    2    0    0 -0.32918753025E+02 -0.96784147371E+01 -0.21813988903E+02  0.40659145643E+02  0.00000000000E+00 0.  1.
         11    1    3    3    0    0  0.17902638895E+02  0.11201786363E+02  0.32006043836E+01  0.21359502939E+02  0.51100000000E-03 0.  1.
        -11    1    3    3    0    0  0.92316491397E+01  0.46296831445E+01  0.17936390808E+02  0.20697135728E+02  0.51100000000E-03 0. -1.
        -12    1    3    3    0    0  0.57844649900E+01 -0.61530547703E+01  0.67699371206E+00  0.84722156908E+01  0.00000000000E+00 0.  1.
</event>
<event>
 7    1  0.5068291E-011  0.5052886E+02  0.7816164E-02  0.1300439E+00
        -11   -1    0    0    0    0  0.00000000000E+00  0.00000000000E+00  0.45593999997E+02  0.45594000000E+02  0.51100000000E-03 0.  1.
         11   -1    0    0    0    0 -0.00000000000E+00 -0.00000000000E+00 -0.45593999997E+02  0.45594000000E+02  0.51100000000E-03 0. -1.
    9900012    2    1    2    0    0  0.19391123105E+02 -0.35718451563E+02 -0.11583958501E+01  0.50528864270E+02  0.30000013435E+02 0.  0.
        -12    1    1    2    0    0 -0.19391123105E+02  0.35718451563E+02  0.11583958501E+01  0.40659135730E+02  0.00000000000E+00 0.  1.
         11    1    3    3    0    0  0.14264053825E+02 -0.27712831616E+02  0.45438953592E+01  0.31497797590E+02  0.51100000000E-03 0. -1.
        -11    1    3    3    0    0  0.10485719992E+02 -0.42756979700E+01 -0.52632750465E+01  0.12487352857E+02  0.51100000000E-03 0.  1.
        -12    1    3    3    0    0 -0.53586507126E+01 -0.37299219775E+01 -0.43901616281E+00  0.65437138239E+01  0.00000000000E+00 0.  1.
</event>
<event>
 7    1  0.5068291E-011  0.5052887E+02  0.7816164E-02  0.1300439E+00
        -11   -1    0    0    0    0  0.00000000000E+00  0.00000000000E+00  0.45593999997E+02  0.45594000000E+02  0.51100000000E-03 0. -1.
         11   -1    0    0    0    0 -0.00000000000E+00 -0.00000000000E+00 -0.45593999997E+02  0.45594000000E+02  0.51100000000E-03 0.  1.
    9900012    2    1    2    0    0  0.24367128014E+02  0.32249493261E+02 -0.44021023986E+01  0.50528865125E+02  0.30000016033E+02 0.  0.
        -12    1    1    2    0    0 -0.24367128014E+02 -0.32249493261E+02  0.44021023986E+01  0.40659134875E+02  0.00000000000E+00 0.  1.
         11    1    3    3    0    0  0.22415678659E+02  0.12808008873E+02  0.64382944247E+01  0.26607506016E+02  0.51100000000E-03 0. -1.
        -11    1    3    3    0    0 -0.68191294950E+00  0.54605564685E+01  0.77221931555E+00  0.55568880813E+01  0.51100000000E-03 0.  1.
         12    1    3    3    0    0  0.26333623050E+01  0.13980927920E+02 -0.11612616139E+02  0.18364471028E+02  0.00000000000E+00 0. -1.
</event>
<event>
 7    1  0.5068291E-011  0.5052887E+02  0.7816164E-02  0.1300439E+00
        -11   -1    0    0    0    0  0.00000000000E+00  0.00000000000E+00  0.45593999997E+02  0.45594000000E+02  0.51100000000E-03 0. -1.
         11   -1    0    0    0    0 -0.00000000000E+00 -0.00000000000E+00 -0.45593999997E+02  0.45594000000E+02  0.51100000000E-03 0.  1.
    9900012    2    1    2    0    0  0.54983571596E+01  0.46245538675E+01  0.40019326233E+02  0.50528869389E+02  0.30000028994E+02 0.  0.
        -12    1    1    2    0    0 -0.54983571596E+01 -0.46245538675E+01 -0.40019326233E+02  0.40659130611E+02  0.00000000000E+00 0.  1.
         11    1    3    3    0    0  0.85867929740E+01  0.14527457001E+02  0.16536028462E+02  0.23626685296E+02  0.51100000000E-03 0. -1.
        -11    1    3    3    0    0  0.17841178758E+01 -0.60248348448E+01  0.77235145218E+01  0.99566253485E+01  0.51100000000E-03 0.  1.
         12    1    3    3    0    0 -0.48725536902E+01 -0.38780682889E+01  0.15759783249E+02  0.16945558744E+02  0.00000000000E+00 0. -1.
</event>
<event>
 7    1  0.5068291E-011  0.5052888E+02  0.7816164E-02  0.1300439E+00
        -11   -1    0    0    0    0  0.00000000000E+00  0.00000000000E+00  0.45593999997E+02  0.45594000000E+02  0.51100000000E-03 0.  1.
         11   -1    0    0    0    0 -0.00000000000E+00 -0.00000000000E+00 -0.45593999997E+02  0.45594000000E+02  0.51100000000E-03 0. -1.
    9900012    2    1    2    0    0  0.19241471141E+02 -0.29709652828E+02 -0.20006661264E+02  0.50528878295E+02  0.30000056067E+02 0.  0.
        -12    1    1    2    0    0 -0.19241471141E+02  0.29709652828E+02  0.20006661264E+02  0.40659121705E+02  0.00000000000E+00 0.  1.
         11    1    3    3    0    0  0.31824660231E+01 -0.82982847105E+01 -0.19311018060E+02  0.21258058188E+02  0.51100000000E-03 0. -1.
        -11    1    3    3    0    0  0.64089514725E+01 -0.16079556654E+02  0.31505978418E+01  0.17594120273E+02  0.51100000000E-03 0.  1.
         12    1    3    3    0    0  0.96500536455E+01 -0.53318114638E+01 -0.38462410460E+01  0.11676699835E+02  0.00000000000E+00 0. -1.
</event>
<event>
 7    1  0.5068291E-011  0.5052886E+02  0.7816164E-02  0.1300439E+00
        -11   -1    0    0    0    0  0.00000000000E+00  0.00000000000E+00  0.45593999997E+02  0.45594000000E+02  0.51100000000E-03 0.  1.
         11   -1    0    0    0    0 -0.00000000000E+00 -0.00000000000E+00 -0.45593999997E+02  0.45594000000E+02  0.51100000000E-03 0. -1.
    9900012    2    1    2    0    0 -0.20456624373E+02 -0.34790842282E+02 -0.49284435899E+01  0.50528859039E+02  0.29999997535E+02 0.  0.
        -12    1    1    2    0    0  0.20456624373E+02  0.34790842282E+02  0.49284435899E+01  0.40659140961E+02  0.00000000000E+00 0.  1.
         11    1    3    3    0    0  0.36171035748E+01 -0.65820390038E+01 -0.52685016257E+01  0.91740822625E+01  0.51100000000E-03 0. -1.
        -11    1    3    3    0    0 -0.22842140452E+02 -0.19866892356E+02  0.64361527651E+01  0.30949650321E+02  0.51100000000E-03 0.  1.
         12    1    3    3    0    0 -0.12315874961E+01 -0.83419109225E+01 -0.60960947293E+01  0.10405126455E+02  0.00000000000E+00 0. -1.
</event>
<event>
 7    1  0.5068291E-011  0.5052884E+02  0.7816164E-02  0.1300439E+00
        -11   -1    0    0    0    0  0.00000000000E+00  0.00000000000E+00  0.45593999997E+02  0.45594000000E+02  0.51100000000E-03 0.  1.
         11   -1    0    0    0    0 -0.00000000000E+00 -0.00000000000E+00 -0.45593999997E+02  0.45594000000E+02  0.51100000000E-03 0. -1.
    9900012    2    1    2    0    0  0.23836739490E+02  0.20175664012E+02 -0.26036883961E+02  0.50528844890E+02  0.29999954529E+02 0.  0.
        -12    1    1    2    0    0 -0.23836739490E+02 -0.20175664012E+02  0.26036883961E+02  0.40659155110E+02  0.00000000000E+00 0.  1.
         11    1    3    3    0    0  0.18048606334E+02  0.25252294032E+01 -0.11809204036E+02  0.21716037262E+02  0.51100000000E-03 0. -1.
        -11    1    3    3    0    0 -0.27739645994E+01  0.56281375818E+01  0.22735322029E+01  0.66738115929E+01  0.51100000000E-03 0.  1.
        -12    1    3    3    0    0  0.85620977551E+01  0.12022297027E+02 -0.16501212128E+02  0.22138996036E+02  0.00000000000E+00 0.  1.
</event>
<event>
 7    1  0.5068291E-011  0.5052886E+02  0.7816164E-02  0.1300439E+00
        -11   -1    0    0    0    0  0.00000000000E+00  0.00000000000E+00  0.45593999997E+02  0.45594000000E+02  0.51100000000E-03 0. -1.
         11   -1    0    0    0    0 -0.00000000000E+00 -0.00000000000E+00 -0.45593999997E+02  0.45594000000E+02  0.51100000000E-03 0.  1.
    9900012    2    1    2    0    0 -0.21930518141E+02  0.17625369514E+02  0.29352421181E+02  0.50528857048E+02  0.29999991482E+02 0.  0.
        -12    1    1    2    0    0  0.21930518141E+02 -0.17625369514E+02 -0.29352421181E+02  0.40659142952E+02  0.00000000000E+00 0.  1.
         11    1    3    3    0    0 -0.21932026648E+01 -0.34872945410E+01  0.46149294864E+01  0.61861890991E+01  0.51100000000E-03 0. -1.
        -11    1    3    3    0    0 -0.89345907247E+01  0.18462077651E+02  0.41258651336E+01  0.20921232898E+02  0.51100000000E-03 0.  1.
        -12    1    3    3    0    0 -0.10802724752E+02  0.26505864039E+01  0.20611626561E+02  0.23421435051E+02  0.00000000000E+00 0.  1.
</event>
<event>
 7    1  0.5068291E-011  0.5052885E+02  0.7816164E-02  0.1300439E+00
        -11   -1    0    0    0    0  0.00000000000E+00  0.00000000000E+00  0.45593999997E+02  0.45594000000E+02  0.51100000000E-03 0.  1.
         11   -1    0    0    0    0 -0.00000000000E+00 -0.00000000000E+00 -0.45593999997E+02  0.45594000000E+02  0.51100000000E-03 0. -1.
    9900012    2    1    2    0    0  0.22525279991E+02  0.77781663319E+01 -0.32943557876E+02  0.50528854464E+02  0.29999983630E+02 0.  0.
        -12    1    1    2    0    0 -0.22525279991E+02 -0.77781663319E+01  0.32943557876E+02  0.40659145536E+02  0.00000000000E+00 0.  1.
         11    1    3    3    0    0  0.35601897051E+01  0.22006568032E+01 -0.70558397785E+00  0.42444893819E+01  0.51100000000E-03 0. -1.
        -11    1    3    3    0    0  0.23449288519E+02 -0.27890589293E+01 -0.24605774984E+02  0.34104136767E+02  0.51100000000E-03 0.  1.
        -12    1    3    3    0    0 -0.44841982338E+01  0.83665684580E+01 -0.76321989141E+01  0.12180228316E+02  0.00000000000E+00 0.  1.
</event>
<event>
 7    1  0.5068291E-011  0.5052889E+02  0.7816164E-02  0.1300439E+00
        -11   -1    0    0    0    0  0.00000000000E+00  0.00000000000E+00  0.45593999997E+02  0.45594000000E+02  0.51100000000E-03 0. -1.
         11   -1    0    0    0    0 -0.00000000000E+00 -0.00000000000E+00 -0.45593999997E+02  0.45594000000E+02  0.51100000000E-03 0.  1.
    9900012    2    1    2    0    0  0.35607526880E+02 -0.19579736518E+02  0.13789495001E+01  0.50528885962E+02  0.30000079370E+02 0.  0.
        -12    1    1    2    0    0 -0.35607526880E+02  0.19579736518E+02 -0.13789495001E+01  0.40659114038E+02  0.00000000000E+00 0.  1.
         11    1    3    3    0    0  0.26201741642E+02 -0.14137940271E+02 -0.95482203076E+01  0.31266293856E+02  0.51100000000E-03 0. -1.
        -11    1    3    3    0    0  0.11835813953E+02 -0.50652732426E+01  0.10793232348E+02  0.16799921123E+02  0.51100000000E-03 0.  1.
        -12    1    3    3    0    0 -0.24300287150E+01 -0.37652300506E+00  0.13393745968E+00  0.24626709833E+01  0.00000000000E+00 0.  1.
</event>
<event>
 7    1  0.5068291E-011  0.5052878E+02  0.7816164E-02  0.1300439E+00
        -11   -1    0    0    0    0  0.00000000000E+00  0.00000000000E+00  0.45593999997E+02  0.45594000000E+02  0.51100000000E-03 0.  1.
         11   -1    0    0    0    0 -0.00000000000E+00 -0.00000000000E+00 -0.45593999997E+02  0.45594000000E+02  0.51100000000E-03 0. -1.
    9900012    2    1    2    0    0  0.19421247698E+01  0.29230481344E+01 -0.40507480591E+02  0.50528781576E+02  0.29999762079E+02 0.  0.
        -12    1    1    2    0    0 -0.19421247698E+01 -0.29230481344E+01  0.40507480591E+02  0.40659218424E+02  0.00000000000E+00 0.  1.
         11    1    3    3    0    0  0.65723149409E+01  0.10990262800E+02 -0.30917735213E+02  0.33464720992E+02  0.51100000000E-03 0. -1.
        -11    1    3    3    0    0 -0.78194372819E+00 -0.35488501533E+01  0.19230910435E+01  0.41114538581E+01  0.51100000000E-03 0.  1.
         12    1    3    3    0    0 -0.38482464429E+01 -0.45183645126E+01 -0.11512836421E+02  0.12952606726E+02  0.00000000000E+00 0. -1.
</event>
<event>
 7    1  0.5068291E-011  0.5052887E+02  0.7816164E-02  0.1300439E+00
        -11   -1    0    0    0    0  0.00000000000E+00  0.00000000000E+00  0.45593999997E+02  0.45594000000E+02  0.51100000000E-03 0.  1.
         11   -1    0    0    0    0 -0.00000000000E+00 -0.00000000000E+00 -0.45593999997E+02  0.45594000000E+02  0.51100000000E-03 0. -1.
    9900012    2    1    2    0    0  0.34027456672E+02  0.10663805191E+02 -0.19534078085E+02  0.50528871193E+02  0.30000034478E+02 0.  0.
        -12    1    1    2    0    0 -0.34027456672E+02 -0.10663805191E+02  0.19534078085E+02  0.40659128807E+02  0.00000000000E+00 0.  1.
         11    1    3    3    0    0 -0.32679639437E+01 -0.90765679802E+00  0.19455939784E+01  0.39100850874E+01  0.51100000000E-03 0. -1.
        -11    1    3    3    0    0  0.82900876768E+01  0.84142632918E+01 -0.91608441592E+01  0.14948125180E+02  0.51100000000E-03 0.  1.
         12    1    3    3    0    0  0.29005332939E+02  0.31571986975E+01 -0.12318827904E+02  0.31670660925E+02  0.00000000000E+00 0. -1.
</event>
<event>
 7    1  0.5068291E-011  0.5052886E+02  0.7816164E-02  0.1300439E+00
        -11   -1    0    0    0    0  0.00000000000E+00  0.00000000000E+00  0.45593999997E+02  0.45594000000E+02  0.51100000000E-03 0. -1.
         11   -1    0    0    0    0 -0.00000000000E+00 -0.00000000000E+00 -0.45593999997E+02  0.45594000000E+02  0.51100000000E-03 0.  1.
    9900012    2    1    2    0    0 -0.25214968812E+02  0.16382570323E+02  0.27367538722E+02  0.50528862795E+02  0.30000008952E+02 0.  0.
        -12    1    1    2    0    0  0.25214968812E+02 -0.16382570323E+02 -0.27367538722E+02  0.40659137205E+02  0.00000000000E+00 0.  1.
         11    1    3    3    0    0 -0.10133721685E+02  0.15752641402E+02  0.29349168007E+02  0.34816830546E+02  0.51100000000E-03 0. -1.
        -11    1    3    3    0    0 -0.27981905693E+01 -0.12754474169E+01 -0.10407775059E+01  0.32465142312E+01  0.51100000000E-03 0.  1.
         12    1    3    3    0    0 -0.12283056557E+02  0.19053763380E+01 -0.94085177926E+00  0.12465518018E+02  0.00000000000E+00 0. -1.
</event>
<event>
 7    1  0.5068291E-011  0.5052886E+02  0.7816164E-02  0.1300439E+00
        -11   -1    0    0    0    0  0.00000000000E+00  0.00000000000E+00  0.45593999997E+02  0.45594000000E+02  0.51100000000E-03 0.  1.
         11   -1    0    0    0    0 -0.00000000000E+00 -0.00000000000E+00 -0.45593999997E+02  0.45594000000E+02  0.51100000000E-03 0. -1.
    9900012    2    1    2    0    0  0.93270159107E+01  0.22631365250E+02 -0.32465270099E+02  0.50528859804E+02  0.29999999860E+02 0.  0.
        -12    1    1    2    0    0 -0.93270159107E+01 -0.22631365250E+02  0.32465270099E+02  0.40659140196E+02  0.00000000000E+00 0.  1.
         11    1    3    3    0    0  0.15551452651E+02  0.31194737819E+01 -0.72881872076E+01  0.17455556974E+02  0.51100000000E-03 0. -1.
        -11    1    3    3    0    0 -0.48627761637E+01  0.16058939893E+02 -0.16045777721E+02  0.23216440843E+02  0.51100000000E-03 0.  1.
         12    1    3    3    0    0 -0.13616605763E+01  0.34529515748E+01 -0.91313051710E+01  0.98568619869E+01  0.00000000000E+00 0. -1.
</event>
<event>
 7    1  0.5068291E-011  0.5052878E+02  0.7816164E-02  0.1300439E+00
        -11   -1    0    0    0    0  0.00000000000E+00  0.00000000000E+00  0.45593999997E+02  0.45594000000E+02  0.51100000000E-03 0.  1.
         11   -1    0    0    0    0 -0.00000000000E+00 -0.00000000000E+00 -0.45593999997E+02  0.45594000000E+02  0.51100000000E-03 0. -1.
    9900012    2    1    2    0    0  0.50133570215E+01  0.10685859045E+02 -0.38908233639E+02  0.50528782385E+02  0.29999764535E+02 0.  0.
        -12    1    1    2    0    0 -0.50133570215E+01 -0.10685859045E+02  0.38908233639E+02  0.40659217615E+02  0.00000000000E+00 0.  1.
         11    1    3    3    0    0  0.56781037095E+01  0.60243702865E+01 -0.26468102784E+02  0.27732550628E+02  0.51100000000E-03 0. -1.
        -11    1    3    3    0    0 -0.42061039154E+01  0.67345682869E+01  0.16594135355E+01  0.81116813116E+01  0.51100000000E-03 0.  1.
        -12    1    3    3    0    0  0.35413572273E+01 -0.20730795281E+01 -0.14099544391E+02  0.14684550445E+02  0.00000000000E+00 0.  1.
</event>
<event>
 7    1  0.5068291E-011  0.5052886E+02  0.7816164E-02  0.1300439E+00
        -11   -1    0    0    0    0  0.00000000000E+00  0.00000000000E+00  0.45593999997E+02  0.45594000000E+02  0.51100000000E-03 0.  1.
         11   -1    0    0    0    0 -0.00000000000E+00 -0.00000000000E+00 -0.45593999997E+02  0.45594000000E+02  0.51100000000E-03 0. -1.
    9900012    2    1    2    0    0  0.11175273339E+02 -0.18642607707E+02 -0.34361784102E+02  0.50528858801E+02  0.29999996812E+02 0.  0.
        -12    1    1    2    0    0 -0.11175273339E+02  0.18642607707E+02  0.34361784102E+02  0.40659141199E+02  0.00000000000E+00 0.  1.
         11    1    3    3    0    0 -0.40356481898E+01 -0.61525622718E+01  0.24872129946E+01  0.77670269449E+01  0.51100000000E-03 0.  1.
        -11    1    3    3    0    0  0.11410286488E+02 -0.93744719490E+01 -0.17998998867E+02  0.23281737962E+02  0.51100000000E-03 0. -1.
        -12    1    3    3    0    0  0.38006350409E+01 -0.31155734865E+01 -0.18849998230E+02  0.19480093894E+02  0.00000000000E+00 0.  1.
</event>
<event>
 7    1  0.5068291E-011  0.5052884E+02  0.7816164E-02  0.1300439E+00
        -11   -1    0    0    0    0  0.00000000000E+00  0.00000000000E+00  0.45593999997E+02  0.45594000000E+02  0.51100000000E-03 0. -1.
         11   -1    0    0    0    0 -0.00000000000E+00 -0.00000000000E+00 -0.45593999997E+02  0.45594000000E+02  0.51100000000E-03 0.  1.
    9900012    2    1    2    0    0  0.33763492522E+02 -0.15325283243E+02  0.16683212307E+02  0.50528839819E+02  0.29999939114E+02 0.  0.
        -12    1    1    2    0    0 -0.33763492522E+02  0.15325283243E+02 -0.16683212307E+02  0.40659160181E+02  0.00000000000E+00 0.  1.
         11    1    3    3    0    0  0.17211759248E+02 -0.33324255047E+01 -0.27851529207E+01  0.17751247652E+02  0.51100000000E-03 0. -1.
        -11    1    3    3    0    0  0.58023187109E+01  0.17078286740E+00  0.14783425254E+02  0.15882245802E+02  0.51100000000E-03 0.  1.
        -12    1    3    3    0    0  0.10749414563E+02 -0.12163640606E+02  0.46849399732E+01  0.16895346364E+02  0.00000000000E+00 0.  1.
</event>
<event>
 7    1  0.5068291E-011  0.5052888E+02  0.7816164E-02  0.1300439E+00
        -11   -1    0    0    0    0  0.00000000000E+00  0.00000000000E+00  0.45593999997E+02  0.45594000000E+02  0.51100000000E-03 0. -1.
         11   -1    0    0    0    0 -0.00000000000E+00 -0.00000000000E+00 -0.45593999997E+02  0.45594000000E+02  0.51100000000E-03 0.  1.
    9900012    2    1    2    0    0  0.30338192479E+02 -0.21102283358E+02  0.16954401893E+02  0.50528880120E+02  0.30000061613E+02 0.  0.
        -12    1    1    2    0    0 -0.30338192479E+02  0.21102283358E+02 -0.16954401893E+02  0.40659119880E+02  0.00000000000E+00 0.  1.
         11    1    3    3    0    0  0.19581919712E+02 -0.77604577730E+01 -0.33891423250E+01  0.21334539377E+02  0.51100000000E-03 0. -1.
        -11    1    3    3    0    0 -0.47891602468E+00  0.18029520715E+01  0.32265055056E+01  0.37269739427E+01  0.51100000000E-03 0.  1.
         12    1    3    3    0    0  0.11235188792E+02 -0.15144777657E+02  0.17117038713E+02  0.25467366801E+02  0.00000000000E+00 0. -1.
</event>
<event>
 7    1  0.5068291E-011  0.5052886E+02  0.7816164E-02  0.1300439E+00
        -11   -1    0    0    0    0  0.00000000000E+00  0.00000000000E+00  0.45593999997E+02  0.45594000000E+02  0.51100000000E-03 0.  1.
         11   -1    0    0    0    0 -0.00000000000E+00 -0.00000000000E+00 -0.45593999997E+02  0.45594000000E+02  0.51100000000E-03 0. -1.
    9900012    2    1    2    0    0 -0.25037414164E+02 -0.23548074175E+02 -0.21720543886E+02  0.50528856722E+02  0.29999990493E+02 0.  0.
        -12    1    1    2    0    0  0.25037414164E+02  0.23548074175E+02  0.21720543886E+02  0.40659143278E+02  0.00000000000E+00 0.  1.
         11    1    3    3    0    0 -0.77071942597E+01 -0.56394853387E+01 -0.16161939034E+02  0.18772663951E+02  0.51100000000E-03 0. -1.
        -11    1    3    3    0    0 -0.16895236032E+02 -0.18106672273E+02  0.13779294966E+01  0.24803210908E+02  0.51100000000E-03 0.  1.
        -12    1    3    3    0    0 -0.43498387263E+00  0.19808343680E+00 -0.69365343486E+01  0.69529818629E+01  0.00000000000E+00 0.  1.
</event>
<event>
 7    1  0.5068291E-011  0.5052885E+02  0.7816164E-02  0.1300439E+00
        -11   -1    0    0    0    0  0.00000000000E+00  0.00000000000E+00  0.45593999997E+02  0.45594000000E+02  0.51100000000E-03 0. -1.
         11   -1    0    0    0    0 -0.00000000000E+00 -0.00000000000E+00 -0.45593999997E+02  0.45594000000E+02  0.51100000000E-03 0.  1.
    9900012    2    1    2    0    0  0.31922922495E+01  0.12890788753E+02  0.38429198526E+02  0.50528850183E+02  0.29999970617E+02 0.  0.
        -12    1    1    2    0    0 -0.31922922495E+01 -0.12890788753E+02 -0.38429198526E+02  0.40659149817E+02  0.00000000000E+00 0.  1.
         11    1    3    3    0    0 -0.14906390124E+01  0.13571670668E+01  0.32430637669E+01  0.38185560058E+01  0.51100000000E-03 0. -1.
        -11    1    3    3    0    0  0.10520624835E+01  0.98269512261E+01 -0.13319770379E+01  0.99724605269E+01  0.51100000000E-03 0.  1.
        -12    1    3    3    0    0  0.36308687784E+01  0.17066704605E+01  0.36518111797E+02  0.36737833651E+02  0.00000000000E+00 0.  1.
</event>
<event>
 7    1  0.5068291E-011  0.5052885E+02  0.7816164E-02  0.1300439E+00
        -11   -1    0    0    0    0  0.00000000000E+00  0.00000000000E+00  0.45593999997E+02  0.45594000000E+02  0.51100000000E-03 0. -1.
         11   -1    0    0    0    0 -0.00000000000E+00 -0.00000000000E+00 -0.45593999997E+02  0.45594000000E+02  0.51100000000E-03 0.  1.
    9900012    2    1    2    0    0 -0.14488659905E+02  0.30259941695E+02  0.22969127899E+02  0.50528853752E+02  0.29999981463E+02 0.  0.
        -12    1    1    2    0    0  0.14488659905E+02 -0.30259941695E+02 -0.22969127899E+02  0.40659146248E+02  0.00000000000E+00 0.  1.
         11    1    3    3    0    0 -0.11582044018E+02  0.53167509445E+01  0.11833035355E+01  0.12798898068E+02  0.51100000000E-03 0.  1.
        -11    1    3    3    0    0 -0.76262953931E+01  0.19111237276E+02  0.22131855251E+02  0.30219510068E+02  0.51100000000E-03 0. -1.
        -12    1    3    3    0    0  0.47196795059E+01  0.58319534743E+01 -0.34603088754E+00  0.75104456152E+01  0.00000000000E+00 0.  1.
</event>
<event>
 7    1  0.5068291E-011  0.5052886E+02  0.7816164E-02  0.1300439E+00
        -11   -1    0    0    0    0  0.00000000000E+00  0.00000000000E+00  0.45593999997E+02  0.45594000000E+02  0.51100000000E-03 0.  1.
         11   -1    0    0    0    0 -0.00000000000E+00 -0.00000000000E+00 -0.45593999997E+02  0.45594000000E+02  0.51100000000E-03 0. -1.
    9900012    2    1    2    0    0  0.22426276966E+02 -0.72159380765E+01 -0.33138472149E+02  0.50528855921E+02  0.29999988058E+02 0.  0.
        -12    1    1    2    0    0 -0.22426276966E+02  0.72159380765E+01  0.33138472149E+02  0.40659144079E+02  0.00000000000E+00 0.  1.
         11    1    3    3    0    0  0.52112345611E+01 -0.73917078938E+01 -0.31890566482E+02  0.33148190630E+02  0.51100000000E-03 0. -1.
        -11    1    3    3    0    0  0.56984157971E+01  0.62671956861E+00  0.35764008205E+00  0.57439208476E+01  0.51100000000E-03 0.  1.
         12    1    3    3    0    0  0.11516626608E+02 -0.45094975127E+00 -0.16055457488E+01  0.11636744444E+02  0.00000000000E+00 0. -1.
</event>
<event>
 7    1  0.5068291E-011  0.5052886E+02  0.7816164E-02  0.1300439E+00
        -11   -1    0    0    0    0  0.00000000000E+00  0.00000000000E+00  0.45593999997E+02  0.45594000000E+02  0.51100000000E-03 0. -1.
         11   -1    0    0    0    0 -0.00000000000E+00 -0.00000000000E+00 -0.45593999997E+02  0.45594000000E+02  0.51100000000E-03 0.  1.
    9900012    2    1    2    0    0 -0.86841247024E+01 -0.36113615199E+02  0.16539606449E+02  0.50528858272E+02  0.29999995203E+02 0.  0.
        -12    1    1    2    0    0  0.86841247024E+01  0.36113615199E+02 -0.16539606449E+02  0.40659141728E+02  0.00000000000E+00 0.  1.
         11    1    3    3    0    0 -0.86180014072E+01 -0.25277918560E+02  0.93752584258E+01  0.28304391634E+02  0.51100000000E-03 0. -1.
        -11    1    3    3    0    0  0.43481941381E+01 -0.66629831962E+01  0.12042769209E+02  0.14433656080E+02  0.51100000000E-03 0.  1.
        -12    1    3    3    0    0 -0.44143174333E+01 -0.41727134426E+01 -0.48784211861E+01  0.77908105577E+01  0.00000000000E+00 0.  1.
</event>
<event>
 7    1  0.5068291E-011  0.5052887E+02  0.7816164E-02  0.1300439E+00
        -11   -1    0    0    0    0  0.00000000000E+00  0.00000000000E+00  0.45593999997E+02  0.45594000000E+02  0.51100000000E-03 0.  1.
         11   -1    0    0    0    0 -0.00000000000E+00 -0.00000000000E+00 -0.45593999997E+02  0.45594000000E+02  0.51100000000E-03 0. -1.
    9900012    2    1    2    0    0 -0.36294084499E+02  0.18290154245E+02  0.11725574197E+01  0.50528865690E+02  0.30000017751E+02 0.  0.
        -12    1    1    2    0    0  0.36294084499E+02 -0.18290154245E+02 -0.11725574197E+01  0.40659134310E+02  0.00000000000E+00 0.  1.
         11    1    3    3    0    0 -0.32641261327E+02  0.21821409526E+02  0.25904148006E+01  0.39348902194E+02  0.51100000000E-03 0. -1.
        -11    1    3    3    0    0 -0.26800391359E+01 -0.23736012658E+01 -0.56483606239E+01  0.66873440721E+01  0.51100000000E-03 0.  1.
         12    1    3    3    0    0 -0.97278403617E+00 -0.11576540153E+01  0.42305032430E+01  0.44926194241E+01  0.00000000000E+00 0. -1.
</event>
<event>
 7    1  0.5068291E-011  0.5052886E+02  0.7816164E-02  0.1300439E+00
        -11   -1    0    0    0    0  0.00000000000E+00  0.00000000000E+00  0.45593999997E+02  0.45594000000E+02  0.51100000000E-03 0. -1.
         11   -1    0    0    0    0 -0.00000000000E+00 -0.00000000000E+00 -0.45593999997E+02  0.45594000000E+02  0.51100000000E-03 0.  1.
    9900012    2    1    2    0    0  0.28184710336E+01 -0.24112536214E+02  0.32616066107E+02  0.50528856502E+02  0.29999989825E+02 0.  0.
        -12    1    1    2    0    0 -0.28184710336E+01  0.24112536214E+02 -0.32616066107E+02  0.40659143498E+02  0.00000000000E+00 0.  1.
         11    1    3    3    0    0 -0.12119326114E+02 -0.13402941709E+02  0.21492505554E+02  0.28079257597E+02  0.51100000000E-03 0. -1.
        -11    1    3    3    0    0  0.12089507449E+02 -0.49713054435E+01  0.79615939100E+01  0.15305458046E+02  0.51100000000E-03 0.  1.
        -12    1    3    3    0    0  0.28482896993E+01 -0.57382890613E+01  0.31619666428E+01  0.71441408589E+01  0.00000000000E+00 0.  1.
</event>
<event>
 7    1  0.5068291E-011  0.5052887E+02  0.7816164E-02  0.1300439E+00
        -11   -1    0    0    0    0  0.00000000000E+00  0.00000000000E+00  0.45593999997E+02  0.45594000000E+02  0.51100000000E-03 0. -1.
         11   -1    0    0    0    0 -0.00000000000E+00 -0.00000000000E+00 -0.45593999997E+02  0.45594000000E+02  0.51100000000E-03 0.  1.
    9900012    2    1    2    0    0  0.23111944892E+02 -0.18035015737E+02  0.28173415156E+02  0.50528866821E+02  0.30000021188E+02 0.  0.
        -12    1    1    2    0    0 -0.23111944892E+02  0.18035015737E+02 -0.28173415156E+02  0.40659133179E+02  0.00000000000E+00 0.  1.
         11    1    3    3    0    0  0.16905111101E+02 -0.75897254409E+01  0.17134159617E+02  0.25238188121E+02  0.51100000000E-03 0. -1.
        -11    1    3    3    0    0 -0.59218244423E+00  0.47391316152E+01 -0.83806102633E+00  0.48489581416E+01  0.51100000000E-03 0.  1.
        -12    1    3    3    0    0  0.67990162357E+01 -0.15184421912E+02  0.11877316566E+02  0.20441720558E+02  0.00000000000E+00 0.  1.
</event>
<event>
 7    1  0.5068291E-011  0.5052886E+02  0.7816164E-02  0.1300439E+00
        -11   -1    0    0    0    0  0.00000000000E+00  0.00000000000E+00  0.45593999997E+02  0.45594000000E+02  0.51100000000E-03 0.  1.
         11   -1    0    0    0    0 -0.00000000000E+00 -0.00000000000E+00 -0.45593999997E+02  0.45594000000E+02  0.51100000000E-03 0. -1.
    9900012    2    1    2    0    0  0.55568532599E+01 -0.39381090891E+02 -0.84508302010E+01  0.50528862417E+02  0.30000007802E+02 0.  0.
        -12    1    1    2    0    0 -0.55568532599E+01  0.39381090891E+02  0.84508302010E+01  0.40659137583E+02  0.00000000000E+00 0.  1.
         11    1    3    3    0    0 -0.16862378668E+01 -0.26290377049E+01 -0.11749023276E+02  0.12157087875E+02  0.51100000000E-03 0. -1.
        -11    1    3    3    0    0  0.48942186167E+01 -0.19587538117E+02  0.54546599443E+01  0.20913592248E+02  0.51100000000E-03 0.  1.
         12    1    3    3    0    0  0.23488725101E+01 -0.17164515069E+02 -0.21564668689E+01  0.17458182293E+02  0.00000000000E+00 0. -1.
</event>
<event>
 7    1  0.5068291E-011  0.5052885E+02  0.7816164E-02  0.1300439E+00
        -11   -1    0    0    0    0  0.00000000000E+00  0.00000000000E+00  0.45593999997E+02  0.45594000000E+02  0.51100000000E-03 0. -1.
         11   -1    0    0    0    0 -0.00000000000E+00 -0.00000000000E+00 -0.45593999997E+02  0.45594000000E+02  0.51100000000E-03 0.  1.
    9900012    2    1    2    0    0  0.39763441157E+02  0.38545197704E+01  0.75615977339E+01  0.50528851760E+02  0.29999975411E+02 0.  0.
        -12    1    1    2    0    0 -0.39763441157E+02 -0.38545197704E+01 -0.75615977339E+01  0.40659148240E+02  0.00000000000E+00 0.  1.
         11    1    3    3    0    0  0.12035735528E+02  0.20342490446E+01  0.71878536323E+01  0.14165533487E+02  0.51100000000E-03 0. -1.
        -11    1    3    3    0    0 -0.27382423886E+01 -0.23065968642E+01 -0.39334638523E+01  0.53188813308E+01  0.51100000000E-03 0.  1.
        -12    1    3    3    0    0  0.30465948018E+02  0.41268675900E+01  0.43072079540E+01  0.31044436942E+02  0.00000000000E+00 0.  1.
</event>
<event>
 7    1  0.5068291E-011  0.5052886E+02  0.7816164E-02  0.1300439E+00
        -11   -1    0    0    0    0  0.00000000000E+00  0.00000000000E+00  0.45593999997E+02  0.45594000000E+02  0.51100000000E-03 0. -1.
         11   -1    0    0    0    0 -0.00000000000E+00 -0.00000000000E+00 -0.45593999997E+02  0.45594000000E+02  0.51100000000E-03 0.  1.
    9900012    2    1    2    0    0  0.26270087201E+02 -0.15830905948E+02  0.26691390055E+02  0.50528863662E+02  0.30000011587E+02 0.  0.
        -12    1    1    2    0    0 -0.26270087201E+02  0.15830905948E+02 -0.26691390055E+02  0.40659136338E+02  0.00000000000E+00 0.  1.
         11    1    3    3    0    0  0.17508693085E+02 -0.57245925745E+01  0.16048541996E+02  0.24431148032E+02  0.51100000000E-03 0. -1.
        -11    1    3    3    0    0 -0.11763150453E+01  0.47717240792E+01 -0.62397787467E+00  0.49540303212E+01  0.51100000000E-03 0.  1.
        -12    1    3    3    0    0  0.99377091615E+01 -0.14878037453E+02  0.11266825933E+02  0.21143685309E+02  0.00000000000E+00 0.  1.
</event>
<event>
 7    1  0.5068291E-011  0.5052886E+02  0.7816164E-02  0.1300439E+00
        -11   -1    0    0    0    0  0.00000000000E+00  0.00000000000E+00  0.45593999997E+02  0.45594000000E+02  0.51100000000E-03 0.  1.
         11   -1    0    0    0    0 -0.00000000000E+00 -0.00000000000E+00 -0.45593999997E+02  0.45594000000E+02  0.51100000000E-03 0. -1.
    9900012    2    1    2    0    0 -0.25650526441E+02  0.31546828766E+02  0.11633046239E+00  0.50528862716E+02  0.30000008712E+02 0.  0.
        -12    1    1    2    0    0  0.25650526441E+02 -0.31546828766E+02 -0.11633046239E+00  0.40659137284E+02  0.00000000000E+00 0.  1.
         11    1    3    3    0    0  0.23872214903E+01  0.75123813917E+01 -0.78641549603E+01  0.11134614233E+02  0.51100000000E-03 0. -1.
        -11    1    3    3    0    0 -0.92585945400E+01  0.24780716631E+01 -0.42881549357E+00  0.95940760374E+01  0.51100000000E-03 0.  1.
         12    1    3    3    0    0 -0.18779153392E+02  0.21556375711E+02  0.84093009163E+01  0.29800172446E+02  0.00000000000E+00 0. -1.
</event>
<event>
 7    1  0.5068291E-011  0.5052885E+02  0.7816164E-02  0.1300439E+00
        -11   -1    0    0    0    0  0.00000000000E+00  0.00000000000E+00  0.45593999997E+02  0.45594000000E+02  0.51100000000E-03 0.  1.
         11   -1    0    0    0    0 -0.00000000000E+00 -0.00000000000E+00 -0.45593999997E+02  0.45594000000E+02  0.51100000000E-03 0. -1.
    9900012    2    1    2    0    0  0.19747894290E+01  0.21665256376E+02 -0.34349428366E+02  0.50528851507E+02  0.29999974641E+02 0.  0.
        -12    1    1    2    0    0 -0.19747894290E+01 -0.21665256376E+02  0.34349428366E+02  0.40659148493E+02  0.00000000000E+00 0.  1.
         11    1    3    3    0    0 -0.59662689085E+01 -0.22292247895E+01 -0.12125145534E+02  0.13696165972E+02  0.51100000000E-03 0. -1.
        -11    1    3    3    0    0  0.82513930539E+01  0.13893344295E+02 -0.50032141034E+01  0.16915751673E+02  0.51100000000E-03 0.  1.
        -12    1    3    3    0    0 -0.31033471639E+00  0.10001136870E+02 -0.17221068728E+02  0.19916933862E+02  0.00000000000E+00 0.  1.
</event>
<event>
 7    1  0.5068291E-011  0.5052886E+02  0.7816164E-02  0.1300439E+00
        -11   -1    0    0    0    0  0.00000000000E+00  0.00000000000E+00  0.45593999997E+02  0.45594000000E+02  0.51100000000E-03 0.  1.
         11   -1    0    0    0    0 -0.00000000000E+00 -0.00000000000E+00 -0.45593999997E+02  0.45594000000E+02  0.51100000000E-03 0. -1.
    9900012    2    1    2    0    0 -0.29109832569E+02  0.27437110868E+02  0.72792995841E+01  0.50528860715E+02  0.30000002628E+02 0.  0.
        -12    1    1    2    0    0  0.29109832569E+02 -0.27437110868E+02 -0.72792995841E+01  0.40659139285E+02  0.00000000000E+00 0.  1.
         11    1    3    3    0    0 -0.15371201626E+02  0.34635261522E+00 -0.42194225032E+01  0.15943566919E+02  0.51100000000E-03 0.  1.
        -11    1    3    3    0    0 -0.15231016917E+02  0.20920416529E+02  0.11291200209E+02  0.28233648480E+02  0.51100000000E-03 0. -1.
        -12    1    3    3    0    0  0.14923859745E+01  0.61703417243E+01  0.20752187848E+00  0.63516453161E+01  0.00000000000E+00 0.  1.
</event>
<event>
 7    1  0.5068291E-011  0.5052886E+02  0.7816164E-02  0.1300439E+00
        -11   -1    0    0    0    0  0.00000000000E+00  0.00000000000E+00  0.45593999997E+02  0.45594000000E+02  0.51100000000E-03 0.  1.
         11   -1    0    0    0    0 -0.00000000000E+00 -0.00000000000E+00 -0.45593999997E+02  0.45594000000E+02  0.51100000000E-03 0. -1.
    9900012    2    1    2    0    0  0.40631313915E+02  0.14190490441E+01 -0.49816453206E+00  0.50528861561E+02  0.30000005202E+02 0.  0.
        -12    1    1    2    0    0 -0.40631313915E+02 -0.14190490441E+01  0.49816453206E+00  0.40659138439E+02  0.00000000000E+00 0.  1.
         11    1    3    3    0    0  0.30700550023E+02  0.70860237359E+01  0.10566369526E+02  0.33232268495E+02  0.51100000000E-03 0. -1.
        -11    1    3    3    0    0  0.46531940671E+01 -0.61728943208E+01 -0.48410757991E+01  0.91210117024E+01  0.51100000000E-03 0.  1.
         12    1    3    3    0    0  0.52775698247E+01  0.50591962908E+00 -0.62234582593E+01  0.81755813634E+01  0.00000000000E+00 0. -1.
</event>
<event>
 7    1  0.5068291E-011  0.5052886E+02  0.7816164E-02  0.1300439E+00
        -11   -1    0    0    0    0  0.00000000000E+00  0.00000000000E+00  0.45593999997E+02  0.45594000000E+02  0.51100000000E-03 0. -1.
         11   -1    0    0    0    0 -0.00000000000E+00 -0.00000000000E+00 -0.45593999997E+02  0.45594000000E+02  0.51100000000E-03 0.  1.
    9900012    2    1    2    0    0  0.35980103161E+02 -0.17174658548E+02  0.79767727099E+01  0.50528860529E+02  0.30000002063E+02 0.  0.
        -12    1    1    2    0    0 -0.35980103161E+02  0.17174658548E+02 -0.79767727099E+01  0.40659139471E+02  0.00000000000E+00 0.  1.
         11    1    3    3    0    0  0.30884836576E+02 -0.68783548517E+01  0.19564129394E+01  0.31701931292E+02  0.51100000000E-03 0. -1.
        -11    1    3    3    0    0 -0.14443178935E+01  0.27902406287E+01  0.17023221295E+01  0.35734294225E+01  0.51100000000E-03 0.  1.
         12    1    3    3    0    0  0.65395844784E+01 -0.13086544325E+02  0.43180376410E+01  0.15253499815E+02  0.00000000000E+00 0. -1.
</event>
<event>
 7    1  0.5068291E-011  0.5052887E+02  0.7816164E-02  0.1300439E+00
        -11   -1    0    0    0    0  0.00000000000E+00  0.00000000000E+00  0.45593999997E+02  0.45594000000E+02  0.51100000000E-03 0.  1.
         11   -1    0    0    0    0 -0.00000000000E+00 -0.00000000000E+00 -0.45593999997E+02  0.45594000000E+02  0.51100000000E-03 0. -1.
    9900012    2    1    2    0    0  0.26872719225E+02  0.27430457852E+02 -0.13363821631E+02  0.50528870827E+02  0.30000033365E+02 0.  0.
        -12    1    1    2    0    0 -0.26872719225E+02 -0.27430457852E+02  0.13363821631E+02  0.40659129173E+02  0.00000000000E+00 0.  1.
         11    1    3    3    0    0  0.24637521746E+02  0.13767070591E+02 -0.13381962225E+02  0.31234862313E+02  0.51100000000E-03 0. -1.
        -11    1    3    3    0    0 -0.13571901342E+01  0.69954119901E+01 -0.62377977603E+01  0.94703682680E+01  0.51100000000E-03 0.  1.
         12    1    3    3    0    0  0.35923876131E+01  0.66679752715E+01  0.62559383547E+01  0.98236402459E+01  0.00000000000E+00 0. -1.
</event>
<event>
 7    1  0.5068291E-011  0.5052886E+02  0.7816164E-02  0.1300439E+00
        -11   -1    0    0    0    0  0.00000000000E+00  0.00000000000E+00  0.45593999997E+02  0.45594000000E+02  0.51100000000E-03 0.  1.
         11   -1    0    0    0    0 -0.00000000000E+00 -0.00000000000E+00 -0.45593999997E+02  0.45594000000E+02  0.51100000000E-03 0. -1.
    9900012    2    1    2    0    0 -0.33241607714E+02 -0.19946633122E+02 -0.12259418320E+02  0.50528855962E+02  0.29999988182E+02 0.  0.
        -12    1    1    2    0    0  0.33241607714E+02  0.19946633122E+02  0.12259418320E+02  0.40659144038E+02  0.00000000000E+00 0.  1.
         11    1    3    3    0    0 -0.22310542948E+02 -0.21001459696E+02 -0.10210690882E+02  0.32296746656E+02  0.51100000000E-03 0. -1.
        -11    1    3    3    0    0 -0.10117726796E+02  0.18363482779E+01  0.47594962522E+01  0.11331080061E+02  0.51100000000E-03 0.  1.
         12    1    3    3    0    0 -0.81333797059E+00 -0.78152170390E+00 -0.68082236901E+01  0.69010292452E+01  0.00000000000E+00 0. -1.
</event>
<event>
 7    1  0.5068291E-011  0.5052888E+02  0.7816164E-02  0.1300439E+00
        -11   -1    0    0    0    0  0.00000000000E+00  0.00000000000E+00  0.45593999997E+02  0.45594000000E+02  0.51100000000E-03 0.  1.
         11   -1    0    0    0    0 -0.00000000000E+00 -0.00000000000E+00 -0.45593999997E+02  0.45594000000E+02  0.51100000000E-03 0. -1.
    9900012    2    1    2    0    0  0.13695890749E+01 -0.28914556199E+02  0.28552354502E+02  0.50528877013E+02  0.30000052169E+02 0.  0.
        -12    1    1    2    0    0 -0.13695890749E+01  0.28914556199E+02 -0.28552354502E+02  0.40659122987E+02  0.00000000000E+00 0.  1.
         11    1    3    3    0    0 -0.50726578969E+01 -0.44952859762E+01  0.48279660880E+01  0.83215810369E+01  0.51100000000E-03 0. -1.
        -11    1    3    3    0    0  0.70209407522E+01 -0.54727229440E+00 -0.17854726309E+01  0.72650553189E+01  0.51100000000E-03 0.  1.
        -12    1    3    3    0    0 -0.57869378050E+00 -0.23871997929E+02  0.25509861045E+02  0.34942240657E+02  0.00000000000E+00 0.  1.
</event>
<event>
 7    1  0.5068291E-011  0.5052896E+02  0.7816164E-02  0.1300438E+00
        -11   -1    0    0    0    0  0.00000000000E+00  0.00000000000E+00  0.45593999997E+02  0.45594000000E+02  0.51100000000E-03 0. -1.
         11   -1    0    0    0    0 -0.00000000000E+00 -0.00000000000E+00 -0.45593999997E+02  0.45594000000E+02  0.51100000000E-03 0.  1.
    9900012    2    1    2    0    0  0.56384883878E+01  0.27028529011E+02  0.29846664877E+02  0.50528962431E+02  0.30000311802E+02 0.  0.
        -12    1    1    2    0    0 -0.56384883878E+01 -0.27028529011E+02 -0.29846664877E+02  0.40659037569E+02  0.00000000000E+00 0.  1.
         11    1    3    3    0    0  0.19867488536E+01  0.14943618526E+02  0.25901031371E+02  0.29968689194E+02  0.51100000000E-03 0. -1.
        -11    1    3    3    0    0 -0.43719630984E+01  0.23314707902E+00 -0.22988037591E+01  0.49449891687E+01  0.51100000000E-03 0.  1.
        -12    1    3    3    0    0  0.80237026327E+01  0.11851763405E+02  0.62444372652E+01  0.15615284068E+02  0.00000000000E+00 0.  1.
</event>
<event>
 7    1  0.5068291E-011  0.5052887E+02  0.7816164E-02  0.1300439E+00
        -11   -1    0    0    0    0  0.00000000000E+00  0.00000000000E+00  0.45593999997E+02  0.45594000000E+02  0.51100000000E-03 0. -1.
         11   -1    0    0    0    0 -0.00000000000E+00 -0.00000000000E+00 -0.45593999997E+02  0.45594000000E+02  0.51100000000E-03 0.  1.
    9900012    2    1    2    0    0 -0.30498569646E+02 -0.13332150280E+02  0.23350711022E+02  0.50528872036E+02  0.30000037041E+02 0.  0.
        -12    1    1    2    0    0  0.30498569646E+02  0.13332150280E+02 -0.23350711022E+02  0.40659127964E+02  0.00000000000E+00 0.  1.
         11    1    3    3    0    0 -0.16815179278E+02 -0.12480167749E+02  0.60998553301E+01  0.21810847680E+02  0.51100000000E-03 0. -1.
        -11    1    3    3    0    0 -0.11801760855E+01  0.74234976218E+01  0.85427109713E+01  0.11378885865E+02  0.51100000000E-03 0.  1.
        -12    1    3    3    0    0 -0.12503214282E+02 -0.82754801521E+01  0.87081447210E+01  0.17339138491E+02  0.00000000000E+00 0.  1.
</event>
<event>
 7    1  0.5068291E-011  0.5052885E+02  0.7816164E-02  0.1300439E+00
        -11   -1    0    0    0    0  0.00000000000E+00  0.00000000000E+00  0.45593999997E+02  0.45594000000E+02  0.51100000000E-03 0. -1.
         11   -1    0    0    0    0 -0.00000000000E+00 -0.00000000000E+00 -0.45593999997E+02  0.45594000000E+02  0.51100000000E-03 0.  1.
    9900012    2    1    2    0    0  0.20901411954E+02  0.34747476031E+02  0.29850196046E+01  0.50528850301E+02  0.29999970974E+02 0.  0.
        -12    1    1    2    0    0 -0.20901411954E+02 -0.34747476031E+02 -0.29850196046E+01  0.40659149699E+02  0.00000000000E+00 0.  1.
         11    1    3    3    0    0  0.24202867275E+02  0.30050258430E+02  0.56416589959E+01  0.38995193711E+02  0.51100000000E-03 0. -1.
        -11    1    3    3    0    0 -0.30585349605E+01  0.72448019622E+01 -0.37961677481E+01  0.87322781340E+01  0.51100000000E-03 0.  1.
         12    1    3    3    0    0 -0.24292036057E+00 -0.25475843608E+01  0.11395283568E+01  0.28013784558E+01  0.00000000000E+00 0. -1.
</event>
<event>
 7    1  0.5068291E-011  0.5052886E+02  0.7816164E-02  0.1300439E+00
        -11   -1    0    0    0    0  0.00000000000E+00  0.00000000000E+00  0.45593999997E+02  0.45594000000E+02  0.51100000000E-03 0. -1.
         11   -1    0    0    0    0 -0.00000000000E+00 -0.00000000000E+00 -0.45593999997E+02  0.45594000000E+02  0.51100000000E-03 0.  1.
    9900012    2    1    2    0    0  0.54036106074E+01 -0.37965352475E+02  0.13512920544E+02  0.50528855669E+02  0.29999987291E+02 0.  0.
        -12    1    1    2    0    0 -0.54036106074E+01  0.37965352475E+02 -0.13512920544E+02  0.40659144331E+02  0.00000000000E+00 0.  1.
         11    1    3    3    0    0 -0.81016937468E+01 -0.18216379826E+02  0.11275011777E+01  0.19968605227E+02  0.51100000000E-03 0. -1.
        -11    1    3    3    0    0  0.81915836674E+01 -0.80445679179E+00  0.43189669349E+01  0.92953036183E+01  0.51100000000E-03 0.  1.
         12    1    3    3    0    0  0.53137206868E+01 -0.18944515857E+02  0.80664524310E+01  0.21264946824E+02  0.00000000000E+00 0. -1.
</event>
<event>
 7    1  0.5068291E-011  0.5052886E+02  0.7816164E-02  0.1300439E+00
        -11   -1    0    0    0    0  0.00000000000E+00  0.00000000000E+00  0.45593999997E+02  0.45594000000E+02  0.51100000000E-03 0.  1.
         11   -1    0    0    0    0 -0.00000000000E+00 -0.00000000000E+00 -0.45593999997E+02  0.45594000000E+02  0.51100000000E-03 0. -1.
    9900012    2    1    2    0    0  0.65527417399E+01 -0.36002378257E+02 -0.17721617906E+02  0.50528863196E+02  0.30000010170E+02 0.  0.
        -12    1    1    2    0    0 -0.65527417399E+01  0.36002378257E+02  0.17721617906E+02  0.40659136804E+02  0.00000000000E+00 0.  1.
         11    1    3    3    0    0 -0.19683255133E+01 -0.27006151804E+02 -0.13065383390E+02  0.30065109080E+02  0.51100000000E-03 0. -1.
        -11    1    3    3    0    0  0.97082997573E+01 -0.11952026263E+02 -0.74030192529E+00  0.15415902931E+02  0.51100000000E-03 0.  1.
         12    1    3    3    0    0 -0.11872325041E+01  0.29557998100E+01 -0.39159325908E+01  0.50478511855E+01  0.00000000000E+00 0. -1.
</event>
<event>
 7    1  0.5068291E-011  0.5052886E+02  0.7816164E-02  0.1300439E+00
        -11   -1    0    0    0    0  0.00000000000E+00  0.00000000000E+00  0.45593999997E+02  0.45594000000E+02  0.51100000000E-03 0.  1.
         11   -1    0    0    0    0 -0.00000000000E+00 -0.00000000000E+00 -0.45593999997E+02  0.45594000000E+02  0.51100000000E-03 0. -1.
    9900012    2    1    2    0    0 -0.15537573415E+02  0.56093699443E+01 -0.37152176924E+02  0.50528862418E+02  0.30000007804E+02 0.  0.
        -12    1    1    2    0    0  0.15537573415E+02 -0.56093699443E+01  0.37152176924E+02  0.40659137582E+02  0.00000000000E+00 0.  1.
         11    1    3    3    0    0 -0.22968927504E+02  0.63751592133E+01 -0.18017008293E+02  0.29880208730E+02  0.51100000000E-03 0. -1.
        -11    1    3    3    0    0  0.65813986124E+01 -0.13622080729E+01 -0.16647251652E+02  0.17952754840E+02  0.51100000000E-03 0.  1.
         12    1    3    3    0    0  0.84995547640E+00  0.59641880398E+00 -0.24879169792E+01  0.26958988477E+01  0.00000000000E+00 0. -1.
</event>
<event>
 7    1  0.5068291E-011  0.5052886E+02  0.7816164E-02  0.1300439E+00
        -11   -1    0    0    0    0  0.00000000000E+00  0.00000000000E+00  0.45593999997E+02  0.45594000000E+02  0.51100000000E-03 0.  1.
         11   -1    0    0    0    0 -0.00000000000E+00 -0.00000000000E+00 -0.45593999997E+02  0.45594000000E+02  0.51100000000E-03 0. -1.
    9900012    2    1    2    0    0  0.90781872719E+01  0.34685143551E+02 -0.19175317803E+02  0.50528862279E+02  0.30000007385E+02 0.  0.
        -12    1    1    2    0    0 -0.90781872719E+01 -0.34685143551E+02  0.19175317803E+02  0.40659137721E+02  0.00000000000E+00 0.  1.
         11    1    3    3    0    0 -0.90415767057E+01  0.11537572564E+02 -0.11908360161E+02  0.18885834161E+02  0.51100000000E-03 0. -1.
        -11    1    3    3    0    0  0.96885160625E+01  0.92242324978E+01  0.94691069958E+00  0.13410833263E+02  0.51100000000E-03 0.  1.
        -12    1    3    3    0    0  0.84312479150E+01  0.13923338490E+02 -0.82138683424E+01  0.18232194856E+02  0.00000000000E+00 0.  1.
</event>
<event>
 7    1  0.5068291E-011  0.5052886E+02  0.7816164E-02  0.1300439E+00
        -11   -1    0    0    0    0  0.00000000000E+00  0.00000000000E+00  0.45593999997E+02  0.45594000000E+02  0.51100000000E-03 0. -1.
         11   -1    0    0    0    0 -0.00000000000E+00 -0.00000000000E+00 -0.45593999997E+02  0.45594000000E+02  0.51100000000E-03 0.  1.
    9900012    2    1    2    0    0 -0.34363784505E+02 -0.18224571649E+02  0.11838971313E+02  0.50528856636E+02  0.29999990231E+02 0.  0.
        -12    1    1    2    0    0  0.34363784505E+02  0.18224571649E+02 -0.11838971313E+02  0.40659143364E+02  0.00000000000E+00 0.  1.
         11    1    3    3    0    0 -0.20542087782E+01 -0.67246227715E+01  0.81150373984E+01  0.10737511693E+02  0.51100000000E-03 0. -1.
        -11    1    3    3    0    0 -0.19859686759E+02 -0.82893251485E+01 -0.74335512761E+01  0.22767910629E+02  0.51100000000E-03 0.  1.
        -12    1    3    3    0    0 -0.12449888968E+02 -0.32106237292E+01  0.11157485191E+02  0.17023434314E+02  0.00000000000E+00 0.  1.
</event>
<event>
 7    1  0.5068291E-011  0.5052886E+02  0.7816164E-02  0.1300439E+00
        -11   -1    0    0    0    0  0.00000000000E+00  0.00000000000E+00  0.45593999997E+02  0.45594000000E+02  0.51100000000E-03 0.  1.
         11   -1    0    0    0    0 -0.00000000000E+00 -0.00000000000E+00 -0.45593999997E+02  0.45594000000E+02  0.51100000000E-03 0. -1.
    9900012    2    1    2    0    0  0.43916292273E+01  0.44466481321E+00 -0.40418823190E+02  0.50528863239E+02  0.30000010301E+02 0.  0.
        -12    1    1    2    0    0 -0.43916292273E+01 -0.44466481321E+00  0.40418823190E+02  0.40659136761E+02  0.00000000000E+00 0.  1.
         11    1    3    3    0    0  0.49501092789E+01  0.88548052109E+01 -0.18100265020E+02  0.20749234956E+02  0.51100000000E-03 0. -1.
        -11    1    3    3    0    0 -0.17915332533E+01 -0.12326845540E+02 -0.22446839235E+02  0.25671410251E+02  0.51100000000E-03 0.  1.
         12    1    3    3    0    0  0.12330532016E+01  0.39167051422E+01  0.12828106463E+00  0.41082180322E+01  0.00000000000E+00 0. -1.
</event>
<event>
 7    1  0.5068291E-011  0.5052884E+02  0.7816164E-02  0.1300439E+00
        -11   -1    0    0    0    0  0.00000000000E+00  0.00000000000E+00  0.45593999997E+02  0.45594000000E+02  0.51100000000E-03 0.  1.
         11   -1    0    0    0    0 -0.00000000000E+00 -0.00000000000E+00 -0.45593999997E+02  0.45594000000E+02  0.51100000000E-03 0. -1.
    9900012    2    1    2    0    0 -0.25633242719E+02  0.18168679198E+02 -0.25807039079E+02  0.50528839875E+02  0.29999939283E+02 0.  0.
        -12    1    1    2    0    0  0.25633242719E+02 -0.18168679198E+02  0.25807039079E+02  0.40659160125E+02  0.00000000000E+00 0.  1.
         11    1    3    3    0    0 -0.20394917431E+02 -0.83185959747E+00 -0.81489686316E+01  0.21978406162E+02  0.51100000000E-03 0. -1.
        -11    1    3    3    0    0 -0.25356507265E+01  0.34874173434E+00  0.22540631079E+00  0.25694267201E+01  0.51100000000E-03 0.  1.
         12    1    3    3    0    0 -0.27026745615E+01  0.18651797061E+02 -0.17883476758E+02  0.25981006992E+02  0.00000000000E+00 0. -1.
</event>
<event>
 7    1  0.5068291E-011  0.5052877E+02  0.7816164E-02  0.1300439E+00
        -11   -1    0    0    0    0  0.00000000000E+00  0.00000000000E+00  0.45593999997E+02  0.45594000000E+02  0.51100000000E-03 0.  1.
         11   -1    0    0    0    0 -0.00000000000E+00 -0.00000000000E+00 -0.45593999997E+02  0.45594000000E+02  0.51100000000E-03 0. -1.
    9900012    2    1    2    0    0  0.29572700570E+02  0.23353200746E+02 -0.15272729386E+02  0.50528771441E+02  0.29999731272E+02 0.  0.
        -12    1    1    2    0    0 -0.29572700570E+02 -0.23353200746E+02  0.15272729386E+02  0.40659228559E+02  0.00000000000E+00 0.  1.
         11    1    3    3    0    0  0.13427751924E+02 -0.52081418536E+00 -0.58718669894E+01  0.14664739730E+02  0.51100000000E-03 0. -1.
        -11    1    3    3    0    0  0.11711394526E+02  0.21799683748E+02  0.57386548935E+00  0.24753025979E+02  0.51100000000E-03 0.  1.
        -12    1    3    3    0    0  0.44335541202E+01  0.20743311839E+01 -0.99747278855E+01  0.11111005732E+02  0.00000000000E+00 0.  1.
</event>
<event>
 7    1  0.5068291E-011  0.5052886E+02  0.7816164E-02  0.1300439E+00
        -11   -1    0    0    0    0  0.00000000000E+00  0.00000000000E+00  0.45593999997E+02  0.45594000000E+02  0.51100000000E-03 0.  1.
         11   -1    0    0    0    0 -0.00000000000E+00 -0.00000000000E+00 -0.45593999997E+02  0.45594000000E+02  0.51100000000E-03 0. -1.
    9900012    2    1    2    0    0 -0.74160375644E+01 -0.31705842586E+02 -0.24349702049E+02  0.50528855185E+02  0.29999985819E+02 0.  0.
        -12    1    1    2    0    0  0.74160375644E+01  0.31705842586E+02  0.24349702049E+02  0.40659144815E+02  0.00000000000E+00 0.  1.
         11    1    3    3    0    0  0.13187047796E+00 -0.22499112991E+02 -0.34906293581E+01  0.22768661989E+02  0.51100000000E-03 0. -1.
        -11    1    3    3    0    0  0.26005928075E+01 -0.48036410593E+01 -0.13254623332E+02  0.14336076532E+02  0.51100000000E-03 0.  1.
         12    1    3    3    0    0 -0.10148500850E+02 -0.44030885356E+01 -0.76044493588E+01  0.13424116664E+02  0.00000000000E+00 0. -1.
</event>
<event>
 7    1  0.5068291E-011  0.5052885E+02  0.7816164E-02  0.1300439E+00
        -11   -1    0    0    0    0  0.00000000000E+00  0.00000000000E+00  0.45593999997E+02  0.45594000000E+02  0.51100000000E-03 0.  1.
         11   -1    0    0    0    0 -0.00000000000E+00 -0.00000000000E+00 -0.45593999997E+02  0.45594000000E+02  0.51100000000E-03 0. -1.
    9900012    2    1    2    0    0  0.19148319839E+02  0.29801539816E+02  0.19959372396E+02  0.50528850052E+02  0.29999970218E+02 0.  0.
        -12    1    1    2    0    0 -0.19148319839E+02 -0.29801539816E+02 -0.19959372396E+02  0.40659149948E+02  0.00000000000E+00 0.  1.
         11    1    3    3    0    0  0.11415616412E+02  0.13389100630E+02  0.16210921348E+01  0.17669528962E+02  0.51100000000E-03 0. -1.
        -11    1    3    3    0    0 -0.25761045767E+01 -0.37266150594E+01  0.19983513797E+01  0.49515031141E+01  0.51100000000E-03 0.  1.
        -12    1    3    3    0    0  0.10308808004E+02  0.20139054245E+02  0.16339928881E+02  0.27907817976E+02  0.00000000000E+00 0.  1.
</event>
<event>
 7    1  0.5068291E-011  0.5052886E+02  0.7816164E-02  0.1300439E+00
        -11   -1    0    0    0    0  0.00000000000E+00  0.00000000000E+00  0.45593999997E+02  0.45594000000E+02  0.51100000000E-03 0. -1.
         11   -1    0    0    0    0 -0.00000000000E+00 -0.00000000000E+00 -0.45593999997E+02  0.45594000000E+02  0.51100000000E-03 0.  1.
    9900012    2    1    2    0    0  0.24289101817E+02 -0.47279638364E+01  0.32262235893E+02  0.50528856208E+02  0.29999988929E+02 0.  0.
        -12    1    1    2    0    0 -0.24289101817E+02  0.47279638364E+01 -0.32262235893E+02  0.40659143792E+02  0.00000000000E+00 0.  1.
         11    1    3    3    0    0  0.99627490244E+01  0.42857759379E+01 -0.77652557658E+00  0.10873234833E+02  0.51100000000E-03 0.  1.
        -11    1    3    3    0    0  0.59513983804E+01 -0.97538690261E+01  0.26957994625E+02  0.29279524895E+02  0.51100000000E-03 0. -1.
         12    1    3    3    0    0  0.83749544120E+01  0.74012925185E+00  0.60807668451E+01  0.10376096479E+02  0.00000000000E+00 0. -1.
</event>
<event>
 7    1  0.5068291E-011  0.5052886E+02  0.7816164E-02  0.1300439E+00
        -11   -1    0    0    0    0  0.00000000000E+00  0.00000000000E+00  0.45593999997E+02  0.45594000000E+02  0.51100000000E-03 0.  1.
         11   -1    0    0    0    0 -0.00000000000E+00 -0.00000000000E+00 -0.45593999997E+02  0.45594000000E+02  0.51100000000E-03 0. -1.
    9900012    2    1    2    0    0 -0.24630403139E+02 -0.80254268710E+01 -0.31338495121E+02  0.50528861892E+02  0.30000006208E+02 0.  0.
        -12    1    1    2    0    0  0.24630403139E+02  0.80254268710E+01  0.31338495121E+02  0.40659138108E+02  0.00000000000E+00 0.  1.
         11    1    3    3    0    0 -0.68012628736E+01  0.16923477881E+01 -0.14138793003E+02  0.15780579379E+02  0.51100000000E-03 0. -1.
        -11    1    3    3    0    0 -0.89508644304E+01 -0.59292150174E+01  0.39975743231E+01  0.11456621033E+02  0.51100000000E-03 0.  1.
        -12    1    3    3    0    0 -0.88782758345E+01 -0.37885596417E+01 -0.21197276441E+02  0.23291661480E+02  0.00000000000E+00 0.  1.
</event>
<event>
 7    1  0.5068291E-011  0.5052886E+02  0.7816164E-02  0.1300439E+00
        -11   -1    0    0    0    0  0.00000000000E+00  0.00000000000E+00  0.45593999997E+02  0.45594000000E+02  0.51100000000E-03 0. -1.
         11   -1    0    0    0    0 -0.00000000000E+00 -0.00000000000E+00 -0.45593999997E+02  0.45594000000E+02  0.51100000000E-03 0.  1.
    9900012    2    1    2    0    0 -0.28254954119E+02 -0.22906849873E+02  0.18168638182E+02  0.50528860600E+02  0.30000002279E+02 0.  0.
        -12    1    1    2    0    0  0.28254954119E+02  0.22906849873E+02 -0.18168638182E+02  0.40659139400E+02  0.00000000000E+00 0.  1.
         11    1    3    3    0    0 -0.94501419886E+01 -0.63502162176E+01  0.10315637936E+01  0.11432171873E+02  0.51100000000E-03 0. -1.
        -11    1    3    3    0    0 -0.91487503478E+01 -0.10037541788E+02  0.22491963955E+02  0.26274328172E+02  0.51100000000E-03 0.  1.
        -12    1    3    3    0    0 -0.96560617827E+01 -0.65190918676E+01 -0.53548895668E+01  0.12822360555E+02  0.00000000000E+00 0.  1.
</event>
<event>
 7    1  0.5068291E-011  0.5052887E+02  0.7816164E-02  0.1300439E+00
        -11   -1    0    0    0    0  0.00000000000E+00  0.00000000000E+00  0.45593999997E+02  0.45594000000E+02  0.51100000000E-03 0.  1.
         11   -1    0    0    0    0 -0.00000000000E+00 -0.00000000000E+00 -0.45593999997E+02  0.45594000000E+02  0.51100000000E-03 0. -1.
    9900012    2    1    2    0    0 -0.29333864922E+02  0.22655887041E+02 -0.16715274423E+02  0.50528865136E+02  0.30000016066E+02 0.  0.
        -12    1    1    2    0    0  0.29333864922E+02 -0.22655887041E+02  0.16715274423E+02  0.40659134864E+02  0.00000000000E+00 0.  1.
         11    1    3    3    0    0 -0.19258355191E+01  0.59844990014E+01  0.53275100938E+01  0.82404753992E+01  0.51100000000E-03 0. -1.
        -11    1    3    3    0    0 -0.32818363053E+01  0.63889844659E+01 -0.12430420888E+02  0.14356355239E+02  0.51100000000E-03 0.  1.
         12    1    3    3    0    0 -0.24126193098E+02  0.10282403574E+02 -0.96123636290E+01  0.27932034498E+02  0.00000000000E+00 0. -1.
</event>
<event>
 7    1  0.5068291E-011  0.5052887E+02  0.7816164E-02  0.1300439E+00
        -11   -1    0    0    0    0  0.00000000000E+00  0.00000000000E+00  0.45593999997E+02  0.45594000000E+02  0.51100000000E-03 0.  1.
         11   -1    0    0    0    0 -0.00000000000E+00 -0.00000000000E+00 -0.45593999997E+02  0.45594000000E+02  0.51100000000E-03 0. -1.
    9900012    2    1    2    0    0  0.36929086961E+02 -0.15049938904E+02  0.79313869950E+01  0.50528867884E+02  0.30000024420E+02 0.  0.
        -12    1    1    2    0    0 -0.36929086961E+02  0.15049938904E+02 -0.79313869950E+01  0.40659132116E+02  0.00000000000E+00 0.  1.
         11    1    3    3    0    0  0.22634015427E+02 -0.43785549428E+01 -0.69529323478E+01  0.24079320303E+02  0.51100000000E-03 0. -1.
        -11    1    3    3    0    0  0.91493670783E+01 -0.67582053880E+01  0.16256587582E+02  0.19840889548E+02  0.51100000000E-03 0.  1.
        -12    1    3    3    0    0  0.51457044552E+01 -0.39131785729E+01 -0.13722682387E+01  0.66086580334E+01  0.00000000000E+00 0.  1.
</event>
<event>
 7    1  0.5068291E-011  0.5052886E+02  0.7816164E-02  0.1300439E+00
        -11   -1    0    0    0    0  0.00000000000E+00  0.00000000000E+00  0.45593999997E+02  0.45594000000E+02  0.51100000000E-03 0.  1.
         11   -1    0    0    0    0 -0.00000000000E+00 -0.00000000000E+00 -0.45593999997E+02  0.45594000000E+02  0.51100000000E-03 0. -1.
    9900012    2    1    2    0    0  0.18931280147E+02  0.24652056201E+02 -0.26211609330E+02  0.50528859495E+02  0.29999998921E+02 0.  0.
        -12    1    1    2    0    0 -0.18931280147E+02 -0.24652056201E+02  0.26211609330E+02  0.40659140505E+02  0.00000000000E+00 0.  1.
         11    1    3    3    0    0 -0.30146833738E+00  0.41436579634E+01 -0.70916241088E+00  0.42146999967E+01  0.51100000000E-03 0. -1.
        -11    1    3    3    0    0  0.22361596399E+02  0.11934980227E+02 -0.27035872217E+02  0.37059723870E+02  0.51100000000E-03 0.  1.
        -12    1    3    3    0    0 -0.31288479144E+01  0.85734180105E+01  0.15334252978E+01  0.92544356283E+01  0.00000000000E+00 0.  1.
</event>
<event>
 7    1  0.5068291E-011  0.5052886E+02  0.7816164E-02  0.1300439E+00
        -11   -1    0    0    0    0  0.00000000000E+00  0.00000000000E+00  0.45593999997E+02  0.45594000000E+02  0.51100000000E-03 0. -1.
         11   -1    0    0    0    0 -0.00000000000E+00 -0.00000000000E+00 -0.45593999997E+02  0.45594000000E+02  0.51100000000E-03 0.  1.
    9900012    2    1    2    0    0 -0.34585457453E+02 -0.67241281690E+01 -0.20292801644E+02  0.50528861232E+02  0.30000004199E+02 0.  0.
        -12    1    1    2    0    0  0.34585457453E+02  0.67241281690E+01  0.20292801644E+02  0.40659138768E+02  0.00000000000E+00 0.  1.
         11    1    3    3    0    0 -0.27182488588E+02 -0.53243059246E+01 -0.80676199864E+01  0.28849998474E+02  0.51100000000E-03 0. -1.
        -11    1    3    3    0    0 -0.35372618034E+01  0.57272626896E+01 -0.11768926408E+02  0.13558074644E+02  0.51100000000E-03 0.  1.
        -12    1    3    3    0    0 -0.38657070608E+01 -0.71270849340E+01 -0.45625524905E+00  0.81207881137E+01  0.00000000000E+00 0.  1.
</event>
<event>
 7    1  0.5068291E-011  0.5052886E+02  0.7816164E-02  0.1300439E+00
        -11   -1    0    0    0    0  0.00000000000E+00  0.00000000000E+00  0.45593999997E+02  0.45594000000E+02  0.51100000000E-03 0. -1.
         11   -1    0    0    0    0 -0.00000000000E+00 -0.00000000000E+00 -0.45593999997E+02  0.45594000000E+02  0.51100000000E-03 0.  1.
    9900012    2    1    2    0    0 -0.99690859081E+01 -0.38824545508E+02  0.68145347436E+01  0.50528857221E+02  0.29999992008E+02 0.  0.
        -12    1    1    2    0    0  0.99690859081E+01  0.38824545508E+02 -0.68145347436E+01  0.40659142779E+02  0.00000000000E+00 0.  1.
         11    1    3    3    0    0  0.14319647746E+01 -0.11993715819E+02  0.23133917795E+01  0.12298435837E+02  0.51100000000E-03 0. -1.
        -11    1    3    3    0    0 -0.17606368824E+02 -0.10717705872E+02  0.11686261549E+01  0.20645075192E+02  0.51100000000E-03 0.  1.
        -12    1    3    3    0    0  0.62053181414E+01 -0.16113123818E+02  0.33325168092E+01  0.17585346192E+02  0.00000000000E+00 0.  1.
</event>
<event>
 7    1  0.5068291E-011  0.5052887E+02  0.7816164E-02  0.1300439E+00
        -11   -1    0    0    0    0  0.00000000000E+00  0.00000000000E+00  0.45593999997E+02  0.45594000000E+02  0.51100000000E-03 0.  1.
         11   -1    0    0    0    0 -0.00000000000E+00 -0.00000000000E+00 -0.45593999997E+02  0.45594000000E+02  0.51100000000E-03 0. -1.
    9900012    2    1    2    0    0  0.30561366343E+02  0.18096576261E+02 -0.19790945691E+02  0.50528871671E+02  0.30000035931E+02 0.  0.
        -12    1    1    2    0    0 -0.30561366343E+02 -0.18096576261E+02  0.19790945691E+02  0.40659128329E+02  0.00000000000E+00 0.  1.
         11    1    3    3    0    0  0.30407551501E+02  0.11548220961E+02 -0.14711092861E+02  0.35698695341E+02  0.51100000000E-03 0. -1.
        -11    1    3    3    0    0  0.68669777979E+00  0.10206860243E+02 -0.39222250794E+01  0.10956066799E+02  0.51100000000E-03 0.  1.
         12    1    3    3    0    0 -0.53288293704E+00 -0.36585049439E+01 -0.11576277503E+01  0.38741095309E+01  0.00000000000E+00 0. -1.
</event>
<event>
 7    1  0.5068291E-011  0.5052886E+02  0.7816164E-02  0.1300439E+00
        -11   -1    0    0    0    0  0.00000000000E+00  0.00000000000E+00  0.45593999997E+02  0.45594000000E+02  0.51100000000E-03 0.  1.
         11   -1    0    0    0    0 -0.00000000000E+00 -0.00000000000E+00 -0.45593999997E+02  0.45594000000E+02  0.51100000000E-03 0. -1.
    9900012    2    1    2    0    0 -0.73580581178E+01  0.22888658301E+02 -0.32789233557E+02  0.50528861601E+02  0.30000005322E+02 0.  0.
        -12    1    1    2    0    0  0.73580581178E+01 -0.22888658301E+02  0.32789233557E+02  0.40659138399E+02  0.00000000000E+00 0.  1.
         11    1    3    3    0    0  0.37194130598E+01 -0.16202167094E+01 -0.71628122072E+01  0.82319508424E+01  0.51100000000E-03 0. -1.
        -11    1    3    3    0    0 -0.14699372366E+02  0.24494135190E+02 -0.26037011705E+02  0.38651781142E+02  0.51100000000E-03 0.  1.
        -12    1    3    3    0    0  0.36219011887E+01  0.14739819920E-01  0.41059035424E+00  0.36451296166E+01  0.00000000000E+00 0.  1.
</event>
<event>
 7    1  0.5068291E-011  0.5052887E+02  0.7816164E-02  0.1300439E+00
        -11   -1    0    0    0    0  0.00000000000E+00  0.00000000000E+00  0.45593999997E+02  0.45594000000E+02  0.51100000000E-03 0. -1.
         11   -1    0    0    0    0 -0.00000000000E+00 -0.00000000000E+00 -0.45593999997E+02  0.45594000000E+02  0.51100000000E-03 0.  1.
    9900012    2    1    2    0    0  0.21664050610E+02 -0.20658922533E+02  0.27514415391E+02  0.50528865438E+02  0.30000016984E+02 0.  0.
        -12    1    1    2    0    0 -0.21664050610E+02  0.20658922533E+02 -0.27514415391E+02  0.40659134562E+02  0.00000000000E+00 0.  1.
         11    1    3    3    0    0  0.18738298317E+02 -0.32790848081E+01  0.25361869625E+02  0.31703322415E+02  0.51100000000E-03 0. -1.
        -11    1    3    3    0    0  0.43791656710E+01 -0.84217213752E+01 -0.26837836767E-01  0.94922707202E+01  0.51100000000E-03 0.  1.
         12    1    3    3    0    0 -0.14534133788E+01 -0.89581163499E+01  0.21793836035E+01  0.93332723028E+01  0.00000000000E+00 0. -1.
</event>
<event>
 7    1  0.5068291E-011  0.5052884E+02  0.7816164E-02  0.1300439E+00
        -11   -1    0    0    0    0  0.00000000000E+00  0.00000000000E+00  0.45593999997E+02  0.45594000000E+02  0.51100000000E-03 0. -1.
         11   -1    0    0    0    0 -0.00000000000E+00 -0.00000000000E+00 -0.45593999997E+02  0.45594000000E+02  0.51100000000E-03 0.  1.
    9900012    2    1    2    0    0 -0.26338431176E+01 -0.31536962932E+02  0.25527445210E+02  0.50528835972E+02  0.29999927419E+02 0.  0.
        -12    1    1    2    0    0  0.26338431176E+01  0.31536962932E+02 -0.25527445210E+02  0.40659164028E+02  0.00000000000E+00 0.  1.
         11    1    3    3    0    0  0.84289011539E+01 -0.30764728807E+02  0.15707288303E+02  0.35556065858E+02  0.51100000000E-03 0. -1.
        -11    1    3    3    0    0 -0.90673482397E+01 -0.14267781092E+01  0.83562828494E+01  0.12412895037E+02  0.51100000000E-03 0.  1.
         12    1    3    3    0    0 -0.19953960318E+01  0.65454398415E+00  0.14638740573E+01  0.25598750764E+01  0.00000000000E+00 0. -1.
</event>
<event>
 7    1  0.5068291E-011  0.5052886E+02  0.7816164E-02  0.1300439E+00
        -11   -1    0    0    0    0  0.00000000000E+00  0.00000000000E+00  0.45593999997E+02  0.45594000000E+02  0.51100000000E-03 0. -1.
         11   -1    0    0    0    0 -0.00000000000E+00 -0.00000000000E+00 -0.45593999997E+02  0.45594000000E+02  0.51100000000E-03 0.  1.
    9900012    2    1    2    0    0  0.22407328990E+02  0.24814871856E+02  0.23136546473E+02  0.50528855391E+02  0.29999986446E+02 0.  0.
        -12    1    1    2    0    0 -0.22407328990E+02 -0.24814871856E+02 -0.23136546473E+02  0.40659144609E+02  0.00000000000E+00 0.  1.
         11    1    3    3    0    0  0.98888730919E+00  0.21249832842E+02  0.17382667510E+02  0.27471629437E+02  0.51100000000E-03 0. -1.
        -11    1    3    3    0    0  0.18438392574E+02  0.47750702583E+01  0.42921003686E+01  0.19524285967E+02  0.51100000000E-03 0.  1.
         12    1    3    3    0    0  0.29800491069E+01 -0.12100312444E+01  0.14617785939E+01  0.35329399867E+01  0.00000000000E+00 0. -1.
</event>
<event>
 7    1  0.5068291E-011  0.5052887E+02  0.7816164E-02  0.1300439E+00
        -11   -1    0    0    0    0  0.00000000000E+00  0.00000000000E+00  0.45593999997E+02  0.45594000000E+02  0.51100000000E-03 0. -1.
         11   -1    0    0    0    0 -0.00000000000E+00 -0.00000000000E+00 -0.45593999997E+02  0.45594000000E+02  0.51100000000E-03 0.  1.
    9900012    2    1    2    0    0 -0.28207734265E+02  0.22980362889E+02 -0.18149146482E+02  0.50528869797E+02  0.30000030234E+02 0.  0.
        -12    1    1    2    0    0  0.28207734265E+02 -0.22980362889E+02  0.18149146482E+02  0.40659130203E+02  0.00000000000E+00 0.  1.
         11    1    3    3    0    0 -0.15819554871E+02  0.19067631777E+02 -0.43685054446E+01  0.25157836512E+02  0.51100000000E-03 0. -1.
        -11    1    3    3    0    0 -0.10724867137E+02 -0.37147235887E+01 -0.24500235904E+01  0.11611397948E+02  0.51100000000E-03 0.  1.
        -12    1    3    3    0    0 -0.16633122573E+01  0.76274547000E+01 -0.11330617447E+02  0.13759635337E+02  0.00000000000E+00 0.  1.
</event>
<event>
 7    1  0.5068291E-011  0.5052886E+02  0.7816164E-02  0.1300439E+00
        -11   -1    0    0    0    0  0.00000000000E+00  0.00000000000E+00  0.45593999997E+02  0.45594000000E+02  0.51100000000E-03 0.  1.
         11   -1    0    0    0    0 -0.00000000000E+00 -0.00000000000E+00 -0.45593999997E+02  0.45594000000E+02  0.51100000000E-03 0. -1.
    9900012    2    1    2    0    0 -0.18200359611E+02 -0.32543508687E+02 -0.16212125380E+02  0.50528855186E+02  0.29999985825E+02 0.  0.
        -12    1    1    2    0    0  0.18200359611E+02  0.32543508687E+02  0.16212125380E+02  0.40659144814E+02  0.00000000000E+00 0.  1.
         11    1    3    3    0    0 -0.14068856719E+02 -0.44836783218E+01 -0.50304048580E+01  0.15599393385E+02  0.51100000000E-03 0. -1.
        -11    1    3    3    0    0  0.62074932297E+01 -0.15197867611E+02 -0.73566892169E+01  0.17989692288E+02  0.51100000000E-03 0.  1.
        -12    1    3    3    0    0 -0.10338996122E+02 -0.12861962754E+02 -0.38250313048E+01  0.16939769514E+02  0.00000000000E+00 0.  1.
</event>
<event>
 7    1  0.5068291E-011  0.5052889E+02  0.7816164E-02  0.1300439E+00
        -11   -1    0    0    0    0  0.00000000000E+00  0.00000000000E+00  0.45593999997E+02  0.45594000000E+02  0.51100000000E-03 0.  1.
         11   -1    0    0    0    0 -0.00000000000E+00 -0.00000000000E+00 -0.45593999997E+02  0.45594000000E+02  0.51100000000E-03 0. -1.
    9900012    2    1    2    0    0 -0.85895130875E+01 -0.53405330783E+01 -0.39380992137E+02  0.50528885766E+02  0.30000078773E+02 0.  0.
        -12    1    1    2    0    0  0.85895130875E+01  0.53405330783E+01  0.39380992137E+02  0.40659114234E+02  0.00000000000E+00 0.  1.
         11    1    3    3    0    0  0.47365658825E+01 -0.14703792807E+01 -0.11383549373E+02  0.12417015268E+02  0.51100000000E-03 0. -1.
        -11    1    3    3    0    0 -0.16309470164E+02  0.45175325632E+01 -0.19242071082E+02  0.25625460333E+02  0.51100000000E-03 0.  1.
        -12    1    3    3    0    0  0.29833911941E+01 -0.83876863608E+01 -0.87553716821E+01  0.12486410165E+02  0.00000000000E+00 0.  1.
</event>
<event>
 7    1  0.5068291E-011  0.5052886E+02  0.7816164E-02  0.1300439E+00
        -11   -1    0    0    0    0  0.00000000000E+00  0.00000000000E+00  0.45593999997E+02  0.45594000000E+02  0.51100000000E-03 0. -1.
         11   -1    0    0    0    0 -0.00000000000E+00 -0.00000000000E+00 -0.45593999997E+02  0.45594000000E+02  0.51100000000E-03 0.  1.
    9900012    2    1    2    0    0  0.35384849102E+02 -0.54525775734E+01  0.19270374614E+02  0.50528862209E+02  0.30000007170E+02 0.  0.
        -12    1    1    2    0    0 -0.35384849102E+02  0.54525775734E+01 -0.19270374614E+02  0.40659137791E+02  0.00000000000E+00 0.  1.
         11    1    3    3    0    0  0.29292696425E+02  0.65064103223E+01  0.16182917825E+02  0.34092261126E+02  0.51100000000E-03 0. -1.
        -11    1    3    3    0    0  0.26335644327E+01 -0.45553219981E+01 -0.31712061811E+01  0.61435469423E+01  0.51100000000E-03 0.  1.
         12    1    3    3    0    0  0.34585882443E+01 -0.74036658975E+01  0.62586629698E+01  0.10293054140E+02  0.00000000000E+00 0. -1.
</event>
<event>
 7    1  0.5068291E-011  0.5052886E+02  0.7816164E-02  0.1300439E+00
        -11   -1    0    0    0    0  0.00000000000E+00  0.00000000000E+00  0.45593999997E+02  0.45594000000E+02  0.51100000000E-03 0.  1.
         11   -1    0    0    0    0 -0.00000000000E+00 -0.00000000000E+00 -0.45593999997E+02  0.45594000000E+02  0.51100000000E-03 0. -1.
    9900012    2    1    2    0    0 -0.17710876978E+02  0.34639505393E+02 -0.11815041512E+02  0.50528859538E+02  0.29999999052E+02 0.  0.
        -12    1    1    2    0    0  0.17710876978E+02 -0.34639505393E+02  0.11815041512E+02  0.40659140462E+02  0.00000000000E+00 0.  1.
         11    1    3    3    0    0 -0.82089959465E+01  0.31144685594E+01  0.20761662338E+01  0.90220837586E+01  0.51100000000E-03 0. -1.
        -11    1    3    3    0    0  0.92022551566E+00  0.26651626154E+02 -0.13743341483E+02  0.30000590444E+02  0.51100000000E-03 0.  1.
        -12    1    3    3    0    0 -0.10422106547E+02  0.48734106798E+01 -0.14786626259E+00  0.11506185335E+02  0.00000000000E+00 0.  1.
</event>
<event>
 7    1  0.5068291E-011  0.5052886E+02  0.7816164E-02  0.1300439E+00
        -11   -1    0    0    0    0  0.00000000000E+00  0.00000000000E+00  0.45593999997E+02  0.45594000000E+02  0.51100000000E-03 0.  1.
         11   -1    0    0    0    0 -0.00000000000E+00 -0.00000000000E+00 -0.45593999997E+02  0.45594000000E+02  0.51100000000E-03 0. -1.
    9900012    2    1    2    0    0 -0.26643608400E+02 -0.29476073444E+02  0.86281438058E+01  0.50528860317E+02  0.30000001418E+02 0.  0.
        -12    1    1    2    0    0  0.26643608400E+02  0.29476073444E+02 -0.86281438058E+01  0.40659139683E+02  0.00000000000E+00 0.  1.
         11    1    3    3    0    0 -0.19505716779E+02 -0.12216275982E+02  0.61031141027E+01  0.23810888013E+02  0.51100000000E-03 0. -1.
        -11    1    3    3    0    0  0.10094240424E+01 -0.59494913686E+01 -0.74425726556E+01  0.95816111608E+01  0.51100000000E-03 0.  1.
        -12    1    3    3    0    0 -0.81473156636E+01 -0.11310306093E+02  0.99676023587E+01  0.17136361143E+02  0.00000000000E+00 0.  1.
</event>
<event>
 7    1  0.5068291E-011  0.5052887E+02  0.7816164E-02  0.1300439E+00
        -11   -1    0    0    0    0  0.00000000000E+00  0.00000000000E+00  0.45593999997E+02  0.45594000000E+02  0.51100000000E-03 0.  1.
         11   -1    0    0    0    0 -0.00000000000E+00 -0.00000000000E+00 -0.45593999997E+02  0.45594000000E+02  0.51100000000E-03 0. -1.
    9900012    2    1    2    0    0  0.30706876794E+01 -0.39569926693E+02 -0.88293251844E+01  0.50528865669E+02  0.30000017688E+02 0.  0.
        -12    1    1    2    0    0 -0.30706876794E+01  0.39569926693E+02  0.88293251844E+01  0.40659134331E+02  0.00000000000E+00 0.  1.
         11    1    3    3    0    0  0.60868464094E+01 -0.42451586436E+02 -0.46238851968E+01  0.43134292677E+02  0.51100000000E-03 0. -1.
        -11    1    3    3    0    0 -0.89522665723E+00  0.17047842701E+01  0.59563650899E+00  0.20155652526E+01  0.51100000000E-03 0.  1.
         12    1    3    3    0    0 -0.21209320728E+01  0.11768754733E+01 -0.48010764966E+01  0.53790077397E+01  0.00000000000E+00 0. -1.
</event>
<event>
 7    1  0.5068291E-011  0.5052894E+02  0.7816164E-02  0.1300439E+00
        -11   -1    0    0    0    0  0.00000000000E+00  0.00000000000E+00  0.45593999997E+02  0.45594000000E+02  0.51100000000E-03 0.  1.
         11   -1    0    0    0    0 -0.00000000000E+00 -0.00000000000E+00 -0.45593999997E+02  0.45594000000E+02  0.51100000000E-03 0. -1.
    9900012    2    1    2    0    0  0.28720845530E+02 -0.13666618216E+02 -0.25327762528E+02  0.50528942263E+02  0.30000250500E+02 0.  0.
        -12    1    1    2    0    0 -0.28720845530E+02  0.13666618216E+02  0.25327762528E+02  0.40659057737E+02  0.00000000000E+00 0.  1.
         11    1    3    3    0    0  0.91391136135E+01 -0.15926861597E+02 -0.17143665305E+02  0.25121575952E+02  0.51100000000E-03 0. -1.
        -11    1    3    3    0    0  0.11061797242E+02  0.46780404059E+01 -0.10821763705E+02  0.16166570144E+02  0.51100000000E-03 0.  1.
        -12    1    3    3    0    0  0.85199346752E+01 -0.24177970250E+01  0.26376664827E+01  0.92407961669E+01  0.00000000000E+00 0.  1.
</event>
<event>
 7    1  0.5068291E-011  0.5052887E+02  0.7816164E-02  0.1300439E+00
        -11   -1    0    0    0    0  0.00000000000E+00  0.00000000000E+00  0.45593999997E+02  0.45594000000E+02  0.51100000000E-03 0.  1.
         11   -1    0    0    0    0 -0.00000000000E+00 -0.00000000000E+00 -0.45593999997E+02  0.45594000000E+02  0.51100000000E-03 0. -1.
    9900012    2    1    2    0    0 -0.23698142768E+02 -0.32313476738E+02 -0.68849454384E+01  0.50528865440E+02  0.30000016991E+02 0.  0.
        -12    1    1    2    0    0  0.23698142768E+02  0.32313476738E+02  0.68849454384E+01  0.40659134560E+02  0.00000000000E+00 0.  1.
         11    1    3    3    0    0 -0.16031050520E+02 -0.84867116589E+01 -0.71364508482E+01  0.19492249397E+02  0.51100000000E-03 0. -1.
        -11    1    3    3    0    0  0.21842020392E+01 -0.22296835367E+01  0.58652735012E+01  0.66440695908E+01  0.51100000000E-03 0.  1.
         12    1    3    3    0    0 -0.98512942864E+01 -0.21597081542E+02 -0.56137680914E+01  0.24392546452E+02  0.00000000000E+00 0. -1.
</event>
<event>
 7    1  0.5068291E-011  0.5052885E+02  0.7816164E-02  0.1300439E+00
        -11   -1    0    0    0    0  0.00000000000E+00  0.00000000000E+00  0.45593999997E+02  0.45594000000E+02  0.51100000000E-03 0.  1.
         11   -1    0    0    0    0 -0.00000000000E+00 -0.00000000000E+00 -0.45593999997E+02  0.45594000000E+02  0.51100000000E-03 0. -1.
    9900012    2    1    2    0    0 -0.14943703766E+02  0.12494827730E+01 -0.37792736445E+02  0.50528850753E+02  0.29999972350E+02 0.  0.
        -12    1    1    2    0    0  0.14943703766E+02 -0.12494827730E+01  0.37792736445E+02  0.40659149247E+02  0.00000000000E+00 0.  1.
         11    1    3    3    0    0 -0.18301210026E+01 -0.15581653886E+01 -0.26635550211E+02  0.26743779792E+02  0.51100000000E-03 0. -1.
        -11    1    3    3    0    0 -0.16349463624E+02 -0.52773810861E+00 -0.86036876010E+01  0.18482610987E+02  0.51100000000E-03 0.  1.
        -12    1    3    3    0    0  0.32358808601E+01  0.33353862702E+01 -0.25534986331E+01  0.53024599746E+01  0.00000000000E+00 0.  1.
</event>
<event>
 7    1  0.5068291E-011  0.5052886E+02  0.7816164E-02  0.1300439E+00
        -11   -1    0    0    0    0  0.00000000000E+00  0.00000000000E+00  0.45593999997E+02  0.45594000000E+02  0.51100000000E-03 0.  1.
         11   -1    0    0    0    0 -0.00000000000E+00 -0.00000000000E+00 -0.45593999997E+02  0.45594000000E+02  0.51100000000E-03 0. -1.
    9900012    2    1    2    0    0 -0.82329431493E+01 -0.38470130693E+02 -0.10268073929E+02  0.50528860183E+02  0.30000001012E+02 0.  0.
        -12    1    1    2    0    0  0.82329431493E+01  0.38470130693E+02  0.10268073929E+02  0.40659139817E+02  0.00000000000E+00 0.  1.
         11    1    3    3    0    0 -0.13605069954E+02 -0.10657633033E+02 -0.80020042831E+01  0.19045081862E+02  0.51100000000E-03 0. -1.
        -11    1    3    3    0    0  0.43889874260E+01 -0.17562418060E+02  0.51187328780E+01  0.18812314192E+02  0.51100000000E-03 0.  1.
         12    1    3    3    0    0  0.98313937853E+00 -0.10250079600E+02 -0.73848025239E+01  0.12671464129E+02  0.00000000000E+00 0. -1.
</event>
<event>
 7    1  0.5068291E-011  0.5052886E+02  0.7816164E-02  0.1300439E+00
        -11   -1    0    0    0    0  0.00000000000E+00  0.00000000000E+00  0.45593999997E+02  0.45594000000E+02  0.51100000000E-03 0.  1.
         11   -1    0    0    0    0 -0.00000000000E+00 -0.00000000000E+00 -0.45593999997E+02  0.45594000000E+02  0.51100000000E-03 0. -1.
    9900012    2    1    2    0    0 -0.18045389789E+02 -0.18326978072E+02 -0.31490502310E+02  0.50528856457E+02  0.29999989687E+02 0.  0.
        -12    1    1    2    0    0  0.18045389789E+02  0.18326978072E+02  0.31490502310E+02  0.40659143543E+02  0.00000000000E+00 0.  1.
         11    1    3    3    0    0 -0.19496456562E+02 -0.93171053369E+01 -0.17530491056E+02  0.27825139483E+02  0.51100000000E-03 0. -1.
        -11    1    3    3    0    0  0.45830791257E+01 -0.39222650099E+01 -0.15416229175E+02  0.16554422350E+02  0.51100000000E-03 0.  1.
        -12    1    3    3    0    0 -0.31320123527E+01 -0.50876077248E+01  0.14562179215E+01  0.61492946241E+01  0.00000000000E+00 0.  1.
</event>
<event>
 7    1  0.5068291E-011  0.5052886E+02  0.7816164E-02  0.1300439E+00
        -11   -1    0    0    0    0  0.00000000000E+00  0.00000000000E+00  0.45593999997E+02  0.45594000000E+02  0.51100000000E-03 0. -1.
         11   -1    0    0    0    0 -0.00000000000E+00 -0.00000000000E+00 -0.45593999997E+02  0.45594000000E+02  0.51100000000E-03 0.  1.
    9900012    2    1    2    0    0 -0.18338408605E+02 -0.55758661241E+01 -0.35857753093E+02  0.50528856255E+02  0.29999989074E+02 0.  0.
        -12    1    1    2    0    0  0.18338408605E+02  0.55758661241E+01  0.35857753093E+02  0.40659143745E+02  0.00000000000E+00 0.  1.
         11    1    3    3    0    0 -0.11366162779E+02  0.74694905108E+00 -0.37127733618E+01  0.11980495629E+02  0.51100000000E-03 0. -1.
        -11    1    3    3    0    0  0.55897297564E+01 -0.93714467325E-01 -0.17062447531E+02  0.17954970821E+02  0.51100000000E-03 0.  1.
        -12    1    3    3    0    0 -0.12561975582E+02 -0.62291007078E+01 -0.15082532200E+02  0.20593389806E+02  0.00000000000E+00 0.  1.
</event>
<event>
 7    1  0.5068291E-011  0.5052886E+02  0.7816164E-02  0.1300439E+00
        -11   -1    0    0    0    0  0.00000000000E+00  0.00000000000E+00  0.45593999997E+02  0.45594000000E+02  0.51100000000E-03 0.  1.
         11   -1    0    0    0    0 -0.00000000000E+00 -0.00000000000E+00 -0.45593999997E+02  0.45594000000E+02  0.51100000000E-03 0. -1.
    9900012    2    1    2    0    0  0.44187571590E+00 -0.40515079632E+02 -0.33910052415E+01  0.50528857752E+02  0.29999993624E+02 0.  0.
        -12    1    1    2    0    0 -0.44187571590E+00  0.40515079632E+02  0.33910052415E+01  0.40659142248E+02  0.00000000000E+00 0.  1.
         11    1    3    3    0    0  0.39829500011E+01 -0.91634504793E+01  0.91219181782E+00  0.10033185415E+02  0.51100000000E-03 0. -1.
        -11    1    3    3    0    0 -0.30569735131E+01 -0.11853342451E+02 -0.14097380111E+02  0.18670376016E+02  0.51100000000E-03 0.  1.
        -12    1    3    3    0    0 -0.48410077210E+00 -0.19498286702E+02  0.97941830516E+01  0.21825296322E+02  0.00000000000E+00 0.  1.
</event>
<event>
 7    1  0.5068291E-011  0.5052885E+02  0.7816164E-02  0.1300439E+00
        -11   -1    0    0    0    0  0.00000000000E+00  0.00000000000E+00  0.45593999997E+02  0.45594000000E+02  0.51100000000E-03 0. -1.
         11   -1    0    0    0    0 -0.00000000000E+00 -0.00000000000E+00 -0.45593999997E+02  0.45594000000E+02  0.51100000000E-03 0.  1.
    9900012    2    1    2    0    0  0.21165352191E+02 -0.13697893142E+02  0.31899242682E+02  0.50528854736E+02  0.29999984456E+02 0.  0.
        -12    1    1    2    0    0 -0.21165352191E+02  0.13697893142E+02 -0.31899242682E+02  0.40659145264E+02  0.00000000000E+00 0.  1.
         11    1    3    3    0    0  0.14504774255E+02 -0.71960524013E+00  0.17173129169E+02  0.22490501854E+02  0.51100000000E-03 0. -1.
        -11    1    3    3    0    0 -0.46781223106E+01  0.19009336438E+01  0.42339534936E+01  0.65897450268E+01  0.51100000000E-03 0.  1.
        -12    1    3    3    0    0  0.11338700246E+02 -0.14879221545E+02  0.10492160019E+02  0.21448607856E+02  0.00000000000E+00 0.  1.
</event>
<event>
 7    1  0.5068291E-011  0.5052884E+02  0.7816164E-02  0.1300439E+00
        -11   -1    0    0    0    0  0.00000000000E+00  0.00000000000E+00  0.45593999997E+02  0.45594000000E+02  0.51100000000E-03 0.  1.
         11   -1    0    0    0    0 -0.00000000000E+00 -0.00000000000E+00 -0.45593999997E+02  0.45594000000E+02  0.51100000000E-03 0. -1.
    9900012    2    1    2    0    0  0.16752258439E+01 -0.24584462920E+02 -0.32341378010E+02  0.50528844447E+02  0.29999953181E+02 0.  0.
        -12    1    1    2    0    0 -0.16752258439E+01  0.24584462920E+02  0.32341378010E+02  0.40659155553E+02  0.00000000000E+00 0.  1.
         11    1    3    3    0    0 -0.10727718441E+02 -0.13667284253E+02 -0.88646310268E+01  0.19505391186E+02  0.51100000000E-03 0. -1.
        -11    1    3    3    0    0  0.10566675178E+02 -0.30105757492E+01 -0.81497886812E+01  0.13679811638E+02  0.51100000000E-03 0.  1.
         12    1    3    3    0    0  0.18362691075E+01 -0.79066029174E+01 -0.15326958302E+02  0.17343641623E+02  0.00000000000E+00 0. -1.
</event>
<event>
 7    1  0.5068291E-011  0.5052886E+02  0.7816164E-02  0.1300439E+00
        -11   -1    0    0    0    0  0.00000000000E+00  0.00000000000E+00  0.45593999997E+02  0.45594000000E+02  0.51100000000E-03 0. -1.
         11   -1    0    0    0    0 -0.00000000000E+00 -0.00000000000E+00 -0.45593999997E+02  0.45594000000E+02  0.51100000000E-03 0.  1.
    9900012    2    1    2    0    0  0.34011713190E+02 -0.76708501324E+01  0.20917146202E+02  0.50528861038E+02  0.30000003612E+02 0.  0.
        -12    1    1    2    0    0 -0.34011713190E+02  0.76708501324E+01 -0.20917146202E+02  0.40659138962E+02  0.00000000000E+00 0.  1.
         11    1    3    3    0    0  0.29314538412E+02 -0.95176381507E+01  0.11034259645E+02  0.32736561891E+02  0.51100000000E-03 0. -1.
        -11    1    3    3    0    0  0.44309027616E+01  0.69670040042E+01  0.21808596887E+01  0.85398005433E+01  0.51100000000E-03 0.  1.
        -12    1    3    3    0    0  0.26627201583E+00 -0.51202159859E+01  0.77020268686E+01  0.92524986038E+01  0.00000000000E+00 0.  1.
</event>
<event>
 7    1  0.5068291E-011  0.5052887E+02  0.7816164E-02  0.1300439E+00
        -11   -1    0    0    0    0  0.00000000000E+00  0.00000000000E+00  0.45593999997E+02  0.45594000000E+02  0.51100000000E-03 0.  1.
         11   -1    0    0    0    0 -0.00000000000E+00 -0.00000000000E+00 -0.45593999997E+02  0.45594000000E+02  0.51100000000E-03 0. -1.
    9900012    2    1    2    0    0  0.13035670814E+01 -0.34501433374E+02 -0.21473636286E+02  0.50528865143E+02  0.30000016087E+02 0.  0.
        -12    1    1    2    0    0 -0.13035670814E+01  0.34501433374E+02  0.21473636286E+02  0.40659134857E+02  0.00000000000E+00 0.  1.
         11    1    3    3    0    0  0.65522259578E+01 -0.18105722312E+02 -0.22279911304E+02  0.29447296878E+02  0.51100000000E-03 0. -1.
        -11    1    3    3    0    0 -0.89186432375E+01 -0.83482630242E+01  0.69779212602E+00  0.12236118945E+02  0.51100000000E-03 0.  1.
         12    1    3    3    0    0  0.36699843610E+01 -0.80474480380E+01  0.10848289208E+00  0.88454493200E+01  0.00000000000E+00 0. -1.
</event>
<event>
 7    1  0.5068291E-011  0.5052886E+02  0.7816164E-02  0.1300439E+00
        -11   -1    0    0    0    0  0.00000000000E+00  0.00000000000E+00  0.45593999997E+02  0.45594000000E+02  0.51100000000E-03 0.  1.
         11   -1    0    0    0    0 -0.00000000000E+00 -0.00000000000E+00 -0.45593999997E+02  0.45594000000E+02  0.51100000000E-03 0. -1.
    9900012    2    1    2    0    0 -0.53318046656E+01  0.39662557805E+02 -0.71846473530E+01  0.50528858467E+02  0.29999995796E+02 0.  0.
        -12    1    1    2    0    0  0.53318046656E+01 -0.39662557805E+02  0.71846473530E+01  0.40659141533E+02  0.00000000000E+00 0.  1.
         11    1    3    3    0    0  0.21305116856E+01  0.34251266523E+02 -0.15023638669E+02  0.37461954802E+02  0.51100000000E-03 0. -1.
        -11    1    3    3    0    0 -0.53334412120E+01  0.21782491706E+01  0.70703614395E+01  0.91203276124E+01  0.51100000000E-03 0.  1.
        -12    1    3    3    0    0 -0.21288751391E+01  0.32330421112E+01  0.76862987634E+00  0.39465760524E+01  0.00000000000E+00 0.  1.
</event>
<event>
 7    1  0.5068291E-011  0.5052886E+02  0.7816164E-02  0.1300439E+00
        -11   -1    0    0    0    0  0.00000000000E+00  0.00000000000E+00  0.45593999997E+02  0.45594000000E+02  0.51100000000E-03 0. -1.
         11   -1    0    0    0    0 -0.00000000000E+00 -0.00000000000E+00 -0.45593999997E+02  0.45594000000E+02  0.51100000000E-03 0.  1.
    9900012    2    1    2    0    0 -0.79468352991E+01 -0.16073051783E+02  0.36492059331E+02  0.50528861063E+02  0.30000003688E+02 0.  0.
        -12    1    1    2    0    0  0.79468352991E+01  0.16073051783E+02 -0.36492059331E+02  0.40659138937E+02  0.00000000000E+00 0.  1.
         11    1    3    3    0    0  0.24810500903E+01  0.44194610365E+01  0.72217170291E+01  0.88227230781E+01  0.51100000000E-03 0. -1.
        -11    1    3    3    0    0 -0.76534836457E+01 -0.94884010866E+01  0.22458454982E+01  0.12395539091E+02  0.51100000000E-03 0.  1.
        -12    1    3    3    0    0 -0.27744017436E+01 -0.11004111733E+02  0.27024496803E+02  0.29310598894E+02  0.00000000000E+00 0.  1.
</event>
<event>
 7    1  0.5201410E-011  0.5052885E+02  0.7816164E-02  0.1300439E+00
        -11   -1    0    0    0    0  0.00000000000E+00  0.00000000000E+00  0.45593999997E+02  0.45594000000E+02  0.51100000000E-03 0. -1.
         11   -1    0    0    0    0 -0.00000000000E+00 -0.00000000000E+00 -0.45593999997E+02  0.45594000000E+02  0.51100000000E-03 0.  1.
    9900012    2    1    2    0    0  0.24587251185E+02 -0.20844163206E+01  0.32315452905E+02  0.50528853321E+02  0.29999980153E+02 0.  0.
        -12    1    1    2    0    0 -0.24587251185E+02  0.20844163206E+01 -0.32315452905E+02  0.40659146679E+02  0.00000000000E+00 0.  1.
         11    1    3    3    0    0  0.49636210463E+00  0.56684787151E+01  0.20325397547E+02  0.21106866465E+02  0.51100000000E-03 0. -1.
        -11    1    3    3    0    0  0.39702096774E+01 -0.21198551328E+01 -0.12684805905E+01  0.46760446893E+01  0.51100000000E-03 0.  1.
         12    1    3    3    0    0  0.20120679403E+02 -0.56330399029E+01  0.13258535949E+02  0.24745942166E+02  0.00000000000E+00 0. -1.
</event>
<event>
 7    1  0.5068291E-011  0.5052886E+02  0.7816164E-02  0.1300439E+00
        -11   -1    0    0    0    0  0.00000000000E+00  0.00000000000E+00  0.45593999997E+02  0.45594000000E+02  0.51100000000E-03 0.  1.
         11   -1    0    0    0    0 -0.00000000000E+00 -0.00000000000E+00 -0.45593999997E+02  0.45594000000E+02  0.51100000000E-03 0. -1.
    9900012    2    1    2    0    0 -0.19311255282E+02 -0.44280884565E+01 -0.35505400727E+02  0.50528855534E+02  0.29999986881E+02 0.  0.
        -12    1    1    2    0    0  0.19311255282E+02  0.44280884565E+01  0.35505400727E+02  0.40659144466E+02  0.00000000000E+00 0.  1.
         11    1    3    3    0    0  0.41927714664E+00 -0.41256778120E+01  0.33194620068E+01  0.53118583386E+01  0.51100000000E-03 0. -1.
        -11    1    3    3    0    0 -0.21383034837E+01 -0.17600889190E+01 -0.23279469879E+00  0.27792891941E+01  0.51100000000E-03 0.  1.
         12    1    3    3    0    0 -0.17592228945E+02  0.14576782745E+01 -0.38592068035E+02  0.42437708001E+02  0.00000000000E+00 0. -1.
</event>
<event>
 7    1  0.5068291E-011  0.5052887E+02  0.7816164E-02  0.1300439E+00
        -11   -1    0    0    0    0  0.00000000000E+00  0.00000000000E+00  0.45593999997E+02  0.45594000000E+02  0.51100000000E-03 0. -1.
         11   -1    0    0    0    0 -0.00000000000E+00 -0.00000000000E+00 -0.45593999997E+02  0.45594000000E+02  0.51100000000E-03 0.  1.
    9900012    2    1    2    0    0 -0.50140895782E+01  0.40328304632E+02  0.12850871802E+01  0.50528871900E+02  0.30000036628E+02 0.  0.
        -12    1    1    2    0    0  0.50140895782E+01 -0.40328304632E+02 -0.12850871802E+01  0.40659128100E+02  0.00000000000E+00 0.  1.
         11    1    3    3    0    0 -0.99646675232E+01  0.32978044364E+02 -0.10397907198E+01  0.34466319414E+02  0.51100000000E-03 0. -1.
        -11    1    3    3    0    0  0.49279921371E+01  0.81535447489E+01 -0.35245803161E+01  0.10158152644E+02  0.51100000000E-03 0.  1.
         12    1    3    3    0    0  0.22585807901E-01 -0.80328448140E+00  0.58494582161E+01  0.59043998424E+01  0.00000000000E+00 0. -1.
</event>
<event>
 7    1  0.5068291E-011  0.5052883E+02  0.7816164E-02  0.1300439E+00
        -11   -1    0    0    0    0  0.00000000000E+00  0.00000000000E+00  0.45593999997E+02  0.45594000000E+02  0.51100000000E-03 0. -1.
         11   -1    0    0    0    0 -0.00000000000E+00 -0.00000000000E+00 -0.45593999997E+02  0.45594000000E+02  0.51100000000E-03 0.  1.
    9900012    2    1    2    0    0 -0.38422125327E+02 -0.85736095165E+01 -0.10168654788E+02  0.50528830863E+02  0.29999911890E+02 0.  0.
        -12    1    1    2    0    0  0.38422125327E+02  0.85736095165E+01  0.10168654788E+02  0.40659169137E+02  0.00000000000E+00 0.  1.
         11    1    3    3    0    0 -0.10647379837E+02 -0.37738916543E+01 -0.17892207788E+01  0.11437231608E+02  0.51100000000E-03 0. -1.
        -11    1    3    3    0    0  0.31474533133E+01  0.48569596863E+01 -0.12081684141E+01  0.59123760817E+01  0.51100000000E-03 0.  1.
        -12    1    3    3    0    0 -0.30922198803E+02 -0.96566775486E+01 -0.71712655952E+01  0.33179223172E+02  0.00000000000E+00 0.  1.
</event>
<event>
 7    1  0.5068291E-011  0.5052886E+02  0.7816164E-02  0.1300439E+00
        -11   -1    0    0    0    0  0.00000000000E+00  0.00000000000E+00  0.45593999997E+02  0.45594000000E+02  0.51100000000E-03 0.  1.
         11   -1    0    0    0    0 -0.00000000000E+00 -0.00000000000E+00 -0.45593999997E+02  0.45594000000E+02  0.51100000000E-03 0. -1.
    9900012    2    1    2    0    0  0.32940155312E+02 -0.16825717138E+02 -0.16882146506E+02  0.50528862530E+02  0.30000008146E+02 0.  0.
        -12    1    1    2    0    0 -0.32940155312E+02  0.16825717138E+02  0.16882146506E+02  0.40659137470E+02  0.00000000000E+00 0.  1.
         11    1    3    3    0    0  0.23260599385E+02 -0.12372639476E+02 -0.75008314169E+00  0.26357168215E+02  0.51100000000E-03 0.  1.
        -11    1    3    3    0    0  0.11300144182E+02 -0.16546252898E+01 -0.17303156438E+02  0.20732348308E+02  0.51100000000E-03 0. -1.
         12    1    3    3    0    0 -0.16205882551E+01 -0.27984523722E+01  0.11710930733E+01  0.34393460073E+01  0.00000000000E+00 0. -1.
</event>
<event>
 7    1  0.5068291E-011  0.5052886E+02  0.7816164E-02  0.1300439E+00
        -11   -1    0    0    0    0  0.00000000000E+00  0.00000000000E+00  0.45593999997E+02  0.45594000000E+02  0.51100000000E-03 0. -1.
         11   -1    0    0    0    0 -0.00000000000E+00 -0.00000000000E+00 -0.45593999997E+02  0.45594000000E+02  0.51100000000E-03 0.  1.
    9900012    2    1    2    0    0 -0.28340083583E+02 -0.26785764365E+01  0.29031549714E+02  0.50528856034E+02  0.29999988401E+02 0.  0.
        -12    1    1    2    0    0  0.28340083583E+02  0.26785764365E+01 -0.29031549714E+02  0.40659143966E+02  0.00000000000E+00 0.  1.
         11    1    3    3    0    0 -0.12490176980E+02 -0.48043334045E+01  0.18619070726E+02  0.22929368404E+02  0.51100000000E-03 0. -1.
        -11    1    3    3    0    0 -0.13323165033E+02  0.10322788879E+02  0.81889500757E+01  0.18738345721E+02  0.51100000000E-03 0.  1.
        -12    1    3    3    0    0 -0.25267415705E+01 -0.81970319113E+01  0.22235289127E+01  0.88611419098E+01  0.00000000000E+00 0.  1.
</event>
<event>
 7    1  0.5068291E-011  0.5052887E+02  0.7816164E-02  0.1300439E+00
        -11   -1    0    0    0    0  0.00000000000E+00  0.00000000000E+00  0.45593999997E+02  0.45594000000E+02  0.51100000000E-03 0. -1.
         11   -1    0    0    0    0 -0.00000000000E+00 -0.00000000000E+00 -0.45593999997E+02  0.45594000000E+02  0.51100000000E-03 0.  1.
    9900012    2    1    2    0    0 -0.25331891540E+02 -0.99543268422E+01  0.30205481425E+02  0.50528874824E+02  0.30000045516E+02 0.  0.
        -12    1    1    2    0    0  0.25331891540E+02  0.99543268422E+01 -0.30205481425E+02  0.40659125176E+02  0.00000000000E+00 0.  1.
         11    1    3    3    0    0 -0.13419483894E+02  0.72905951213E+00  0.13696677371E+02  0.19188878212E+02  0.51100000000E-03 0. -1.
        -11    1    3    3    0    0 -0.46577695862E+01 -0.10691715987E+02  0.20105250062E+02  0.23242820151E+02  0.51100000000E-03 0.  1.
        -12    1    3    3    0    0 -0.72546380600E+01  0.83296328314E-02 -0.35964460074E+01  0.80971764615E+01  0.00000000000E+00 0.  1.
</event>
<event>
 7    1  0.5068291E-011  0.5052889E+02  0.7816164E-02  0.1300439E+00
        -11   -1    0    0    0    0  0.00000000000E+00  0.00000000000E+00  0.45593999997E+02  0.45594000000E+02  0.51100000000E-03 0.  1.
         11   -1    0    0    0    0 -0.00000000000E+00 -0.00000000000E+00 -0.45593999997E+02  0.45594000000E+02  0.51100000000E-03 0. -1.
    9900012    2    1    2    0    0  0.17316735348E+02 -0.35883379005E+02 -0.81041566445E+01  0.50528885808E+02  0.30000078903E+02 0.  0.
        -12    1    1    2    0    0 -0.17316735348E+02  0.35883379005E+02  0.81041566445E+01  0.40659114192E+02  0.00000000000E+00 0.  1.
         11    1    3    3    0    0  0.93614352179E+01 -0.15903583369E+00 -0.27590655922E+01  0.97608506257E+01  0.51100000000E-03 0.  1.
        -11    1    3    3    0    0  0.42863084775E+01 -0.32342606806E+02  0.10674649100E+01  0.32642857365E+02  0.51100000000E-03 0. -1.
         12    1    3    3    0    0  0.36689916527E+01 -0.33817363653E+01 -0.64125559622E+01  0.81251778172E+01  0.00000000000E+00 0. -1.
</event>
<event>
 7    1  0.5068291E-011  0.5052897E+02  0.7816164E-02  0.1300438E+00
        -11   -1    0    0    0    0  0.00000000000E+00  0.00000000000E+00  0.45593999997E+02  0.45594000000E+02  0.51100000000E-03 0.  1.
         11   -1    0    0    0    0 -0.00000000000E+00 -0.00000000000E+00 -0.45593999997E+02  0.45594000000E+02  0.51100000000E-03 0. -1.
    9900012    2    1    2    0    0  0.13694069198E+02  0.26734873768E+02 -0.27402114002E+02  0.50528968306E+02  0.30000329660E+02 0.  0.
        -12    1    1    2    0    0 -0.13694069198E+02 -0.26734873768E+02  0.27402114002E+02  0.40659031694E+02  0.00000000000E+00 0.  1.
         11    1    3    3    0    0  0.45155887326E+01  0.12335581001E+02 -0.23532029565E+02  0.26950204377E+02  0.51100000000E-03 0. -1.
        -11    1    3    3    0    0  0.76705684134E+01  0.91852401358E-01  0.21752236276E+01  0.79735597282E+01  0.51100000000E-03 0.  1.
         12    1    3    3    0    0  0.15079120519E+01  0.14307440365E+02 -0.60453080642E+01  0.15605204201E+02  0.00000000000E+00 0. -1.
</event>
<event>
 7    1  0.5068291E-011  0.5052887E+02  0.7816164E-02  0.1300439E+00
        -11   -1    0    0    0    0  0.00000000000E+00  0.00000000000E+00  0.45593999997E+02  0.45594000000E+02  0.51100000000E-03 0.  1.
         11   -1    0    0    0    0 -0.00000000000E+00 -0.00000000000E+00 -0.45593999997E+02  0.45594000000E+02  0.51100000000E-03 0. -1.
    9900012    2    1    2    0    0 -0.36350294488E+02 -0.16287284469E+02 -0.81575342284E+01  0.50528869298E+02  0.30000028718E+02 0.  0.
        -12    1    1    2    0    0  0.36350294488E+02  0.16287284469E+02  0.81575342284E+01  0.40659130702E+02  0.00000000000E+00 0.  1.
         11    1    3    3    0    0 -0.13241566039E+02 -0.56121464620E+01 -0.17360122021E+02  0.22543493427E+02  0.51100000000E-03 0. -1.
        -11    1    3    3    0    0 -0.13827755911E+02 -0.82986907677E+01  0.88565406599E+01  0.18398734052E+02  0.51100000000E-03 0.  1.
         12    1    3    3    0    0 -0.92809725386E+01 -0.23764472393E+01  0.34604713237E+00  0.95866418188E+01  0.00000000000E+00 0. -1.
</event>
<event>
 7    1  0.5068291E-011  0.5052886E+02  0.7816164E-02  0.1300439E+00
        -11   -1    0    0    0    0  0.00000000000E+00  0.00000000000E+00  0.45593999997E+02  0.45594000000E+02  0.51100000000E-03 0. -1.
         11   -1    0    0    0    0 -0.00000000000E+00 -0.00000000000E+00 -0.45593999997E+02  0.45594000000E+02  0.51100000000E-03 0.  1.
    9900012    2    1    2    0    0  0.31756907482E+01  0.38887945118E+02 -0.11437144259E+02  0.50528861347E+02  0.30000004550E+02 0.  0.
        -12    1    1    2    0    0 -0.31756907482E+01 -0.38887945118E+02  0.11437144259E+02  0.40659138653E+02  0.00000000000E+00 0.  1.
         11    1    3    3    0    0  0.64744801194E+01  0.92565453171E+01 -0.70975304248E+01  0.13340819406E+02  0.51100000000E-03 0. -1.
        -11    1    3    3    0    0 -0.58069173705E+01  0.27171923855E+02  0.40627347477E+01  0.28080946374E+02  0.51100000000E-03 0.  1.
        -12    1    3    3    0    0  0.25081279993E+01  0.24594759452E+01 -0.84023485819E+01  0.91070955676E+01  0.00000000000E+00 0.  1.
</event>
<event>
 7    1  0.5068291E-011  0.5052886E+02  0.7816164E-02  0.1300439E+00
        -11   -1    0    0    0    0  0.00000000000E+00  0.00000000000E+00  0.45593999997E+02  0.45594000000E+02  0.51100000000E-03 0.  1.
         11   -1    0    0    0    0 -0.00000000000E+00 -0.00000000000E+00 -0.45593999997E+02  0.45594000000E+02  0.51100000000E-03 0. -1.
    9900012    2    1    2    0    0 -0.72401744044E+01  0.10576553717E+02 -0.38586037966E+02  0.50528856626E+02  0.29999990201E+02 0.  0.
        -12    1    1    2    0    0  0.72401744044E+01 -0.10576553717E+02  0.38586037966E+02  0.40659143374E+02  0.00000000000E+00 0.  1.
         11    1    3    3    0    0 -0.95441843797E+01  0.36114818258E+01 -0.18339430587E+02  0.20987352643E+02  0.51100000000E-03 0. -1.
        -11    1    3    3    0    0  0.10377796414E+02  0.83198337103E+01 -0.11842916949E+02  0.17809350732E+02  0.51100000000E-03 0.  1.
        -12    1    3    3    0    0 -0.80737864391E+01 -0.13547618188E+01 -0.84036904302E+01  0.11732153251E+02  0.00000000000E+00 0.  1.
</event>
<event>
 7    1  0.5068291E-011  0.5052886E+02  0.7816164E-02  0.1300439E+00
        -11   -1    0    0    0    0  0.00000000000E+00  0.00000000000E+00  0.45593999997E+02  0.45594000000E+02  0.51100000000E-03 0. -1.
         11   -1    0    0    0    0 -0.00000000000E+00 -0.00000000000E+00 -0.45593999997E+02  0.45594000000E+02  0.51100000000E-03 0.  1.
    9900012    2    1    2    0    0 -0.30788492985E+02  0.34616102500E+01  0.26329669228E+02  0.50528861698E+02  0.30000005617E+02 0.  0.
        -12    1    1    2    0    0  0.30788492985E+02 -0.34616102500E+01 -0.26329669228E+02  0.40659138302E+02  0.00000000000E+00 0.  1.
         11    1    3    3    0    0 -0.19725165789E+02 -0.31969317465E+01  0.16753295790E+02  0.26076339047E+02  0.51100000000E-03 0. -1.
        -11    1    3    3    0    0 -0.84635291553E+01  0.12315507500E+02  0.27156362067E+01  0.15188078582E+02  0.51100000000E-03 0.  1.
        -12    1    3    3    0    0 -0.25997980402E+01 -0.56569655032E+01  0.68607372317E+01  0.92644440694E+01  0.00000000000E+00 0.  1.
</event>
<event>
 7    1  0.5068291E-011  0.5052887E+02  0.7816164E-02  0.1300439E+00
        -11   -1    0    0    0    0  0.00000000000E+00  0.00000000000E+00  0.45593999997E+02  0.45594000000E+02  0.51100000000E-03 0. -1.
         11   -1    0    0    0    0 -0.00000000000E+00 -0.00000000000E+00 -0.45593999997E+02  0.45594000000E+02  0.51100000000E-03 0.  1.
    9900012    2    1    2    0    0  0.35640322602E+02 -0.11799657348E+02  0.15610892119E+02  0.50528874807E+02  0.30000045463E+02 0.  0.
        -12    1    1    2    0    0 -0.35640322602E+02  0.11799657348E+02 -0.15610892119E+02  0.40659125193E+02  0.00000000000E+00 0.  1.
         11    1    3    3    0    0  0.11723186512E+02 -0.39131930691E+00  0.19831720556E+01  0.11896184450E+02  0.51100000000E-03 0. -1.
        -11    1    3    3    0    0 -0.20940053477E+00  0.51470418853E+01  0.68965736649E+01  0.86080553744E+01  0.51100000000E-03 0.  1.
        -12    1    3    3    0    0  0.24126536625E+02 -0.16555379926E+02  0.67311463983E+01  0.30024634983E+02  0.00000000000E+00 0.  1.
</event>
<event>
 7    1  0.5068291E-011  0.5052888E+02  0.7816164E-02  0.1300439E+00
        -11   -1    0    0    0    0  0.00000000000E+00  0.00000000000E+00  0.45593999997E+02  0.45594000000E+02  0.51100000000E-03 0. -1.
         11   -1    0    0    0    0 -0.00000000000E+00 -0.00000000000E+00 -0.45593999997E+02  0.45594000000E+02  0.51100000000E-03 0.  1.
    9900012    2    1    2    0    0  0.78166213573E+01 -0.19450827851E+02  0.34838630066E+02  0.50528875336E+02  0.30000047071E+02 0.  0.
        -12    1    1    2    0    0 -0.78166213573E+01  0.19450827851E+02 -0.34838630066E+02  0.40659124664E+02  0.00000000000E+00 0.  1.
         11    1    3    3    0    0  0.50669589322E+01 -0.62620058901E+01  0.11420813417E+02  0.13975756507E+02  0.51100000000E-03 0. -1.
        -11    1    3    3    0    0 -0.10347142842E+02 -0.46129267923E+01  0.50058354931E+01  0.12385509591E+02  0.51100000000E-03 0.  1.
        -12    1    3    3    0    0  0.13096805267E+02 -0.85758951685E+01  0.18411981156E+02  0.24167609237E+02  0.00000000000E+00 0.  1.
</event>
<event>
 7    1  0.5068291E-011  0.5052886E+02  0.7816164E-02  0.1300439E+00
        -11   -1    0    0    0    0  0.00000000000E+00  0.00000000000E+00  0.45593999997E+02  0.45594000000E+02  0.51100000000E-03 0.  1.
         11   -1    0    0    0    0 -0.00000000000E+00 -0.00000000000E+00 -0.45593999997E+02  0.45594000000E+02  0.51100000000E-03 0. -1.
    9900012    2    1    2    0    0  0.29368640403E+02  0.19476689499E+02 -0.20280716316E+02  0.50528856782E+02  0.29999990675E+02 0.  0.
        -12    1    1    2    0    0 -0.29368640403E+02 -0.19476689499E+02  0.20280716316E+02  0.40659143218E+02  0.00000000000E+00 0.  1.
         11    1    3    3    0    0 -0.26908157307E+01 -0.34190674751E+01 -0.41959302300E+00  0.43711062972E+01  0.51100000000E-03 0. -1.
        -11    1    3    3    0    0  0.10094629923E+02  0.15323479752E+02 -0.10215711859E+02  0.21001698837E+02  0.51100000000E-03 0.  1.
         12    1    3    3    0    0  0.21964826210E+02  0.75722772225E+01 -0.96454114331E+01  0.25156051648E+02  0.00000000000E+00 0. -1.
</event>
<event>
 7    1  0.5068291E-011  0.5052887E+02  0.7816164E-02  0.1300439E+00
        -11   -1    0    0    0    0  0.00000000000E+00  0.00000000000E+00  0.45593999997E+02  0.45594000000E+02  0.51100000000E-03 0.  1.
         11   -1    0    0    0    0 -0.00000000000E+00 -0.00000000000E+00 -0.45593999997E+02  0.45594000000E+02  0.51100000000E-03 0. -1.
    9900012    2    1    2    0    0 -0.21182260362E+01  0.22619762124E+02 -0.33719790998E+02  0.50528870336E+02  0.30000031873E+02 0.  0.
        -12    1    1    2    0    0  0.21182260362E+01 -0.22619762124E+02  0.33719790998E+02  0.40659129664E+02  0.00000000000E+00 0.  1.
         11    1    3    3    0    0  0.24879512378E+01  0.13787002768E+02 -0.86829436265E+00  0.14036569454E+02  0.51100000000E-03 0. -1.
        -11    1    3    3    0    0 -0.52009072924E+01  0.43271380475E+00 -0.44173700184E+01  0.68373851757E+01  0.51100000000E-03 0.  1.
         12    1    3    3    0    0  0.59473001838E+00  0.84000455520E+01 -0.28434126617E+02  0.29654915706E+02  0.00000000000E+00 0. -1.
</event>
<event>
 7    1  0.5068291E-011  0.5052886E+02  0.7816164E-02  0.1300439E+00
        -11   -1    0    0    0    0  0.00000000000E+00  0.00000000000E+00  0.45593999997E+02  0.45594000000E+02  0.51100000000E-03 0.  1.
         11   -1    0    0    0    0 -0.00000000000E+00 -0.00000000000E+00 -0.45593999997E+02  0.45594000000E+02  0.51100000000E-03 0. -1.
    9900012    2    1    2    0    0  0.29846179723E+02  0.20623101169E+02 -0.18359172065E+02  0.50528856566E+02  0.29999990018E+02 0.  0.
        -12    1    1    2    0    0 -0.29846179723E+02 -0.20623101169E+02  0.18359172065E+02  0.40659143434E+02  0.00000000000E+00 0.  1.
         11    1    3    3    0    0  0.11795030325E+02  0.31416758252E+01 -0.68135515302E+01  0.13979175658E+02  0.51100000000E-03 0. -1.
        -11    1    3    3    0    0  0.11438164790E+02  0.66381626857E+01  0.62977126683E+01  0.14647798563E+02  0.51100000000E-03 0.  1.
        -12    1    3    3    0    0  0.66129846073E+01  0.10843262658E+02 -0.17843333203E+02  0.21901882345E+02  0.00000000000E+00 0.  1.
</event>
<event>
 7    1  0.5068291E-011  0.5052886E+02  0.7816164E-02  0.1300439E+00
        -11   -1    0    0    0    0  0.00000000000E+00  0.00000000000E+00  0.45593999997E+02  0.45594000000E+02  0.51100000000E-03 0.  1.
         11   -1    0    0    0    0 -0.00000000000E+00 -0.00000000000E+00 -0.45593999997E+02  0.45594000000E+02  0.51100000000E-03 0. -1.
    9900012    2    1    2    0    0 -0.93785449125E+01  0.15319363022E+02 -0.36476376466E+02  0.50528855540E+02  0.29999986900E+02 0.  0.
        -12    1    1    2    0    0  0.93785449125E+01 -0.15319363022E+02  0.36476376466E+02  0.40659144460E+02  0.00000000000E+00 0.  1.
         11    1    3    3    0    0  0.39607205914E+01 -0.14602210360E+01 -0.21684354733E+02  0.22091419002E+02  0.51100000000E-03 0. -1.
        -11    1    3    3    0    0 -0.43194424728E+01 -0.69770420315E+00 -0.12225562415E+01  0.45430186501E+01  0.51100000000E-03 0.  1.
         12    1    3    3    0    0 -0.90198230311E+01  0.17477288261E+02 -0.13569465492E+02  0.23894417888E+02  0.00000000000E+00 0. -1.
</event>
<event>
 7    1  0.5068291E-011  0.5052886E+02  0.7816164E-02  0.1300439E+00
        -11   -1    0    0    0    0  0.00000000000E+00  0.00000000000E+00  0.45593999997E+02  0.45594000000E+02  0.51100000000E-03 0.  1.
         11   -1    0    0    0    0 -0.00000000000E+00 -0.00000000000E+00 -0.45593999997E+02  0.45594000000E+02  0.51100000000E-03 0. -1.
    9900012    2    1    2    0    0  0.86462527556E+01 -0.90605308333E+01 -0.38682232271E+02  0.50528855897E+02  0.29999987986E+02 0.  0.
        -12    1    1    2    0    0 -0.86462527556E+01  0.90605308333E+01  0.38682232271E+02  0.40659144103E+02  0.00000000000E+00 0.  1.
         11    1    3    3    0    0  0.85791546630E+01  0.14279757807E+01 -0.28495535427E+02  0.29793229920E+02  0.51100000000E-03 0. -1.
        -11    1    3    3    0    0  0.30958787656E+01 -0.80391079540E+01  0.12030390866E+01  0.86982196646E+01  0.51100000000E-03 0.  1.
        -12    1    3    3    0    0 -0.30287806731E+01 -0.24493986600E+01 -0.11389735931E+02  0.12037406313E+02  0.00000000000E+00 0.  1.
</event>
<event>
 7    1  0.5068291E-011  0.5052885E+02  0.7816164E-02  0.1300439E+00
        -11   -1    0    0    0    0  0.00000000000E+00  0.00000000000E+00  0.45593999997E+02  0.45594000000E+02  0.51100000000E-03 0. -1.
         11   -1    0    0    0    0 -0.00000000000E+00 -0.00000000000E+00 -0.45593999997E+02  0.45594000000E+02  0.51100000000E-03 0.  1.
    9900012    2    1    2    0    0  0.35436569226E+02 -0.18221259552E+02  0.80871132163E+01  0.50528854186E+02  0.29999982784E+02 0.  0.
        -12    1    1    2    0    0 -0.35436569226E+02  0.18221259552E+02 -0.80871132163E+01  0.40659145814E+02  0.00000000000E+00 0.  1.
         11    1    3    3    0    0  0.10374791183E+02 -0.87890708187E+01  0.63753361771E+01  0.15017621968E+02  0.51100000000E-03 0. -1.
        -11    1    3    3    0    0  0.12330726316E+02 -0.60388776179E+00 -0.10163569861E+02  0.15990923816E+02  0.51100000000E-03 0.  1.
        -12    1    3    3    0    0  0.12731051727E+02 -0.88283009713E+01  0.11875346900E+02  0.19520308402E+02  0.00000000000E+00 0.  1.
</event>
<event>
 7    1  0.5068291E-011  0.5052886E+02  0.7816164E-02  0.1300439E+00
        -11   -1    0    0    0    0  0.00000000000E+00  0.00000000000E+00  0.45593999997E+02  0.45594000000E+02  0.51100000000E-03 0.  1.
         11   -1    0    0    0    0 -0.00000000000E+00 -0.00000000000E+00 -0.45593999997E+02  0.45594000000E+02  0.51100000000E-03 0. -1.
    9900012    2    1    2    0    0  0.26231597721E+02  0.25395295385E+02 -0.17892673112E+02  0.50528862063E+02  0.30000006726E+02 0.  0.
        -12    1    1    2    0    0 -0.26231597721E+02 -0.25395295385E+02  0.17892673112E+02  0.40659137937E+02  0.00000000000E+00 0.  1.
         11    1    3    3    0    0 -0.49933974432E+01  0.68841472999E+01 -0.74505558413E+01  0.11306470921E+02  0.51100000000E-03 0.  1.
        -11    1    3    3    0    0  0.13542087865E+02  0.40888991198E+01 -0.43112407027E-01  0.14145992319E+02  0.51100000000E-03 0. -1.
         12    1    3    3    0    0  0.17682907300E+02  0.14422248965E+02 -0.10399004864E+02  0.25076398823E+02  0.00000000000E+00 0. -1.
</event>
<event>
 7    1  0.5068291E-011  0.5052885E+02  0.7816164E-02  0.1300439E+00
        -11   -1    0    0    0    0  0.00000000000E+00  0.00000000000E+00  0.45593999997E+02  0.45594000000E+02  0.51100000000E-03 0.  1.
         11   -1    0    0    0    0 -0.00000000000E+00 -0.00000000000E+00 -0.45593999997E+02  0.45594000000E+02  0.51100000000E-03 0. -1.
    9900012    2    1    2    0    0  0.16248421447E+02  0.36662499972E+02 -0.67094024671E+01  0.50528853609E+02  0.29999981031E+02 0.  0.
        -12    1    1    2    0    0 -0.16248421447E+02 -0.36662499972E+02  0.67094024671E+01  0.40659146391E+02  0.00000000000E+00 0.  1.
         11    1    3    3    0    0  0.42563370044E+01  0.30819788759E+02  0.44897039378E+01  0.31434586454E+02  0.51100000000E-03 0.  1.
        -11    1    3    3    0    0  0.67234745165E+01 -0.54250690605E+00 -0.73143706011E+01  0.99498462737E+01  0.51100000000E-03 0. -1.
         12    1    3    3    0    0  0.52686099264E+01  0.63852181195E+01 -0.38847358038E+01  0.91444208814E+01  0.00000000000E+00 0. -1.
</event>
<event>
 7    1  0.5068291E-011  0.5052893E+02  0.7816164E-02  0.1300439E+00
        -11   -1    0    0    0    0  0.00000000000E+00  0.00000000000E+00  0.45593999997E+02  0.45594000000E+02  0.51100000000E-03 0.  1.
         11   -1    0    0    0    0 -0.00000000000E+00 -0.00000000000E+00 -0.45593999997E+02  0.45594000000E+02  0.51100000000E-03 0. -1.
    9900012    2    1    2    0    0 -0.17392228305E+02  0.35048077768E+02 -0.11059041559E+02  0.50528932612E+02  0.30000221166E+02 0.  0.
        -12    1    1    2    0    0  0.17392228305E+02 -0.35048077768E+02  0.11059041559E+02  0.40659067388E+02  0.00000000000E+00 0.  1.
         11    1    3    3    0    0  0.22933205424E+01  0.15021653647E+02 -0.14491097963E+02  0.20997650293E+02  0.51100000000E-03 0. -1.
        -11    1    3    3    0    0  0.35546981830E+00 -0.48761966004E+00  0.32326347488E+00  0.68456647588E+00  0.51100000000E-03 0.  1.
         12    1    3    3    0    0 -0.20041018666E+02  0.20514043782E+02  0.31087929298E+01  0.28846715843E+02  0.00000000000E+00 0. -1.
</event>
<event>
 7    1  0.5068291E-011  0.5052886E+02  0.7816164E-02  0.1300439E+00
        -11   -1    0    0    0    0  0.00000000000E+00  0.00000000000E+00  0.45593999997E+02  0.45594000000E+02  0.51100000000E-03 0. -1.
         11   -1    0    0    0    0 -0.00000000000E+00 -0.00000000000E+00 -0.45593999997E+02  0.45594000000E+02  0.51100000000E-03 0.  1.
    9900012    2    1    2    0    0  0.40102738093E+02 -0.57560355463E+01 -0.34357208225E+01  0.50528859265E+02  0.29999998221E+02 0.  0.
        -12    1    1    2    0    0 -0.40102738093E+02  0.57560355463E+01  0.34357208225E+01  0.40659140735E+02  0.00000000000E+00 0.  1.
         11    1    3    3    0    0  0.13457471702E+02 -0.48223336208E+01 -0.65433003096E+01  0.15721743712E+02  0.51100000000E-03 0. -1.
        -11    1    3    3    0    0  0.13324639882E+02 -0.95803174536E+01  0.79071453569E+01  0.18216790564E+02  0.51100000000E-03 0.  1.
        -12    1    3    3    0    0  0.13320626509E+02  0.86466155281E+01 -0.47995658698E+01  0.16590324988E+02  0.00000000000E+00 0.  1.
</event>
<event>
 7    1  0.5068291E-011  0.5052886E+02  0.7816164E-02  0.1300439E+00
        -11   -1    0    0    0    0  0.00000000000E+00  0.00000000000E+00  0.45593999997E+02  0.45594000000E+02  0.51100000000E-03 0. -1.
         11   -1    0    0    0    0 -0.00000000000E+00 -0.00000000000E+00 -0.45593999997E+02  0.45594000000E+02  0.51100000000E-03 0.  1.
    9900012    2    1    2    0    0  0.10867638699E+00  0.14095280048E+02  0.38137601807E+02  0.50528863244E+02  0.30000010315E+02 0.  0.
        -12    1    1    2    0    0 -0.10867638699E+00 -0.14095280048E+02 -0.38137601807E+02  0.40659136756E+02  0.00000000000E+00 0.  1.
         11    1    3    3    0    0 -0.35004590901E+01 -0.11487874140E+01  0.91820972449E+01  0.98936260511E+01  0.51100000000E-03 0. -1.
        -11    1    3    3    0    0  0.10313541823E+02  0.53790537072E+01  0.29129704123E+01  0.11991195128E+02  0.51100000000E-03 0.  1.
        -12    1    3    3    0    0 -0.67044063460E+01  0.98650137546E+01  0.26042534150E+02  0.28644042064E+02  0.00000000000E+00 0.  1.
</event>
<event>
 7    1  0.5068291E-011  0.5052886E+02  0.7816164E-02  0.1300439E+00
        -11   -1    0    0    0    0  0.00000000000E+00  0.00000000000E+00  0.45593999997E+02  0.45594000000E+02  0.51100000000E-03 0.  1.
         11   -1    0    0    0    0 -0.00000000000E+00 -0.00000000000E+00 -0.45593999997E+02  0.45594000000E+02  0.51100000000E-03 0. -1.
    9900012    2    1    2    0    0 -0.25356762292E+02 -0.11786078267E+02 -0.29517597741E+02  0.50528860668E+02  0.30000002485E+02 0.  0.
        -12    1    1    2    0    0  0.25356762292E+02  0.11786078267E+02  0.29517597741E+02  0.40659139332E+02  0.00000000000E+00 0.  1.
         11    1    3    3    0    0 -0.96725552864E+01  0.36933282584E+00 -0.10454229800E+02  0.14247303376E+02  0.51100000000E-03 0. -1.
        -11    1    3    3    0    0 -0.12575039857E+02 -0.14556884084E+02 -0.26660165604E+01  0.19420147945E+02  0.51100000000E-03 0.  1.
        -12    1    3    3    0    0 -0.31091671488E+01  0.24014729913E+01 -0.16397351380E+02  0.16861409347E+02  0.00000000000E+00 0.  1.
</event>
<event>
 7    1  0.5068291E-011  0.5052886E+02  0.7816164E-02  0.1300439E+00
        -11   -1    0    0    0    0  0.00000000000E+00  0.00000000000E+00  0.45593999997E+02  0.45594000000E+02  0.51100000000E-03 0.  1.
         11   -1    0    0    0    0 -0.00000000000E+00 -0.00000000000E+00 -0.45593999997E+02  0.45594000000E+02  0.51100000000E-03 0. -1.
    9900012    2    1    2    0    0 -0.10428851303E+02  0.34855412088E+02 -0.18152281333E+02  0.50528855778E+02  0.29999987622E+02 0.  0.
        -12    1    1    2    0    0  0.10428851303E+02 -0.34855412088E+02  0.18152281333E+02  0.40659144222E+02  0.00000000000E+00 0.  1.
         11    1    3    3    0    0 -0.55278764061E+01  0.13870960798E+02 -0.21062088260E+00  0.14933363065E+02  0.51100000000E-03 0. -1.
        -11    1    3    3    0    0  0.19699999949E+01 -0.39237867562E+01 -0.51387264967E+01  0.67589579638E+01  0.51100000000E-03 0.  1.
        -12    1    3    3    0    0 -0.68709748919E+01  0.24908238046E+02 -0.12802933953E+02  0.28836534749E+02  0.00000000000E+00 0.  1.
</event>
<event>
 7    1  0.5068291E-011  0.5052888E+02  0.7816164E-02  0.1300439E+00
        -11   -1    0    0    0    0  0.00000000000E+00  0.00000000000E+00  0.45593999997E+02  0.45594000000E+02  0.51100000000E-03 0.  1.
         11   -1    0    0    0    0 -0.00000000000E+00 -0.00000000000E+00 -0.45593999997E+02  0.45594000000E+02  0.51100000000E-03 0. -1.
    9900012    2    1    2    0    0 -0.15087518810E+02 -0.19260618054E+01 -0.37707038799E+02  0.50528884012E+02  0.30000073444E+02 0.  0.
        -12    1    1    2    0    0  0.15087518810E+02  0.19260618054E+01  0.37707038799E+02  0.40659115988E+02  0.00000000000E+00 0.  1.
         11    1    3    3    0    0  0.39981601495E+01 -0.68464907976E+01 -0.13890691927E+02  0.15994094013E+02  0.51100000000E-03 0. -1.
        -11    1    3    3    0    0 -0.14912065644E+02  0.13623524883E+00 -0.68330870720E+01  0.16403638042E+02  0.51100000000E-03 0.  1.
         12    1    3    3    0    0 -0.41736133148E+01  0.47841937433E+01 -0.16983259800E+02  0.18131151957E+02  0.00000000000E+00 0. -1.
</event>
<event>
 7    1  0.5068291E-011  0.5052886E+02  0.7816164E-02  0.1300439E+00
        -11   -1    0    0    0    0  0.00000000000E+00  0.00000000000E+00  0.45593999997E+02  0.45594000000E+02  0.51100000000E-03 0.  1.
         11   -1    0    0    0    0 -0.00000000000E+00 -0.00000000000E+00 -0.45593999997E+02  0.45594000000E+02  0.51100000000E-03 0. -1.
    9900012    2    1    2    0    0 -0.32275222117E+02 -0.40963919123E+01 -0.24386379587E+02  0.50528857131E+02  0.29999991737E+02 0.  0.
        -12    1    1    2    0    0  0.32275222117E+02  0.40963919123E+01  0.24386379587E+02  0.40659142869E+02  0.00000000000E+00 0.  1.
         11    1    3    3    0    0 -0.18690251934E+02  0.88214444771E+01 -0.39813839512E+01  0.21047442088E+02  0.51100000000E-03 0. -1.
        -11    1    3    3    0    0 -0.42749728578E+01 -0.72029749959E+01 -0.15257189932E+02  0.17405174134E+02  0.51100000000E-03 0.  1.
         12    1    3    3    0    0 -0.93099973250E+01 -0.57148613935E+01 -0.51478057040E+01  0.12076240910E+02  0.00000000000E+00 0. -1.
</event>
<event>
 7    1  0.5068291E-011  0.5052885E+02  0.7816164E-02  0.1300439E+00
        -11   -1    0    0    0    0  0.00000000000E+00  0.00000000000E+00  0.45593999997E+02  0.45594000000E+02  0.51100000000E-03 0. -1.
         11   -1    0    0    0    0 -0.00000000000E+00 -0.00000000000E+00 -0.45593999997E+02  0.45594000000E+02  0.51100000000E-03 0.  1.
    9900012    2    1    2    0    0  0.92388106328E+01  0.29775077700E+02  0.26100870938E+02  0.50528851735E+02  0.29999975333E+02 0.  0.
        -12    1    1    2    0    0 -0.92388106328E+01 -0.29775077700E+02 -0.26100870938E+02  0.40659148265E+02  0.00000000000E+00 0.  1.
         11    1    3    3    0    0  0.86644167688E+01  0.13428763186E+02  0.11590757432E+02  0.19742073264E+02  0.51100000000E-03 0. -1.
        -11    1    3    3    0    0 -0.45444790107E+01 -0.40694766624E+01  0.30162469120E+01  0.68051947422E+01  0.51100000000E-03 0.  1.
         12    1    3    3    0    0  0.51188728747E+01  0.20415791176E+02  0.11493866595E+02  0.23981583728E+02  0.00000000000E+00 0. -1.
</event>
<event>
 7    1  0.5068291E-011  0.5052887E+02  0.7816164E-02  0.1300439E+00
        -11   -1    0    0    0    0  0.00000000000E+00  0.00000000000E+00  0.45593999997E+02  0.45594000000E+02  0.51100000000E-03 0. -1.
         11   -1    0    0    0    0 -0.00000000000E+00 -0.00000000000E+00 -0.45593999997E+02  0.45594000000E+02  0.51100000000E-03 0.  1.
    9900012    2    1    2    0    0  0.28779380604E+02  0.19804162551E+02  0.20801624839E+02  0.50528865747E+02  0.30000017924E+02 0.  0.
        -12    1    1    2    0    0 -0.28779380604E+02 -0.19804162551E+02 -0.20801624839E+02  0.40659134253E+02  0.00000000000E+00 0.  1.
         11    1    3    3    0    0  0.33817345506E+01  0.12029977612E+01  0.86703073095E+01  0.93838990450E+01  0.51100000000E-03 0. -1.
        -11    1    3    3    0    0  0.24798166499E+02  0.10332604906E+02  0.50980246871E+00  0.26869530786E+02  0.51100000000E-03 0.  1.
        -12    1    3    3    0    0  0.59947955451E+00  0.82685598830E+01  0.11621515060E+02  0.14275435915E+02  0.00000000000E+00 0.  1.
</event>
<event>
 7    1  0.5068291E-011  0.5052886E+02  0.7816164E-02  0.1300439E+00
        -11   -1    0    0    0    0  0.00000000000E+00  0.00000000000E+00  0.45593999997E+02  0.45594000000E+02  0.51100000000E-03 0.  1.
         11   -1    0    0    0    0 -0.00000000000E+00 -0.00000000000E+00 -0.45593999997E+02  0.45594000000E+02  0.51100000000E-03 0. -1.
    9900012    2    1    2    0    0  0.32621926016E+02  0.13695050956E+02  0.20035501137E+02  0.50528858549E+02  0.29999996046E+02 0.  0.
        -12    1    1    2    0    0 -0.32621926016E+02 -0.13695050956E+02 -0.20035501137E+02  0.40659141451E+02  0.00000000000E+00 0.  1.
         11    1    3    3    0    0  0.92442718391E+01 -0.91986961192E+00  0.17284971258E+02  0.19623275812E+02  0.51100000000E-03 0. -1.
        -11    1    3    3    0    0  0.69508022736E+01  0.12058579677E+01 -0.46467982213E+01  0.84475132231E+01  0.51100000000E-03 0.  1.
         12    1    3    3    0    0  0.16426851904E+02  0.13409062600E+02  0.73973281002E+01  0.22458069514E+02  0.00000000000E+00 0. -1.
</event>
<event>
 7    1  0.5068291E-011  0.5052886E+02  0.7816164E-02  0.1300439E+00
        -11   -1    0    0    0    0  0.00000000000E+00  0.00000000000E+00  0.45593999997E+02  0.45594000000E+02  0.51100000000E-03 0.  1.
         11   -1    0    0    0    0 -0.00000000000E+00 -0.00000000000E+00 -0.45593999997E+02  0.45594000000E+02  0.51100000000E-03 0. -1.
    9900012    2    1    2    0    0 -0.12189644133E+02 -0.29908642763E+02 -0.24699219862E+02  0.50528858374E+02  0.29999995512E+02 0.  0.
        -12    1    1    2    0    0  0.12189644133E+02  0.29908642763E+02  0.24699219862E+02  0.40659141626E+02  0.00000000000E+00 0.  1.
         11    1    3    3    0    0  0.45578923628E+01 -0.12962763890E+02 -0.12607982809E+02  0.18648561908E+02  0.51100000000E-03 0.  1.
        -11    1    3    3    0    0 -0.16461495450E+02 -0.16694723669E+02 -0.15722414503E+02  0.28229221543E+02  0.51100000000E-03 0. -1.
         12    1    3    3    0    0 -0.28604104619E+00 -0.25115520349E+00  0.36311774504E+01  0.36510749229E+01  0.00000000000E+00 0. -1.
</event>
<event>
 7    1  0.5068291E-011  0.5052887E+02  0.7816164E-02  0.1300439E+00
        -11   -1    0    0    0    0  0.00000000000E+00  0.00000000000E+00  0.45593999997E+02  0.45594000000E+02  0.51100000000E-03 0.  1.
         11   -1    0    0    0    0 -0.00000000000E+00 -0.00000000000E+00 -0.45593999997E+02  0.45594000000E+02  0.51100000000E-03 0. -1.
    9900012    2    1    2    0    0 -0.20883375758E+02  0.28171649735E+02 -0.20576872799E+02  0.50528869094E+02  0.30000028098E+02 0.  0.
        -12    1    1    2    0    0  0.20883375758E+02 -0.28171649735E+02  0.20576872799E+02  0.40659130906E+02  0.00000000000E+00 0.  1.
         11    1    3    3    0    0  0.85663440069E+00  0.74374529354E+01 -0.35617177796E+01  0.82906792524E+01  0.51100000000E-03 0. -1.
        -11    1    3    3    0    0 -0.21981871385E+02  0.14402102278E+02 -0.24978227835E+01  0.26398150286E+02  0.51100000000E-03 0.  1.
        -12    1    3    3    0    0  0.24186122592E+00  0.63320945214E+01 -0.14517332236E+02  0.15840039556E+02  0.00000000000E+00 0.  1.
</event>
<event>
 7    1  0.5068291E-011  0.5052886E+02  0.7816164E-02  0.1300439E+00
        -11   -1    0    0    0    0  0.00000000000E+00  0.00000000000E+00  0.45593999997E+02  0.45594000000E+02  0.51100000000E-03 0.  1.
         11   -1    0    0    0    0 -0.00000000000E+00 -0.00000000000E+00 -0.45593999997E+02  0.45594000000E+02  0.51100000000E-03 0. -1.
    9900012    2    1    2    0    0  0.31127811758E+02  0.20408320681E+02 -0.16362311721E+02  0.50528862494E+02  0.30000008038E+02 0.  0.
        -12    1    1    2    0    0 -0.31127811758E+02 -0.20408320681E+02  0.16362311721E+02  0.40659137506E+02  0.00000000000E+00 0.  1.
         11    1    3    3    0    0  0.14878801430E+01  0.12604934115E+02  0.36573875885E+00  0.12697713041E+02  0.51100000000E-03 0. -1.
        -11    1    3    3    0    0  0.17382452252E+02  0.50923493488E+01 -0.17589121483E+02  0.25247947699E+02  0.51100000000E-03 0.  1.
         12    1    3    3    0    0  0.12257479363E+02  0.27110372174E+01  0.86107100404E+00  0.12583201754E+02  0.00000000000E+00 0. -1.
</event>
<event>
 7    1  0.5068291E-011  0.5052892E+02  0.7816164E-02  0.1300439E+00
        -11   -1    0    0    0    0  0.00000000000E+00  0.00000000000E+00  0.45593999997E+02  0.45594000000E+02  0.51100000000E-03 0.  1.
         11   -1    0    0    0    0 -0.00000000000E+00 -0.00000000000E+00 -0.45593999997E+02  0.45594000000E+02  0.51100000000E-03 0. -1.
    9900012    2    1    2    0    0  0.17470249155E+02  0.17793564769E+02 -0.32114481829E+02  0.50528923574E+02  0.30000193693E+02 0.  0.
        -12    1    1    2    0    0 -0.17470249155E+02 -0.17793564769E+02  0.32114481829E+02  0.40659076426E+02  0.00000000000E+00 0.  1.
         11    1    3    3    0    0  0.22632981586E+02  0.54944381969E+01 -0.25867609080E+02  0.34807670223E+02  0.51100000000E-03 0. -1.
        -11    1    3    3    0    0 -0.13188527503E-01  0.70461157379E+01 -0.35156948176E+01  0.78745178418E+01  0.51100000000E-03 0.  1.
         12    1    3    3    0    0 -0.51495439042E+01  0.52530108347E+01 -0.27311779313E+01  0.78467355087E+01  0.00000000000E+00 0. -1.
</event>
<event>
 7    1  0.5068291E-011  0.5052886E+02  0.7816164E-02  0.1300439E+00
        -11   -1    0    0    0    0  0.00000000000E+00  0.00000000000E+00  0.45593999997E+02  0.45594000000E+02  0.51100000000E-03 0.  1.
         11   -1    0    0    0    0 -0.00000000000E+00 -0.00000000000E+00 -0.45593999997E+02  0.45594000000E+02  0.51100000000E-03 0. -1.
    9900012    2    1    2    0    0  0.23636929228E+02 -0.13609941671E+02 -0.30153457815E+02  0.50528856455E+02  0.29999989679E+02 0.  0.
        -12    1    1    2    0    0 -0.23636929228E+02  0.13609941671E+02  0.30153457815E+02  0.40659143545E+02  0.00000000000E+00 0.  1.
         11    1    3    3    0    0  0.17937118000E+02 -0.12275366382E+02 -0.10271348333E+02  0.24040079426E+02  0.51100000000E-03 0. -1.
        -11    1    3    3    0    0 -0.51547404429E+01 -0.16301576500E+01 -0.11712762205E+02  0.12900293087E+02  0.51100000000E-03 0.  1.
         12    1    3    3    0    0  0.10854551671E+02  0.29558236042E+00 -0.81693472773E+01  0.13588483942E+02  0.00000000000E+00 0. -1.
</event>
<event>
 7    1  0.5068291E-011  0.5052884E+02  0.7816164E-02  0.1300439E+00
        -11   -1    0    0    0    0  0.00000000000E+00  0.00000000000E+00  0.45593999997E+02  0.45594000000E+02  0.51100000000E-03 0.  1.
         11   -1    0    0    0    0 -0.00000000000E+00 -0.00000000000E+00 -0.45593999997E+02  0.45594000000E+02  0.51100000000E-03 0. -1.
    9900012    2    1    2    0    0 -0.38765822036E+02  0.25849430799E+01 -0.11987334200E+02  0.50528842728E+02  0.29999947955E+02 0.  0.
        -12    1    1    2    0    0  0.38765822036E+02 -0.25849430799E+01  0.11987334200E+02  0.40659157272E+02  0.00000000000E+00 0.  1.
         11    1    3    3    0    0 -0.72583544860E+01 -0.37239676210E+01 -0.14638207627E+02  0.16757946398E+02  0.51100000000E-03 0. -1.
        -11    1    3    3    0    0 -0.79895700261E+01  0.56002275429E+01  0.31017641115E+01  0.10238003643E+02  0.51100000000E-03 0.  1.
         12    1    3    3    0    0 -0.23517897524E+02  0.70868315795E+00 -0.45089068475E+00  0.23532892686E+02  0.00000000000E+00 0. -1.
</event>
<event>
 7    1  0.5068291E-011  0.5052877E+02  0.7816164E-02  0.1300439E+00
        -11   -1    0    0    0    0  0.00000000000E+00  0.00000000000E+00  0.45593999997E+02  0.45594000000E+02  0.51100000000E-03 0. -1.
         11   -1    0    0    0    0 -0.00000000000E+00 -0.00000000000E+00 -0.45593999997E+02  0.45594000000E+02  0.51100000000E-03 0.  1.
    9900012    2    1    2    0    0 -0.95526637903E+01 -0.17392994640E+02  0.35488073138E+02  0.50528770014E+02  0.29999726933E+02 0.  0.
        -12    1    1    2    0    0  0.95526637903E+01  0.17392994640E+02 -0.35488073138E+02  0.40659229986E+02  0.00000000000E+00 0.  1.
         11    1    3    3    0    0 -0.78045052127E+01 -0.11238858395E+01  0.52564400742E+01  0.94764752683E+01  0.51100000000E-03 0. -1.
        -11    1    3    3    0    0  0.57537151979E+01 -0.15697208887E+02  0.28935074566E+02  0.33417751957E+02  0.51100000000E-03 0.  1.
        -12    1    3    3    0    0 -0.75018737754E+01 -0.57189991327E+00  0.12965584973E+01  0.76345427885E+01  0.00000000000E+00 0.  1.
</event>
<event>
 7    1  0.5068291E-011  0.5052885E+02  0.7816164E-02  0.1300439E+00
        -11   -1    0    0    0    0  0.00000000000E+00  0.00000000000E+00  0.45593999997E+02  0.45594000000E+02  0.51100000000E-03 0. -1.
         11   -1    0    0    0    0 -0.00000000000E+00 -0.00000000000E+00 -0.45593999997E+02  0.45594000000E+02  0.51100000000E-03 0.  1.
    9900012    2    1    2    0    0 -0.33820784951E+02  0.22507137881E+02 -0.16581150285E+01  0.50528854710E+02  0.29999984376E+02 0.  0.
        -12    1    1    2    0    0  0.33820784951E+02 -0.22507137881E+02  0.16581150285E+01  0.40659145290E+02  0.00000000000E+00 0.  1.
         11    1    3    3    0    0 -0.11508432992E+02  0.73806297606E+01 -0.39080675031E+01  0.14219378238E+02  0.51100000000E-03 0. -1.
        -11    1    3    3    0    0  0.44169882518E+01  0.18364168343E+00  0.35342603551E+01  0.56599033563E+01  0.51100000000E-03 0.  1.
        -12    1    3    3    0    0 -0.26729340210E+02  0.14942866437E+02 -0.12843078805E+01  0.30649573116E+02  0.00000000000E+00 0.  1.
</event>
<event>
 7    1  0.5068291E-011  0.5052885E+02  0.7816164E-02  0.1300439E+00
        -11   -1    0    0    0    0  0.00000000000E+00  0.00000000000E+00  0.45593999997E+02  0.45594000000E+02  0.51100000000E-03 0.  1.
         11   -1    0    0    0    0 -0.00000000000E+00 -0.00000000000E+00 -0.45593999997E+02  0.45594000000E+02  0.51100000000E-03 0. -1.
    9900012    2    1    2    0    0 -0.37964431376E+01 -0.33752964172E+02  0.22349289369E+02  0.50528852121E+02  0.29999976508E+02 0.  0.
        -12    1    1    2    0    0  0.37964431376E+01  0.33752964172E+02 -0.22349289369E+02  0.40659147879E+02  0.00000000000E+00 0.  1.
         11    1    3    3    0    0  0.37752535551E+01 -0.26875649940E+02  0.80096746809E+01  0.28296784055E+02  0.51100000000E-03 0. -1.
        -11    1    3    3    0    0 -0.32792568586E+01  0.40585273458E+01  0.38775818319E+01  0.65008315534E+01  0.51100000000E-03 0.  1.
         12    1    3    3    0    0 -0.42924398341E+01 -0.10935841578E+02  0.10462032856E+02  0.15731236513E+02  0.00000000000E+00 0. -1.
</event>
<event>
 7    1  0.5068291E-011  0.5052886E+02  0.7816164E-02  0.1300439E+00
        -11   -1    0    0    0    0  0.00000000000E+00  0.00000000000E+00  0.45593999997E+02  0.45594000000E+02  0.51100000000E-03 0.  1.
         11   -1    0    0    0    0 -0.00000000000E+00 -0.00000000000E+00 -0.45593999997E+02  0.45594000000E+02  0.51100000000E-03 0. -1.
    9900012    2    1    2    0    0 -0.63216776444E+01 -0.40146442065E+02  0.12105370132E+01  0.50528858118E+02  0.29999994737E+02 0.  0.
        -12    1    1    2    0    0  0.63216776444E+01  0.40146442065E+02 -0.12105370132E+01  0.40659141882E+02  0.00000000000E+00 0.  1.
         11    1    3    3    0    0 -0.72430828474E+01 -0.15422472482E+02  0.92159133953E+01  0.19371318142E+02  0.51100000000E-03 0.  1.
        -11    1    3    3    0    0 -0.72422284214E+01 -0.16570468796E+02 -0.75897331050E+01  0.19612097223E+02  0.51100000000E-03 0. -1.
        -12    1    3    3    0    0  0.81636336244E+01 -0.81535007866E+01 -0.41564327715E+00  0.11545442753E+02  0.00000000000E+00 0.  1.
</event>
<event>
 7    1  0.5068291E-011  0.5052888E+02  0.7816164E-02  0.1300439E+00
        -11   -1    0    0    0    0  0.00000000000E+00  0.00000000000E+00  0.45593999997E+02  0.45594000000E+02  0.51100000000E-03 0.  1.
         11   -1    0    0    0    0 -0.00000000000E+00 -0.00000000000E+00 -0.45593999997E+02  0.45594000000E+02  0.51100000000E-03 0. -1.
    9900012    2    1    2    0    0  0.26564516807E+02 -0.48930504562E+01 -0.30389944270E+02  0.50528877916E+02  0.30000054913E+02 0.  0.
        -12    1    1    2    0    0 -0.26564516807E+02  0.48930504562E+01  0.30389944270E+02  0.40659122084E+02  0.00000000000E+00 0.  1.
         11    1    3    3    0    0 -0.60248423353E+01 -0.27187887904E+01 -0.48297477136E+01  0.81863912006E+01  0.51100000000E-03 0. -1.
        -11    1    3    3    0    0  0.18200657542E+02 -0.47672647257E+01 -0.11456911663E+02  0.22028426477E+02  0.51100000000E-03 0.  1.
         12    1    3    3    0    0  0.14388701600E+02  0.25930030599E+01 -0.14103284893E+02  0.20314060239E+02  0.00000000000E+00 0. -1.
</event>
<event>
 7    1  0.5068291E-011  0.5052884E+02  0.7816164E-02  0.1300439E+00
        -11   -1    0    0    0    0  0.00000000000E+00  0.00000000000E+00  0.45593999997E+02  0.45594000000E+02  0.51100000000E-03 0. -1.
         11   -1    0    0    0    0 -0.00000000000E+00 -0.00000000000E+00 -0.45593999997E+02  0.45594000000E+02  0.51100000000E-03 0.  1.
    9900012    2    1    2    0    0  0.62288520204E+01 -0.37698358869E+02  0.13899720861E+02  0.50528842373E+02  0.29999946877E+02 0.  0.
        -12    1    1    2    0    0 -0.62288520204E+01  0.37698358869E+02 -0.13899720861E+02  0.40659157627E+02  0.00000000000E+00 0.  1.
         11    1    3    3    0    0 -0.20155767970E+01 -0.12520261549E+02  0.41312968158E+00  0.12688190394E+02  0.51100000000E-03 0. -1.
        -11    1    3    3    0    0  0.91997448091E+01  0.49167074983E+00  0.96360753455E+00  0.92631303792E+01  0.51100000000E-03 0.  1.
        -12    1    3    3    0    0 -0.95531599174E+00 -0.25669768070E+02  0.12522983645E+02  0.28577521600E+02  0.00000000000E+00 0.  1.
</event>
<event>
 7    1  0.5068291E-011  0.5052886E+02  0.7816164E-02  0.1300439E+00
        -11   -1    0    0    0    0  0.00000000000E+00  0.00000000000E+00  0.45593999997E+02  0.45594000000E+02  0.51100000000E-03 0. -1.
         11   -1    0    0    0    0 -0.00000000000E+00 -0.00000000000E+00 -0.45593999997E+02  0.45594000000E+02  0.51100000000E-03 0.  1.
    9900012    2    1    2    0    0  0.31746652393E+02 -0.23772257699E+01 -0.25291585609E+02  0.50528862735E+02  0.30000008769E+02 0.  0.
        -12    1    1    2    0    0 -0.31746652393E+02  0.23772257699E+01  0.25291585609E+02  0.40659137265E+02  0.00000000000E+00 0.  1.
         11    1    3    3    0    0  0.33407865752E+02 -0.25346092933E+01 -0.12990857873E+02  0.35934275100E+02  0.51100000000E-03 0. -1.
        -11    1    3    3    0    0 -0.66111378938E+00 -0.34198088326E+01 -0.30639601371E+01  0.46389671132E+01  0.51100000000E-03 0.  1.
         12    1    3    3    0    0 -0.10000995703E+01  0.35771923560E+01 -0.92367675989E+01  0.99556205220E+01  0.00000000000E+00 0. -1.
</event>
<event>
 7    1  0.5068291E-011  0.5052883E+02  0.7816164E-02  0.1300439E+00
        -11   -1    0    0    0    0  0.00000000000E+00  0.00000000000E+00  0.45593999997E+02  0.45594000000E+02  0.51100000000E-03 0.  1.
         11   -1    0    0    0    0 -0.00000000000E+00 -0.00000000000E+00 -0.45593999997E+02  0.45594000000E+02  0.51100000000E-03 0. -1.
    9900012    2    1    2    0    0  0.12831934324E+02 -0.17422998827E+02 -0.34423077987E+02  0.50528834678E+02  0.29999923486E+02 0.  0.
        -12    1    1    2    0    0 -0.12831934324E+02  0.17422998827E+02  0.34423077987E+02  0.40659165322E+02  0.00000000000E+00 0.  1.
         11    1    3    3    0    0 -0.30765838411E+01 -0.47568166321E+01 -0.90351177648E+01  0.10664240521E+02  0.51100000000E-03 0. -1.
        -11    1    3    3    0    0  0.23355422523E+01 -0.81311336988E+01  0.22390428023E+01  0.87511945339E+01  0.51100000000E-03 0.  1.
         12    1    3    3    0    0  0.13572975912E+02 -0.45350484963E+01 -0.27627003024E+02  0.31113399623E+02  0.00000000000E+00 0. -1.
</event>
<event>
 7    1  0.5068291E-011  0.5052886E+02  0.7816164E-02  0.1300439E+00
        -11   -1    0    0    0    0  0.00000000000E+00  0.00000000000E+00  0.45593999997E+02  0.45594000000E+02  0.51100000000E-03 0.  1.
         11   -1    0    0    0    0 -0.00000000000E+00 -0.00000000000E+00 -0.45593999997E+02  0.45594000000E+02  0.51100000000E-03 0. -1.
    9900012    2    1    2    0    0  0.59033712950E+01 -0.22203345949E+02 -0.33545902630E+02  0.50528856536E+02  0.29999989928E+02 0.  0.
        -12    1    1    2    0    0 -0.59033712950E+01  0.22203345949E+02  0.33545902630E+02  0.40659143464E+02  0.00000000000E+00 0.  1.
         11    1    3    3    0    0  0.28372607269E+01 -0.15728971424E+02 -0.24955198107E+02  0.29634650382E+02  0.51100000000E-03 0. -1.
        -11    1    3    3    0    0 -0.41038980375E+01  0.29987756132E+01  0.15076845512E+01  0.53016740042E+01  0.51100000000E-03 0.  1.
        -12    1    3    3    0    0  0.71700086056E+01 -0.94731501382E+01 -0.10098389074E+02  0.15592532150E+02  0.00000000000E+00 0.  1.
</event>
<event>
 7    1  0.5068291E-011  0.5052886E+02  0.7816164E-02  0.1300439E+00
        -11   -1    0    0    0    0  0.00000000000E+00  0.00000000000E+00  0.45593999997E+02  0.45594000000E+02  0.51100000000E-03 0.  1.
         11   -1    0    0    0    0 -0.00000000000E+00 -0.00000000000E+00 -0.45593999997E+02  0.45594000000E+02  0.51100000000E-03 0. -1.
    9900012    2    1    2    0    0 -0.22760178535E+02  0.12304030515E+02 -0.31364804321E+02  0.50528857806E+02  0.29999993786E+02 0.  0.
        -12    1    1    2    0    0  0.22760178535E+02 -0.12304030515E+02  0.31364804321E+02  0.40659142194E+02  0.00000000000E+00 0.  1.
         11    1    3    3    0    0 -0.46187448569E+01  0.15513094304E+02 -0.16464046670E+02  0.23087956426E+02  0.51100000000E-03 0. -1.
        -11    1    3    3    0    0 -0.33436016122E+01 -0.70013448894E+01 -0.46790948879E+01  0.90604873617E+01  0.51100000000E-03 0.  1.
        -12    1    3    3    0    0 -0.14797832066E+02  0.37922810997E+01 -0.10221662764E+02  0.18380414018E+02  0.00000000000E+00 0.  1.
</event>
<event>
 7    1  0.5068291E-011  0.5052886E+02  0.7816164E-02  0.1300439E+00
        -11   -1    0    0    0    0  0.00000000000E+00  0.00000000000E+00  0.45593999997E+02  0.45594000000E+02  0.51100000000E-03 0.  1.
         11   -1    0    0    0    0 -0.00000000000E+00 -0.00000000000E+00 -0.45593999997E+02  0.45594000000E+02  0.51100000000E-03 0. -1.
    9900012    2    1    2    0    0 -0.21692556997E+02  0.23839411423E+02 -0.24784697843E+02  0.50528858183E+02  0.29999994935E+02 0.  0.
        -12    1    1    2    0    0  0.21692556997E+02 -0.23839411423E+02  0.24784697843E+02  0.40659141817E+02  0.00000000000E+00 0.  1.
         11    1    3    3    0    0 -0.11773173771E+02  0.26997305078E+02 -0.16249607333E+02  0.33637952388E+02  0.51100000000E-03 0. -1.
        -11    1    3    3    0    0 -0.62001471987E+01 -0.35256529020E+01 -0.10480704917E+02  0.12677429925E+02  0.51100000000E-03 0.  1.
         12    1    3    3    0    0 -0.37192360278E+01  0.36775924702E+00  0.19456144070E+01  0.42134758710E+01  0.00000000000E+00 0. -1.
</event>
<event>
 7    1  0.5068291E-011  0.5052886E+02  0.7816164E-02  0.1300439E+00
        -11   -1    0    0    0    0  0.00000000000E+00  0.00000000000E+00  0.45593999997E+02  0.45594000000E+02  0.51100000000E-03 0.  1.
         11   -1    0    0    0    0 -0.00000000000E+00 -0.00000000000E+00 -0.45593999997E+02  0.45594000000E+02  0.51100000000E-03 0. -1.
    9900012    2    1    2    0    0 -0.22938953848E+02 -0.28298677662E+02 -0.18059761877E+02  0.50528858837E+02  0.29999996921E+02 0.  0.
        -12    1    1    2    0    0  0.22938953848E+02  0.28298677662E+02  0.18059761877E+02  0.40659141163E+02  0.00000000000E+00 0.  1.
         11    1    3    3    0    0 -0.20791270394E+02 -0.33434426557E+02 -0.18833605988E+02  0.43644501585E+02  0.51100000000E-03 0. -1.
        -11    1    3    3    0    0 -0.12979503416E+01  0.28835858221E+01  0.24082030507E+01  0.39748187981E+01  0.51100000000E-03 0.  1.
         12    1    3    3    0    0 -0.84973311223E+00  0.22521630735E+01 -0.16343589397E+01  0.29095384540E+01  0.00000000000E+00 0. -1.
</event>
<event>
 7    1  0.5068291E-011  0.5052890E+02  0.7816164E-02  0.1300439E+00
        -11   -1    0    0    0    0  0.00000000000E+00  0.00000000000E+00  0.45593999997E+02  0.45594000000E+02  0.51100000000E-03 0. -1.
         11   -1    0    0    0    0 -0.00000000000E+00 -0.00000000000E+00 -0.45593999997E+02  0.45594000000E+02  0.51100000000E-03 0.  1.
    9900012    2    1    2    0    0 -0.18006383598E+02 -0.67945947495E+01  0.35815725222E+02  0.50528898420E+02  0.30000117237E+02 0.  0.
        -12    1    1    2    0    0  0.18006383598E+02  0.67945947495E+01 -0.35815725222E+02  0.40659101580E+02  0.00000000000E+00 0.  1.
         11    1    3    3    0    0 -0.13727944652E+02 -0.12299148968E+02  0.31801542568E+02  0.36756817595E+02  0.51100000000E-03 0. -1.
        -11    1    3    3    0    0 -0.65858313740E+01  0.75860296017E+01  0.33900063565E+01  0.10602507409E+02  0.51100000000E-03 0.  1.
         12    1    3    3    0    0  0.23073924284E+01 -0.20814753830E+01  0.62417629784E+00  0.31695734160E+01  0.00000000000E+00 0. -1.
</event>
<event>
 7    1  0.5068291E-011  0.5052885E+02  0.7816164E-02  0.1300439E+00
        -11   -1    0    0    0    0  0.00000000000E+00  0.00000000000E+00  0.45593999997E+02  0.45594000000E+02  0.51100000000E-03 0. -1.
         11   -1    0    0    0    0 -0.00000000000E+00 -0.00000000000E+00 -0.45593999997E+02  0.45594000000E+02  0.51100000000E-03 0.  1.
    9900012    2    1    2    0    0  0.21239156751E+02 -0.74316219689E+01  0.33864963097E+02  0.50528849613E+02  0.29999968885E+02 0.  0.
        -12    1    1    2    0    0 -0.21239156751E+02  0.74316219689E+01 -0.33864963097E+02  0.40659150387E+02  0.00000000000E+00 0.  1.
         11    1    3    3    0    0  0.16383233510E+02  0.24706941483E+01  0.22326447829E+02  0.27802606762E+02  0.51100000000E-03 0. -1.
        -11    1    3    3    0    0 -0.45796175977E+01 -0.83504354528E+01  0.82923014798E+01  0.12627942575E+02  0.51100000000E-03 0.  1.
        -12    1    3    3    0    0  0.94355408384E+01 -0.15518806644E+01  0.32462137883E+01  0.10098300276E+02  0.00000000000E+00 0.  1.
</event>
<event>
 7    1  0.5068291E-011  0.5052886E+02  0.7816164E-02  0.1300439E+00
        -11   -1    0    0    0    0  0.00000000000E+00  0.00000000000E+00  0.45593999997E+02  0.45594000000E+02  0.51100000000E-03 0.  1.
         11   -1    0    0    0    0 -0.00000000000E+00 -0.00000000000E+00 -0.45593999997E+02  0.45594000000E+02  0.51100000000E-03 0. -1.
    9900012    2    1    2    0    0 -0.22647318540E+02 -0.30268410756E+02 -0.14969570068E+02  0.50528858903E+02  0.29999997120E+02 0.  0.
        -12    1    1    2    0    0  0.22647318540E+02  0.30268410756E+02  0.14969570068E+02  0.40659141097E+02  0.00000000000E+00 0.  1.
         11    1    3    3    0    0 -0.72881969782E+01  0.28595711198E+01  0.27496741448E+01  0.82979316909E+01  0.51100000000E-03 0. -1.
        -11    1    3    3    0    0 -0.35962332574E+00 -0.61894819018E+01 -0.75388772976E+01  0.97608240594E+01  0.51100000000E-03 0.  1.
         12    1    3    3    0    0 -0.14999498236E+02 -0.26938499974E+02 -0.10180366916E+02  0.32470103152E+02  0.00000000000E+00 0. -1.
</event>
<event>
 7    1  0.5068291E-011  0.5052886E+02  0.7816164E-02  0.1300439E+00
        -11   -1    0    0    0    0  0.00000000000E+00  0.00000000000E+00  0.45593999997E+02  0.45594000000E+02  0.51100000000E-03 0. -1.
         11   -1    0    0    0    0 -0.00000000000E+00 -0.00000000000E+00 -0.45593999997E+02  0.45594000000E+02  0.51100000000E-03 0.  1.
    9900012    2    1    2    0    0  0.30634410784E+02 -0.27800925015E+01  0.26588901724E+02  0.50528859167E+02  0.29999997923E+02 0.  0.
        -12    1    1    2    0    0 -0.30634410784E+02  0.27800925015E+01 -0.26588901724E+02  0.40659140833E+02  0.00000000000E+00 0.  1.
         11    1    3    3    0    0  0.23136182388E+01 -0.56944467589E+01  0.16269822602E+02  0.17392144232E+02  0.51100000000E-03 0. -1.
        -11    1    3    3    0    0  0.81880267665E+01  0.53586575298E+01 -0.11248674657E+01  0.98500923816E+01  0.51100000000E-03 0.  1.
        -12    1    3    3    0    0  0.20132765779E+02 -0.24443032724E+01  0.11443946588E+02  0.23286622553E+02  0.00000000000E+00 0.  1.
</event>
<event>
 7    1  0.5068291E-011  0.5052886E+02  0.7816164E-02  0.1300439E+00
        -11   -1    0    0    0    0  0.00000000000E+00  0.00000000000E+00  0.45593999997E+02  0.45594000000E+02  0.51100000000E-03 0. -1.
         11   -1    0    0    0    0 -0.00000000000E+00 -0.00000000000E+00 -0.45593999997E+02  0.45594000000E+02  0.51100000000E-03 0.  1.
    9900012    2    1    2    0    0 -0.27304423539E+02  0.60953518347E+01  0.29503909182E+02  0.50528861841E+02  0.30000006053E+02 0.  0.
        -12    1    1    2    0    0  0.27304423539E+02 -0.60953518347E+01 -0.29503909182E+02  0.40659138159E+02  0.00000000000E+00 0.  1.
         11    1    3    3    0    0 -0.32217827694E+02  0.32768769164E+01  0.20579864246E+02  0.38370003340E+02  0.51100000000E-03 0. -1.
        -11    1    3    3    0    0  0.46020557653E+01 -0.64525051913E+00  0.61614634917E+01  0.77174411640E+01  0.51100000000E-03 0.  1.
         12    1    3    3    0    0  0.31134839029E+00  0.34637254373E+01  0.27625814447E+01  0.44414173373E+01  0.00000000000E+00 0. -1.
</event>
<event>
 7    1  0.5068291E-011  0.5052886E+02  0.7816164E-02  0.1300439E+00
        -11   -1    0    0    0    0  0.00000000000E+00  0.00000000000E+00  0.45593999997E+02  0.45594000000E+02  0.51100000000E-03 0.  1.
         11   -1    0    0    0    0 -0.00000000000E+00 -0.00000000000E+00 -0.45593999997E+02  0.45594000000E+02  0.51100000000E-03 0. -1.
    9900012    2    1    2    0    0  0.37128052386E+02  0.67458653425E+01 -0.15138257941E+02  0.50528858018E+02  0.29999994432E+02 0.  0.
        -12    1    1    2    0    0 -0.37128052386E+02 -0.67458653425E+01  0.15138257941E+02  0.40659141982E+02  0.00000000000E+00 0.  1.
         11    1    3    3    0    0  0.23031643943E+02 -0.27205324114E+01 -0.39101484748E+01  0.23519081204E+02  0.51100000000E-03 0. -1.
        -11    1    3    3    0    0  0.11121489969E+02  0.12480028183E+02 -0.19736932674E+01  0.16832531240E+02  0.51100000000E-03 0.  1.
         12    1    3    3    0    0  0.29749184747E+01 -0.30136304292E+01 -0.92544161989E+01  0.10177245574E+02  0.00000000000E+00 0. -1.
</event>
<event>
 7    1  0.5068291E-011  0.5052886E+02  0.7816164E-02  0.1300439E+00
        -11   -1    0    0    0    0  0.00000000000E+00  0.00000000000E+00  0.45593999997E+02  0.45594000000E+02  0.51100000000E-03 0. -1.
         11   -1    0    0    0    0 -0.00000000000E+00 -0.00000000000E+00 -0.45593999997E+02  0.45594000000E+02  0.51100000000E-03 0.  1.
    9900012    2    1    2    0    0  0.13010664929E+02 -0.11901285092E+02  0.36636697234E+02  0.50528861139E+02  0.30000003918E+02 0.  0.
        -12    1    1    2    0    0 -0.13010664929E+02  0.11901285092E+02 -0.36636697234E+02  0.40659138861E+02  0.00000000000E+00 0.  1.
         11    1    3    3    0    0 -0.72645761000E+01 -0.97564016469E+01  0.16651004011E+02  0.20620799544E+02  0.51100000000E-03 0. -1.
        -11    1    3    3    0    0  0.32534571348E+01  0.12508371908E+01  0.64817265046E-01  0.34862269784E+01  0.51100000000E-03 0.  1.
         12    1    3    3    0    0  0.17021783894E+02 -0.33957206355E+01  0.19920875957E+02  0.26421834616E+02  0.00000000000E+00 0. -1.
</event>
<event>
 7    1  0.5068291E-011  0.5052883E+02  0.7816164E-02  0.1300439E+00
        -11   -1    0    0    0    0  0.00000000000E+00  0.00000000000E+00  0.45593999997E+02  0.45594000000E+02  0.51100000000E-03 0.  1.
         11   -1    0    0    0    0 -0.00000000000E+00 -0.00000000000E+00 -0.45593999997E+02  0.45594000000E+02  0.51100000000E-03 0. -1.
    9900012    2    1    2    0    0 -0.26974928152E+02 -0.10834997493E+02 -0.28427518093E+02  0.50528834927E+02  0.29999924243E+02 0.  0.
        -12    1    1    2    0    0  0.26974928152E+02  0.10834997493E+02  0.28427518093E+02  0.40659165073E+02  0.00000000000E+00 0.  1.
         11    1    3    3    0    0 -0.16830873199E+02 -0.10910155130E+02 -0.13751490180E+02  0.24318989699E+02  0.51100000000E-03 0. -1.
        -11    1    3    3    0    0 -0.55783596361E+01  0.93918953632E+01 -0.49655643771E+01  0.11999276003E+02  0.51100000000E-03 0.  1.
        -12    1    3    3    0    0 -0.45656953178E+01 -0.93167377263E+01 -0.97104635367E+01  0.14210569225E+02  0.00000000000E+00 0.  1.
</event>
<event>
 7    1  0.5068291E-011  0.5052885E+02  0.7816164E-02  0.1300439E+00
        -11   -1    0    0    0    0  0.00000000000E+00  0.00000000000E+00  0.45593999997E+02  0.45594000000E+02  0.51100000000E-03 0.  1.
         11   -1    0    0    0    0 -0.00000000000E+00 -0.00000000000E+00 -0.45593999997E+02  0.45594000000E+02  0.51100000000E-03 0. -1.
    9900012    2    1    2    0    0 -0.10057610549E+02 -0.59893176121E+01 -0.38937628700E+02  0.50528851162E+02  0.29999973592E+02 0.  0.
        -12    1    1    2    0    0  0.10057610549E+02  0.59893176121E+01  0.38937628700E+02  0.40659148838E+02  0.00000000000E+00 0.  1.
         11    1    3    3    0    0  0.20773797752E+01 -0.38954688006E+01 -0.32888337863E+02  0.33183323396E+02  0.51100000000E-03 0. -1.
        -11    1    3    3    0    0 -0.67376445125E+01  0.42059342539E+01 -0.33685001650E+01  0.86274289419E+01  0.51100000000E-03 0.  1.
         12    1    3    3    0    0 -0.53973458121E+01 -0.62997830655E+01 -0.26807906721E+01  0.87180988246E+01  0.00000000000E+00 0. -1.
</event>
<event>
 7    1  0.5068291E-011  0.5052887E+02  0.7816164E-02  0.1300439E+00
        -11   -1    0    0    0    0  0.00000000000E+00  0.00000000000E+00  0.45593999997E+02  0.45594000000E+02  0.51100000000E-03 0.  1.
         11   -1    0    0    0    0 -0.00000000000E+00 -0.00000000000E+00 -0.45593999997E+02  0.45594000000E+02  0.51100000000E-03 0. -1.
    9900012    2    1    2    0    0 -0.32432845315E+02 -0.17227037942E+02 -0.17450061559E+02  0.50528868924E+02  0.30000027580E+02 0.  0.
        -12    1    1    2    0    0  0.32432845315E+02  0.17227037942E+02  0.17450061559E+02  0.40659131076E+02  0.00000000000E+00 0.  1.
         11    1    3    3    0    0 -0.62781432261E+01 -0.18824056294E+02 -0.27272625167E+01  0.20029931074E+02  0.51100000000E-03 0. -1.
        -11    1    3    3    0    0 -0.16094306986E+02  0.20997055791E+01 -0.11611217907E+02  0.19956348925E+02  0.51100000000E-03 0.  1.
         12    1    3    3    0    0 -0.10060395103E+02 -0.50268722701E+00 -0.31115811360E+01  0.10542588925E+02  0.00000000000E+00 0. -1.
</event>
<event>
 7    1  0.5068291E-011  0.5052886E+02  0.7816164E-02  0.1300439E+00
        -11   -1    0    0    0    0  0.00000000000E+00  0.00000000000E+00  0.45593999997E+02  0.45594000000E+02  0.51100000000E-03 0.  1.
         11   -1    0    0    0    0 -0.00000000000E+00 -0.00000000000E+00 -0.45593999997E+02  0.45594000000E+02  0.51100000000E-03 0. -1.
    9900012    2    1    2    0    0 -0.93995120742E+01  0.35527124130E+02 -0.17396510373E+02  0.50528856510E+02  0.29999989848E+02 0.  0.
        -12    1    1    2    0    0  0.93995120742E+01 -0.35527124130E+02  0.17396510373E+02  0.40659143490E+02  0.00000000000E+00 0.  1.
         11    1    3    3    0    0 -0.16499621582E+02  0.25992306351E+02 -0.51029243108E+01  0.31207007844E+02  0.51100000000E-03 0. -1.
        -11    1    3    3    0    0 -0.13665375813E+01  0.25830623605E+01 -0.91609837572E-01  0.29237012061E+01  0.51100000000E-03 0.  1.
         12    1    3    3    0    0  0.84666470890E+01  0.69517554189E+01 -0.12201976225E+02  0.16398147460E+02  0.00000000000E+00 0. -1.
</event>
<event>
 7    1  0.5068291E-011  0.5052886E+02  0.7816164E-02  0.1300439E+00
        -11   -1    0    0    0    0  0.00000000000E+00  0.00000000000E+00  0.45593999997E+02  0.45594000000E+02  0.51100000000E-03 0.  1.
         11   -1    0    0    0    0 -0.00000000000E+00 -0.00000000000E+00 -0.45593999997E+02  0.45594000000E+02  0.51100000000E-03 0. -1.
    9900012    2    1    2    0    0  0.86107132047E+01  0.39642986960E+02  0.27303894667E+01  0.50528858056E+02  0.29999994547E+02 0.  0.
        -12    1    1    2    0    0 -0.86107132047E+01 -0.39642986960E+02 -0.27303894667E+01  0.40659141944E+02  0.00000000000E+00 0.  1.
         11    1    3    3    0    0  0.15064682709E+02  0.10885347944E+02  0.65304234836E+00  0.18597363511E+02  0.51100000000E-03 0. -1.
        -11    1    3    3    0    0 -0.76321901332E+01  0.90999786160E+01 -0.13116521405E+01  0.11949073966E+02  0.51100000000E-03 0.  1.
         12    1    3    3    0    0  0.11782206291E+01  0.19657660400E+02  0.33889992589E+01  0.19982420580E+02  0.00000000000E+00 0. -1.
</event>
<event>
 7    1  0.5068291E-011  0.5052886E+02  0.7816164E-02  0.1300439E+00
        -11   -1    0    0    0    0  0.00000000000E+00  0.00000000000E+00  0.45593999997E+02  0.45594000000E+02  0.51100000000E-03 0. -1.
         11   -1    0    0    0    0 -0.00000000000E+00 -0.00000000000E+00 -0.45593999997E+02  0.45594000000E+02  0.51100000000E-03 0.  1.
    9900012    2    1    2    0    0 -0.34404550921E+02  0.41297682362E+01  0.21270584387E+02  0.50528857487E+02  0.29999992816E+02 0.  0.
        -12    1    1    2    0    0  0.34404550921E+02 -0.41297682362E+01 -0.21270584387E+02  0.40659142513E+02  0.00000000000E+00 0.  1.
         11    1    3    3    0    0 -0.19660780562E+02 -0.44924206288E+01  0.18003079095E+02  0.27034033968E+02  0.51100000000E-03 0. -1.
        -11    1    3    3    0    0 -0.12475652243E+02  0.11829351395E+02  0.65278682234E+01  0.18389902586E+02  0.51100000000E-03 0.  1.
         12    1    3    3    0    0 -0.22681181152E+01 -0.32071625299E+01 -0.32603629315E+01  0.51049209321E+01  0.00000000000E+00 0. -1.
</event>
<event>
 7    1  0.5068291E-011  0.5052886E+02  0.7816164E-02  0.1300439E+00
        -11   -1    0    0    0    0  0.00000000000E+00  0.00000000000E+00  0.45593999997E+02  0.45594000000E+02  0.51100000000E-03 0.  1.
         11   -1    0    0    0    0 -0.00000000000E+00 -0.00000000000E+00 -0.45593999997E+02  0.45594000000E+02  0.51100000000E-03 0. -1.
    9900012    2    1    2    0    0  0.12261530921E+02  0.10205841630E+02 -0.37398679765E+02  0.50528860903E+02  0.30000003202E+02 0.  0.
        -12    1    1    2    0    0 -0.12261530921E+02 -0.10205841630E+02  0.37398679765E+02  0.40659139097E+02  0.00000000000E+00 0.  1.
         11    1    3    3    0    0  0.75730004701E+01 -0.22241223360E+00 -0.16959849222E+02  0.18575152469E+02  0.51100000000E-03 0. -1.
        -11    1    3    3    0    0  0.19784720274E+00 -0.49669608036E+01  0.11090750853E+01  0.50931219253E+01  0.51100000000E-03 0.  1.
        -12    1    3    3    0    0  0.44906832479E+01  0.15395214667E+02 -0.21547905628E+02  0.26860586509E+02  0.00000000000E+00 0.  1.
</event>
<event>
 7    1  0.5068291E-011  0.5052886E+02  0.7816164E-02  0.1300439E+00
        -11   -1    0    0    0    0  0.00000000000E+00  0.00000000000E+00  0.45593999997E+02  0.45594000000E+02  0.51100000000E-03 0.  1.
         11   -1    0    0    0    0 -0.00000000000E+00 -0.00000000000E+00 -0.45593999997E+02  0.45594000000E+02  0.51100000000E-03 0. -1.
    9900012    2    1    2    0    0  0.53251369647E+01 -0.52672743047E+01 -0.39963289514E+02  0.50528858703E+02  0.29999996512E+02 0.  0.
        -12    1    1    2    0    0 -0.53251369647E+01  0.52672743047E+01  0.39963289514E+02  0.40659141297E+02  0.00000000000E+00 0.  1.
         11    1    3    3    0    0  0.92351673086E+01 -0.27574235245E+01 -0.17788175439E+02  0.20231433104E+02  0.51100000000E-03 0. -1.
        -11    1    3    3    0    0 -0.11171150621E+02  0.28983644764E+01 -0.13462732672E+02  0.17732464411E+02  0.51100000000E-03 0.  1.
        -12    1    3    3    0    0  0.72611202773E+01 -0.54082152566E+01 -0.87123814026E+01  0.12564961188E+02  0.00000000000E+00 0.  1.
</event>
<event>
 7    1  0.5068291E-011  0.5052886E+02  0.7816164E-02  0.1300439E+00
        -11   -1    0    0    0    0  0.00000000000E+00  0.00000000000E+00  0.45593999997E+02  0.45594000000E+02  0.51100000000E-03 0.  1.
         11   -1    0    0    0    0 -0.00000000000E+00 -0.00000000000E+00 -0.45593999997E+02  0.45594000000E+02  0.51100000000E-03 0. -1.
    9900012    2    1    2    0    0 -0.14008845870E+02 -0.22290225095E+02 -0.30984894358E+02  0.50528861104E+02  0.30000003812E+02 0.  0.
        -12    1    1    2    0    0  0.14008845870E+02  0.22290225095E+02  0.30984894358E+02  0.40659138896E+02  0.00000000000E+00 0.  1.
         11    1    3    3    0    0 -0.98221075734E+01 -0.58590090057E+01 -0.23508502882E+02  0.26142905189E+02  0.51100000000E-03 0. -1.
        -11    1    3    3    0    0  0.33507328696E+00 -0.62185759701E+01  0.47453492504E+01  0.78295147342E+01  0.51100000000E-03 0.  1.
        -12    1    3    3    0    0 -0.45218115840E+01 -0.10212640119E+02 -0.12221740726E+02  0.16556441181E+02  0.00000000000E+00 0.  1.
</event>
<event>
 7    1  0.5068291E-011  0.5052886E+02  0.7816164E-02  0.1300439E+00
        -11   -1    0    0    0    0  0.00000000000E+00  0.00000000000E+00  0.45593999997E+02  0.45594000000E+02  0.51100000000E-03 0. -1.
         11   -1    0    0    0    0 -0.00000000000E+00 -0.00000000000E+00 -0.45593999997E+02  0.45594000000E+02  0.51100000000E-03 0.  1.
    9900012    2    1    2    0    0  0.23605427761E+01  0.21189327501E+02  0.34620888880E+02  0.50528859466E+02  0.29999998832E+02 0.  0.
        -12    1    1    2    0    0 -0.23605427761E+01 -0.21189327501E+02 -0.34620888880E+02  0.40659140534E+02  0.00000000000E+00 0.  1.
         11    1    3    3    0    0 -0.69984228925E+00  0.24546414161E+02  0.16885176843E+02  0.29801433265E+02  0.51100000000E-03 0. -1.
        -11    1    3    3    0    0  0.10648375696E+00  0.29709140125E+01  0.22127695551E+01  0.37059436349E+01  0.51100000000E-03 0.  1.
         12    1    3    3    0    0  0.29539013084E+01 -0.63280006722E+01  0.15522942482E+02  0.17021482566E+02  0.00000000000E+00 0. -1.
</event>
<event>
 7    1  0.5068291E-011  0.5052886E+02  0.7816164E-02  0.1300439E+00
        -11   -1    0    0    0    0  0.00000000000E+00  0.00000000000E+00  0.45593999997E+02  0.45594000000E+02  0.51100000000E-03 0. -1.
         11   -1    0    0    0    0 -0.00000000000E+00 -0.00000000000E+00 -0.45593999997E+02  0.45594000000E+02  0.51100000000E-03 0.  1.
    9900012    2    1    2    0    0  0.11706919506E+02  0.38835149379E+02  0.28186959452E+01  0.50528857874E+02  0.29999993995E+02 0.  0.
        -12    1    1    2    0    0 -0.11706919506E+02 -0.38835149379E+02 -0.28186959452E+01  0.40659142126E+02  0.00000000000E+00 0.  1.
         11    1    3    3    0    0 -0.54306917709E+01  0.11357825519E+02  0.55942181057E+01  0.13776352569E+02  0.51100000000E-03 0. -1.
        -11    1    3    3    0    0  0.97382324762E+01  0.15162803345E+02 -0.10066589130E+02  0.20641705210E+02  0.51100000000E-03 0.  1.
        -12    1    3    3    0    0  0.73993788003E+01  0.12314520515E+02  0.72910669693E+01  0.16110800095E+02  0.00000000000E+00 0.  1.
</event>
<event>
 7    1  0.5068291E-011  0.5052886E+02  0.7816164E-02  0.1300439E+00
        -11   -1    0    0    0    0  0.00000000000E+00  0.00000000000E+00  0.45593999997E+02  0.45594000000E+02  0.51100000000E-03 0.  1.
         11   -1    0    0    0    0 -0.00000000000E+00 -0.00000000000E+00 -0.45593999997E+02  0.45594000000E+02  0.51100000000E-03 0. -1.
    9900012    2    1    2    0    0 -0.30909053692E+02 -0.11564877302E+02 -0.23749725791E+02  0.50528862499E+02  0.30000008052E+02 0.  0.
        -12    1    1    2    0    0  0.30909053692E+02  0.11564877302E+02  0.23749725791E+02  0.40659137501E+02  0.00000000000E+00 0.  1.
         11    1    3    3    0    0 -0.93758857124E+01 -0.74155003942E+01  0.26584243738E+01  0.12245982990E+02  0.51100000000E-03 0. -1.
        -11    1    3    3    0    0 -0.36647146725E+01  0.56849453151E+01 -0.10162892924E+02  0.12207912586E+02  0.51100000000E-03 0.  1.
        -12    1    3    3    0    0 -0.17868453307E+02 -0.98343222233E+01 -0.16245257241E+02  0.26074966922E+02  0.00000000000E+00 0.  1.
</event>
<event>
 7    1  0.5068291E-011  0.5052886E+02  0.7816164E-02  0.1300439E+00
        -11   -1    0    0    0    0  0.00000000000E+00  0.00000000000E+00  0.45593999997E+02  0.45594000000E+02  0.51100000000E-03 0. -1.
         11   -1    0    0    0    0 -0.00000000000E+00 -0.00000000000E+00 -0.45593999997E+02  0.45594000000E+02  0.51100000000E-03 0.  1.
    9900012    2    1    2    0    0  0.15977916217E+02 -0.34379297079E+02  0.14694764091E+02  0.50528856305E+02  0.29999989226E+02 0.  0.
        -12    1    1    2    0    0 -0.15977916217E+02  0.34379297079E+02 -0.14694764091E+02  0.40659143695E+02  0.00000000000E+00 0.  1.
         11    1    3    3    0    0  0.13877785074E+02 -0.13621732993E+02 -0.10340354637E+01  0.19473411563E+02  0.51100000000E-03 0. -1.
        -11    1    3    3    0    0 -0.94838316627E+00 -0.20051254119E+02  0.18178356644E+02  0.27081448870E+02  0.51100000000E-03 0.  1.
        -12    1    3    3    0    0  0.30485143091E+01 -0.70630996706E+00 -0.24495570891E+01  0.39739958726E+01  0.00000000000E+00 0.  1.
</event>
<event>
 7    1  0.5068291E-011  0.5052886E+02  0.7816164E-02  0.1300439E+00
        -11   -1    0    0    0    0  0.00000000000E+00  0.00000000000E+00  0.45593999997E+02  0.45594000000E+02  0.51100000000E-03 0.  1.
         11   -1    0    0    0    0 -0.00000000000E+00 -0.00000000000E+00 -0.45593999997E+02  0.45594000000E+02  0.51100000000E-03 0. -1.
    9900012    2    1    2    0    0 -0.33545467123E+02 -0.14991605342E+02 -0.17410310710E+02  0.50528861860E+02  0.30000006111E+02 0.  0.
        -12    1    1    2    0    0  0.33545467123E+02  0.14991605342E+02  0.17410310710E+02  0.40659138140E+02  0.00000000000E+00 0.  1.
         11    1    3    3    0    0  0.23454963274E+01  0.28707267927E+01 -0.23182462360E+01  0.43722638543E+01  0.51100000000E-03 0. -1.
        -11    1    3    3    0    0 -0.34587515611E+02 -0.10653409984E+02 -0.13714202179E+02  0.38702334841E+02  0.51100000000E-03 0.  1.
        -12    1    3    3    0    0 -0.13034478393E+01 -0.72089221500E+01 -0.13778622951E+01  0.74542631654E+01  0.00000000000E+00 0.  1.
</event>
<event>
 7    1  0.5068291E-011  0.5052886E+02  0.7816164E-02  0.1300439E+00
        -11   -1    0    0    0    0  0.00000000000E+00  0.00000000000E+00  0.45593999997E+02  0.45594000000E+02  0.51100000000E-03 0. -1.
         11   -1    0    0    0    0 -0.00000000000E+00 -0.00000000000E+00 -0.45593999997E+02  0.45594000000E+02  0.51100000000E-03 0.  1.
    9900012    2    1    2    0    0  0.18711749232E+02 -0.35904163893E+02 -0.37319392094E+01  0.50528856939E+02  0.29999991151E+02 0.  0.
        -12    1    1    2    0    0 -0.18711749232E+02  0.35904163893E+02  0.37319392094E+01  0.40659143061E+02  0.00000000000E+00 0.  1.
         11    1    3    3    0    0  0.15209036608E+02 -0.31517499599E+02  0.41327266850E+01  0.35238430805E+02  0.51100000000E-03 0. -1.
        -11    1    3    3    0    0  0.76019748834E+01 -0.20566790148E+01 -0.69155488738E+01  0.10480685435E+02  0.51100000000E-03 0.  1.
         12    1    3    3    0    0 -0.40992622590E+01 -0.23299852801E+01 -0.94911702057E+00  0.48097406991E+01  0.00000000000E+00 0. -1.
</event>
<event>
 7    1  0.5068291E-011  0.5052886E+02  0.7816164E-02  0.1300439E+00
        -11   -1    0    0    0    0  0.00000000000E+00  0.00000000000E+00  0.45593999997E+02  0.45594000000E+02  0.51100000000E-03 0.  1.
         11   -1    0    0    0    0 -0.00000000000E+00 -0.00000000000E+00 -0.45593999997E+02  0.45594000000E+02  0.51100000000E-03 0. -1.
    9900012    2    1    2    0    0  0.15555371584E+02  0.36074032415E+02  0.10481411682E+02  0.50528863380E+02  0.30000010730E+02 0.  0.
        -12    1    1    2    0    0 -0.15555371584E+02 -0.36074032415E+02 -0.10481411682E+02  0.40659136620E+02  0.00000000000E+00 0.  1.
         11    1    3    3    0    0  0.38183210316E+01  0.19160717891E+01 -0.14643996329E+01  0.45161236860E+01  0.51100000000E-03 0. -1.
        -11    1    3    3    0    0  0.15864157780E+02  0.79976795439E+01  0.68627787957E+01  0.19045527381E+02  0.51100000000E-03 0.  1.
        -12    1    3    3    0    0 -0.41271072275E+01  0.26160281082E+02  0.50830325194E+01  0.26967212314E+02  0.00000000000E+00 0.  1.
</event>
<event>
 7    1  0.5068291E-011  0.5052887E+02  0.7816164E-02  0.1300439E+00
        -11   -1    0    0    0    0  0.00000000000E+00  0.00000000000E+00  0.45593999997E+02  0.45594000000E+02  0.51100000000E-03 0.  1.
         11   -1    0    0    0    0 -0.00000000000E+00 -0.00000000000E+00 -0.45593999997E+02  0.45594000000E+02  0.51100000000E-03 0. -1.
    9900012    2    1    2    0    0  0.19353221698E+02 -0.34609340108E+02  0.89894904456E+01  0.50528873702E+02  0.30000042105E+02 0.  0.
        -12    1    1    2    0    0 -0.19353221698E+02  0.34609340108E+02 -0.89894904456E+01  0.40659126298E+02  0.00000000000E+00 0.  1.
         11    1    3    3    0    0  0.20677978899E+02 -0.35902401284E+02  0.13571078654E+02  0.43597424297E+02  0.51100000000E-03 0. -1.
        -11    1    3    3    0    0 -0.51046637167E+00  0.24846030156E+01 -0.48408600839E+01  0.54651399502E+01  0.51100000000E-03 0.  1.
         12    1    3    3    0    0 -0.81429082866E+00 -0.11915418405E+01  0.25927187550E+00  0.14663094547E+01  0.00000000000E+00 0. -1.
</event>
<event>
 7    1  0.5068291E-011  0.5052886E+02  0.7816164E-02  0.1300439E+00
        -11   -1    0    0    0    0  0.00000000000E+00  0.00000000000E+00  0.45593999997E+02  0.45594000000E+02  0.51100000000E-03 0.  1.
         11   -1    0    0    0    0 -0.00000000000E+00 -0.00000000000E+00 -0.45593999997E+02  0.45594000000E+02  0.51100000000E-03 0. -1.
    9900012    2    1    2    0    0  0.14114466757E+02  0.37458586645E+02 -0.71275347511E+01  0.50528860352E+02  0.30000001526E+02 0.  0.
        -12    1    1    2    0    0 -0.14114466757E+02 -0.37458586645E+02  0.71275347511E+01  0.40659139648E+02  0.00000000000E+00 0.  1.
         11    1    3    3    0    0 -0.38955788982E+00  0.19293562674E+02 -0.47636807719E+01  0.19876769626E+02  0.51100000000E-03 0. -1.
        -11    1    3    3    0    0  0.17400697853E+02  0.19972255559E+02 -0.41282782128E+01  0.26808915665E+02  0.51100000000E-03 0.  1.
        -12    1    3    3    0    0 -0.28966732056E+01 -0.18072315880E+01  0.17644242337E+01  0.38431750610E+01  0.00000000000E+00 0.  1.
</event>
<event>
 7    1  0.5068291E-011  0.5052884E+02  0.7816164E-02  0.1300439E+00
        -11   -1    0    0    0    0  0.00000000000E+00  0.00000000000E+00  0.45593999997E+02  0.45594000000E+02  0.51100000000E-03 0.  1.
         11   -1    0    0    0    0 -0.00000000000E+00 -0.00000000000E+00 -0.45593999997E+02  0.45594000000E+02  0.51100000000E-03 0. -1.
    9900012    2    1    2    0    0 -0.77658136925E+01  0.33272841153E+02 -0.22040368515E+02  0.50528835412E+02  0.29999925719E+02 0.  0.
        -12    1    1    2    0    0  0.77658136925E+01 -0.33272841153E+02  0.22040368515E+02  0.40659164588E+02  0.00000000000E+00 0.  1.
         11    1    3    3    0    0  0.47879048628E+01  0.29073339851E+02 -0.17183929153E+02  0.34109684027E+02  0.51100000000E-03 0. -1.
        -11    1    3    3    0    0 -0.76747306329E+01 -0.18509686421E+01 -0.20632489250E+01  0.81599369844E+01  0.51100000000E-03 0.  1.
        -12    1    3    3    0    0 -0.48789879225E+01  0.60504699446E+01 -0.27931904366E+01  0.82592144005E+01  0.00000000000E+00 0.  1.
</event>
<event>
 7    1  0.5068291E-011  0.5052886E+02  0.7816164E-02  0.1300439E+00
        -11   -1    0    0    0    0  0.00000000000E+00  0.00000000000E+00  0.45593999997E+02  0.45594000000E+02  0.51100000000E-03 0. -1.
         11   -1    0    0    0    0 -0.00000000000E+00 -0.00000000000E+00 -0.45593999997E+02  0.45594000000E+02  0.51100000000E-03 0.  1.
    9900012    2    1    2    0    0  0.18735213993E+02 -0.36597674537E+01  0.35899348353E+02  0.50528863839E+02  0.30000012124E+02 0.  0.
        -12    1    1    2    0    0 -0.18735213993E+02  0.36597674537E+01 -0.35899348353E+02  0.40659136161E+02  0.00000000000E+00 0.  1.
         11    1    3    3    0    0 -0.66780460131E+01 -0.27008109921E+01  0.98880378967E+01  0.12233722748E+02  0.51100000000E-03 0. -1.
        -11    1    3    3    0    0 -0.11450795374E+01  0.79244047266E+00  0.67249248892E+00  0.15464202076E+01  0.51100000000E-03 0.  1.
         12    1    3    3    0    0  0.26558339544E+02 -0.17513969343E+01  0.25338817968E+02  0.36748720883E+02  0.00000000000E+00 0. -1.
</event>
<event>
 7    1  0.5068291E-011  0.5052889E+02  0.7816164E-02  0.1300439E+00
        -11   -1    0    0    0    0  0.00000000000E+00  0.00000000000E+00  0.45593999997E+02  0.45594000000E+02  0.51100000000E-03 0. -1.
         11   -1    0    0    0    0 -0.00000000000E+00 -0.00000000000E+00 -0.45593999997E+02  0.45594000000E+02  0.51100000000E-03 0.  1.
    9900012    2    1    2    0    0 -0.31421884552E+02  0.24497659624E+02  0.81051413285E+01  0.50528886977E+02  0.30000082456E+02 0.  0.
        -12    1    1    2    0    0  0.31421884552E+02 -0.24497659624E+02 -0.81051413285E+01  0.40659113023E+02  0.00000000000E+00 0.  1.
         11    1    3    3    0    0 -0.21599182204E+01  0.47145984504E+01  0.63555249752E+01  0.82027668038E+01  0.51100000000E-03 0. -1.
        -11    1    3    3    0    0 -0.67208147557E+01  0.63537170595E+01 -0.99613357841E+01  0.13592912945E+02  0.51100000000E-03 0.  1.
        -12    1    3    3    0    0 -0.22541151575E+02  0.13429344114E+02  0.11710952137E+02  0.28733207229E+02  0.00000000000E+00 0.  1.
</event>
<event>
 7    1  0.5068291E-011  0.5052885E+02  0.7816164E-02  0.1300439E+00
        -11   -1    0    0    0    0  0.00000000000E+00  0.00000000000E+00  0.45593999997E+02  0.45594000000E+02  0.51100000000E-03 0.  1.
         11   -1    0    0    0    0 -0.00000000000E+00 -0.00000000000E+00 -0.45593999997E+02  0.45594000000E+02  0.51100000000E-03 0. -1.
    9900012    2    1    2    0    0  0.23350971531E+02  0.14086540885E+02 -0.30157384908E+02  0.50528851337E+02  0.29999974124E+02 0.  0.
        -12    1    1    2    0    0 -0.23350971531E+02 -0.14086540885E+02  0.30157384908E+02  0.40659148663E+02  0.00000000000E+00 0.  1.
         11    1    3    3    0    0  0.18216772340E+02 -0.26344816773E+00 -0.22829087811E+02  0.29207660810E+02  0.51100000000E-03 0. -1.
        -11    1    3    3    0    0 -0.39320089308E+01  0.56959391224E+01 -0.50851264893E+01  0.85885347057E+01  0.51100000000E-03 0.  1.
         12    1    3    3    0    0  0.90662081219E+01  0.86540499299E+01 -0.22431706071E+01  0.12732655822E+02  0.00000000000E+00 0. -1.
</event>
<event>
 7    1  0.5068291E-011  0.5052886E+02  0.7816164E-02  0.1300439E+00
        -11   -1    0    0    0    0  0.00000000000E+00  0.00000000000E+00  0.45593999997E+02  0.45594000000E+02  0.51100000000E-03 0.  1.
         11   -1    0    0    0    0 -0.00000000000E+00 -0.00000000000E+00 -0.45593999997E+02  0.45594000000E+02  0.51100000000E-03 0. -1.
    9900012    2    1    2    0    0 -0.18551075364E+02  0.18773916855E+02 -0.30928356803E+02  0.50528860735E+02  0.30000002689E+02 0.  0.
        -12    1    1    2    0    0  0.18551075364E+02 -0.18773916855E+02  0.30928356803E+02  0.40659139265E+02  0.00000000000E+00 0.  1.
         11    1    3    3    0    0 -0.94985927984E+01 -0.23744905496E+01 -0.46598560596E+01  0.10843234263E+02  0.51100000000E-03 0. -1.
        -11    1    3    3    0    0 -0.10795953633E+02  0.22544656144E+02 -0.17190577961E+02  0.30336942931E+02  0.51100000000E-03 0.  1.
        -12    1    3    3    0    0  0.17434710675E+01 -0.13962487389E+01 -0.90779227829E+01  0.93486835413E+01  0.00000000000E+00 0.  1.
</event>
<event>
 7    1  0.5068291E-011  0.5052886E+02  0.7816164E-02  0.1300439E+00
        -11   -1    0    0    0    0  0.00000000000E+00  0.00000000000E+00  0.45593999997E+02  0.45594000000E+02  0.51100000000E-03 0. -1.
         11   -1    0    0    0    0 -0.00000000000E+00 -0.00000000000E+00 -0.45593999997E+02  0.45594000000E+02  0.51100000000E-03 0.  1.
    9900012    2    1    2    0    0 -0.27021249593E+02  0.25070369564E+02  0.17160846891E+02  0.50528855572E+02  0.29999986996E+02 0.  0.
        -12    1    1    2    0    0  0.27021249593E+02 -0.25070369564E+02 -0.17160846891E+02  0.40659144428E+02  0.00000000000E+00 0.  1.
         11    1    3    3    0    0 -0.32040754480E+02  0.14833559072E+02  0.11393385056E+02  0.37100588212E+02  0.51100000000E-03 0. -1.
        -11    1    3    3    0    0  0.33834672936E+01  0.75830644679E+01  0.60850717252E+01  0.10294601295E+02  0.51100000000E-03 0.  1.
         12    1    3    3    0    0  0.16360375936E+01  0.26537460236E+01 -0.31760989033E+00  0.31336660652E+01  0.00000000000E+00 0. -1.
</event>
<event>
 7    1  0.5068291E-011  0.5052886E+02  0.7816164E-02  0.1300439E+00
        -11   -1    0    0    0    0  0.00000000000E+00  0.00000000000E+00  0.45593999997E+02  0.45594000000E+02  0.51100000000E-03 0.  1.
         11   -1    0    0    0    0 -0.00000000000E+00 -0.00000000000E+00 -0.45593999997E+02  0.45594000000E+02  0.51100000000E-03 0. -1.
    9900012    2    1    2    0    0  0.36472935052E+01 -0.31274981762E+02 -0.25724273872E+02  0.50528862031E+02  0.30000006629E+02 0.  0.
        -12    1    1    2    0    0 -0.36472935052E+01  0.31274981762E+02  0.25724273872E+02  0.40659137969E+02  0.00000000000E+00 0.  1.
         11    1    3    3    0    0  0.11590538936E+02 -0.77554999844E+01 -0.11009531408E+02  0.17767896750E+02  0.51100000000E-03 0.  1.
        -11    1    3    3    0    0 -0.22915879351E+01 -0.17330600411E+02 -0.20878236412E+01  0.17605683562E+02  0.51100000000E-03 0. -1.
         12    1    3    3    0    0 -0.56516574958E+01 -0.61888813669E+01 -0.12626918823E+02  0.15155281719E+02  0.00000000000E+00 0. -1.
</event>
<event>
 7    1  0.5068291E-011  0.5052889E+02  0.7816164E-02  0.1300439E+00
        -11   -1    0    0    0    0  0.00000000000E+00  0.00000000000E+00  0.45593999997E+02  0.45594000000E+02  0.51100000000E-03 0.  1.
         11   -1    0    0    0    0 -0.00000000000E+00 -0.00000000000E+00 -0.45593999997E+02  0.45594000000E+02  0.51100000000E-03 0. -1.
    9900012    2    1    2    0    0  0.21988322553E+02 -0.34047289651E+02 -0.32340545130E+01  0.50528888231E+02  0.30000086266E+02 0.  0.
        -12    1    1    2    0    0 -0.21988322553E+02  0.34047289651E+02  0.32340545130E+01  0.40659111769E+02  0.00000000000E+00 0.  1.
         11    1    3    3    0    0  0.16495119192E+02 -0.37807461290E+02 -0.17139427835E+01  0.41284751258E+02  0.51100000000E-03 0. -1.
        -11    1    3    3    0    0  0.34479311006E+01  0.98574495630E+00  0.21724931288E+01  0.41928091597E+01  0.51100000000E-03 0.  1.
         12    1    3    3    0    0  0.20452722605E+01  0.27744266824E+01 -0.36926048583E+01  0.50513278131E+01  0.00000000000E+00 0. -1.
</event>
<event>
 7    1  0.5068291E-011  0.5052886E+02  0.7816164E-02  0.1300439E+00
        -11   -1    0    0    0    0  0.00000000000E+00  0.00000000000E+00  0.45593999997E+02  0.45594000000E+02  0.51100000000E-03 0.  1.
         11   -1    0    0    0    0 -0.00000000000E+00 -0.00000000000E+00 -0.45593999997E+02  0.45594000000E+02  0.51100000000E-03 0. -1.
    9900012    2    1    2    0    0  0.36741965582E+02  0.27799365799E+01 -0.17189117593E+02  0.50528857783E+02  0.29999993716E+02 0.  0.
        -12    1    1    2    0    0 -0.36741965582E+02 -0.27799365799E+01  0.17189117593E+02  0.40659142217E+02  0.00000000000E+00 0.  1.
         11    1    3    3    0    0  0.10676502932E+02 -0.10604699893E+01 -0.27908297256E+01  0.11086074250E+02  0.51100000000E-03 0. -1.
        -11    1    3    3    0    0 -0.33266417313E+01 -0.22830430248E+01 -0.76826508739E+01  0.86776699277E+01  0.51100000000E-03 0.  1.
        -12    1    3    3    0    0  0.29392104381E+02  0.61234495940E+01 -0.67156369931E+01  0.30765113605E+02  0.00000000000E+00 0.  1.
</event>
<event>
 7    1  0.5068291E-011  0.5052886E+02  0.7816164E-02  0.1300439E+00
        -11   -1    0    0    0    0  0.00000000000E+00  0.00000000000E+00  0.45593999997E+02  0.45594000000E+02  0.51100000000E-03 0.  1.
         11   -1    0    0    0    0 -0.00000000000E+00 -0.00000000000E+00 -0.45593999997E+02  0.45594000000E+02  0.51100000000E-03 0. -1.
    9900012    2    1    2    0    0 -0.32395727844E+02  0.11148262242E+02 -0.21895170139E+02  0.50528863155E+02  0.30000010045E+02 0.  0.
        -12    1    1    2    0    0  0.32395727844E+02 -0.11148262242E+02  0.21895170139E+02  0.40659136845E+02  0.00000000000E+00 0.  1.
         11    1    3    3    0    0 -0.32997699076E+02  0.18862415593E+01 -0.11912205371E+02  0.35132701128E+02  0.51100000000E-03 0. -1.
        -11    1    3    3    0    0  0.76535329416E+00 -0.11056666097E+01 -0.13244746729E+01  0.18874580093E+01  0.51100000000E-03 0.  1.
         12    1    3    3    0    0 -0.16338206281E+00  0.10367687293E+02 -0.86584900946E+01  0.13508704017E+02  0.00000000000E+00 0. -1.
</event>
<event>
 7    1  0.5068291E-011  0.5052886E+02  0.7816164E-02  0.1300439E+00
        -11   -1    0    0    0    0  0.00000000000E+00  0.00000000000E+00  0.45593999997E+02  0.45594000000E+02  0.51100000000E-03 0. -1.
         11   -1    0    0    0    0 -0.00000000000E+00 -0.00000000000E+00 -0.45593999997E+02  0.45594000000E+02  0.51100000000E-03 0.  1.
    9900012    2    1    2    0    0 -0.27380621634E+02 -0.20699443962E+02  0.21794494542E+02  0.50528863097E+02  0.30000009869E+02 0.  0.
        -12    1    1    2    0    0  0.27380621634E+02  0.20699443962E+02 -0.21794494542E+02  0.40659136903E+02  0.00000000000E+00 0.  1.
         11    1    3    3    0    0 -0.29984990705E+02 -0.10216556763E+02  0.13801200086E+02  0.34553593500E+02  0.51100000000E-03 0. -1.
        -11    1    3    3    0    0  0.32889195415E+01 -0.48546296783E+01  0.84520990821E+01  0.10287001517E+02  0.51100000000E-03 0.  1.
         12    1    3    3    0    0 -0.68455047044E+00 -0.56282575203E+01 -0.45880462589E+00  0.56882680797E+01  0.00000000000E+00 0. -1.
</event>
<event>
 7    1  0.5068291E-011  0.5052887E+02  0.7816164E-02  0.1300439E+00
        -11   -1    0    0    0    0  0.00000000000E+00  0.00000000000E+00  0.45593999997E+02  0.45594000000E+02  0.51100000000E-03 0.  1.
         11   -1    0    0    0    0 -0.00000000000E+00 -0.00000000000E+00 -0.45593999997E+02  0.45594000000E+02  0.51100000000E-03 0. -1.
    9900012    2    1    2    0    0 -0.21181829168E+02 -0.27395178551E+01 -0.34597544380E+02  0.50528869142E+02  0.30000028245E+02 0.  0.
        -12    1    1    2    0    0  0.21181829168E+02  0.27395178551E+01  0.34597544380E+02  0.40659130858E+02  0.00000000000E+00 0.  1.
         11    1    3    3    0    0  0.58324121223E+00  0.53354925042E+00 -0.18904022274E+02  0.18920541840E+02  0.51100000000E-03 0. -1.
        -11    1    3    3    0    0 -0.23786651629E+01 -0.43744403661E+01  0.19736233603E+01  0.53562081647E+01  0.51100000000E-03 0.  1.
         12    1    3    3    0    0 -0.19386405217E+02  0.11013732606E+01 -0.17667145466E+02  0.26252119138E+02  0.00000000000E+00 0. -1.
</event>
<event>
 7    1  0.5068291E-011  0.5052887E+02  0.7816164E-02  0.1300439E+00
        -11   -1    0    0    0    0  0.00000000000E+00  0.00000000000E+00  0.45593999997E+02  0.45594000000E+02  0.51100000000E-03 0. -1.
         11   -1    0    0    0    0 -0.00000000000E+00 -0.00000000000E+00 -0.45593999997E+02  0.45594000000E+02  0.51100000000E-03 0.  1.
    9900012    2    1    2    0    0  0.32441377371E+02  0.17168178636E+02  0.17492165550E+02  0.50528865982E+02  0.30000018640E+02 0.  0.
        -12    1    1    2    0    0 -0.32441377371E+02 -0.17168178636E+02 -0.17492165550E+02  0.40659134018E+02  0.00000000000E+00 0.  1.
         11    1    3    3    0    0  0.13865981805E+02  0.14595735065E+02  0.17133487566E+02  0.26435909856E+02  0.51100000000E-03 0. -1.
        -11    1    3    3    0    0  0.14870305969E+01  0.24391782760E+01 -0.53590402242E+01  0.60729040042E+01  0.51100000000E-03 0.  1.
        -12    1    3    3    0    0  0.17088364970E+02  0.13326529567E+00  0.57177182084E+01  0.18020052122E+02  0.00000000000E+00 0.  1.
</event>
<event>
 7    1  0.5068291E-011  0.5052886E+02  0.7816164E-02  0.1300439E+00
        -11   -1    0    0    0    0  0.00000000000E+00  0.00000000000E+00  0.45593999997E+02  0.45594000000E+02  0.51100000000E-03 0.  1.
         11   -1    0    0    0    0 -0.00000000000E+00 -0.00000000000E+00 -0.45593999997E+02  0.45594000000E+02  0.51100000000E-03 0. -1.
    9900012    2    1    2    0    0 -0.20015871690E+02 -0.18120366066E+02 -0.30400373498E+02  0.50528862101E+02  0.30000006841E+02 0.  0.
        -12    1    1    2    0    0  0.20015871690E+02  0.18120366066E+02  0.30400373498E+02  0.40659137899E+02  0.00000000000E+00 0.  1.
         11    1    3    3    0    0 -0.99208841051E+01 -0.15504271543E+02 -0.15439316697E+02  0.24024547401E+02  0.51100000000E-03 0. -1.
        -11    1    3    3    0    0 -0.35707349620E+01  0.75220253920E+01 -0.15476053203E+01  0.84691260857E+01  0.51100000000E-03 0.  1.
        -12    1    3    3    0    0 -0.65242526232E+01 -0.10138119915E+02 -0.13413451481E+02  0.18035188614E+02  0.00000000000E+00 0.  1.
</event>
<event>
 7    1  0.5068291E-011  0.5052883E+02  0.7816164E-02  0.1300439E+00
        -11   -1    0    0    0    0  0.00000000000E+00  0.00000000000E+00  0.45593999997E+02  0.45594000000E+02  0.51100000000E-03 0.  1.
         11   -1    0    0    0    0 -0.00000000000E+00 -0.00000000000E+00 -0.45593999997E+02  0.45594000000E+02  0.51100000000E-03 0. -1.
    9900012    2    1    2    0    0  0.22192337900E+02  0.48458311271E+01 -0.33722188848E+02  0.50528831766E+02  0.29999914637E+02 0.  0.
        -12    1    1    2    0    0 -0.22192337900E+02 -0.48458311271E+01  0.33722188848E+02  0.40659168234E+02  0.00000000000E+00 0.  1.
         11    1    3    3    0    0  0.80951987087E+01 -0.31710166947E+01 -0.31112650150E+02  0.32304559874E+02  0.51100000000E-03 0. -1.
        -11    1    3    3    0    0  0.80602629430E+01  0.79141827398E+01  0.73877324113E+00  0.11320243518E+02  0.51100000000E-03 0.  1.
         12    1    3    3    0    0  0.60368762480E+01  0.10266508203E+00 -0.33483119383E+01  0.69040283740E+01  0.00000000000E+00 0. -1.
</event>
<event>
 7    1  0.5068291E-011  0.5052886E+02  0.7816164E-02  0.1300439E+00
        -11   -1    0    0    0    0  0.00000000000E+00  0.00000000000E+00  0.45593999997E+02  0.45594000000E+02  0.51100000000E-03 0. -1.
         11   -1    0    0    0    0 -0.00000000000E+00 -0.00000000000E+00 -0.45593999997E+02  0.45594000000E+02  0.51100000000E-03 0.  1.
    9900012    2    1    2    0    0 -0.98431619829E+01 -0.35546662328E+02  0.17108836476E+02  0.50528864175E+02  0.30000013145E+02 0.  0.
        -12    1    1    2    0    0  0.98431619829E+01  0.35546662328E+02 -0.17108836476E+02  0.40659135825E+02  0.00000000000E+00 0.  1.
         11    1    3    3    0    0 -0.40225151815E+01 -0.32983648226E+02  0.16116344477E+02  0.36930180588E+02  0.51100000000E-03 0. -1.
        -11    1    3    3    0    0 -0.95628027350E+01 -0.15801844319E+01  0.77881077767E+00  0.97237197346E+01  0.51100000000E-03 0.  1.
        -12    1    3    3    0    0  0.37421559336E+01 -0.98282967062E+00  0.21368122131E+00  0.38749638523E+01  0.00000000000E+00 0.  1.
</event>
<event>
 7    1  0.5068291E-011  0.5052887E+02  0.7816164E-02  0.1300439E+00
        -11   -1    0    0    0    0  0.00000000000E+00  0.00000000000E+00  0.45593999997E+02  0.45594000000E+02  0.51100000000E-03 0. -1.
         11   -1    0    0    0    0 -0.00000000000E+00 -0.00000000000E+00 -0.45593999997E+02  0.45594000000E+02  0.51100000000E-03 0.  1.
    9900012    2    1    2    0    0  0.35996165500E+02 -0.12444058330E+02 -0.14233296772E+02  0.50528865043E+02  0.30000015784E+02 0.  0.
        -12    1    1    2    0    0 -0.35996165500E+02  0.12444058330E+02  0.14233296772E+02  0.40659134957E+02  0.00000000000E+00 0.  1.
         11    1    3    3    0    0  0.15125188855E+02  0.28375089973E+01  0.29604315879E+00  0.15391895173E+02  0.51100000000E-03 0. -1.
        -11    1    3    3    0    0 -0.31151876379E+01 -0.28834240289E+01 -0.48699466583E+01  0.64602560991E+01  0.51100000000E-03 0.  1.
        -12    1    3    3    0    0  0.23986164283E+02 -0.12398143299E+02 -0.96593932729E+01  0.28676713770E+02  0.00000000000E+00 0.  1.
</event>
<event>
 7    1  0.5068291E-011  0.5052885E+02  0.7816164E-02  0.1300439E+00
        -11   -1    0    0    0    0  0.00000000000E+00  0.00000000000E+00  0.45593999997E+02  0.45594000000E+02  0.51100000000E-03 0. -1.
         11   -1    0    0    0    0 -0.00000000000E+00 -0.00000000000E+00 -0.45593999997E+02  0.45594000000E+02  0.51100000000E-03 0.  1.
    9900012    2    1    2    0    0  0.18395383160E+02 -0.22353488598E+01  0.36190872748E+02  0.50528853718E+02  0.29999981361E+02 0.  0.
        -12    1    1    2    0    0 -0.18395383160E+02  0.22353488598E+01 -0.36190872748E+02  0.40659146282E+02  0.00000000000E+00 0.  1.
         11    1    3    3    0    0  0.16199880524E+02 -0.52089146696E+01  0.38725537083E+02  0.42299363395E+02  0.51100000000E-03 0. -1.
        -11    1    3    3    0    0  0.86404614130E+00 -0.21491036586E+01 -0.16954440093E+01  0.28704969813E+01  0.51100000000E-03 0.  1.
         12    1    3    3    0    0  0.13314564954E+01  0.51226694685E+01 -0.83922032578E+00  0.53589933418E+01  0.00000000000E+00 0. -1.
</event>
<event>
 7    1  0.5068291E-011  0.5052885E+02  0.7816164E-02  0.1300439E+00
        -11   -1    0    0    0    0  0.00000000000E+00  0.00000000000E+00  0.45593999997E+02  0.45594000000E+02  0.51100000000E-03 0.  1.
         11   -1    0    0    0    0 -0.00000000000E+00 -0.00000000000E+00 -0.45593999997E+02  0.45594000000E+02  0.51100000000E-03 0. -1.
    9900012    2    1    2    0    0 -0.32499015202E+02 -0.19410335922E+02 -0.14839795849E+02  0.50528847641E+02  0.29999962891E+02 0.  0.
        -12    1    1    2    0    0  0.32499015202E+02  0.19410335922E+02  0.14839795849E+02  0.40659152359E+02  0.00000000000E+00 0.  1.
         11    1    3    3    0    0 -0.34702875330E+02 -0.19060430192E+02 -0.18862603951E+02  0.43856440614E+02  0.51100000000E-03 0. -1.
        -11    1    3    3    0    0  0.32924051146E+00 -0.18418649881E+01  0.38375623295E+01  0.42693970116E+01  0.51100000000E-03 0.  1.
         12    1    3    3    0    0  0.18746196170E+01  0.14919592586E+01  0.18524577240E+00  0.24030100154E+01  0.00000000000E+00 0. -1.
</event>
<event>
 7    1  0.5068291E-011  0.5052886E+02  0.7816164E-02  0.1300439E+00
        -11   -1    0    0    0    0  0.00000000000E+00  0.00000000000E+00  0.45593999997E+02  0.45594000000E+02  0.51100000000E-03 0.  1.
         11   -1    0    0    0    0 -0.00000000000E+00 -0.00000000000E+00 -0.45593999997E+02  0.45594000000E+02  0.51100000000E-03 0. -1.
    9900012    2    1    2    0    0 -0.27501984321E+02  0.29780895217E+02 -0.31471721916E+01  0.50528861368E+02  0.30000004613E+02 0.  0.
        -12    1    1    2    0    0  0.27501984321E+02 -0.29780895217E+02  0.31471721916E+01  0.40659138632E+02  0.00000000000E+00 0.  1.
         11    1    3    3    0    0 -0.59350035886E+01 -0.36600988411E+01 -0.10076642643E+01  0.70452805944E+01  0.51100000000E-03 0. -1.
        -11    1    3    3    0    0 -0.14269959953E+02  0.31995138382E+02  0.17740970927E+01  0.35078028135E+02  0.51100000000E-03 0.  1.
        -12    1    3    3    0    0 -0.72970207795E+01  0.14458556768E+01 -0.39136050200E+01  0.84055526378E+01  0.00000000000E+00 0.  1.
</event>
<event>
 7    1  0.5068291E-011  0.5052887E+02  0.7816164E-02  0.1300439E+00
        -11   -1    0    0    0    0  0.00000000000E+00  0.00000000000E+00  0.45593999997E+02  0.45594000000E+02  0.51100000000E-03 0.  1.
         11   -1    0    0    0    0 -0.00000000000E+00 -0.00000000000E+00 -0.45593999997E+02  0.45594000000E+02  0.51100000000E-03 0. -1.
    9900012    2    1    2    0    0  0.11736627136E+02  0.98216638243E+01 -0.37668972599E+02  0.50528868265E+02  0.30000025578E+02 0.  0.
        -12    1    1    2    0    0 -0.11736627136E+02 -0.98216638243E+01  0.37668972599E+02  0.40659131735E+02  0.00000000000E+00 0.  1.
         11    1    3    3    0    0 -0.64971562000E+00  0.15253210440E+02 -0.18458325725E+02  0.23953963095E+02  0.51100000000E-03 0. -1.
        -11    1    3    3    0    0  0.14840767624E+02 -0.39930107198E+01 -0.17338262597E+02  0.23169114537E+02  0.51100000000E-03 0.  1.
         12    1    3    3    0    0 -0.24544248678E+01 -0.14385358964E+01 -0.18723842774E+01  0.34057906335E+01  0.00000000000E+00 0. -1.
</event>
<event>
 7    1  0.5068291E-011  0.5052886E+02  0.7816164E-02  0.1300439E+00
        -11   -1    0    0    0    0  0.00000000000E+00  0.00000000000E+00  0.45593999997E+02  0.45594000000E+02  0.51100000000E-03 0. -1.
         11   -1    0    0    0    0 -0.00000000000E+00 -0.00000000000E+00 -0.45593999997E+02  0.45594000000E+02  0.51100000000E-03 0.  1.
    9900012    2    1    2    0    0 -0.57677688476E+01  0.12144477624E+02  0.38371995359E+02  0.50528861765E+02  0.30000005819E+02 0.  0.
        -12    1    1    2    0    0  0.57677688476E+01 -0.12144477624E+02 -0.38371995359E+02  0.40659138235E+02  0.00000000000E+00 0.  1.
         11    1    3    3    0    0 -0.17150689326E+02  0.26215945478E+01  0.24110616566E+02  0.29704220807E+02  0.51100000000E-03 0. -1.
        -11    1    3    3    0    0  0.21862029513E+01  0.35391145881E+01  0.46388428884E+01  0.62308650295E+01  0.51100000000E-03 0.  1.
         12    1    3    3    0    0  0.91967175270E+01  0.59837684885E+01  0.96225359046E+01  0.14593775928E+02  0.00000000000E+00 0. -1.
</event>
<event>
 7    1  0.5068291E-011  0.5052892E+02  0.7816164E-02  0.1300439E+00
        -11   -1    0    0    0    0  0.00000000000E+00  0.00000000000E+00  0.45593999997E+02  0.45594000000E+02  0.51100000000E-03 0.  1.
         11   -1    0    0    0    0 -0.00000000000E+00 -0.00000000000E+00 -0.45593999997E+02  0.45594000000E+02  0.51100000000E-03 0. -1.
    9900012    2    1    2    0    0  0.11042391945E+02  0.55504134215E+01 -0.38735241482E+02  0.50528924240E+02  0.30000195719E+02 0.  0.
        -12    1    1    2    0    0 -0.11042391945E+02 -0.55504134215E+01  0.38735241482E+02  0.40659075760E+02  0.00000000000E+00 0.  1.
         11    1    3    3    0    0  0.13907041625E+02  0.52687337533E+01 -0.20699344578E+02  0.25487805483E+02  0.51100000000E-03 0. -1.
        -11    1    3    3    0    0 -0.20046155325E+01 -0.76787184511E+01 -0.13956512967E+02  0.16055075676E+02  0.51100000000E-03 0.  1.
        -12    1    3    3    0    0 -0.86003414753E+00  0.79603981192E+01 -0.40793839361E+01  0.89860430808E+01  0.00000000000E+00 0.  1.
</event>
<event>
 7    1  0.5068291E-011  0.5052887E+02  0.7816164E-02  0.1300439E+00
        -11   -1    0    0    0    0  0.00000000000E+00  0.00000000000E+00  0.45593999997E+02  0.45594000000E+02  0.51100000000E-03 0.  1.
         11   -1    0    0    0    0 -0.00000000000E+00 -0.00000000000E+00 -0.45593999997E+02  0.45594000000E+02  0.51100000000E-03 0. -1.
    9900012    2    1    2    0    0  0.29239941152E+02  0.95315382320E+01 -0.26595877785E+02  0.50528867019E+02  0.30000021791E+02 0.  0.
        -12    1    1    2    0    0 -0.29239941152E+02 -0.95315382320E+01  0.26595877785E+02  0.40659132981E+02  0.00000000000E+00 0.  1.
         11    1    3    3    0    0  0.35703436647E+01 -0.60678495421E+01 -0.10720655087E+02  0.12825700671E+02  0.51100000000E-03 0.  1.
        -11    1    3    3    0    0  0.17857716862E+02  0.13794738100E+02 -0.33227279622E+01  0.22808624951E+02  0.51100000000E-03 0. -1.
         12    1    3    3    0    0  0.78118806249E+01  0.18046496741E+01 -0.12552494736E+02  0.14894541397E+02  0.00000000000E+00 0. -1.
</event>
<event>
 7    1  0.5068291E-011  0.5052887E+02  0.7816164E-02  0.1300439E+00
        -11   -1    0    0    0    0  0.00000000000E+00  0.00000000000E+00  0.45593999997E+02  0.45594000000E+02  0.51100000000E-03 0. -1.
         11   -1    0    0    0    0 -0.00000000000E+00 -0.00000000000E+00 -0.45593999997E+02  0.45594000000E+02  0.51100000000E-03 0.  1.
    9900012    2    1    2    0    0  0.94066282724E+01  0.26542633109E+02  0.29328639014E+02  0.50528867026E+02  0.30000021811E+02 0.  0.
        -12    1    1    2    0    0 -0.94066282724E+01 -0.26542633109E+02 -0.29328639014E+02  0.40659132974E+02  0.00000000000E+00 0.  1.
         11    1    3    3    0    0 -0.34394979161E+01  0.68023376733E+00  0.12885213107E+02  0.13353710382E+02  0.51100000000E-03 0. -1.
        -11    1    3    3    0    0  0.11105850437E+02  0.23276247189E+02  0.62788031143E+01  0.26543303599E+02  0.51100000000E-03 0.  1.
        -12    1    3    3    0    0  0.17402757516E+01  0.25861521528E+01  0.10164622792E+02  0.10631853044E+02  0.00000000000E+00 0.  1.
</event>
<event>
 7    1  0.5068291E-011  0.5052887E+02  0.7816164E-02  0.1300439E+00
        -11   -1    0    0    0    0  0.00000000000E+00  0.00000000000E+00  0.45593999997E+02  0.45594000000E+02  0.51100000000E-03 0. -1.
         11   -1    0    0    0    0 -0.00000000000E+00 -0.00000000000E+00 -0.45593999997E+02  0.45594000000E+02  0.51100000000E-03 0.  1.
    9900012    2    1    2    0    0 -0.31004480582E+02  0.21655917914E+02  0.14930117200E+02  0.50528868228E+02  0.30000025465E+02 0.  0.
        -12    1    1    2    0    0  0.31004480582E+02 -0.21655917914E+02 -0.14930117200E+02  0.40659131772E+02  0.00000000000E+00 0.  1.
         11    1    3    3    0    0 -0.40982747677E+01  0.83934498513E+01  0.16584681341E+01  0.94866418343E+01  0.51100000000E-03 0. -1.
        -11    1    3    3    0    0 -0.21987745499E+02  0.26499549229E+01  0.17886704166E+02  0.28467830957E+02  0.51100000000E-03 0.  1.
        -12    1    3    3    0    0 -0.49184603151E+01  0.10612513140E+02 -0.46150551000E+01  0.12574395437E+02  0.00000000000E+00 0.  1.
</event>
<event>
 7    1  0.5068291E-011  0.5052887E+02  0.7816164E-02  0.1300439E+00
        -11   -1    0    0    0    0  0.00000000000E+00  0.00000000000E+00  0.45593999997E+02  0.45594000000E+02  0.51100000000E-03 0.  1.
         11   -1    0    0    0    0 -0.00000000000E+00 -0.00000000000E+00 -0.45593999997E+02  0.45594000000E+02  0.51100000000E-03 0. -1.
    9900012    2    1    2    0    0  0.36110665526E+02  0.16301880099E+02 -0.91341968953E+01  0.50528868032E+02  0.30000024869E+02 0.  0.
        -12    1    1    2    0    0 -0.36110665526E+02 -0.16301880099E+02  0.91341968953E+01  0.40659131968E+02  0.00000000000E+00 0.  1.
         11    1    3    3    0    0  0.27274484117E+01 -0.60221332495E+01 -0.18468524068E+01  0.68641042960E+01  0.51100000000E-03 0. -1.
        -11    1    3    3    0    0  0.24972334573E+02  0.14077301022E+02 -0.11867718253E+02  0.31026289415E+02  0.51100000000E-03 0.  1.
        -12    1    3    3    0    0  0.84108825415E+01  0.82467123265E+01  0.45803737649E+01  0.12638474320E+02  0.00000000000E+00 0.  1.
</event>
<event>
 7    1  0.5068291E-011  0.5052886E+02  0.7816164E-02  0.1300439E+00
        -11   -1    0    0    0    0  0.00000000000E+00  0.00000000000E+00  0.45593999997E+02  0.45594000000E+02  0.51100000000E-03 0.  1.
         11   -1    0    0    0    0 -0.00000000000E+00 -0.00000000000E+00 -0.45593999997E+02  0.45594000000E+02  0.51100000000E-03 0. -1.
    9900012    2    1    2    0    0 -0.73253382128E+01  0.26047374718E+02 -0.30348634814E+02  0.50528856567E+02  0.29999990020E+02 0.  0.
        -12    1    1    2    0    0  0.73253382128E+01 -0.26047374718E+02  0.30348634814E+02  0.40659143433E+02  0.00000000000E+00 0.  1.
         11    1    3    3    0    0 -0.82707619327E+01  0.10020419584E+02 -0.15434658304E+01  0.13084211807E+02  0.51100000000E-03 0. -1.
        -11    1    3    3    0    0  0.59857168939E+01 -0.59749696834E+00 -0.11190995593E+02  0.12705282051E+02  0.51100000000E-03 0.  1.
        -12    1    3    3    0    0 -0.50402931740E+01  0.16624452103E+02 -0.17614173391E+02  0.24739362709E+02  0.00000000000E+00 0.  1.
</event>
<event>
 7    1  0.5068291E-011  0.5052885E+02  0.7816164E-02  0.1300439E+00
        -11   -1    0    0    0    0  0.00000000000E+00  0.00000000000E+00  0.45593999997E+02  0.45594000000E+02  0.51100000000E-03 0.  1.
         11   -1    0    0    0    0 -0.00000000000E+00 -0.00000000000E+00 -0.45593999997E+02  0.45594000000E+02  0.51100000000E-03 0. -1.
    9900012    2    1    2    0    0  0.26790968872E+02  0.87381612600E+01 -0.29309640135E+02  0.50528849982E+02  0.29999970007E+02 0.  0.
        -12    1    1    2    0    0 -0.26790968872E+02 -0.87381612600E+01  0.29309640135E+02  0.40659150018E+02  0.00000000000E+00 0.  1.
         11    1    3    3    0    0  0.20363659509E+02  0.12630669139E+02 -0.20309405504E+02  0.31411532654E+02  0.51100000000E-03 0. -1.
        -11    1    3    3    0    0  0.91104511912E+01 -0.78897126394E+01 -0.64112066309E+01  0.13651060661E+02  0.51100000000E-03 0.  1.
        -12    1    3    3    0    0 -0.26831418281E+01  0.39972047609E+01 -0.25890279994E+01  0.54662566672E+01  0.00000000000E+00 0.  1.
</event>
<event>
 7    1  0.5068291E-011  0.5052886E+02  0.7816164E-02  0.1300439E+00
        -11   -1    0    0    0    0  0.00000000000E+00  0.00000000000E+00  0.45593999997E+02  0.45594000000E+02  0.51100000000E-03 0.  1.
         11   -1    0    0    0    0 -0.00000000000E+00 -0.00000000000E+00 -0.45593999997E+02  0.45594000000E+02  0.51100000000E-03 0. -1.
    9900012    2    1    2    0    0 -0.64400116918E+01  0.30128821285E+02 -0.26531982457E+02  0.50528859383E+02  0.29999998580E+02 0.  0.
        -12    1    1    2    0    0  0.64400116918E+01 -0.30128821285E+02  0.26531982457E+02  0.40659140617E+02  0.00000000000E+00 0.  1.
         11    1    3    3    0    0 -0.39351517047E+01  0.16193934788E+01 -0.19932947540E+02  0.20382106174E+02  0.51100000000E-03 0. -1.
        -11    1    3    3    0    0 -0.43737370210E+01  0.17315288059E+02 -0.22820154776E+01  0.18004343115E+02  0.51100000000E-03 0.  1.
         12    1    3    3    0    0  0.18688770339E+01  0.11194139747E+02 -0.43170194394E+01  0.12142410094E+02  0.00000000000E+00 0. -1.
</event>
<event>
 7    1  0.5068291E-011  0.5052886E+02  0.7816164E-02  0.1300439E+00
        -11   -1    0    0    0    0  0.00000000000E+00  0.00000000000E+00  0.45593999997E+02  0.45594000000E+02  0.51100000000E-03 0.  1.
         11   -1    0    0    0    0 -0.00000000000E+00 -0.00000000000E+00 -0.45593999997E+02  0.45594000000E+02  0.51100000000E-03 0. -1.
    9900012    2    1    2    0    0  0.31727393498E+02 -0.34532122464E+00 -0.25424772962E+02  0.50528858038E+02  0.29999994493E+02 0.  0.
        -12    1    1    2    0    0 -0.31727393498E+02  0.34532122464E+00  0.25424772962E+02  0.40659141962E+02  0.00000000000E+00 0.  1.
         11    1    3    3    0    0  0.28792303786E+02 -0.53301720528E+00 -0.11899836776E+02  0.31159059360E+02  0.51100000000E-03 0. -1.
        -11    1    3    3    0    0 -0.17164196794E+01  0.11928884062E+01  0.21439002909E+01  0.29942257737E+01  0.51100000000E-03 0.  1.
        -12    1    3    3    0    0  0.46515093915E+01 -0.10051924255E+01 -0.15668836476E+02  0.16375572904E+02  0.00000000000E+00 0.  1.
</event>
<event>
 7    1  0.5068291E-011  0.5052884E+02  0.7816164E-02  0.1300439E+00
        -11   -1    0    0    0    0  0.00000000000E+00  0.00000000000E+00  0.45593999997E+02  0.45594000000E+02  0.51100000000E-03 0. -1.
         11   -1    0    0    0    0 -0.00000000000E+00 -0.00000000000E+00 -0.45593999997E+02  0.45594000000E+02  0.51100000000E-03 0.  1.
    9900012    2    1    2    0    0  0.18312457753E+02 -0.33031724569E+02 -0.15057423986E+02  0.50528844154E+02  0.29999952292E+02 0.  0.
        -12    1    1    2    0    0 -0.18312457753E+02  0.33031724569E+02  0.15057423986E+02  0.40659155846E+02  0.00000000000E+00 0.  1.
         11    1    3    3    0    0  0.46694292191E+01 -0.17831329579E+02 -0.58706872872E+01  0.19344892175E+02  0.51100000000E-03 0. -1.
        -11    1    3    3    0    0 -0.34202439571E+01  0.28209915846E+01 -0.36816527066E+01  0.57628664013E+01  0.51100000000E-03 0.  1.
        -12    1    3    3    0    0  0.17063272491E+02 -0.18021386575E+02 -0.55050839925E+01  0.25421085578E+02  0.00000000000E+00 0.  1.
</event>
