<event>
 8    1  0.6016610E-012  0.9118800E+02  0.7816164E-02  0.1184000E+00
        -11   -1    0    0    0    0  0.00000000000E+00  0.00000000000E+00  0.45593999997E+02  0.45594000000E+02  0.51100000000E-03 0. -1.
         11   -1    0    0    0    0 -0.00000000000E+00 -0.00000000000E+00 -0.45593999997E+02  0.45594000000E+02  0.51100000000E-03 0.  1.
         23    2    1    2    0    0 -0.88817841970E-15  0.35527136788E-14  0.00000000000E+00  0.91188000000E+02  0.91188000000E+02 0.  0.
    9900012    2    3    3    0    0 -0.75126726413E+01  0.20254920251E+02  0.34445072422E+02  0.50528867461E+02  0.30000023136E+02 0.  0.
        -12    1    3    3    0    0  0.75126726413E+01 -0.20254920251E+02 -0.34445072422E+02  0.40659132539E+02  0.00000000000E+00 0.  1.
         11    1    4    4    0    0 -0.84097208891E+01  0.84977412263E+01  0.25202103741E+01  0.12218284330E+02  0.51100000000E-03 0. -1.
        -11    1    4    4    0    0  0.37560662828E+01 -0.21392211043E+01  0.17699471149E+02  0.18219648187E+02  0.51100000000E-03 0.  1.
         12    1    4    4    0    0 -0.28590180350E+01  0.13896400129E+02  0.14225390899E+02  0.20090934944E+02  0.00000000000E+00 0. -1.
</event>
<event>
 8    1  0.6016610E-012  0.9118800E+02  0.7816164E-02  0.1184000E+00
        -11   -1    0    0    0    0  0.00000000000E+00  0.00000000000E+00  0.45593999997E+02  0.45594000000E+02  0.51100000000E-03 0. -1.
         11   -1    0    0    0    0 -0.00000000000E+00 -0.00000000000E+00 -0.45593999997E+02  0.45594000000E+02  0.51100000000E-03 0.  1.
         23    2    1    2    0    0  0.35527136788E-14  0.35527136788E-14  0.17763568394E-14  0.91188000000E+02  0.91188000000E+02 0.  0.
    9900012    2    3    3    0    0  0.30952642766E+02  0.24105676224E+02  0.10677806507E+02  0.50528864837E+02  0.30000015158E+02 0.  0.
        -12    1    3    3    0    0 -0.30952642766E+02 -0.24105676224E+02 -0.10677806507E+02  0.40659135163E+02  0.00000000000E+00 0.  1.
         11    1    4    4    0    0  0.43753191806E+01  0.15897121385E+02  0.72911659008E+01  0.18028393903E+02  0.51100000000E-03 0.  1.
        -11    1    4    4    0    0  0.10864723332E+02 -0.40512293511E+01  0.47358095236E+01  0.12525277021E+02  0.51100000000E-03 0. -1.
        -12    1    4    4    0    0  0.15712600253E+02  0.12259784190E+02 -0.13491689171E+01  0.19975193913E+02  0.00000000000E+00 0.  1.
</event>
<event>
 8    1  0.6016610E-012  0.9118800E+02  0.7816164E-02  0.1184000E+00
        -11   -1    0    0    0    0  0.00000000000E+00  0.00000000000E+00  0.45593999997E+02  0.45594000000E+02  0.51100000000E-03 0. -1.
         11   -1    0    0    0    0 -0.00000000000E+00 -0.00000000000E+00 -0.45593999997E+02  0.45594000000E+02  0.51100000000E-03 0.  1.
         23    2    1    2    0    0  0.71054273576E-14 -0.44408920985E-15  0.00000000000E+00  0.91188000000E+02  0.91188000000E+02 0.  0.
    9900012    2    3    3    0    0 -0.22647229196E+02  0.28090880790E+01 -0.33650813913E+02  0.50528865195E+02  0.30000016248E+02 0.  0.
         12    1    3    3    0    0  0.22647229196E+02 -0.28090880790E+01  0.33650813913E+02  0.40659134805E+02  0.00000000000E+00 0. -1.
         11    1    4    4    0    0 -0.37193604289E+01  0.10468043224E+01  0.51668618318E+01  0.64518139108E+01  0.51100000000E-03 0. -1.
        -11    1    4    4    0    0 -0.19776786457E+02  0.12964041758E+01 -0.35963287443E+02  0.41062878496E+02  0.51100000000E-03 0.  1.
         12    1    4    4    0    0  0.84891769020E+00  0.46587958075E+00 -0.28543883011E+01  0.30141727890E+01  0.00000000000E+00 0. -1.
</event>
<event>
 8    1  0.6016610E-012  0.9118800E+02  0.7816164E-02  0.1184000E+00
        -11   -1    0    0    0    0  0.00000000000E+00  0.00000000000E+00  0.45593999997E+02  0.45594000000E+02  0.51100000000E-03 0. -1.
         11   -1    0    0    0    0 -0.00000000000E+00 -0.00000000000E+00 -0.45593999997E+02  0.45594000000E+02  0.51100000000E-03 0.  1.
         23    2    1    2    0    0 -0.26645352591E-14  0.00000000000E+00  0.71054273576E-14  0.91188000000E+02  0.91188000000E+02 0.  0.
    9900012    2    3    3    0    0  0.29086544035E+01 -0.10827791783E+02 -0.39082787537E+02  0.50528860474E+02  0.30000001896E+02 0.  0.
         12    1    3    3    0    0 -0.29086544035E+01  0.10827791783E+02  0.39082787537E+02  0.40659139526E+02  0.00000000000E+00 0. -1.
         11    1    4    4    0    0  0.37664934581E+01 -0.25323447442E+01 -0.40338435961E+01  0.60721608421E+01  0.51100000000E-03 0. -1.
        -11    1    4    4    0    0 -0.84891975699E+01 -0.13298072898E+02 -0.12490326171E+02  0.20122461736E+02  0.51100000000E-03 0.  1.
        -12    1    4    4    0    0  0.76313585153E+01  0.50026258598E+01 -0.22558617770E+02  0.24334237896E+02  0.00000000000E+00 0.  1.
</event>
<event>
 8    1  0.6016610E-012  0.9118800E+02  0.7816164E-02  0.1184000E+00
        -11   -1    0    0    0    0  0.00000000000E+00  0.00000000000E+00  0.45593999997E+02  0.45594000000E+02  0.51100000000E-03 0. -1.
         11   -1    0    0    0    0 -0.00000000000E+00 -0.00000000000E+00 -0.45593999997E+02  0.45594000000E+02  0.51100000000E-03 0.  1.
         23    2    1    2    0    0  0.00000000000E+00  0.00000000000E+00  0.35527136788E-14  0.91188000000E+02  0.91188000000E+02 0.  0.
    9900012    2    3    3    0    0  0.19330228423E+02 -0.17809429715E+02 -0.31021534720E+02  0.50528817346E+02  0.29999870806E+02 0.  0.
         12    1    3    3    0    0 -0.19330228423E+02  0.17809429715E+02  0.31021534720E+02  0.40659182654E+02  0.00000000000E+00 0. -1.
         11    1    4    4    0    0 -0.50987561219E+01 -0.28740377231E+01 -0.12198813219E+01  0.59787555164E+01  0.51100000000E-03 0. -1.
        -11    1    4    4    0    0  0.14775662398E+02 -0.17338996595E+02 -0.23733010252E+02  0.32897063366E+02  0.51100000000E-03 0.  1.
        -12    1    4    4    0    0  0.96533221471E+01  0.24036046031E+01 -0.60686431464E+01  0.11652998464E+02  0.00000000000E+00 0.  1.
</event>
<event>
 8    1  0.6842539E-012  0.9118800E+02  0.7816164E-02  0.1184000E+00
        -11   -1    0    0    0    0  0.00000000000E+00  0.00000000000E+00  0.45593999997E+02  0.45594000000E+02  0.51100000000E-03 0. -1.
         11   -1    0    0    0    0 -0.00000000000E+00 -0.00000000000E+00 -0.45593999997E+02  0.45594000000E+02  0.51100000000E-03 0.  1.
         23    2    1    2    0    0  0.00000000000E+00 -0.44408920985E-15  0.00000000000E+00  0.91188000000E+02  0.91188000000E+02 0.  0.
    9900012    2    3    3    0    0  0.11582496216E+02 -0.19928073158E+01  0.38923511155E+02  0.50528865476E+02  0.30000017102E+02 0.  0.
        -12    1    3    3    0    0 -0.11582496216E+02  0.19928073158E+01 -0.38923511155E+02  0.40659134524E+02  0.00000000000E+00 0.  1.
         11    1    4    4    0    0  0.12316633881E+02 -0.93452815031E+01  0.16415665241E+02  0.22550118006E+02  0.51100000000E-03 0. -1.
        -11    1    4    4    0    0 -0.77307886157E+01  0.26332837315E+01  0.11624728198E+02  0.14206814624E+02  0.51100000000E-03 0.  1.
        -12    1    4    4    0    0  0.69966509511E+01  0.47191904557E+01  0.10883117716E+02  0.13771932846E+02  0.00000000000E+00 0.  1.
</event>
<event>
 8    1  0.6016610E-012  0.9118800E+02  0.7816164E-02  0.1184000E+00
        -11   -1    0    0    0    0  0.00000000000E+00  0.00000000000E+00  0.45593999997E+02  0.45594000000E+02  0.51100000000E-03 0. -1.
         11   -1    0    0    0    0 -0.00000000000E+00 -0.00000000000E+00 -0.45593999997E+02  0.45594000000E+02  0.51100000000E-03 0.  1.
         23    2    1    2    0    0 -0.35527136788E-14  0.00000000000E+00  0.00000000000E+00  0.91188000000E+02  0.91188000000E+02 0.  0.
    9900012    2    3    3    0    0 -0.20845634437E+02  0.14748287347E+02 -0.31640375187E+02  0.50528858387E+02  0.29999995553E+02 0.  0.
         12    1    3    3    0    0  0.20845634437E+02 -0.14748287347E+02  0.31640375187E+02  0.40659141613E+02  0.00000000000E+00 0. -1.
         11    1    4    4    0    0 -0.74714006987E+01  0.36112949150E+01 -0.21782932011E+02  0.23310070927E+02  0.51100000000E-03 0.  1.
        -11    1    4    4    0    0 -0.79175649377E+01  0.15964007023E+02 -0.51647401632E+01  0.18552948445E+02  0.51100000000E-03 0. -1.
         12    1    4    4    0    0 -0.54566688010E+01 -0.48270145915E+01 -0.46927030119E+01  0.86658390147E+01  0.00000000000E+00 0. -1.
</event>
<event>
 8    1  0.6016610E-012  0.9118800E+02  0.7816164E-02  0.1184000E+00
        -11   -1    0    0    0    0  0.00000000000E+00  0.00000000000E+00  0.45593999997E+02  0.45594000000E+02  0.51100000000E-03 0. -1.
         11   -1    0    0    0    0 -0.00000000000E+00 -0.00000000000E+00 -0.45593999997E+02  0.45594000000E+02  0.51100000000E-03 0.  1.
         23    2    1    2    0    0 -0.11102230246E-15  0.00000000000E+00  0.00000000000E+00  0.91188000000E+02  0.91188000000E+02 0.  0.
    9900012    2    3    3    0    0 -0.31574850619E+00 -0.23907110248E+02  0.32886446562E+02  0.50528831477E+02  0.29999913756E+02 0.  0.
        -12    1    3    3    0    0  0.31574850619E+00  0.23907110248E+02 -0.32886446562E+02  0.40659168523E+02  0.00000000000E+00 0.  1.
         11    1    4    4    0    0  0.12958850898E+02 -0.73195636592E+01  0.20152085283E+02  0.25052232840E+02  0.51100000000E-03 0. -1.
        -11    1    4    4    0    0 -0.49095992883E+01 -0.10461587395E+02  0.52718234370E+01  0.12702011597E+02  0.51100000000E-03 0.  1.
         12    1    4    4    0    0 -0.83650001162E+01 -0.61259591940E+01  0.74625378425E+01  0.12774587040E+02  0.00000000000E+00 0. -1.
</event>
<event>
 8    1  0.6016610E-012  0.9118800E+02  0.7816164E-02  0.1184000E+00
        -11   -1    0    0    0    0  0.00000000000E+00  0.00000000000E+00  0.45593999997E+02  0.45594000000E+02  0.51100000000E-03 0. -1.
         11   -1    0    0    0    0 -0.00000000000E+00 -0.00000000000E+00 -0.45593999997E+02  0.45594000000E+02  0.51100000000E-03 0.  1.
         23    2    1    2    0    0  0.00000000000E+00  0.00000000000E+00 -0.35527136788E-14  0.91188000000E+02  0.91188000000E+02 0.  0.
    9900012    2    3    3    0    0  0.15515378850E+02 -0.30890531094E+02 -0.21405921090E+02  0.50528863882E+02  0.30000012257E+02 0.  0.
         12    1    3    3    0    0 -0.15515378850E+02  0.30890531094E+02  0.21405921090E+02  0.40659136118E+02  0.00000000000E+00 0. -1.
         11    1    4    4    0    0 -0.32408098148E+01 -0.73449604310E+01 -0.84333858572E+01  0.11643594345E+02  0.51100000000E-03 0. -1.
        -11    1    4    4    0    0  0.17344791457E+02 -0.61964115130E+01 -0.25423001786E+01  0.18593025488E+02  0.51100000000E-03 0.  1.
        -12    1    4    4    0    0  0.14113972077E+01 -0.17349159150E+02 -0.10430235055E+02  0.20292244050E+02  0.00000000000E+00 0.  1.
</event>
<event>
 8    1  0.6106106E-012  0.9118800E+02  0.7816164E-02  0.1184000E+00
        -11   -1    0    0    0    0  0.00000000000E+00  0.00000000000E+00  0.45593999997E+02  0.45594000000E+02  0.51100000000E-03 0.  1.
         11   -1    0    0    0    0 -0.00000000000E+00 -0.00000000000E+00 -0.45593999997E+02  0.45594000000E+02  0.51100000000E-03 0. -1.
         23    2    1    2    0    0 -0.35527136788E-14  0.00000000000E+00  0.00000000000E+00  0.91188000000E+02  0.91188000000E+02 0.  0.
    9900012    2    3    3    0    0 -0.21981551528E+02 -0.19605618738E+02  0.28028508183E+02  0.50528853863E+02  0.29999981801E+02 0.  0.
        -12    1    3    3    0    0  0.21981551528E+02  0.19605618738E+02 -0.28028508183E+02  0.40659146137E+02  0.00000000000E+00 0.  1.
         11    1    4    4    0    0 -0.18070242028E+02 -0.99670192983E+01  0.14685937237E+02  0.25328874303E+02  0.51100000000E-03 0. -1.
        -11    1    4    4    0    0  0.39764251457E+01  0.39705449921E+01  0.40964242968E+01  0.69539827979E+01  0.51100000000E-03 0.  1.
        -12    1    4    4    0    0 -0.78877346451E+01 -0.13609144432E+02  0.92461466492E+01  0.18245996762E+02  0.00000000000E+00 0.  1.
</event>
<event>
 8    1  0.6016610E-012  0.9118800E+02  0.7816164E-02  0.1184000E+00
        -11   -1    0    0    0    0  0.00000000000E+00  0.00000000000E+00  0.45593999997E+02  0.45594000000E+02  0.51100000000E-03 0.  1.
         11   -1    0    0    0    0 -0.00000000000E+00 -0.00000000000E+00 -0.45593999997E+02  0.45594000000E+02  0.51100000000E-03 0. -1.
         23    2    1    2    0    0 -0.88817841970E-15 -0.71054273576E-14 -0.71054273576E-14  0.91188000000E+02  0.91188000000E+02 0.  0.
    9900012    2    3    3    0    0 -0.30755654593E+01  0.34634686612E+02  0.21074805874E+02  0.50528830527E+02  0.29999910868E+02 0.  0.
        -12    1    3    3    0    0  0.30755654593E+01 -0.34634686612E+02 -0.21074805874E+02  0.40659169473E+02  0.00000000000E+00 0.  1.
         11    1    4    4    0    0 -0.10100831554E+02  0.10455833085E+02 -0.12365884536E+01  0.14590421339E+02  0.51100000000E-03 0. -1.
        -11    1    4    4    0    0  0.75143466658E+01  0.67539045000E+01  0.46464484184E+01  0.11120706586E+02  0.51100000000E-03 0.  1.
         12    1    4    4    0    0 -0.48908057057E+00  0.17424949027E+02  0.17664945910E+02  0.24817702601E+02  0.00000000000E+00 0. -1.
</event>
<event>
 8    1  0.6016610E-012  0.9118800E+02  0.7816164E-02  0.1184000E+00
        -11   -1    0    0    0    0  0.00000000000E+00  0.00000000000E+00  0.45593999997E+02  0.45594000000E+02  0.51100000000E-03 0. -1.
         11   -1    0    0    0    0 -0.00000000000E+00 -0.00000000000E+00 -0.45593999997E+02  0.45594000000E+02  0.51100000000E-03 0.  1.
         23    2    1    2    0    0  0.00000000000E+00 -0.88817841970E-15  0.00000000000E+00  0.91188000000E+02  0.91188000000E+02 0.  0.
    9900012    2    3    3    0    0 -0.35350446864E+02 -0.77984551466E+01 -0.18512046899E+02  0.50528857406E+02  0.29999992570E+02 0.  0.
         12    1    3    3    0    0  0.35350446864E+02  0.77984551466E+01  0.18512046899E+02  0.40659142594E+02  0.00000000000E+00 0. -1.
         11    1    4    4    0    0  0.94628514285E+00 -0.47510593543E+01 -0.58206204167E+01  0.75728226479E+01  0.51100000000E-03 0. -1.
        -11    1    4    4    0    0 -0.29529418147E+02  0.97739916500E-01 -0.17262246394E+02  0.34204988525E+02  0.51100000000E-03 0.  1.
        -12    1    4    4    0    0 -0.67673138596E+01 -0.31451357088E+01  0.45708199115E+01  0.87510462326E+01  0.00000000000E+00 0.  1.
</event>
<event>
 8    1  0.6016610E-012  0.9118800E+02  0.7816164E-02  0.1184000E+00
        -11   -1    0    0    0    0  0.00000000000E+00  0.00000000000E+00  0.45593999997E+02  0.45594000000E+02  0.51100000000E-03 0. -1.
         11   -1    0    0    0    0 -0.00000000000E+00 -0.00000000000E+00 -0.45593999997E+02  0.45594000000E+02  0.51100000000E-03 0.  1.
         23    2    1    2    0    0  0.44408920985E-15  0.00000000000E+00  0.71054273576E-14  0.91188000000E+02  0.91188000000E+02 0.  0.
    9900012    2    3    3    0    0 -0.23520882963E+01 -0.38715160821E+01 -0.40405990378E+02  0.50528868005E+02  0.30000024788E+02 0.  0.
         12    1    3    3    0    0  0.23520882963E+01  0.38715160821E+01  0.40405990378E+02  0.40659131995E+02  0.00000000000E+00 0. -1.
         11    1    4    4    0    0 -0.11215395777E+02  0.18923405357E+00 -0.17447507484E+02  0.20742141394E+02  0.51100000000E-03 0. -1.
        -11    1    4    4    0    0  0.29952195533E+01 -0.10112513236E+02 -0.12577888547E+02  0.16414552832E+02  0.51100000000E-03 0.  1.
         12    1    4    4    0    0  0.58680879277E+01  0.60517631006E+01 -0.10380594348E+02  0.13372173779E+02  0.00000000000E+00 0. -1.
</event>
<event>
 8    1  0.6016610E-012  0.9118800E+02  0.7816164E-02  0.1184000E+00
        -11   -1    0    0    0    0  0.00000000000E+00  0.00000000000E+00  0.45593999997E+02  0.45594000000E+02  0.51100000000E-03 0. -1.
         11   -1    0    0    0    0 -0.00000000000E+00 -0.00000000000E+00 -0.45593999997E+02  0.45594000000E+02  0.51100000000E-03 0.  1.
         23    2    1    2    0    0  0.00000000000E+00  0.71054273576E-14  0.00000000000E+00  0.91188000000E+02  0.91188000000E+02 0.  0.
    9900012    2    3    3    0    0 -0.60148882372E+01  0.31446616794E+02  0.25061880145E+02  0.50528850664E+02  0.29999972078E+02 0.  0.
        -12    1    3    3    0    0  0.60148882372E+01 -0.31446616794E+02 -0.25061880145E+02  0.40659149336E+02  0.00000000000E+00 0.  1.
         11    1    4    4    0    0 -0.49513261510E+01  0.35149412573E+02  0.19187885891E+02  0.40350610901E+02  0.51100000000E-03 0. -1.
        -11    1    4    4    0    0  0.14208151381E+01 -0.44499799177E+01  0.11847645060E+01  0.48192016061E+01  0.51100000000E-03 0.  1.
        -12    1    4    4    0    0 -0.24843772242E+01  0.74718413871E+00  0.46892297483E+01  0.53590381564E+01  0.00000000000E+00 0.  1.
</event>
<event>
 8    1  0.6016610E-012  0.9118800E+02  0.7816164E-02  0.1184000E+00
        -11   -1    0    0    0    0  0.00000000000E+00  0.00000000000E+00  0.45593999997E+02  0.45594000000E+02  0.51100000000E-03 0. -1.
         11   -1    0    0    0    0 -0.00000000000E+00 -0.00000000000E+00 -0.45593999997E+02  0.45594000000E+02  0.51100000000E-03 0.  1.
         23    2    1    2    0    0  0.17763568394E-14  0.71054273576E-14  0.35527136788E-14  0.91188000000E+02  0.91188000000E+02 0.  0.
    9900012    2    3    3    0    0 -0.13333610004E+02 -0.34217221948E+02 -0.17451707709E+02  0.50528861599E+02  0.30000005317E+02 0.  0.
         12    1    3    3    0    0  0.13333610004E+02  0.34217221948E+02  0.17451707709E+02  0.40659138401E+02  0.00000000000E+00 0. -1.
         11    1    4    4    0    0 -0.15908294663E+02 -0.93976186384E+01 -0.35758440807E+01  0.18819557283E+02  0.51100000000E-03 0. -1.
        -11    1    4    4    0    0  0.36093290922E+01 -0.26026390690E+02 -0.11127954194E+02  0.28534744324E+02  0.51100000000E-03 0.  1.
        -12    1    4    4    0    0 -0.10346444327E+01  0.12067873811E+01 -0.27479094341E+01  0.31745599921E+01  0.00000000000E+00 0.  1.
</event>
<event>
 8    1  0.6016610E-012  0.9118800E+02  0.7816164E-02  0.1184000E+00
        -11   -1    0    0    0    0  0.00000000000E+00  0.00000000000E+00  0.45593999997E+02  0.45594000000E+02  0.51100000000E-03 0. -1.
         11   -1    0    0    0    0 -0.00000000000E+00 -0.00000000000E+00 -0.45593999997E+02  0.45594000000E+02  0.51100000000E-03 0.  1.
         23    2    1    2    0    0  0.00000000000E+00  0.22204460493E-15 -0.71054273576E-14  0.91188000000E+02  0.91188000000E+02 0.  0.
    9900012    2    3    3    0    0  0.84942271406E+01 -0.74476151645E+00 -0.39754986046E+02  0.50528862283E+02  0.30000007394E+02 0.  0.
         12    1    3    3    0    0 -0.84942271406E+01  0.74476151645E+00  0.39754986046E+02  0.40659137717E+02  0.00000000000E+00 0. -1.
         11    1    4    4    0    0 -0.96186160367E+01 -0.22307989060E+01 -0.95722773780E+01  0.13752190105E+02  0.51100000000E-03 0. -1.
        -11    1    4    4    0    0  0.92079299925E+01  0.10357268425E+01 -0.60929098882E+01  0.11089736517E+02  0.51100000000E-03 0.  1.
         12    1    4    4    0    0  0.89049131848E+01  0.45031054713E+00 -0.24089798780E+02  0.25686935661E+02  0.00000000000E+00 0. -1.
</event>
<event>
 8    1  0.6016610E-012  0.9118800E+02  0.7816164E-02  0.1184000E+00
        -11   -1    0    0    0    0  0.00000000000E+00  0.00000000000E+00  0.45593999997E+02  0.45594000000E+02  0.51100000000E-03 0.  1.
         11   -1    0    0    0    0 -0.00000000000E+00 -0.00000000000E+00 -0.45593999997E+02  0.45594000000E+02  0.51100000000E-03 0. -1.
         23    2    1    2    0    0 -0.35527136788E-14 -0.35527136788E-14  0.17763568394E-14  0.91188000000E+02  0.91188000000E+02 0.  0.
    9900012    2    3    3    0    0  0.25510602206E+02  0.30575463885E+02  0.82169657379E+01  0.50528827079E+02  0.29999900389E+02 0.  0.
        -12    1    3    3    0    0 -0.25510602206E+02 -0.30575463885E+02 -0.82169657379E+01  0.40659172921E+02  0.00000000000E+00 0.  1.
         11    1    4    4    0    0  0.14251256035E+02  0.12963713005E+02  0.94839272203E+01  0.21473263125E+02  0.51100000000E-03 0. -1.
        -11    1    4    4    0    0  0.67962019571E+01  0.17390770048E+02 -0.85301642345E+01  0.20527809090E+02  0.51100000000E-03 0.  1.
        -12    1    4    4    0    0  0.44631442142E+01  0.22098083195E+00  0.72632027521E+01  0.85277548642E+01  0.00000000000E+00 0.  1.
</event>
<event>
 8    1  0.6016610E-012  0.9118800E+02  0.7816164E-02  0.1184000E+00
        -11   -1    0    0    0    0  0.00000000000E+00  0.00000000000E+00  0.45593999997E+02  0.45594000000E+02  0.51100000000E-03 0.  1.
         11   -1    0    0    0    0 -0.00000000000E+00 -0.00000000000E+00 -0.45593999997E+02  0.45594000000E+02  0.51100000000E-03 0. -1.
         23    2    1    2    0    0  0.35527136788E-14  0.00000000000E+00  0.17763568394E-14  0.91188000000E+02  0.91188000000E+02 0.  0.
    9900012    2    3    3    0    0 -0.20855166290E+02  0.32584638092E+02 -0.12508779397E+02  0.50528853888E+02  0.29999981878E+02 0.  0.
         12    1    3    3    0    0  0.20855166290E+02 -0.32584638092E+02  0.12508779397E+02  0.40659146112E+02  0.00000000000E+00 0. -1.
         11    1    4    4    0    0 -0.10455461683E+02  0.23379475602E+02 -0.19471581740E+02  0.32172333676E+02  0.51100000000E-03 0. -1.
        -11    1    4    4    0    0 -0.35185804240E+01  0.11373531408E+01  0.68128628671E+01  0.77517147183E+01  0.51100000000E-03 0.  1.
        -12    1    4    4    0    0 -0.68811241830E+01  0.80678093488E+01  0.14993947617E+00  0.10604805494E+02  0.00000000000E+00 0.  1.
</event>
<event>
 8    1  0.6016610E-012  0.9118800E+02  0.7816164E-02  0.1184000E+00
        -11   -1    0    0    0    0  0.00000000000E+00  0.00000000000E+00  0.45593999997E+02  0.45594000000E+02  0.51100000000E-03 0. -1.
         11   -1    0    0    0    0 -0.00000000000E+00 -0.00000000000E+00 -0.45593999997E+02  0.45594000000E+02  0.51100000000E-03 0.  1.
         23    2    1    2    0    0  0.35527136788E-14 -0.35527136788E-14  0.35527136788E-14  0.91188000000E+02  0.91188000000E+02 0.  0.
    9900012    2    3    3    0    0  0.22429688515E+02 -0.21937313544E+02  0.25861601679E+02  0.50528940815E+02  0.30000246101E+02 0.  0.
        -12    1    3    3    0    0 -0.22429688515E+02  0.21937313544E+02 -0.25861601679E+02  0.40659059185E+02  0.00000000000E+00 0.  1.
         11    1    4    4    0    0  0.80152973101E+01 -0.20075176373E+02  0.54022199703E+01  0.22280971215E+02  0.51100000000E-03 0. -1.
        -11    1    4    4    0    0  0.30435171731E+01  0.29467966188E+00  0.15254315949E+02  0.15557762957E+02  0.51100000000E-03 0.  1.
         12    1    4    4    0    0  0.11370874032E+02 -0.21568168323E+01  0.52050657589E+01  0.12690206643E+02  0.00000000000E+00 0. -1.
</event>
<event>
 8    1  0.6016610E-012  0.9118800E+02  0.7816164E-02  0.1184000E+00
        -11   -1    0    0    0    0  0.00000000000E+00  0.00000000000E+00  0.45593999997E+02  0.45594000000E+02  0.51100000000E-03 0. -1.
         11   -1    0    0    0    0 -0.00000000000E+00 -0.00000000000E+00 -0.45593999997E+02  0.45594000000E+02  0.51100000000E-03 0.  1.
         23    2    1    2    0    0 -0.35527136788E-14 -0.17763568394E-14 -0.71054273576E-14  0.91188000000E+02  0.91188000000E+02 0.  0.
    9900012    2    3    3    0    0 -0.19397213718E+02 -0.80659223655E+01 -0.34811746992E+02  0.50528822287E+02  0.29999885824E+02 0.  0.
         12    1    3    3    0    0  0.19397213718E+02  0.80659223655E+01  0.34811746992E+02  0.40659177713E+02  0.00000000000E+00 0. -1.
         11    1    4    4    0    0 -0.59708734319E+01 -0.42999297606E+01 -0.10623173171E+01  0.74343287410E+01  0.51100000000E-03 0. -1.
        -11    1    4    4    0    0  0.25986626932E+01  0.57646830681E+01 -0.16593710213E+02  0.17757697981E+02  0.51100000000E-03 0.  1.
        -12    1    4    4    0    0 -0.16025002979E+02 -0.95306756730E+01 -0.17155719462E+02  0.25336795566E+02  0.00000000000E+00 0.  1.
</event>
<event>
 8    1  0.6016610E-012  0.9118800E+02  0.7816164E-02  0.1184000E+00
        -11   -1    0    0    0    0  0.00000000000E+00  0.00000000000E+00  0.45593999997E+02  0.45594000000E+02  0.51100000000E-03 0. -1.
         11   -1    0    0    0    0 -0.00000000000E+00 -0.00000000000E+00 -0.45593999997E+02  0.45594000000E+02  0.51100000000E-03 0.  1.
         23    2    1    2    0    0  0.00000000000E+00 -0.22204460493E-15  0.00000000000E+00  0.91188000000E+02  0.91188000000E+02 0.  0.
    9900012    2    3    3    0    0 -0.22848630121E+02 -0.16149189934E+01 -0.33593123960E+02  0.50528857865E+02  0.29999993968E+02 0.  0.
         12    1    3    3    0    0  0.22848630121E+02  0.16149189934E+01  0.33593123960E+02  0.40659142135E+02  0.00000000000E+00 0. -1.
         11    1    4    4    0    0 -0.40753187721E+01  0.35615984918E+01  0.45970299725E+01  0.71011190484E+01  0.51100000000E-03 0. -1.
        -11    1    4    4    0    0 -0.73059498349E+01  0.89961913477E+00 -0.10235803659E+02  0.12607850506E+02  0.51100000000E-03 0.  1.
         12    1    4    4    0    0 -0.11467361514E+02 -0.60761366200E+01 -0.27954350273E+02  0.30819888311E+02  0.00000000000E+00 0. -1.
</event>
<event>
 8    1  0.6016610E-012  0.9118800E+02  0.7816164E-02  0.1184000E+00
        -11   -1    0    0    0    0  0.00000000000E+00  0.00000000000E+00  0.45593999997E+02  0.45594000000E+02  0.51100000000E-03 0. -1.
         11   -1    0    0    0    0 -0.00000000000E+00 -0.00000000000E+00 -0.45593999997E+02  0.45594000000E+02  0.51100000000E-03 0.  1.
         23    2    1    2    0    0  0.00000000000E+00  0.00000000000E+00  0.00000000000E+00  0.91188000000E+02  0.91188000000E+02 0.  0.
    9900012    2    3    3    0    0 -0.87156031873E+01 -0.26270927758E+02  0.29783254912E+02  0.50528860100E+02  0.30000000761E+02 0.  0.
        -12    1    3    3    0    0  0.87156031873E+01  0.26270927758E+02 -0.29783254912E+02  0.40659139900E+02  0.00000000000E+00 0.  1.
         11    1    4    4    0    0  0.51398158260E+01 -0.17432578719E+02  0.26211174902E+02  0.31895739488E+02  0.51100000000E-03 0. -1.
        -11    1    4    4    0    0 -0.11924818257E+02 -0.38450537663E+01  0.67875669850E+00  0.12547766329E+02  0.51100000000E-03 0.  1.
        -12    1    4    4    0    0 -0.19306007563E+01 -0.49932952729E+01  0.28933233125E+01  0.60853542833E+01  0.00000000000E+00 0.  1.
</event>
<event>
 8    1  0.6016610E-012  0.9118800E+02  0.7816164E-02  0.1184000E+00
        -11   -1    0    0    0    0  0.00000000000E+00  0.00000000000E+00  0.45593999997E+02  0.45594000000E+02  0.51100000000E-03 0. -1.
         11   -1    0    0    0    0 -0.00000000000E+00 -0.00000000000E+00 -0.45593999997E+02  0.45594000000E+02  0.51100000000E-03 0.  1.
         23    2    1    2    0    0 -0.44408920985E-15  0.71054273576E-14  0.00000000000E+00  0.91188000000E+02  0.91188000000E+02 0.  0.
    9900012    2    3    3    0    0  0.12020403235E+01  0.36966849106E+02  0.16887061353E+02  0.50528859884E+02  0.30000000105E+02 0.  0.
        -12    1    3    3    0    0 -0.12020403235E+01 -0.36966849106E+02 -0.16887061353E+02  0.40659140116E+02  0.00000000000E+00 0.  1.
         11    1    4    4    0    0 -0.50810005736E+01  0.86886775256E+01  0.18431636477E+02  0.21000831114E+02  0.51100000000E-03 0. -1.
        -11    1    4    4    0    0  0.54756496585E+01  0.28077801657E+02 -0.17841808605E+01  0.28662326959E+02  0.51100000000E-03 0.  1.
        -12    1    4    4    0    0  0.80739123869E+00  0.20036992355E+00  0.23960573623E+00  0.86570181207E+00  0.00000000000E+00 0.  1.
</event>
<event>
 8    1  0.6016610E-012  0.9118800E+02  0.7816164E-02  0.1184000E+00
        -11   -1    0    0    0    0  0.00000000000E+00  0.00000000000E+00  0.45593999997E+02  0.45594000000E+02  0.51100000000E-03 0.  1.
         11   -1    0    0    0    0 -0.00000000000E+00 -0.00000000000E+00 -0.45593999997E+02  0.45594000000E+02  0.51100000000E-03 0. -1.
         23    2    1    2    0    0  0.00000000000E+00  0.13322676296E-14  0.00000000000E+00  0.91188000000E+02  0.91188000000E+02 0.  0.
    9900012    2    3    3    0    0 -0.40390807883E+02  0.21029948959E+01  0.41623880154E+01  0.50528862983E+02  0.30000009523E+02 0.  0.
        -12    1    3    3    0    0  0.40390807883E+02 -0.21029948959E+01 -0.41623880154E+01  0.40659137017E+02  0.00000000000E+00 0.  1.
         11    1    4    4    0    0 -0.25642866285E+02  0.91103398171E+01  0.62128998477E+01  0.27913348199E+02  0.51100000000E-03 0. -1.
        -11    1    4    4    0    0 -0.44014515677E+01 -0.96375372435E+01  0.26954541853E+01  0.10932537379E+02  0.51100000000E-03 0.  1.
         12    1    4    4    0    0 -0.10346490030E+02  0.26301923223E+01 -0.47459660175E+01  0.11682977405E+02  0.00000000000E+00 0. -1.
</event>
<event>
 8    1  0.6016610E-012  0.9118800E+02  0.7816164E-02  0.1184000E+00
        -11   -1    0    0    0    0  0.00000000000E+00  0.00000000000E+00  0.45593999997E+02  0.45594000000E+02  0.51100000000E-03 0. -1.
         11   -1    0    0    0    0 -0.00000000000E+00 -0.00000000000E+00 -0.45593999997E+02  0.45594000000E+02  0.51100000000E-03 0.  1.
         23    2    1    2    0    0  0.17763568394E-14  0.00000000000E+00  0.00000000000E+00  0.91188000000E+02  0.91188000000E+02 0.  0.
    9900012    2    3    3    0    0 -0.12122913633E+02 -0.16041248613E+02  0.35339485708E+02  0.50528856598E+02  0.29999990117E+02 0.  0.
        -12    1    3    3    0    0  0.12122913633E+02  0.16041248613E+02 -0.35339485708E+02  0.40659143402E+02  0.00000000000E+00 0.  1.
         11    1    4    4    0    0 -0.11116247474E+01 -0.15923991043E+02  0.32288067200E+02  0.36018446442E+02  0.51100000000E-03 0. -1.
        -11    1    4    4    0    0 -0.91408023389E+01  0.66173952217E+00  0.59844249643E+01  0.10945570292E+02  0.51100000000E-03 0.  1.
         12    1    4    4    0    0 -0.18704865471E+01 -0.77899709266E+00 -0.29330064561E+01  0.35648398652E+01  0.00000000000E+00 0. -1.
</event>
<event>
 8    1  0.6016610E-012  0.9118800E+02  0.7816164E-02  0.1184000E+00
        -11   -1    0    0    0    0  0.00000000000E+00  0.00000000000E+00  0.45593999997E+02  0.45594000000E+02  0.51100000000E-03 0. -1.
         11   -1    0    0    0    0 -0.00000000000E+00 -0.00000000000E+00 -0.45593999997E+02  0.45594000000E+02  0.51100000000E-03 0.  1.
         23    2    1    2    0    0  0.00000000000E+00  0.00000000000E+00  0.00000000000E+00  0.91188000000E+02  0.91188000000E+02 0.  0.
    9900012    2    3    3    0    0 -0.20182193670E+01 -0.17630032847E+02 -0.36582434327E+02  0.50528858729E+02  0.29999996593E+02 0.  0.
         12    1    3    3    0    0  0.20182193670E+01  0.17630032847E+02  0.36582434327E+02  0.40659141271E+02  0.00000000000E+00 0. -1.
         11    1    4    4    0    0 -0.46071959396E+00  0.63845522644E+01 -0.33266813113E+01  0.72139849577E+01  0.51100000000E-03 0. -1.
        -11    1    4    4    0    0  0.55429429529E+01 -0.74499593326E+01 -0.78111526918E+01  0.12134258003E+02  0.51100000000E-03 0.  1.
         12    1    4    4    0    0 -0.71004427260E+01 -0.16564625778E+02 -0.25444600324E+02  0.31180615769E+02  0.00000000000E+00 0. -1.
</event>
<event>
 8    1  0.6016610E-012  0.9118800E+02  0.7816164E-02  0.1184000E+00
        -11   -1    0    0    0    0  0.00000000000E+00  0.00000000000E+00  0.45593999997E+02  0.45594000000E+02  0.51100000000E-03 0. -1.
         11   -1    0    0    0    0 -0.00000000000E+00 -0.00000000000E+00 -0.45593999997E+02  0.45594000000E+02  0.51100000000E-03 0.  1.
         23    2    1    2    0    0 -0.17763568394E-14  0.88817841970E-15  0.00000000000E+00  0.91188000000E+02  0.91188000000E+02 0.  0.
    9900012    2    3    3    0    0 -0.14481478974E+02  0.61933701180E+01 -0.37484593000E+02  0.50528858604E+02  0.29999996212E+02 0.  0.
         12    1    3    3    0    0  0.14481478974E+02 -0.61933701180E+01  0.37484593000E+02  0.40659141396E+02  0.00000000000E+00 0. -1.
         11    1    4    4    0    0 -0.25901605071E+01  0.44229022884E+01 -0.37919423365E+01  0.63757213749E+01  0.51100000000E-03 0. -1.
        -11    1    4    4    0    0 -0.17854242329E+02 -0.17426181386E+01 -0.32511367896E+02  0.37132192635E+02  0.51100000000E-03 0.  1.
        -12    1    4    4    0    0  0.59629238629E+01  0.35130859683E+01 -0.11812827678E+01  0.70209445941E+01  0.00000000000E+00 0.  1.
</event>
<event>
 8    1  0.6016610E-012  0.9118800E+02  0.7816164E-02  0.1184000E+00
        -11   -1    0    0    0    0  0.00000000000E+00  0.00000000000E+00  0.45593999997E+02  0.45594000000E+02  0.51100000000E-03 0. -1.
         11   -1    0    0    0    0 -0.00000000000E+00 -0.00000000000E+00 -0.45593999997E+02  0.45594000000E+02  0.51100000000E-03 0.  1.
         23    2    1    2    0    0 -0.88817841970E-15  0.35527136788E-14  0.71054273576E-14  0.91188000000E+02  0.91188000000E+02 0.  0.
    9900012    2    3    3    0    0  0.59064080648E+01 -0.22212375575E+02 -0.33539374036E+02  0.50528869468E+02  0.30000029235E+02 0.  0.
         12    1    3    3    0    0 -0.59064080648E+01  0.22212375575E+02  0.33539374036E+02  0.40659130532E+02  0.00000000000E+00 0. -1.
         11    1    4    4    0    0  0.71229698383E+00  0.17807247861E+01 -0.14517034721E+01  0.24053671215E+01  0.51100000000E-03 0. -1.
        -11    1    4    4    0    0  0.38588608293E+01 -0.15236053059E+02 -0.35347650306E+02  0.38684421957E+02  0.51100000000E-03 0.  1.
        -12    1    4    4    0    0  0.13352502517E+01 -0.87570473021E+01  0.32599797426E+01  0.94390803899E+01  0.00000000000E+00 0.  1.
</event>
<event>
 8    1  0.6016610E-012  0.9118800E+02  0.7816164E-02  0.1184000E+00
        -11   -1    0    0    0    0  0.00000000000E+00  0.00000000000E+00  0.45593999997E+02  0.45594000000E+02  0.51100000000E-03 0. -1.
         11   -1    0    0    0    0 -0.00000000000E+00 -0.00000000000E+00 -0.45593999997E+02  0.45594000000E+02  0.51100000000E-03 0.  1.
         23    2    1    2    0    0 -0.13322676296E-14  0.44408920985E-15  0.00000000000E+00  0.91188000000E+02  0.91188000000E+02 0.  0.
    9900012    2    3    3    0    0 -0.39655270055E+01  0.21771105008E+01 -0.40406729228E+02  0.50528819223E+02  0.29999876511E+02 0.  0.
         12    1    3    3    0    0  0.39655270055E+01 -0.21771105008E+01  0.40406729228E+02  0.40659180777E+02  0.00000000000E+00 0. -1.
         11    1    4    4    0    0 -0.57773521711E+01  0.74700788333E+01 -0.73182821040E+01  0.11947264503E+02  0.51100000000E-03 0. -1.
        -11    1    4    4    0    0 -0.43457056983E+01 -0.10629199766E+02 -0.16533973378E+02  0.20130507237E+02  0.51100000000E-03 0.  1.
        -12    1    4    4    0    0  0.61575308639E+01  0.53362314335E+01 -0.16554473746E+02  0.18451047484E+02  0.00000000000E+00 0.  1.
</event>
<event>
 8    1  0.6016610E-012  0.9118800E+02  0.7816164E-02  0.1184000E+00
        -11   -1    0    0    0    0  0.00000000000E+00  0.00000000000E+00  0.45593999997E+02  0.45594000000E+02  0.51100000000E-03 0. -1.
         11   -1    0    0    0    0 -0.00000000000E+00 -0.00000000000E+00 -0.45593999997E+02  0.45594000000E+02  0.51100000000E-03 0.  1.
         23    2    1    2    0    0  0.35527136788E-14  0.00000000000E+00  0.00000000000E+00  0.91188000000E+02  0.91188000000E+02 0.  0.
    9900012    2    3    3    0    0  0.28633229408E+02 -0.28170513653E+02  0.63028646245E+01  0.50528858737E+02  0.29999996616E+02 0.  0.
        -12    1    3    3    0    0 -0.28633229408E+02  0.28170513653E+02 -0.63028646245E+01  0.40659141263E+02  0.00000000000E+00 0.  1.
         11    1    4    4    0    0  0.90717568119E+01 -0.85500362443E+01  0.14818672017E+02  0.19364734236E+02  0.51100000000E-03 0. -1.
        -11    1    4    4    0    0  0.20809456581E+01 -0.83685326005E+01 -0.53165647862E+01  0.10130574224E+02  0.51100000000E-03 0.  1.
         12    1    4    4    0    0  0.17480526938E+02 -0.11251944808E+02 -0.31992426061E+01  0.21033550277E+02  0.00000000000E+00 0. -1.
</event>
<event>
 8    1  0.6016610E-012  0.9118800E+02  0.7816164E-02  0.1184000E+00
        -11   -1    0    0    0    0  0.00000000000E+00  0.00000000000E+00  0.45593999997E+02  0.45594000000E+02  0.51100000000E-03 0. -1.
         11   -1    0    0    0    0 -0.00000000000E+00 -0.00000000000E+00 -0.45593999997E+02  0.45594000000E+02  0.51100000000E-03 0.  1.
         23    2    1    2    0    0 -0.33306690739E-15  0.53290705182E-14 -0.71054273576E-14  0.91188000000E+02  0.91188000000E+02 0.  0.
    9900012    2    3    3    0    0 -0.87151254291E+00  0.14796437225E+02 -0.37861210075E+02  0.50528864286E+02  0.30000013483E+02 0.  0.
         12    1    3    3    0    0  0.87151254291E+00 -0.14796437225E+02  0.37861210075E+02  0.40659135714E+02  0.00000000000E+00 0. -1.
         11    1    4    4    0    0  0.89747957810E+01 -0.13528547552E+01 -0.53733611234E+01  0.10547520340E+02  0.51100000000E-03 0. -1.
        -11    1    4    4    0    0 -0.34725911263E+01  0.15070653735E+02 -0.28385342602E+02  0.32325085739E+02  0.51100000000E-03 0.  1.
         12    1    4    4    0    0 -0.63737171976E+01  0.10786382456E+01 -0.41025063502E+01  0.76562582070E+01  0.00000000000E+00 0. -1.
</event>
<event>
 8    1  0.6016610E-012  0.9118800E+02  0.7816164E-02  0.1184000E+00
        -11   -1    0    0    0    0  0.00000000000E+00  0.00000000000E+00  0.45593999997E+02  0.45594000000E+02  0.51100000000E-03 0. -1.
         11   -1    0    0    0    0 -0.00000000000E+00 -0.00000000000E+00 -0.45593999997E+02  0.45594000000E+02  0.51100000000E-03 0.  1.
         23    2    1    2    0    0  0.00000000000E+00  0.00000000000E+00  0.00000000000E+00  0.91188000000E+02  0.91188000000E+02 0.  0.
    9900012    2    3    3    0    0  0.19235250263E+02 -0.32618428838E+02 -0.14805700767E+02  0.50528861694E+02  0.30000005606E+02 0.  0.
         12    1    3    3    0    0 -0.19235250263E+02  0.32618428838E+02  0.14805700767E+02  0.40659138306E+02  0.00000000000E+00 0. -1.
         11    1    4    4    0    0 -0.58904241212E+01 -0.10083023733E+02 -0.91897988716E+01  0.14859908058E+02  0.51100000000E-03 0. -1.
        -11    1    4    4    0    0  0.17131556853E+02 -0.16158275906E+02 -0.85119780584E+01  0.25040644784E+02  0.51100000000E-03 0.  1.
        -12    1    4    4    0    0  0.79941175314E+01 -0.63771291992E+01  0.28960761625E+01  0.10628308853E+02  0.00000000000E+00 0.  1.
</event>
<event>
 8    1  0.6016610E-012  0.9118800E+02  0.7816164E-02  0.1184000E+00
        -11   -1    0    0    0    0  0.00000000000E+00  0.00000000000E+00  0.45593999997E+02  0.45594000000E+02  0.51100000000E-03 0. -1.
         11   -1    0    0    0    0 -0.00000000000E+00 -0.00000000000E+00 -0.45593999997E+02  0.45594000000E+02  0.51100000000E-03 0.  1.
         23    2    1    2    0    0 -0.71054273576E-14  0.88817841970E-15 -0.35527136788E-14  0.91188000000E+02  0.91188000000E+02 0.  0.
    9900012    2    3    3    0    0 -0.34260672189E+02  0.64236711459E+01 -0.20931053444E+02  0.50528853328E+02  0.29999980175E+02 0.  0.
         12    1    3    3    0    0  0.34260672189E+02 -0.64236711459E+01  0.20931053444E+02  0.40659146672E+02  0.00000000000E+00 0. -1.
         11    1    4    4    0    0 -0.17004207512E+02  0.11678385457E+02 -0.46658028224E+01  0.21149408413E+02  0.51100000000E-03 0. -1.
        -11    1    4    4    0    0  0.23175162772E+01 -0.33789269814E+01 -0.58088098827E+01  0.71084669061E+01  0.51100000000E-03 0.  1.
        -12    1    4    4    0    0 -0.19573980955E+02 -0.18757873300E+01 -0.10456440739E+02  0.22270978008E+02  0.00000000000E+00 0.  1.
</event>
<event>
 8    1  0.6016610E-012  0.9118800E+02  0.7816164E-02  0.1184000E+00
        -11   -1    0    0    0    0  0.00000000000E+00  0.00000000000E+00  0.45593999997E+02  0.45594000000E+02  0.51100000000E-03 0. -1.
         11   -1    0    0    0    0 -0.00000000000E+00 -0.00000000000E+00 -0.45593999997E+02  0.45594000000E+02  0.51100000000E-03 0.  1.
         23    2    1    2    0    0 -0.35527136788E-14  0.17763568394E-14  0.00000000000E+00  0.91188000000E+02  0.91188000000E+02 0.  0.
    9900012    2    3    3    0    0 -0.31734103850E+02  0.15814131329E+02 -0.19900352852E+02  0.50528878754E+02  0.30000057462E+02 0.  0.
         12    1    3    3    0    0  0.31734103850E+02 -0.15814131329E+02  0.19900352852E+02  0.40659121246E+02  0.00000000000E+00 0. -1.
         11    1    4    4    0    0 -0.27970843628E+01  0.11303367403E+02 -0.11439013701E+02  0.16323015355E+02  0.51100000000E-03 0. -1.
        -11    1    4    4    0    0 -0.19275919003E+02  0.10061228985E+02 -0.35590653147E+01  0.22033073509E+02  0.51100000000E-03 0.  1.
         12    1    4    4    0    0 -0.96611004844E+01 -0.55504650591E+01 -0.49022738364E+01  0.12172789890E+02  0.00000000000E+00 0. -1.
</event>
<event>
 8    1  0.6016610E-012  0.9118800E+02  0.7816164E-02  0.1184000E+00
        -11   -1    0    0    0    0  0.00000000000E+00  0.00000000000E+00  0.45593999997E+02  0.45594000000E+02  0.51100000000E-03 0. -1.
         11   -1    0    0    0    0 -0.00000000000E+00 -0.00000000000E+00 -0.45593999997E+02  0.45594000000E+02  0.51100000000E-03 0.  1.
         23    2    1    2    0    0  0.00000000000E+00 -0.17763568394E-14 -0.71054273576E-14  0.91188000000E+02  0.91188000000E+02 0.  0.
    9900012    2    3    3    0    0  0.14900512281E+02  0.13696552874E+02  0.35263928187E+02  0.50528862552E+02  0.30000008212E+02 0.  0.
        -12    1    3    3    0    0 -0.14900512281E+02 -0.13696552874E+02 -0.35263928187E+02  0.40659137448E+02  0.00000000000E+00 0.  1.
         11    1    4    4    0    0  0.42786100840E+01  0.53719393264E+01  0.32289142636E+02  0.33011406647E+02  0.51100000000E-03 0. -1.
        -11    1    4    4    0    0  0.83956778795E+01  0.90801057597E+01  0.59515487824E+01  0.13724309120E+02  0.51100000000E-03 0.  1.
         12    1    4    4    0    0  0.22262243178E+01 -0.75549221228E+00 -0.29767632309E+01  0.37931467845E+01  0.00000000000E+00 0. -1.
</event>
<event>
 8    1  0.6016610E-012  0.9118800E+02  0.7816164E-02  0.1184000E+00
        -11   -1    0    0    0    0  0.00000000000E+00  0.00000000000E+00  0.45593999997E+02  0.45594000000E+02  0.51100000000E-03 0. -1.
         11   -1    0    0    0    0 -0.00000000000E+00 -0.00000000000E+00 -0.45593999997E+02  0.45594000000E+02  0.51100000000E-03 0.  1.
         23    2    1    2    0    0  0.35527136788E-14  0.35527136788E-14  0.00000000000E+00  0.91188000000E+02  0.91188000000E+02 0.  0.
    9900012    2    3    3    0    0 -0.26050467732E+02  0.17757391670E+02 -0.25675158464E+02  0.50528860927E+02  0.30000003275E+02 0.  0.
         12    1    3    3    0    0  0.26050467732E+02 -0.17757391670E+02  0.25675158464E+02  0.40659139073E+02  0.00000000000E+00 0. -1.
         11    1    4    4    0    0 -0.93760250864E+01  0.20562358722E+02 -0.11326046664E+02  0.25278444887E+02  0.51100000000E-03 0. -1.
        -11    1    4    4    0    0 -0.86090030807E+01  0.77583479601E+00 -0.13957263026E+02  0.16417126579E+02  0.51100000000E-03 0.  1.
         12    1    4    4    0    0 -0.80654395646E+01 -0.35808018475E+01 -0.39184877422E+00  0.88332894611E+01  0.00000000000E+00 0. -1.
</event>
<event>
 8    1  0.6016610E-012  0.9118800E+02  0.7816164E-02  0.1184000E+00
        -11   -1    0    0    0    0  0.00000000000E+00  0.00000000000E+00  0.45593999997E+02  0.45594000000E+02  0.51100000000E-03 0. -1.
         11   -1    0    0    0    0 -0.00000000000E+00 -0.00000000000E+00 -0.45593999997E+02  0.45594000000E+02  0.51100000000E-03 0.  1.
         23    2    1    2    0    0  0.17763568394E-14  0.00000000000E+00  0.00000000000E+00  0.91188000000E+02  0.91188000000E+02 0.  0.
    9900012    2    3    3    0    0  0.11237394089E+02 -0.29399692468E+02  0.25739951078E+02  0.50528855584E+02  0.29999987033E+02 0.  0.
        -12    1    3    3    0    0 -0.11237394089E+02  0.29399692468E+02 -0.25739951078E+02  0.40659144416E+02  0.00000000000E+00 0.  1.
         11    1    4    4    0    0  0.11213187989E+01 -0.17170457898E+02  0.25656754392E+02  0.30892572350E+02  0.51100000000E-03 0. -1.
        -11    1    4    4    0    0  0.12584471889E+02 -0.93720743141E+01  0.10896113141E+01  0.15728698698E+02  0.51100000000E-03 0.  1.
         12    1    4    4    0    0 -0.24683965981E+01 -0.28571602566E+01 -0.10064146278E+01  0.39075845353E+01  0.00000000000E+00 0. -1.
</event>
<event>
 8    1  0.6016610E-012  0.9118800E+02  0.7816164E-02  0.1184000E+00
        -11   -1    0    0    0    0  0.00000000000E+00  0.00000000000E+00  0.45593999997E+02  0.45594000000E+02  0.51100000000E-03 0. -1.
         11   -1    0    0    0    0 -0.00000000000E+00 -0.00000000000E+00 -0.45593999997E+02  0.45594000000E+02  0.51100000000E-03 0.  1.
         23    2    1    2    0    0 -0.88817841970E-15  0.00000000000E+00  0.00000000000E+00  0.91188000000E+02  0.91188000000E+02 0.  0.
    9900012    2    3    3    0    0  0.69463063460E+01  0.21140214002E+02  0.34029478597E+02  0.50528865313E+02  0.30000016605E+02 0.  0.
        -12    1    3    3    0    0 -0.69463063460E+01 -0.21140214002E+02 -0.34029478597E+02  0.40659134687E+02  0.00000000000E+00 0.  1.
         11    1    4    4    0    0  0.14288003100E+02  0.18964448060E+02  0.17628448049E+02  0.29572952232E+02  0.51100000000E-03 0. -1.
        -11    1    4    4    0    0 -0.74582195348E+01 -0.18147598433E+01  0.14765869873E+02  0.16641793932E+02  0.51100000000E-03 0.  1.
         12    1    4    4    0    0  0.11652278057E+00  0.39905257849E+01  0.16351606751E+01  0.43141191489E+01  0.00000000000E+00 0. -1.
</event>
<event>
 8    1  0.6016610E-012  0.9118800E+02  0.7816164E-02  0.1184000E+00
        -11   -1    0    0    0    0  0.00000000000E+00  0.00000000000E+00  0.45593999997E+02  0.45594000000E+02  0.51100000000E-03 0.  1.
         11   -1    0    0    0    0 -0.00000000000E+00 -0.00000000000E+00 -0.45593999997E+02  0.45594000000E+02  0.51100000000E-03 0. -1.
         23    2    1    2    0    0 -0.88817841970E-15  0.71054273576E-14  0.88817841970E-15  0.91188000000E+02  0.91188000000E+02 0.  0.
    9900012    2    3    3    0    0  0.20905487718E+01  0.40060452546E+02 -0.66299247657E+01  0.50528853984E+02  0.29999982169E+02 0.  0.
         12    1    3    3    0    0 -0.20905487718E+01 -0.40060452546E+02  0.66299247657E+01  0.40659146016E+02  0.00000000000E+00 0. -1.
         11    1    4    4    0    0 -0.41869365793E+01  0.26133047029E+02 -0.93518756854E+01  0.28069986890E+02  0.51100000000E-03 0. -1.
        -11    1    4    4    0    0  0.11546919360E+02  0.75468962102E+01  0.15705097477E+00  0.13795349013E+02  0.51100000000E-03 0.  1.
        -12    1    4    4    0    0 -0.52694340093E+01  0.63805093073E+01  0.25648999450E+01  0.86635180802E+01  0.00000000000E+00 0.  1.
</event>
<event>
 8    1  0.6016610E-012  0.9118800E+02  0.7816164E-02  0.1184000E+00
        -11   -1    0    0    0    0  0.00000000000E+00  0.00000000000E+00  0.45593999997E+02  0.45594000000E+02  0.51100000000E-03 0. -1.
         11   -1    0    0    0    0 -0.00000000000E+00 -0.00000000000E+00 -0.45593999997E+02  0.45594000000E+02  0.51100000000E-03 0.  1.
         23    2    1    2    0    0  0.55511151231E-15  0.00000000000E+00 -0.35527136788E-14  0.91188000000E+02  0.91188000000E+02 0.  0.
    9900012    2    3    3    0    0  0.55118827009E+00 -0.27667379183E+02  0.29789058503E+02  0.50528736777E+02  0.29999625904E+02 0.  0.
        -12    1    3    3    0    0 -0.55118827009E+00  0.27667379183E+02 -0.29789058503E+02  0.40659263223E+02  0.00000000000E+00 0.  1.
         11    1    4    4    0    0  0.39595873466E+01 -0.28507394885E+02  0.20106648452E+02  0.35108791026E+02  0.51100000000E-03 0. -1.
        -11    1    4    4    0    0  0.42279107958E+01  0.10703175956E+01  0.35229490048E+01  0.56064230490E+01  0.51100000000E-03 0.  1.
         12    1    4    4    0    0 -0.76363098724E+01 -0.23030189327E+00  0.61594610471E+01  0.98135227019E+01  0.00000000000E+00 0. -1.
</event>
<event>
 8    1  0.6016610E-012  0.9118800E+02  0.7816164E-02  0.1184000E+00
        -11   -1    0    0    0    0  0.00000000000E+00  0.00000000000E+00  0.45593999997E+02  0.45594000000E+02  0.51100000000E-03 0. -1.
         11   -1    0    0    0    0 -0.00000000000E+00 -0.00000000000E+00 -0.45593999997E+02  0.45594000000E+02  0.51100000000E-03 0.  1.
         23    2    1    2    0    0 -0.35527136788E-14  0.00000000000E+00  0.00000000000E+00  0.91188000000E+02  0.91188000000E+02 0.  0.
    9900012    2    3    3    0    0  0.10950313523E+02 -0.12085375131E+01  0.39138165836E+02  0.50528856451E+02  0.29999989668E+02 0.  0.
        -12    1    3    3    0    0 -0.10950313523E+02  0.12085375131E+01 -0.39138165836E+02  0.40659143549E+02  0.00000000000E+00 0.  1.
         11    1    4    4    0    0 -0.77415054556E+01 -0.52353445725E+01  0.19811216074E+02  0.21904885805E+02  0.51100000000E-03 0. -1.
        -11    1    4    4    0    0  0.17708098119E+02  0.59734935347E+01  0.15777351291E+02  0.24457804031E+02  0.51100000000E-03 0.  1.
         12    1    4    4    0    0  0.98372085979E+00 -0.19466864754E+01  0.35495984705E+01  0.41661666151E+01  0.00000000000E+00 0. -1.
</event>
<event>
 8    1  0.6016610E-012  0.9118800E+02  0.7816164E-02  0.1184000E+00
        -11   -1    0    0    0    0  0.00000000000E+00  0.00000000000E+00  0.45593999997E+02  0.45594000000E+02  0.51100000000E-03 0. -1.
         11   -1    0    0    0    0 -0.00000000000E+00 -0.00000000000E+00 -0.45593999997E+02  0.45594000000E+02  0.51100000000E-03 0.  1.
         23    2    1    2    0    0  0.00000000000E+00  0.00000000000E+00  0.71054273576E-14  0.91188000000E+02  0.91188000000E+02 0.  0.
    9900012    2    3    3    0    0  0.70405885606E+01  0.10427277546E+02  0.38663522630E+02  0.50528856053E+02  0.29999988459E+02 0.  0.
        -12    1    3    3    0    0 -0.70405885606E+01 -0.10427277546E+02 -0.38663522630E+02  0.40659143947E+02  0.00000000000E+00 0.  1.
         11    1    4    4    0    0  0.46803093323E+01  0.58325937743E+01  0.37864416787E+02  0.38595835325E+02  0.51100000000E-03 0. -1.
        -11    1    4    4    0    0  0.47467790700E+01  0.55085831127E+01  0.36232420154E+01  0.81243019646E+01  0.51100000000E-03 0.  1.
         12    1    4    4    0    0 -0.23864998417E+01 -0.91389934125E+00 -0.28241361719E+01  0.38087187632E+01  0.00000000000E+00 0. -1.
</event>
<event>
 8    1  0.6016610E-012  0.9118800E+02  0.7816164E-02  0.1184000E+00
        -11   -1    0    0    0    0  0.00000000000E+00  0.00000000000E+00  0.45593999997E+02  0.45594000000E+02  0.51100000000E-03 0. -1.
         11   -1    0    0    0    0 -0.00000000000E+00 -0.00000000000E+00 -0.45593999997E+02  0.45594000000E+02  0.51100000000E-03 0.  1.
         23    2    1    2    0    0  0.00000000000E+00  0.17763568394E-14  0.00000000000E+00  0.91188000000E+02  0.91188000000E+02 0.  0.
    9900012    2    3    3    0    0 -0.32047320919E+02 -0.15390883320E+02  0.19729551828E+02  0.50528864706E+02  0.30000014761E+02 0.  0.
        -12    1    3    3    0    0  0.32047320919E+02  0.15390883320E+02 -0.19729551828E+02  0.40659135294E+02  0.00000000000E+00 0.  1.
         11    1    4    4    0    0 -0.86837492022E+01 -0.52143738086E+01 -0.59945425742E+01  0.11769950525E+02  0.51100000000E-03 0. -1.
        -11    1    4    4    0    0 -0.38956628288E+01  0.10715508562E+00  0.12459532805E+02  0.13054793336E+02  0.51100000000E-03 0.  1.
         12    1    4    4    0    0 -0.19467908888E+02 -0.10283664597E+02  0.13264561598E+02  0.25704120845E+02  0.00000000000E+00 0. -1.
</event>
<event>
 8    1  0.6016610E-012  0.9118800E+02  0.7816164E-02  0.1184000E+00
        -11   -1    0    0    0    0  0.00000000000E+00  0.00000000000E+00  0.45593999997E+02  0.45594000000E+02  0.51100000000E-03 0. -1.
         11   -1    0    0    0    0 -0.00000000000E+00 -0.00000000000E+00 -0.45593999997E+02  0.45594000000E+02  0.51100000000E-03 0.  1.
         23    2    1    2    0    0 -0.35527136788E-14  0.00000000000E+00  0.35527136788E-14  0.91188000000E+02  0.91188000000E+02 0.  0.
    9900012    2    3    3    0    0 -0.27628789999E+02  0.87644977740E+01  0.28513139078E+02  0.50528861321E+02  0.30000004473E+02 0.  0.
        -12    1    3    3    0    0  0.27628789999E+02 -0.87644977740E+01 -0.28513139078E+02  0.40659138679E+02  0.00000000000E+00 0.  1.
         11    1    4    4    0    0 -0.21102577025E+02 -0.24081740365E+01  0.35426908762E+01  0.21532968170E+02  0.51100000000E-03 0. -1.
        -11    1    4    4    0    0  0.13722014008E+01  0.11858507385E+01  0.17871574595E+01  0.25461953390E+01  0.51100000000E-03 0.  1.
         12    1    4    4    0    0 -0.78984143744E+01  0.99868210721E+01  0.23183290742E+02  0.26449697813E+02  0.00000000000E+00 0. -1.
</event>
<event>
 8    1  0.6016610E-012  0.9118800E+02  0.7816164E-02  0.1184000E+00
        -11   -1    0    0    0    0  0.00000000000E+00  0.00000000000E+00  0.45593999997E+02  0.45594000000E+02  0.51100000000E-03 0. -1.
         11   -1    0    0    0    0 -0.00000000000E+00 -0.00000000000E+00 -0.45593999997E+02  0.45594000000E+02  0.51100000000E-03 0.  1.
         23    2    1    2    0    0  0.88817841970E-15 -0.71054273576E-14 -0.88817841970E-15  0.91188000000E+02  0.91188000000E+02 0.  0.
    9900012    2    3    3    0    0 -0.74074543491E+01 -0.39188196365E+02 -0.79108259084E+01  0.50528852433E+02  0.29999977457E+02 0.  0.
        -12    1    3    3    0    0  0.74074543491E+01  0.39188196365E+02  0.79108259084E+01  0.40659147567E+02  0.00000000000E+00 0.  1.
         11    1    4    4    0    0 -0.77840704142E+01 -0.14828700494E+02  0.10021025965E+02  0.19516738257E+02  0.51100000000E-03 0. -1.
        -11    1    4    4    0    0  0.29596902266E+01 -0.19129884017E+02 -0.12505992418E+02  0.23045868943E+02  0.51100000000E-03 0.  1.
        -12    1    4    4    0    0 -0.25830741615E+01 -0.52296118547E+01 -0.54258594560E+01  0.79662452329E+01  0.00000000000E+00 0.  1.
</event>
<event>
 8    1  0.6016610E-012  0.9118800E+02  0.7816164E-02  0.1184000E+00
        -11   -1    0    0    0    0  0.00000000000E+00  0.00000000000E+00  0.45593999997E+02  0.45594000000E+02  0.51100000000E-03 0. -1.
         11   -1    0    0    0    0 -0.00000000000E+00 -0.00000000000E+00 -0.45593999997E+02  0.45594000000E+02  0.51100000000E-03 0.  1.
         23    2    1    2    0    0  0.00000000000E+00  0.00000000000E+00  0.00000000000E+00  0.91188000000E+02  0.91188000000E+02 0.  0.
    9900012    2    3    3    0    0  0.20339798980E+02  0.96366398289E+01 -0.33861399374E+02  0.50528848296E+02  0.29999964879E+02 0.  0.
         12    1    3    3    0    0 -0.20339798980E+02 -0.96366398289E+01  0.33861399374E+02  0.40659151704E+02  0.00000000000E+00 0. -1.
         11    1    4    4    0    0  0.24333760267E+02  0.68762063219E+01 -0.20519762258E+02  0.32564931222E+02  0.51100000000E-03 0. -1.
        -11    1    4    4    0    0 -0.17443336535E+01  0.67194611480E+01 -0.10529337564E+02  0.12611931169E+02  0.51100000000E-03 0.  1.
         12    1    4    4    0    0 -0.22496276335E+01 -0.39590276411E+01 -0.28122995521E+01  0.53519859046E+01  0.00000000000E+00 0. -1.
</event>
<event>
 8    1  0.9379404E-012  0.9118800E+02  0.7816164E-02  0.1184000E+00
        -11   -1    0    0    0    0  0.00000000000E+00  0.00000000000E+00  0.45593999997E+02  0.45594000000E+02  0.51100000000E-03 0. -1.
         11   -1    0    0    0    0 -0.00000000000E+00 -0.00000000000E+00 -0.45593999997E+02  0.45594000000E+02  0.51100000000E-03 0.  1.
         23    2    1    2    0    0  0.27755575616E-16  0.35527136788E-14  0.00000000000E+00  0.91188000000E+02  0.91188000000E+02 0.  0.
    9900012    2    3    3    0    0 -0.30581257617E-01 -0.25746998119E+02  0.31468346205E+02  0.50528860065E+02  0.30000000654E+02 0.  0.
        -12    1    3    3    0    0  0.30581257617E-01  0.25746998119E+02 -0.31468346205E+02  0.40659139935E+02  0.00000000000E+00 0.  1.
         11    1    4    4    0    0  0.18850093737E+01 -0.72939453143E+01  0.15005313725E+02  0.16790304906E+02  0.51100000000E-03 0. -1.
        -11    1    4    4    0    0 -0.55269172387E+00 -0.16844920240E+02 -0.28697168532E+00  0.16856427826E+02  0.51100000000E-03 0.  1.
        -12    1    4    4    0    0 -0.13628989075E+01 -0.16081325651E+01  0.16750004165E+02  0.16882127333E+02  0.00000000000E+00 0.  1.
</event>
<event>
 8    1  0.6016610E-012  0.9118800E+02  0.7816164E-02  0.1184000E+00
        -11   -1    0    0    0    0  0.00000000000E+00  0.00000000000E+00  0.45593999997E+02  0.45594000000E+02  0.51100000000E-03 0. -1.
         11   -1    0    0    0    0 -0.00000000000E+00 -0.00000000000E+00 -0.45593999997E+02  0.45594000000E+02  0.51100000000E-03 0.  1.
         23    2    1    2    0    0 -0.88817841970E-15  0.00000000000E+00  0.00000000000E+00  0.91188000000E+02  0.91188000000E+02 0.  0.
    9900012    2    3    3    0    0  0.58540988195E+01  0.17256739102E+02 -0.36346896022E+02  0.50528900553E+02  0.30000123720E+02 0.  0.
         12    1    3    3    0    0 -0.58540988195E+01 -0.17256739102E+02  0.36346896022E+02  0.40659099447E+02  0.00000000000E+00 0. -1.
         11    1    4    4    0    0  0.41595677832E+01  0.77627907117E+01 -0.42452033189E+01  0.97767415460E+01  0.51100000000E-03 0. -1.
        -11    1    4    4    0    0 -0.90686773059E+01  0.10389875706E+02 -0.21992021212E+02  0.25958417181E+02  0.51100000000E-03 0.  1.
        -12    1    4    4    0    0  0.10763208342E+02 -0.89592731569E+00 -0.10109671491E+02  0.14793741826E+02  0.00000000000E+00 0.  1.
</event>
<event>
 8    1  0.6016610E-012  0.9118800E+02  0.7816164E-02  0.1184000E+00
        -11   -1    0    0    0    0  0.00000000000E+00  0.00000000000E+00  0.45593999997E+02  0.45594000000E+02  0.51100000000E-03 0. -1.
         11   -1    0    0    0    0 -0.00000000000E+00 -0.00000000000E+00 -0.45593999997E+02  0.45594000000E+02  0.51100000000E-03 0.  1.
         23    2    1    2    0    0  0.35527136788E-14  0.35527136788E-14  0.00000000000E+00  0.91188000000E+02  0.91188000000E+02 0.  0.
    9900012    2    3    3    0    0 -0.31869261518E+02  0.20615150750E+02  0.14578497418E+02  0.50528845347E+02  0.29999955917E+02 0.  0.
        -12    1    3    3    0    0  0.31869261518E+02 -0.20615150750E+02 -0.14578497418E+02  0.40659154653E+02  0.00000000000E+00 0.  1.
         11    1    4    4    0    0 -0.19153649989E+02  0.52955065774E-01  0.85866256701E+00  0.19172960486E+02  0.51100000000E-03 0. -1.
        -11    1    4    4    0    0 -0.60738055028E+01  0.19656456147E+02  0.66695105983E+01  0.21627523053E+02  0.51100000000E-03 0.  1.
         12    1    4    4    0    0 -0.66418060259E+01  0.90573953765E+00  0.70503242522E+01  0.97283618075E+01  0.00000000000E+00 0. -1.
</event>
<event>
 8    1  0.6016610E-012  0.9118800E+02  0.7816164E-02  0.1184000E+00
        -11   -1    0    0    0    0  0.00000000000E+00  0.00000000000E+00  0.45593999997E+02  0.45594000000E+02  0.51100000000E-03 0. -1.
         11   -1    0    0    0    0 -0.00000000000E+00 -0.00000000000E+00 -0.45593999997E+02  0.45594000000E+02  0.51100000000E-03 0.  1.
         23    2    1    2    0    0  0.00000000000E+00  0.17763568394E-14  0.00000000000E+00  0.91188000000E+02  0.91188000000E+02 0.  0.
    9900012    2    3    3    0    0  0.15696797715E+02  0.14602863350E+02 -0.34547547708E+02  0.50528854299E+02  0.29999983128E+02 0.  0.
         12    1    3    3    0    0 -0.15696797715E+02 -0.14602863350E+02  0.34547547708E+02  0.40659145701E+02  0.00000000000E+00 0. -1.
         11    1    4    4    0    0  0.53658437120E+01 -0.58746664890E+01 -0.30652643524E+01  0.85264195832E+01  0.51100000000E-03 0. -1.
        -11    1    4    4    0    0  0.12716427203E+02  0.21318866395E+02 -0.30409644982E+02  0.39254911710E+02  0.51100000000E-03 0.  1.
        -12    1    4    4    0    0 -0.23854732002E+01 -0.84133655569E+00 -0.10726383729E+01  0.27475230059E+01  0.00000000000E+00 0.  1.
</event>
<event>
 8    1  0.6016610E-012  0.9118800E+02  0.7816164E-02  0.1184000E+00
        -11   -1    0    0    0    0  0.00000000000E+00  0.00000000000E+00  0.45593999997E+02  0.45594000000E+02  0.51100000000E-03 0. -1.
         11   -1    0    0    0    0 -0.00000000000E+00 -0.00000000000E+00 -0.45593999997E+02  0.45594000000E+02  0.51100000000E-03 0.  1.
         23    2    1    2    0    0 -0.34694469520E-17  0.88817841970E-15  0.71054273576E-14  0.91188000000E+02  0.91188000000E+02 0.  0.
    9900012    2    3    3    0    0 -0.22059897848E-01 -0.24399218690E+01 -0.40585764825E+02  0.50528954121E+02  0.30000286546E+02 0.  0.
         12    1    3    3    0    0  0.22059897848E-01  0.24399218690E+01  0.40585764825E+02  0.40659045879E+02  0.00000000000E+00 0. -1.
         11    1    4    4    0    0 -0.25786810526E+01 -0.66663588324E+01 -0.53935818452E+00  0.71680432173E+01  0.51100000000E-03 0. -1.
        -11    1    4    4    0    0 -0.10859128945E+01  0.41162361971E+01 -0.39437007265E+02  0.39666108324E+02  0.51100000000E-03 0.  1.
        -12    1    4    4    0    0  0.36425340493E+01  0.11020076628E+00 -0.60939937481E+00  0.36948025803E+01  0.00000000000E+00 0.  1.
</event>
<event>
 8    1  0.6016610E-012  0.9118800E+02  0.7816164E-02  0.1184000E+00
        -11   -1    0    0    0    0  0.00000000000E+00  0.00000000000E+00  0.45593999997E+02  0.45594000000E+02  0.51100000000E-03 0. -1.
         11   -1    0    0    0    0 -0.00000000000E+00 -0.00000000000E+00 -0.45593999997E+02  0.45594000000E+02  0.51100000000E-03 0.  1.
         23    2    1    2    0    0  0.00000000000E+00  0.00000000000E+00  0.35527136788E-14  0.91188000000E+02  0.91188000000E+02 0.  0.
    9900012    2    3    3    0    0 -0.54434295451E+01 -0.33329082765E+02  0.22643061103E+02  0.50528844828E+02  0.29999954339E+02 0.  0.
        -12    1    3    3    0    0  0.54434295451E+01  0.33329082765E+02 -0.22643061103E+02  0.40659155172E+02  0.00000000000E+00 0.  1.
         11    1    4    4    0    0 -0.31150417734E+00 -0.52664170953E+01  0.98666812439E+01  0.11188546952E+02  0.51100000000E-03 0. -1.
        -11    1    4    4    0    0 -0.20035350548E+01 -0.20631680927E+02 -0.36446213496E+01  0.21046702250E+02  0.51100000000E-03 0.  1.
        -12    1    4    4    0    0 -0.31283903129E+01 -0.74309847435E+01  0.16421001209E+02  0.18293595625E+02  0.00000000000E+00 0.  1.
</event>
<event>
 8    1  0.6016610E-012  0.9118800E+02  0.7816164E-02  0.1184000E+00
        -11   -1    0    0    0    0  0.00000000000E+00  0.00000000000E+00  0.45593999997E+02  0.45594000000E+02  0.51100000000E-03 0. -1.
         11   -1    0    0    0    0 -0.00000000000E+00 -0.00000000000E+00 -0.45593999997E+02  0.45594000000E+02  0.51100000000E-03 0.  1.
         23    2    1    2    0    0 -0.35527136788E-14  0.00000000000E+00  0.00000000000E+00  0.91188000000E+02  0.91188000000E+02 0.  0.
    9900012    2    3    3    0    0  0.23191735165E+02  0.20743788752E+02  0.26172570931E+02  0.50528870387E+02  0.30000032028E+02 0.  0.
        -12    1    3    3    0    0 -0.23191735165E+02 -0.20743788752E+02 -0.26172570931E+02  0.40659129613E+02  0.00000000000E+00 0.  1.
         11    1    4    4    0    0  0.87687603062E+01 -0.11457229954E+01 -0.44699074029E+01  0.99087794880E+01  0.51100000000E-03 0.  1.
        -11    1    4    4    0    0  0.84259042168E+01  0.12379887954E+02  0.13762155609E+02  0.20338495886E+02  0.51100000000E-03 0. -1.
        -12    1    4    4    0    0  0.59970706420E+01  0.95096237936E+01  0.16880322725E+02  0.20281595013E+02  0.00000000000E+00 0.  1.
</event>
<event>
 8    1  0.6016610E-012  0.9118800E+02  0.7816164E-02  0.1184000E+00
        -11   -1    0    0    0    0  0.00000000000E+00  0.00000000000E+00  0.45593999997E+02  0.45594000000E+02  0.51100000000E-03 0. -1.
         11   -1    0    0    0    0 -0.00000000000E+00 -0.00000000000E+00 -0.45593999997E+02  0.45594000000E+02  0.51100000000E-03 0.  1.
         23    2    1    2    0    0 -0.44408920985E-15  0.35527136788E-14  0.00000000000E+00  0.91188000000E+02  0.91188000000E+02 0.  0.
    9900012    2    3    3    0    0  0.39333095968E+01  0.23310862595E+02  0.33080186039E+02  0.50528856530E+02  0.29999989910E+02 0.  0.
        -12    1    3    3    0    0 -0.39333095968E+01 -0.23310862595E+02 -0.33080186039E+02  0.40659143470E+02  0.00000000000E+00 0.  1.
         11    1    4    4    0    0  0.10674437513E+02  0.24459034107E+02  0.32267563895E+02  0.41873424097E+02  0.51100000000E-03 0. -1.
        -11    1    4    4    0    0 -0.25478593403E+01  0.36920646174E+00 -0.21057757882E+01  0.33259874565E+01  0.51100000000E-03 0.  1.
         12    1    4    4    0    0 -0.41932685763E+01 -0.15173779735E+01  0.29183979326E+01  0.53294449768E+01  0.00000000000E+00 0. -1.
</event>
<event>
 8    1  0.6016610E-012  0.9118800E+02  0.7816164E-02  0.1184000E+00
        -11   -1    0    0    0    0  0.00000000000E+00  0.00000000000E+00  0.45593999997E+02  0.45594000000E+02  0.51100000000E-03 0.  1.
         11   -1    0    0    0    0 -0.00000000000E+00 -0.00000000000E+00 -0.45593999997E+02  0.45594000000E+02  0.51100000000E-03 0. -1.
         23    2    1    2    0    0  0.00000000000E+00 -0.71054273576E-14  0.17763568394E-14  0.91188000000E+02  0.91188000000E+02 0.  0.
    9900012    2    3    3    0    0  0.27924335903E+01  0.38301165960E+02  0.13356234325E+02  0.50528855954E+02  0.29999988158E+02 0.  0.
        -12    1    3    3    0    0 -0.27924335903E+01 -0.38301165960E+02 -0.13356234325E+02  0.40659144046E+02  0.00000000000E+00 0.  1.
         11    1    4    4    0    0  0.68112930512E+01  0.16709560390E+01  0.76542678370E+01  0.10381407587E+02  0.51100000000E-03 0. -1.
        -11    1    4    4    0    0 -0.86871418776E+01  0.13205240199E+02  0.32417174378E+01  0.16135474425E+02  0.51100000000E-03 0.  1.
         12    1    4    4    0    0  0.46682824168E+01  0.23424969722E+02  0.24602490499E+01  0.24011973942E+02  0.00000000000E+00 0. -1.
</event>
<event>
 8    1  0.6016610E-012  0.9118800E+02  0.7816164E-02  0.1184000E+00
        -11   -1    0    0    0    0  0.00000000000E+00  0.00000000000E+00  0.45593999997E+02  0.45594000000E+02  0.51100000000E-03 0.  1.
         11   -1    0    0    0    0 -0.00000000000E+00 -0.00000000000E+00 -0.45593999997E+02  0.45594000000E+02  0.51100000000E-03 0. -1.
         23    2    1    2    0    0  0.00000000000E+00  0.24424906542E-14 -0.72164496601E-15  0.91188000000E+02  0.91188000000E+02 0.  0.
    9900012    2    3    3    0    0  0.40634219103E+02  0.13391595910E+01  0.48287041070E+00  0.50528852513E+02  0.29999977699E+02 0.  0.
        -12    1    3    3    0    0 -0.40634219103E+02 -0.13391595910E+01 -0.48287041070E+00  0.40659147487E+02  0.00000000000E+00 0.  1.
         11    1    4    4    0    0  0.13310927820E+02 -0.10084280280E+02 -0.50357014754E+01  0.17442241765E+02  0.51100000000E-03 0. -1.
        -11    1    4    4    0    0  0.12393062066E+02  0.19553908087E+01  0.85043252748E+01  0.15157014522E+02  0.51100000000E-03 0.  1.
         12    1    4    4    0    0  0.14930229217E+02  0.94680490623E+01 -0.29857533887E+01  0.17929596226E+02  0.00000000000E+00 0. -1.
</event>
<event>
 8    1  0.6016610E-012  0.9118800E+02  0.7816164E-02  0.1184000E+00
        -11   -1    0    0    0    0  0.00000000000E+00  0.00000000000E+00  0.45593999997E+02  0.45594000000E+02  0.51100000000E-03 0. -1.
         11   -1    0    0    0    0 -0.00000000000E+00 -0.00000000000E+00 -0.45593999997E+02  0.45594000000E+02  0.51100000000E-03 0.  1.
         23    2    1    2    0    0  0.00000000000E+00  0.71054273576E-14  0.00000000000E+00  0.91188000000E+02  0.91188000000E+02 0.  0.
    9900012    2    3    3    0    0  0.18934887289E+02  0.34709168644E+02 -0.94820944928E+01  0.50528850223E+02  0.29999970738E+02 0.  0.
        -12    1    3    3    0    0 -0.18934887289E+02 -0.34709168644E+02  0.94820944928E+01  0.40659149777E+02  0.00000000000E+00 0.  1.
         11    1    4    4    0    0 -0.63715585694E+00  0.11080045415E+02  0.69711479096E+01  0.13106116031E+02  0.51100000000E-03 0. -1.
        -11    1    4    4    0    0  0.19203335356E+02  0.23578231029E+02 -0.11586035626E+02  0.32541316646E+02  0.51100000000E-03 0.  1.
         12    1    4    4    0    0  0.36870778915E+00  0.50892199967E-01 -0.48672067766E+01  0.48814175457E+01  0.00000000000E+00 0. -1.
</event>
<event>
 8    1  0.6016610E-012  0.9118800E+02  0.7816164E-02  0.1184000E+00
        -11   -1    0    0    0    0  0.00000000000E+00  0.00000000000E+00  0.45593999997E+02  0.45594000000E+02  0.51100000000E-03 0. -1.
         11   -1    0    0    0    0 -0.00000000000E+00 -0.00000000000E+00 -0.45593999997E+02  0.45594000000E+02  0.51100000000E-03 0.  1.
         23    2    1    2    0    0  0.00000000000E+00  0.35527136788E-14  0.35527136788E-14  0.91188000000E+02  0.91188000000E+02 0.  0.
    9900012    2    3    3    0    0  0.13873992149E+02 -0.23556776691E+02 -0.30095781352E+02  0.50528862756E+02  0.30000008834E+02 0.  0.
         12    1    3    3    0    0 -0.13873992149E+02  0.23556776691E+02  0.30095781352E+02  0.40659137244E+02  0.00000000000E+00 0. -1.
         11    1    4    4    0    0  0.49995556882E+01 -0.12618853515E+02 -0.30440947968E+02  0.33329901508E+02  0.51100000000E-03 0.  1.
        -11    1    4    4    0    0  0.10153931767E+02 -0.54076104175E+01 -0.10672722735E+00  0.11504606544E+02  0.51100000000E-03 0. -1.
        -12    1    4    4    0    0 -0.12794953067E+01 -0.55303127588E+01  0.45189384319E+00  0.56943547040E+01  0.00000000000E+00 0.  1.
</event>
<event>
 8    1  0.6016610E-012  0.9118800E+02  0.7816164E-02  0.1184000E+00
        -11   -1    0    0    0    0  0.00000000000E+00  0.00000000000E+00  0.45593999997E+02  0.45594000000E+02  0.51100000000E-03 0.  1.
         11   -1    0    0    0    0 -0.00000000000E+00 -0.00000000000E+00 -0.45593999997E+02  0.45594000000E+02  0.51100000000E-03 0. -1.
         23    2    1    2    0    0  0.00000000000E+00 -0.66613381478E-15  0.88817841970E-15  0.91188000000E+02  0.91188000000E+02 0.  0.
    9900012    2    3    3    0    0  0.40013903738E+02 -0.15051006591E+01 -0.70561182284E+01  0.50528848203E+02  0.29999964599E+02 0.  0.
        -12    1    3    3    0    0 -0.40013903738E+02  0.15051006591E+01  0.70561182284E+01  0.40659151797E+02  0.00000000000E+00 0.  1.
         11    1    4    4    0    0  0.19812322757E+02 -0.48266993272E+01 -0.24204105522E+00  0.20393227885E+02  0.51100000000E-03 0. -1.
        -11    1    4    4    0    0  0.47900314107E+00  0.18790023089E+01 -0.99289600415E+01  0.10116538017E+02  0.51100000000E-03 0.  1.
        -12    1    4    4    0    0  0.19722577840E+02  0.14425963593E+01  0.31148828683E+01  0.20019082301E+02  0.00000000000E+00 0.  1.
</event>
<event>
 8    1  0.6016610E-012  0.9118800E+02  0.7816164E-02  0.1184000E+00
        -11   -1    0    0    0    0  0.00000000000E+00  0.00000000000E+00  0.45593999997E+02  0.45594000000E+02  0.51100000000E-03 0. -1.
         11   -1    0    0    0    0 -0.00000000000E+00 -0.00000000000E+00 -0.45593999997E+02  0.45594000000E+02  0.51100000000E-03 0.  1.
         23    2    1    2    0    0  0.00000000000E+00 -0.13322676296E-14 -0.88817841970E-15  0.91188000000E+02  0.91188000000E+02 0.  0.
    9900012    2    3    3    0    0  0.40217587522E+02 -0.37271262084E+01 -0.46712065642E+01  0.50528856051E+02  0.29999988453E+02 0.  0.
         12    1    3    3    0    0 -0.40217587522E+02  0.37271262084E+01  0.46712065642E+01  0.40659143949E+02  0.00000000000E+00 0. -1.
         11    1    4    4    0    0  0.23406300281E+02  0.10349719758E+02  0.56513484969E+01  0.26208955187E+02  0.51100000000E-03 0. -1.
        -11    1    4    4    0    0  0.68927246357E+01 -0.56742682416E+01 -0.53102314669E+01  0.10387758732E+02  0.51100000000E-03 0.  1.
         12    1    4    4    0    0  0.99185626056E+01 -0.84025777245E+01 -0.50123235942E+01  0.13932142132E+02  0.00000000000E+00 0. -1.
</event>
<event>
 8    1  0.6016610E-012  0.9118800E+02  0.7816164E-02  0.1184000E+00
        -11   -1    0    0    0    0  0.00000000000E+00  0.00000000000E+00  0.45593999997E+02  0.45594000000E+02  0.51100000000E-03 0. -1.
         11   -1    0    0    0    0 -0.00000000000E+00 -0.00000000000E+00 -0.45593999997E+02  0.45594000000E+02  0.51100000000E-03 0.  1.
         23    2    1    2    0    0 -0.35527136788E-14  0.00000000000E+00  0.88817841970E-15  0.91188000000E+02  0.91188000000E+02 0.  0.
    9900012    2    3    3    0    0  0.17317613418E+02 -0.36688911019E+02 -0.26812952779E+01  0.50528864856E+02  0.30000015217E+02 0.  0.
        -12    1    3    3    0    0 -0.17317613418E+02  0.36688911019E+02  0.26812952779E+01  0.40659135144E+02  0.00000000000E+00 0.  1.
         11    1    4    4    0    0  0.21187193051E+02 -0.13897199495E+02 -0.40377521204E+01  0.25657995744E+02  0.51100000000E-03 0. -1.
        -11    1    4    4    0    0 -0.33629759296E+01 -0.16565550638E+02 -0.31158102627E+01  0.17188232862E+02  0.51100000000E-03 0.  1.
         12    1    4    4    0    0 -0.50660370340E+00 -0.62261608861E+01  0.44722671051E+01  0.76826362501E+01  0.00000000000E+00 0. -1.
</event>
<event>
 8    1  0.6016610E-012  0.9118800E+02  0.7816164E-02  0.1184000E+00
        -11   -1    0    0    0    0  0.00000000000E+00  0.00000000000E+00  0.45593999997E+02  0.45594000000E+02  0.51100000000E-03 0. -1.
         11   -1    0    0    0    0 -0.00000000000E+00 -0.00000000000E+00 -0.45593999997E+02  0.45594000000E+02  0.51100000000E-03 0.  1.
         23    2    1    2    0    0  0.00000000000E+00  0.00000000000E+00  0.71054273576E-14  0.91188000000E+02  0.91188000000E+02 0.  0.
    9900012    2    3    3    0    0 -0.18937339795E+02  0.84923108722E+01 -0.34963164224E+02  0.50528867754E+02  0.30000024026E+02 0.  0.
         12    1    3    3    0    0  0.18937339795E+02 -0.84923108722E+01  0.34963164224E+02  0.40659132246E+02  0.00000000000E+00 0. -1.
         11    1    4    4    0    0 -0.60023854867E+01 -0.36222115785E+00  0.47616826515E+01  0.76702971020E+01  0.51100000000E-03 0. -1.
        -11    1    4    4    0    0 -0.59582585252E+01  0.35987094952E+01 -0.13055148732E+02  0.14794879633E+02  0.51100000000E-03 0.  1.
         12    1    4    4    0    0 -0.69766957832E+01  0.52558225348E+01 -0.26669698143E+02  0.28063691019E+02  0.00000000000E+00 0. -1.
</event>
<event>
 8    1  0.6016610E-012  0.9118800E+02  0.7816164E-02  0.1184000E+00
        -11   -1    0    0    0    0  0.00000000000E+00  0.00000000000E+00  0.45593999997E+02  0.45594000000E+02  0.51100000000E-03 0. -1.
         11   -1    0    0    0    0 -0.00000000000E+00 -0.00000000000E+00 -0.45593999997E+02  0.45594000000E+02  0.51100000000E-03 0.  1.
         23    2    1    2    0    0  0.00000000000E+00 -0.35527136788E-14  0.55511151231E-15  0.91188000000E+02  0.91188000000E+02 0.  0.
    9900012    2    3    3    0    0 -0.37316868365E+02 -0.16140885596E+02 -0.29815292712E+00  0.50528858992E+02  0.29999997391E+02 0.  0.
         12    1    3    3    0    0  0.37316868365E+02  0.16140885596E+02  0.29815292712E+00  0.40659141008E+02  0.00000000000E+00 0. -1.
         11    1    4    4    0    0 -0.24025895172E+01  0.80035958065E+00 -0.30460701407E+01  0.39612567967E+01  0.51100000000E-03 0. -1.
        -11    1    4    4    0    0 -0.21424584789E+02 -0.93756804679E+00  0.10960228394E+02  0.24083572699E+02  0.51100000000E-03 0.  1.
        -12    1    4    4    0    0 -0.13489694058E+02 -0.16003677130E+02 -0.82123111803E+01  0.22484029496E+02  0.00000000000E+00 0.  1.
</event>
<event>
 8    1  0.6016610E-012  0.9118800E+02  0.7816164E-02  0.1184000E+00
        -11   -1    0    0    0    0  0.00000000000E+00  0.00000000000E+00  0.45593999997E+02  0.45594000000E+02  0.51100000000E-03 0. -1.
         11   -1    0    0    0    0 -0.00000000000E+00 -0.00000000000E+00 -0.45593999997E+02  0.45594000000E+02  0.51100000000E-03 0.  1.
         23    2    1    2    0    0  0.00000000000E+00 -0.44408920985E-15  0.00000000000E+00  0.91188000000E+02  0.91188000000E+02 0.  0.
    9900012    2    3    3    0    0  0.34772390906E+02 -0.31443326901E+01  0.20836520601E+02  0.50528848655E+02  0.29999965971E+02 0.  0.
        -12    1    3    3    0    0 -0.34772390906E+02  0.31443326901E+01 -0.20836520601E+02  0.40659151345E+02  0.00000000000E+00 0.  1.
         11    1    4    4    0    0  0.33908005892E+02 -0.62250900503E+01  0.14631597445E+02  0.37451144892E+02  0.51100000000E-03 0. -1.
        -11    1    4    4    0    0 -0.29837083547E+01 -0.12674369398E+01  0.65002632373E+01  0.72637686057E+01  0.51100000000E-03 0.  1.
         12    1    4    4    0    0  0.38480933684E+01  0.43481943000E+01 -0.29534008121E+00  0.58139351567E+01  0.00000000000E+00 0. -1.
</event>
<event>
 8    1  0.6016610E-012  0.9118800E+02  0.7816164E-02  0.1184000E+00
        -11   -1    0    0    0    0  0.00000000000E+00  0.00000000000E+00  0.45593999997E+02  0.45594000000E+02  0.51100000000E-03 0. -1.
         11   -1    0    0    0    0 -0.00000000000E+00 -0.00000000000E+00 -0.45593999997E+02  0.45594000000E+02  0.51100000000E-03 0.  1.
         23    2    1    2    0    0  0.35527136788E-14  0.00000000000E+00  0.00000000000E+00  0.91188000000E+02  0.91188000000E+02 0.  0.
    9900012    2    3    3    0    0 -0.19091477741E+02 -0.34086860819E+02  0.11259014645E+02  0.50528880315E+02  0.30000062205E+02 0.  0.
        -12    1    3    3    0    0  0.19091477741E+02  0.34086860819E+02 -0.11259014645E+02  0.40659119685E+02  0.00000000000E+00 0.  1.
         11    1    4    4    0    0  0.20889340352E+01 -0.44164710070E+00  0.10223149946E+02  0.10443729824E+02  0.51100000000E-03 0. -1.
        -11    1    4    4    0    0 -0.16896477318E+02 -0.23680383265E+02 -0.70902776176E+00  0.29099041530E+02  0.51100000000E-03 0.  1.
         12    1    4    4    0    0 -0.42839344584E+01 -0.99648304531E+01  0.17448924609E+01  0.10986108961E+02  0.00000000000E+00 0. -1.
</event>
<event>
 8    1  0.6016610E-012  0.9118800E+02  0.7816164E-02  0.1184000E+00
        -11   -1    0    0    0    0  0.00000000000E+00  0.00000000000E+00  0.45593999997E+02  0.45594000000E+02  0.51100000000E-03 0. -1.
         11   -1    0    0    0    0 -0.00000000000E+00 -0.00000000000E+00 -0.45593999997E+02  0.45594000000E+02  0.51100000000E-03 0.  1.
         23    2    1    2    0    0  0.38857805862E-15  0.00000000000E+00  0.71054273576E-14  0.91188000000E+02  0.91188000000E+02 0.  0.
    9900012    2    3    3    0    0 -0.41793136329E+00 -0.71298744345E+01 -0.40026929419E+02  0.50528869970E+02  0.30000030761E+02 0.  0.
         12    1    3    3    0    0  0.41793136329E+00  0.71298744345E+01  0.40026929419E+02  0.40659130030E+02  0.00000000000E+00 0. -1.
         11    1    4    4    0    0  0.10517172278E+02  0.62690276472E+01 -0.13464903143E+02  0.18199319693E+02  0.51100000000E-03 0. -1.
        -11    1    4    4    0    0 -0.54586459140E+01 -0.53910279607E+01 -0.65411006082E+01  0.10081963852E+02  0.51100000000E-03 0.  1.
        -12    1    4    4    0    0 -0.54764577269E+01 -0.80078741210E+01 -0.20020925667E+02  0.22247586425E+02  0.00000000000E+00 0.  1.
</event>
<event>
 8    1  0.6016610E-012  0.9118800E+02  0.7816164E-02  0.1184000E+00
        -11   -1    0    0    0    0  0.00000000000E+00  0.00000000000E+00  0.45593999997E+02  0.45594000000E+02  0.51100000000E-03 0. -1.
         11   -1    0    0    0    0 -0.00000000000E+00 -0.00000000000E+00 -0.45593999997E+02  0.45594000000E+02  0.51100000000E-03 0.  1.
         23    2    1    2    0    0  0.00000000000E+00  0.00000000000E+00  0.00000000000E+00  0.91188000000E+02  0.91188000000E+02 0.  0.
    9900012    2    3    3    0    0 -0.22825059680E+02  0.32116439082E+02  0.10035721974E+02  0.50528871575E+02  0.30000035640E+02 0.  0.
        -12    1    3    3    0    0  0.22825059680E+02 -0.32116439082E+02 -0.10035721974E+02  0.40659128425E+02  0.00000000000E+00 0.  1.
         11    1    4    4    0    0 -0.16172186383E+02  0.76681073224E+01 -0.59226029370E+00  0.17907826636E+02  0.51100000000E-03 0. -1.
        -11    1    4    4    0    0  0.17437500092E+01  0.18417619121E+02  0.10526260701E+01  0.18529905021E+02  0.51100000000E-03 0.  1.
        -12    1    4    4    0    0 -0.83966233062E+01  0.60307126388E+01  0.95753561978E+01  0.14091139918E+02  0.00000000000E+00 0.  1.
</event>
<event>
 8    1  0.6016610E-012  0.9118800E+02  0.7816164E-02  0.1184000E+00
        -11   -1    0    0    0    0  0.00000000000E+00  0.00000000000E+00  0.45593999997E+02  0.45594000000E+02  0.51100000000E-03 0. -1.
         11   -1    0    0    0    0 -0.00000000000E+00 -0.00000000000E+00 -0.45593999997E+02  0.45594000000E+02  0.51100000000E-03 0.  1.
         23    2    1    2    0    0  0.00000000000E+00 -0.11657341759E-14  0.00000000000E+00  0.91188000000E+02  0.91188000000E+02 0.  0.
    9900012    2    3    3    0    0 -0.18709197290E+02  0.43350698170E+00 -0.36096315019E+02  0.50528856508E+02  0.29999989843E+02 0.  0.
         12    1    3    3    0    0  0.18709197290E+02 -0.43350698170E+00  0.36096315019E+02  0.40659143492E+02  0.00000000000E+00 0. -1.
         11    1    4    4    0    0 -0.11053263474E+02  0.35541950619E+01 -0.35503522103E+01  0.12141331765E+02  0.51100000000E-03 0. -1.
        -11    1    4    4    0    0 -0.11965100919E+02 -0.75487857649E+01 -0.23588985689E+02  0.27506145725E+02  0.51100000000E-03 0.  1.
        -12    1    4    4    0    0  0.43091671027E+01  0.44280976847E+01 -0.89569771194E+01  0.10881379018E+02  0.00000000000E+00 0.  1.
</event>
<event>
 8    1  0.6016610E-012  0.9118800E+02  0.7816164E-02  0.1184000E+00
        -11   -1    0    0    0    0  0.00000000000E+00  0.00000000000E+00  0.45593999997E+02  0.45594000000E+02  0.51100000000E-03 0. -1.
         11   -1    0    0    0    0 -0.00000000000E+00 -0.00000000000E+00 -0.45593999997E+02  0.45594000000E+02  0.51100000000E-03 0.  1.
         23    2    1    2    0    0  0.35527136788E-14  0.00000000000E+00 -0.17763568394E-14  0.91188000000E+02  0.91188000000E+02 0.  0.
    9900012    2    3    3    0    0  0.31985218143E+02  0.19998622427E+02 -0.15171258767E+02  0.50528853782E+02  0.29999981555E+02 0.  0.
         12    1    3    3    0    0 -0.31985218143E+02 -0.19998622427E+02  0.15171258767E+02  0.40659146218E+02  0.00000000000E+00 0. -1.
         11    1    4    4    0    0  0.31201191345E+02  0.17017874754E+02 -0.13725712674E+02  0.38098787266E+02  0.51100000000E-03 0.  1.
        -11    1    4    4    0    0 -0.30724780420E+01  0.31805648279E+01  0.38586704017E+01  0.58690247463E+01  0.51100000000E-03 0. -1.
         12    1    4    4    0    0  0.38565048401E+01 -0.19981715478E+00 -0.53042164947E+01  0.65610417694E+01  0.00000000000E+00 0. -1.
</event>
<event>
 8    1  0.6016610E-012  0.9118800E+02  0.7816164E-02  0.1184000E+00
        -11   -1    0    0    0    0  0.00000000000E+00  0.00000000000E+00  0.45593999997E+02  0.45594000000E+02  0.51100000000E-03 0. -1.
         11   -1    0    0    0    0 -0.00000000000E+00 -0.00000000000E+00 -0.45593999997E+02  0.45594000000E+02  0.51100000000E-03 0.  1.
         23    2    1    2    0    0  0.00000000000E+00 -0.26645352591E-14  0.00000000000E+00  0.91188000000E+02  0.91188000000E+02 0.  0.
    9900012    2    3    3    0    0  0.37373413040E+02 -0.42506459099E+01 -0.15437811475E+02  0.50528855690E+02  0.29999987355E+02 0.  0.
         12    1    3    3    0    0 -0.37373413040E+02  0.42506459099E+01  0.15437811475E+02  0.40659144310E+02  0.00000000000E+00 0. -1.
         11    1    4    4    0    0 -0.19102323235E+01  0.55611757242E+01 -0.25325017846E+01  0.64022830705E+01  0.51100000000E-03 0. -1.
        -11    1    4    4    0    0  0.15692422562E+02 -0.51001705130E+01 -0.11334210275E+02  0.20018196420E+02  0.51100000000E-03 0.  1.
         12    1    4    4    0    0  0.23591222802E+02 -0.47116511210E+01 -0.15710994158E+01  0.24108376199E+02  0.00000000000E+00 0. -1.
</event>
<event>
 8    1  0.6016610E-012  0.9118800E+02  0.7816164E-02  0.1184000E+00
        -11   -1    0    0    0    0  0.00000000000E+00  0.00000000000E+00  0.45593999997E+02  0.45594000000E+02  0.51100000000E-03 0. -1.
         11   -1    0    0    0    0 -0.00000000000E+00 -0.00000000000E+00 -0.45593999997E+02  0.45594000000E+02  0.51100000000E-03 0.  1.
         23    2    1    2    0    0 -0.35527136788E-14 -0.22204460493E-15  0.71054273576E-14  0.91188000000E+02  0.91188000000E+02 0.  0.
    9900012    2    3    3    0    0  0.23958305353E+02  0.15625695647E+01 -0.32813464050E+02  0.50528862749E+02  0.30000008813E+02 0.  0.
         12    1    3    3    0    0 -0.23958305353E+02 -0.15625695647E+01  0.32813464050E+02  0.40659137251E+02  0.00000000000E+00 0. -1.
         11    1    4    4    0    0  0.13401394070E+02  0.12982819622E+02 -0.14389989825E+02  0.23563165657E+02  0.51100000000E-03 0. -1.
        -11    1    4    4    0    0  0.16090877774E+01 -0.41888472733E+01 -0.13895494974E+02  0.14602067860E+02  0.51100000000E-03 0.  1.
        -12    1    4    4    0    0  0.89478235062E+01 -0.72314027836E+01 -0.45279792508E+01  0.12363629233E+02  0.00000000000E+00 0.  1.
</event>
<event>
 8    1  0.6016610E-012  0.9118800E+02  0.7816164E-02  0.1184000E+00
        -11   -1    0    0    0    0  0.00000000000E+00  0.00000000000E+00  0.45593999997E+02  0.45594000000E+02  0.51100000000E-03 0. -1.
         11   -1    0    0    0    0 -0.00000000000E+00 -0.00000000000E+00 -0.45593999997E+02  0.45594000000E+02  0.51100000000E-03 0.  1.
         23    2    1    2    0    0 -0.88817841970E-15 -0.71054273576E-14  0.00000000000E+00  0.91188000000E+02  0.91188000000E+02 0.  0.
    9900012    2    3    3    0    0  0.78604580406E+01 -0.35865610728E+02  0.17465293059E+02  0.50528864555E+02  0.30000014301E+02 0.  0.
        -12    1    3    3    0    0 -0.78604580406E+01  0.35865610728E+02 -0.17465293059E+02  0.40659135445E+02  0.00000000000E+00 0.  1.
         11    1    4    4    0    0  0.15141689454E+00 -0.10125137595E+02  0.95760199458E+01  0.13937054806E+02  0.51100000000E-03 0. -1.
        -11    1    4    4    0    0 -0.28144022072E+01 -0.14671636642E+02 -0.58545964557E+01  0.16045375703E+02  0.51100000000E-03 0.  1.
        -12    1    4    4    0    0  0.10523443353E+02 -0.11068836491E+02  0.13743869569E+02  0.20546434046E+02  0.00000000000E+00 0.  1.
</event>
<event>
 8    1  0.6016610E-012  0.9118800E+02  0.7816164E-02  0.1184000E+00
        -11   -1    0    0    0    0  0.00000000000E+00  0.00000000000E+00  0.45593999997E+02  0.45594000000E+02  0.51100000000E-03 0. -1.
         11   -1    0    0    0    0 -0.00000000000E+00 -0.00000000000E+00 -0.45593999997E+02  0.45594000000E+02  0.51100000000E-03 0.  1.
         23    2    1    2    0    0  0.00000000000E+00  0.00000000000E+00  0.00000000000E+00  0.91188000000E+02  0.91188000000E+02 0.  0.
    9900012    2    3    3    0    0 -0.14859073341E+02 -0.14208504978E+02 -0.35078393467E+02  0.50528839132E+02  0.29999937026E+02 0.  0.
         12    1    3    3    0    0  0.14859073341E+02  0.14208504978E+02  0.35078393467E+02  0.40659160868E+02  0.00000000000E+00 0. -1.
         11    1    4    4    0    0  0.54801221944E+01 -0.12237410264E+02 -0.81163605589E+01  0.15673584727E+02  0.51100000000E-03 0. -1.
        -11    1    4    4    0    0 -0.83837225821E+01 -0.43772655337E+01 -0.84226374930E+01  0.12664441578E+02  0.51100000000E-03 0.  1.
         12    1    4    4    0    0 -0.11955472954E+02  0.24061708192E+01 -0.18539395415E+02  0.22190812827E+02  0.00000000000E+00 0. -1.
</event>
<event>
 8    1  0.6016610E-012  0.9118800E+02  0.7816164E-02  0.1184000E+00
        -11   -1    0    0    0    0  0.00000000000E+00  0.00000000000E+00  0.45593999997E+02  0.45594000000E+02  0.51100000000E-03 0. -1.
         11   -1    0    0    0    0 -0.00000000000E+00 -0.00000000000E+00 -0.45593999997E+02  0.45594000000E+02  0.51100000000E-03 0.  1.
         23    2    1    2    0    0  0.35527136788E-14 -0.88817841970E-15  0.00000000000E+00  0.91188000000E+02  0.91188000000E+02 0.  0.
    9900012    2    3    3    0    0 -0.16779559108E+02  0.74819693242E+01 -0.36271642513E+02  0.50528861797E+02  0.30000005918E+02 0.  0.
         12    1    3    3    0    0  0.16779559108E+02 -0.74819693242E+01  0.36271642513E+02  0.40659138203E+02  0.00000000000E+00 0. -1.
         11    1    4    4    0    0  0.54234879385E+01 -0.34959535257E+01 -0.32811743639E+01  0.72389238109E+01  0.51100000000E-03 0. -1.
        -11    1    4    4    0    0 -0.64721789396E+01  0.10075465144E+02 -0.17410038296E+02  0.21130866803E+02  0.51100000000E-03 0.  1.
        -12    1    4    4    0    0 -0.15730868107E+02  0.90245770538E+00 -0.15580429853E+02  0.22159071183E+02  0.00000000000E+00 0.  1.
</event>
<event>
 8    1  0.6016610E-012  0.9118800E+02  0.7816164E-02  0.1184000E+00
        -11   -1    0    0    0    0  0.00000000000E+00  0.00000000000E+00  0.45593999997E+02  0.45594000000E+02  0.51100000000E-03 0. -1.
         11   -1    0    0    0    0 -0.00000000000E+00 -0.00000000000E+00 -0.45593999997E+02  0.45594000000E+02  0.51100000000E-03 0.  1.
         23    2    1    2    0    0 -0.35527136788E-14 -0.77715611724E-15  0.35527136788E-14  0.91188000000E+02  0.91188000000E+02 0.  0.
    9900012    2    3    3    0    0 -0.30219851728E+02 -0.57234741416E+00  0.27195564037E+02  0.50528859290E+02  0.29999998297E+02 0.  0.
        -12    1    3    3    0    0  0.30219851728E+02  0.57234741416E+00 -0.27195564037E+02  0.40659140710E+02  0.00000000000E+00 0.  1.
         11    1    4    4    0    0 -0.18483672183E+02 -0.84438116052E+01  0.28697315223E+02  0.35163617463E+02  0.51100000000E-03 0. -1.
        -11    1    4    4    0    0 -0.87023413761E+01  0.30119233994E+01 -0.25182671077E+01  0.95469417866E+01  0.51100000000E-03 0.  1.
         12    1    4    4    0    0 -0.30338381687E+01  0.48595407917E+01  0.10165159213E+01  0.58183000402E+01  0.00000000000E+00 0. -1.
</event>
<event>
 8    1  0.6016610E-012  0.9118800E+02  0.7816164E-02  0.1184000E+00
        -11   -1    0    0    0    0  0.00000000000E+00  0.00000000000E+00  0.45593999997E+02  0.45594000000E+02  0.51100000000E-03 0. -1.
         11   -1    0    0    0    0 -0.00000000000E+00 -0.00000000000E+00 -0.45593999997E+02  0.45594000000E+02  0.51100000000E-03 0.  1.
         23    2    1    2    0    0  0.00000000000E+00  0.00000000000E+00  0.17763568394E-14  0.91188000000E+02  0.91188000000E+02 0.  0.
    9900012    2    3    3    0    0 -0.32851378593E+02  0.18000025486E+02  0.15809855730E+02  0.50528861652E+02  0.30000005479E+02 0.  0.
        -12    1    3    3    0    0  0.32851378593E+02 -0.18000025486E+02 -0.15809855730E+02  0.40659138348E+02  0.00000000000E+00 0.  1.
         11    1    4    4    0    0 -0.45320678649E+01  0.10139798925E+01  0.14638112814E+01  0.48693467819E+01  0.51100000000E-03 0. -1.
        -11    1    4    4    0    0 -0.31025117881E+02  0.16420125401E+02  0.19246923873E+02  0.40032768285E+02  0.51100000000E-03 0.  1.
        -12    1    4    4    0    0  0.27058071522E+01  0.56592019221E+00 -0.49008794246E+01  0.56267465860E+01  0.00000000000E+00 0.  1.
</event>
<event>
 8    1  0.6016610E-012  0.9118800E+02  0.7816164E-02  0.1184000E+00
        -11   -1    0    0    0    0  0.00000000000E+00  0.00000000000E+00  0.45593999997E+02  0.45594000000E+02  0.51100000000E-03 0. -1.
         11   -1    0    0    0    0 -0.00000000000E+00 -0.00000000000E+00 -0.45593999997E+02  0.45594000000E+02  0.51100000000E-03 0.  1.
         23    2    1    2    0    0  0.00000000000E+00  0.71054273576E-14  0.00000000000E+00  0.91188000000E+02  0.91188000000E+02 0.  0.
    9900012    2    3    3    0    0 -0.20726370705E+02 -0.32146709494E+02 -0.13790310040E+02  0.50528855581E+02  0.29999987023E+02 0.  0.
         12    1    3    3    0    0  0.20726370705E+02  0.32146709494E+02  0.13790310040E+02  0.40659144419E+02  0.00000000000E+00 0. -1.
         11    1    4    4    0    0  0.19880429053E+01 -0.30821889640E+01 -0.17177285204E+01  0.40500364115E+01  0.51100000000E-03 0. -1.
        -11    1    4    4    0    0 -0.25994757338E+02 -0.27500202305E+02 -0.45369761951E+01  0.38112631621E+02  0.51100000000E-03 0.  1.
        -12    1    4    4    0    0  0.32803437275E+01 -0.15643182254E+01 -0.75356053246E+01  0.83661875481E+01  0.00000000000E+00 0.  1.
</event>
<event>
 8    1  0.6016610E-012  0.9118800E+02  0.7816164E-02  0.1184000E+00
        -11   -1    0    0    0    0  0.00000000000E+00  0.00000000000E+00  0.45593999997E+02  0.45594000000E+02  0.51100000000E-03 0. -1.
         11   -1    0    0    0    0 -0.00000000000E+00 -0.00000000000E+00 -0.45593999997E+02  0.45594000000E+02  0.51100000000E-03 0.  1.
         23    2    1    2    0    0  0.17763568394E-14  0.00000000000E+00  0.00000000000E+00  0.91188000000E+02  0.91188000000E+02 0.  0.
    9900012    2    3    3    0    0 -0.15874558713E+02 -0.35773965610E+02  0.11017611111E+02  0.50528856079E+02  0.29999988538E+02 0.  0.
        -12    1    3    3    0    0  0.15874558713E+02  0.35773965610E+02 -0.11017611111E+02  0.40659143921E+02  0.00000000000E+00 0.  1.
         11    1    4    4    0    0 -0.15348186137E+02 -0.20131084234E+02  0.12676375438E+02  0.28311090842E+02  0.51100000000E-03 0. -1.
        -11    1    4    4    0    0  0.30081466687E+00 -0.11205232100E+01 -0.67177728029E+01  0.68172232925E+01  0.51100000000E-03 0.  1.
        -12    1    4    4    0    0 -0.82718724234E+00 -0.14522358166E+02  0.50590084759E+01  0.15400541945E+02  0.00000000000E+00 0.  1.
</event>
<event>
 8    1  0.6016610E-012  0.9118800E+02  0.7816164E-02  0.1184000E+00
        -11   -1    0    0    0    0  0.00000000000E+00  0.00000000000E+00  0.45593999997E+02  0.45594000000E+02  0.51100000000E-03 0. -1.
         11   -1    0    0    0    0 -0.00000000000E+00 -0.00000000000E+00 -0.45593999997E+02  0.45594000000E+02  0.51100000000E-03 0.  1.
         23    2    1    2    0    0 -0.44408920985E-15  0.22204460493E-15  0.00000000000E+00  0.91188000000E+02  0.91188000000E+02 0.  0.
    9900012    2    3    3    0    0  0.30713174518E+01 -0.14789640586E+01  0.40515985994E+02  0.50528862692E+02  0.30000008639E+02 0.  0.
        -12    1    3    3    0    0 -0.30713174518E+01  0.14789640586E+01 -0.40515985994E+02  0.40659137308E+02  0.00000000000E+00 0.  1.
         11    1    4    4    0    0  0.70499822256E+01 -0.56966645334E+01  0.42525950173E+01  0.10011932922E+02  0.51100000000E-03 0.  1.
        -11    1    4    4    0    0 -0.90064721701E+01  0.77864557672E+01  0.23756706953E+02  0.26573041976E+02  0.51100000000E-03 0. -1.
        -12    1    4    4    0    0  0.50278073963E+01 -0.35687552923E+01  0.12506684023E+02  0.13943887794E+02  0.00000000000E+00 0.  1.
</event>
<event>
 8    1  0.6016610E-012  0.9118800E+02  0.7816164E-02  0.1184000E+00
        -11   -1    0    0    0    0  0.00000000000E+00  0.00000000000E+00  0.45593999997E+02  0.45594000000E+02  0.51100000000E-03 0. -1.
         11   -1    0    0    0    0 -0.00000000000E+00 -0.00000000000E+00 -0.45593999997E+02  0.45594000000E+02  0.51100000000E-03 0.  1.
         23    2    1    2    0    0  0.00000000000E+00  0.00000000000E+00  0.35527136788E-14  0.91188000000E+02  0.91188000000E+02 0.  0.
    9900012    2    3    3    0    0  0.23017163422E+02 -0.13630924215E+02 -0.30619856020E+02  0.50528837569E+02  0.29999932274E+02 0.  0.
         12    1    3    3    0    0 -0.23017163422E+02  0.13630924215E+02  0.30619856020E+02  0.40659162431E+02  0.00000000000E+00 0. -1.
         11    1    4    4    0    0  0.83808530103E+01 -0.76220113500E+01 -0.27830909152E+02  0.30048182286E+02  0.51100000000E-03 0. -1.
        -11    1    4    4    0    0  0.13868138217E+02 -0.13584588850E+00 -0.40019010794E+01  0.14434643197E+02  0.51100000000E-03 0.  1.
         12    1    4    4    0    0  0.76817219428E+00 -0.58730669761E+01  0.12129542110E+01  0.60460120860E+01  0.00000000000E+00 0. -1.
</event>
<event>
 8    1  0.6354660E-012  0.9118800E+02  0.7816164E-02  0.1184000E+00
        -11   -1    0    0    0    0  0.00000000000E+00  0.00000000000E+00  0.45593999997E+02  0.45594000000E+02  0.51100000000E-03 0. -1.
         11   -1    0    0    0    0 -0.00000000000E+00 -0.00000000000E+00 -0.45593999997E+02  0.45594000000E+02  0.51100000000E-03 0.  1.
         23    2    1    2    0    0 -0.17763568394E-14  0.88817841970E-15  0.00000000000E+00  0.91188000000E+02  0.91188000000E+02 0.  0.
    9900012    2    3    3    0    0 -0.10760062980E+02  0.66577327273E+01  0.38640145997E+02  0.50528865195E+02  0.30000016247E+02 0.  0.
        -12    1    3    3    0    0  0.10760062980E+02 -0.66577327273E+01 -0.38640145997E+02  0.40659134805E+02  0.00000000000E+00 0.  1.
         11    1    4    4    0    0 -0.95558158978E+01  0.46429008107E+00  0.30435683042E+02  0.31903918023E+02  0.51100000000E-03 0. -1.
        -11    1    4    4    0    0  0.50669725083E+01  0.55004291526E+01 -0.91636991636E+00  0.75344983474E+01  0.51100000000E-03 0.  1.
        -12    1    4    4    0    0 -0.62712195907E+01  0.69301349358E+00  0.91208328717E+01  0.11090448825E+02  0.00000000000E+00 0.  1.
</event>
<event>
 8    1  0.6016610E-012  0.9118800E+02  0.7816164E-02  0.1184000E+00
        -11   -1    0    0    0    0  0.00000000000E+00  0.00000000000E+00  0.45593999997E+02  0.45594000000E+02  0.51100000000E-03 0. -1.
         11   -1    0    0    0    0 -0.00000000000E+00 -0.00000000000E+00 -0.45593999997E+02  0.45594000000E+02  0.51100000000E-03 0.  1.
         23    2    1    2    0    0 -0.35527136788E-14  0.00000000000E+00  0.00000000000E+00  0.91188000000E+02  0.91188000000E+02 0.  0.
    9900012    2    3    3    0    0  0.23239407909E+02 -0.12300761363E+02  0.31012686744E+02  0.50528861432E+02  0.30000004808E+02 0.  0.
        -12    1    3    3    0    0 -0.23239407909E+02  0.12300761363E+02 -0.31012686744E+02  0.40659138568E+02  0.00000000000E+00 0.  1.
         11    1    4    4    0    0  0.80312906519E+01 -0.79191269873E+01 -0.37482076626E+01  0.11885422278E+02  0.51100000000E-03 0. -1.
        -11    1    4    4    0    0  0.94950163522E+01  0.33721165037E-01  0.22379783545E+02  0.24310721594E+02  0.51100000000E-03 0.  1.
         12    1    4    4    0    0  0.57131009045E+01 -0.44153555405E+01  0.12381110861E+02  0.14332717560E+02  0.00000000000E+00 0. -1.
</event>
<event>
 8    1  0.6016610E-012  0.9118800E+02  0.7816164E-02  0.1184000E+00
        -11   -1    0    0    0    0  0.00000000000E+00  0.00000000000E+00  0.45593999997E+02  0.45594000000E+02  0.51100000000E-03 0. -1.
         11   -1    0    0    0    0 -0.00000000000E+00 -0.00000000000E+00 -0.45593999997E+02  0.45594000000E+02  0.51100000000E-03 0.  1.
         23    2    1    2    0    0  0.88817841970E-15 -0.44408920985E-15  0.00000000000E+00  0.91188000000E+02  0.91188000000E+02 0.  0.
    9900012    2    3    3    0    0  0.61195342723E+01 -0.21126979410E+01 -0.40140420002E+02  0.50528861910E+02  0.30000006261E+02 0.  0.
         12    1    3    3    0    0 -0.61195342723E+01  0.21126979410E+01  0.40140420002E+02  0.40659138090E+02  0.00000000000E+00 0. -1.
         11    1    4    4    0    0  0.67927061792E+01  0.57092473479E+01 -0.26104583912E+02  0.27571464669E+02  0.51100000000E-03 0.  1.
        -11    1    4    4    0    0 -0.50984675708E+01 -0.10646824182E+02 -0.13083277500E+02  0.17621617041E+02  0.51100000000E-03 0. -1.
         12    1    4    4    0    0  0.44252956639E+01  0.28248788933E+01 -0.95255859008E+00  0.53357801999E+01  0.00000000000E+00 0. -1.
</event>
<event>
 8    1  0.6016610E-012  0.9118800E+02  0.7816164E-02  0.1184000E+00
        -11   -1    0    0    0    0  0.00000000000E+00  0.00000000000E+00  0.45593999997E+02  0.45594000000E+02  0.51100000000E-03 0. -1.
         11   -1    0    0    0    0 -0.00000000000E+00 -0.00000000000E+00 -0.45593999997E+02  0.45594000000E+02  0.51100000000E-03 0.  1.
         23    2    1    2    0    0  0.00000000000E+00  0.35527136788E-14  0.00000000000E+00  0.91188000000E+02  0.91188000000E+02 0.  0.
    9900012    2    3    3    0    0 -0.72048959829E+01  0.24851117282E+02  0.31363628094E+02  0.50528859287E+02  0.29999998289E+02 0.  0.
        -12    1    3    3    0    0  0.72048959829E+01 -0.24851117282E+02 -0.31363628094E+02  0.40659140713E+02  0.00000000000E+00 0.  1.
         11    1    4    4    0    0 -0.48237560146E+01  0.18254435311E+02  0.29440775794E+02  0.34975024091E+02  0.51100000000E-03 0. -1.
        -11    1    4    4    0    0 -0.27709237766E+01  0.10699512984E+02  0.11408776268E+00  0.11053081605E+02  0.51100000000E-03 0.  1.
         12    1    4    4    0    0  0.38978380826E+00 -0.41028310128E+01  0.18087645375E+01  0.45007535912E+01  0.00000000000E+00 0. -1.
</event>
<event>
 8    1  0.6016610E-012  0.9118800E+02  0.7816164E-02  0.1184000E+00
        -11   -1    0    0    0    0  0.00000000000E+00  0.00000000000E+00  0.45593999997E+02  0.45594000000E+02  0.51100000000E-03 0. -1.
         11   -1    0    0    0    0 -0.00000000000E+00 -0.00000000000E+00 -0.45593999997E+02  0.45594000000E+02  0.51100000000E-03 0.  1.
         23    2    1    2    0    0  0.35527136788E-14 -0.35527136788E-14  0.00000000000E+00  0.91188000000E+02  0.91188000000E+02 0.  0.
    9900012    2    3    3    0    0 -0.20890985268E+02 -0.25755157921E+02 -0.23524519436E+02  0.50528875075E+02  0.30000046277E+02 0.  0.
         12    1    3    3    0    0  0.20890985268E+02  0.25755157921E+02  0.23524519436E+02  0.40659124925E+02  0.00000000000E+00 0. -1.
         11    1    4    4    0    0 -0.37944619050E+00  0.20924447301E+01 -0.44744054512E+01  0.49540497336E+01  0.51100000000E-03 0. -1.
        -11    1    4    4    0    0 -0.24706106926E+02 -0.18821152927E+02 -0.17020861195E+02  0.35416623682E+02  0.51100000000E-03 0.  1.
        -12    1    4    4    0    0  0.41945678488E+01 -0.90264497247E+01 -0.20292527895E+01  0.10158201659E+02  0.00000000000E+00 0.  1.
</event>
<event>
 8    1  0.6016610E-012  0.9118800E+02  0.7816164E-02  0.1184000E+00
        -11   -1    0    0    0    0  0.00000000000E+00  0.00000000000E+00  0.45593999997E+02  0.45594000000E+02  0.51100000000E-03 0.  1.
         11   -1    0    0    0    0 -0.00000000000E+00 -0.00000000000E+00 -0.45593999997E+02  0.45594000000E+02  0.51100000000E-03 0. -1.
         23    2    1    2    0    0 -0.17763568394E-14  0.00000000000E+00  0.71054273576E-14  0.91188000000E+02  0.91188000000E+02 0.  0.
    9900012    2    3    3    0    0 -0.88574780703E+01  0.15863329974E+02  0.36373987922E+02  0.50528841709E+02  0.29999944859E+02 0.  0.
        -12    1    3    3    0    0  0.88574780703E+01 -0.15863329974E+02 -0.36373987922E+02  0.40659158291E+02  0.00000000000E+00 0.  1.
         11    1    4    4    0    0 -0.45806784244E+01 -0.81470826086E+01  0.64809064118E+01  0.11373641371E+02  0.51100000000E-03 0. -1.
        -11    1    4    4    0    0 -0.38278389509E+01  0.18904943733E+02  0.27257908923E+02  0.33392257302E+02  0.51100000000E-03 0.  1.
         12    1    4    4    0    0 -0.44896069500E+00  0.51054688492E+01  0.26351725865E+01  0.57629430360E+01  0.00000000000E+00 0. -1.
</event>
<event>
 8    1  0.6016610E-012  0.9118800E+02  0.7816164E-02  0.1184000E+00
        -11   -1    0    0    0    0  0.00000000000E+00  0.00000000000E+00  0.45593999997E+02  0.45594000000E+02  0.51100000000E-03 0. -1.
         11   -1    0    0    0    0 -0.00000000000E+00 -0.00000000000E+00 -0.45593999997E+02  0.45594000000E+02  0.51100000000E-03 0.  1.
         23    2    1    2    0    0  0.00000000000E+00  0.71054273576E-14  0.22204460493E-15  0.91188000000E+02  0.91188000000E+02 0.  0.
    9900012    2    3    3    0    0  0.12280439409E+02 -0.38759236454E+02  0.27963383659E+00  0.50528858375E+02  0.29999995518E+02 0.  0.
        -12    1    3    3    0    0 -0.12280439409E+02  0.38759236454E+02 -0.27963383659E+00  0.40659141625E+02  0.00000000000E+00 0.  1.
         11    1    4    4    0    0  0.10041467237E+01 -0.13815649335E+02  0.48346691927E+01  0.14671554234E+02  0.51100000000E-03 0. -1.
        -11    1    4    4    0    0  0.16980724894E+02 -0.10394557379E+02 -0.32804595581E+01  0.20178038959E+02  0.51100000000E-03 0.  1.
        -12    1    4    4    0    0 -0.57044322092E+01 -0.14549029740E+02 -0.12745757980E+01  0.15679265183E+02  0.00000000000E+00 0.  1.
</event>
<event>
 8    1  0.8720735E-012  0.9118800E+02  0.7816164E-02  0.1184000E+00
        -11   -1    0    0    0    0  0.00000000000E+00  0.00000000000E+00  0.45593999997E+02  0.45594000000E+02  0.51100000000E-03 0. -1.
         11   -1    0    0    0    0 -0.00000000000E+00 -0.00000000000E+00 -0.45593999997E+02  0.45594000000E+02  0.51100000000E-03 0.  1.
         23    2    1    2    0    0  0.00000000000E+00  0.00000000000E+00 -0.35527136788E-14  0.91188000000E+02  0.91188000000E+02 0.  0.
    9900012    2    3    3    0    0 -0.23786072700E+02  0.17373693223E+02  0.28027544265E+02  0.50528859475E+02  0.29999998861E+02 0.  0.
        -12    1    3    3    0    0  0.23786072700E+02 -0.17373693223E+02 -0.28027544265E+02  0.40659140525E+02  0.00000000000E+00 0.  1.
         11    1    4    4    0    0 -0.12131368195E+02  0.90436690939E+01  0.20253538816E+02  0.25281690604E+02  0.51100000000E-03 0. -1.
        -11    1    4    4    0    0 -0.30374760484E+00 -0.34930361356E+01 -0.38092639443E+01  0.51772633805E+01  0.51100000000E-03 0.  1.
        -12    1    4    4    0    0 -0.11350956900E+02  0.11823060264E+02  0.11583269393E+02  0.20069905490E+02  0.00000000000E+00 0.  1.
</event>
<event>
 8    1  0.6016610E-012  0.9118800E+02  0.7816164E-02  0.1184000E+00
        -11   -1    0    0    0    0  0.00000000000E+00  0.00000000000E+00  0.45593999997E+02  0.45594000000E+02  0.51100000000E-03 0. -1.
         11   -1    0    0    0    0 -0.00000000000E+00 -0.00000000000E+00 -0.45593999997E+02  0.45594000000E+02  0.51100000000E-03 0.  1.
         23    2    1    2    0    0 -0.35527136788E-14  0.35527136788E-14  0.00000000000E+00  0.91188000000E+02  0.91188000000E+02 0.  0.
    9900012    2    3    3    0    0 -0.31742476640E+02  0.16680457808E+02 -0.19166045552E+02  0.50528932155E+02  0.30000219777E+02 0.  0.
         12    1    3    3    0    0  0.31742476640E+02 -0.16680457808E+02  0.19166045552E+02  0.40659067845E+02  0.00000000000E+00 0. -1.
         11    1    4    4    0    0 -0.27688363359E+01  0.13023510174E+02 -0.11875505844E+02  0.17841129764E+02  0.51100000000E-03 0. -1.
        -11    1    4    4    0    0 -0.65482137520E+01 -0.45375752366E+01 -0.13008397691E+01  0.80722287341E+01  0.51100000000E-03 0.  1.
         12    1    4    4    0    0 -0.22425426552E+02  0.81945228697E+01 -0.59896999385E+01  0.24615573657E+02  0.00000000000E+00 0. -1.
</event>
<event>
 8    1  0.6016610E-012  0.9118800E+02  0.7816164E-02  0.1184000E+00
        -11   -1    0    0    0    0  0.00000000000E+00  0.00000000000E+00  0.45593999997E+02  0.45594000000E+02  0.51100000000E-03 0.  1.
         11   -1    0    0    0    0 -0.00000000000E+00 -0.00000000000E+00 -0.45593999997E+02  0.45594000000E+02  0.51100000000E-03 0. -1.
         23    2    1    2    0    0  0.17763568394E-14 -0.71054273576E-14 -0.88817841970E-15  0.91188000000E+02  0.91188000000E+02 0.  0.
    9900012    2    3    3    0    0 -0.12834585929E+02  0.38164306105E+02  0.56502087057E+01  0.50528859393E+02  0.29999998611E+02 0.  0.
        -12    1    3    3    0    0  0.12834585929E+02 -0.38164306105E+02 -0.56502087057E+01  0.40659140607E+02  0.00000000000E+00 0.  1.
         11    1    4    4    0    0 -0.53775293834E+01  0.14170189985E+02 -0.37333119440E+01  0.15609283289E+02  0.51100000000E-03 0. -1.
        -11    1    4    4    0    0 -0.92142128020E+01  0.14338962409E+01  0.79357717626E+01  0.12244764176E+02  0.51100000000E-03 0.  1.
        -12    1    4    4    0    0  0.17571562568E+01  0.22560219880E+02  0.14477488871E+01  0.22674811928E+02  0.00000000000E+00 0.  1.
</event>
<event>
 8    1  0.6016610E-012  0.9118800E+02  0.7816164E-02  0.1184000E+00
        -11   -1    0    0    0    0  0.00000000000E+00  0.00000000000E+00  0.45593999997E+02  0.45594000000E+02  0.51100000000E-03 0. -1.
         11   -1    0    0    0    0 -0.00000000000E+00 -0.00000000000E+00 -0.45593999997E+02  0.45594000000E+02  0.51100000000E-03 0.  1.
         23    2    1    2    0    0  0.00000000000E+00  0.66613381478E-15 -0.71054273576E-14  0.91188000000E+02  0.91188000000E+02 0.  0.
    9900012    2    3    3    0    0  0.70081856232E+01  0.91531708526E+00  0.40040135679E+02  0.50528868968E+02  0.30000027715E+02 0.  0.
        -12    1    3    3    0    0 -0.70081856232E+01 -0.91531708526E+00 -0.40040135679E+02  0.40659131032E+02  0.00000000000E+00 0.  1.
         11    1    4    4    0    0 -0.82788361619E+01  0.71750787348E+01  0.17259249987E+02  0.20442666006E+02  0.51100000000E-03 0. -1.
        -11    1    4    4    0    0  0.60221029457E+01  0.12138588780E+01  0.26308939564E+01  0.66828721770E+01  0.51100000000E-03 0.  1.
         12    1    4    4    0    0  0.92649188395E+01 -0.74736205275E+01  0.20149991735E+02  0.23403330785E+02  0.00000000000E+00 0. -1.
</event>
<event>
 8    1  0.6016610E-012  0.9118800E+02  0.7816164E-02  0.1184000E+00
        -11   -1    0    0    0    0  0.00000000000E+00  0.00000000000E+00  0.45593999997E+02  0.45594000000E+02  0.51100000000E-03 0. -1.
         11   -1    0    0    0    0 -0.00000000000E+00 -0.00000000000E+00 -0.45593999997E+02  0.45594000000E+02  0.51100000000E-03 0.  1.
         23    2    1    2    0    0 -0.35527136788E-14 -0.35527136788E-14 -0.71054273576E-14  0.91188000000E+02  0.91188000000E+02 0.  0.
    9900012    2    3    3    0    0  0.16466275842E+02  0.17287416454E+02  0.32911590662E+02  0.50528858252E+02  0.29999995144E+02 0.  0.
        -12    1    3    3    0    0 -0.16466275842E+02 -0.17287416454E+02 -0.32911590662E+02  0.40659141748E+02  0.00000000000E+00 0.  1.
         11    1    4    4    0    0  0.95342427772E+01  0.25264302933E+01  0.27472069162E+02  0.29189025672E+02  0.51100000000E-03 0. -1.
        -11    1    4    4    0    0  0.33164008783E+01  0.54522938672E+01 -0.40545600402E+01  0.75607857119E+01  0.51100000000E-03 0.  1.
        -12    1    4    4    0    0  0.36156321866E+01  0.93086922935E+01  0.94940815401E+01  0.13779046869E+02  0.00000000000E+00 0.  1.
</event>
<event>
 8    1  0.6016610E-012  0.9118800E+02  0.7816164E-02  0.1184000E+00
        -11   -1    0    0    0    0  0.00000000000E+00  0.00000000000E+00  0.45593999997E+02  0.45594000000E+02  0.51100000000E-03 0. -1.
         11   -1    0    0    0    0 -0.00000000000E+00 -0.00000000000E+00 -0.45593999997E+02  0.45594000000E+02  0.51100000000E-03 0.  1.
         23    2    1    2    0    0  0.00000000000E+00  0.22204460493E-15  0.71054273576E-14  0.91188000000E+02  0.91188000000E+02 0.  0.
    9900012    2    3    3    0    0  0.16303953348E+02  0.18840835922E+01 -0.37199426476E+02  0.50528855937E+02  0.29999988107E+02 0.  0.
         12    1    3    3    0    0 -0.16303953348E+02 -0.18840835922E+01  0.37199426476E+02  0.40659144063E+02  0.00000000000E+00 0. -1.
         11    1    4    4    0    0 -0.52680321892E+01  0.60104138555E+01 -0.15037871142E+01  0.81325650201E+01  0.51100000000E-03 0. -1.
        -11    1    4    4    0    0  0.19429479218E+02 -0.52626693887E+01 -0.29229730631E+02  0.35490526973E+02  0.51100000000E-03 0.  1.
         12    1    4    4    0    0  0.21425063196E+01  0.11363391255E+01 -0.64659087311E+01  0.69057639444E+01  0.00000000000E+00 0. -1.
</event>
<event>
 8    1  0.6016610E-012  0.9118800E+02  0.7816164E-02  0.1184000E+00
        -11   -1    0    0    0    0  0.00000000000E+00  0.00000000000E+00  0.45593999997E+02  0.45594000000E+02  0.51100000000E-03 0. -1.
         11   -1    0    0    0    0 -0.00000000000E+00 -0.00000000000E+00 -0.45593999997E+02  0.45594000000E+02  0.51100000000E-03 0.  1.
         23    2    1    2    0    0  0.00000000000E+00  0.00000000000E+00  0.00000000000E+00  0.91188000000E+02  0.91188000000E+02 0.  0.
    9900012    2    3    3    0    0 -0.11761607497E+02  0.91151135348E+01 -0.37838416410E+02  0.50528850205E+02  0.29999970683E+02 0.  0.
         12    1    3    3    0    0  0.11761607497E+02 -0.91151135348E+01  0.37838416410E+02  0.40659149795E+02  0.00000000000E+00 0. -1.
         11    1    4    4    0    0 -0.98979007022E-01  0.16325003940E+01  0.16989368231E+01  0.23582283541E+01  0.51100000000E-03 0. -1.
        -11    1    4    4    0    0  0.49338996831E-01 -0.63392721615E+01 -0.22227172731E+02  0.23113546109E+02  0.51100000000E-03 0.  1.
        -12    1    4    4    0    0 -0.11711967486E+02  0.13821885302E+02 -0.17310180502E+02  0.25057075742E+02  0.00000000000E+00 0.  1.
</event>
<event>
 8    1  0.6016610E-012  0.9118800E+02  0.7816164E-02  0.1184000E+00
        -11   -1    0    0    0    0  0.00000000000E+00  0.00000000000E+00  0.45593999997E+02  0.45594000000E+02  0.51100000000E-03 0. -1.
         11   -1    0    0    0    0 -0.00000000000E+00 -0.00000000000E+00 -0.45593999997E+02  0.45594000000E+02  0.51100000000E-03 0.  1.
         23    2    1    2    0    0  0.00000000000E+00  0.00000000000E+00 -0.35527136788E-14  0.91188000000E+02  0.91188000000E+02 0.  0.
    9900012    2    3    3    0    0 -0.10471882659E+02  0.34775620565E+02  0.18280102932E+02  0.50528852501E+02  0.29999977662E+02 0.  0.
        -12    1    3    3    0    0  0.10471882659E+02 -0.34775620565E+02 -0.18280102932E+02  0.40659147499E+02  0.00000000000E+00 0.  1.
         11    1    4    4    0    0  0.95038281919E+00 -0.12667151989E+01  0.10481576586E+02  0.10600530312E+02  0.51100000000E-03 0. -1.
        -11    1    4    4    0    0 -0.52191599204E+01  0.26043543638E+02  0.15526255495E+01  0.26606699191E+02  0.51100000000E-03 0.  1.
         12    1    4    4    0    0 -0.62031055577E+01  0.99987921262E+01  0.62459007967E+01  0.13321622998E+02  0.00000000000E+00 0. -1.
</event>
<event>
 8    1  0.6016610E-012  0.9118800E+02  0.7816164E-02  0.1184000E+00
        -11   -1    0    0    0    0  0.00000000000E+00  0.00000000000E+00  0.45593999997E+02  0.45594000000E+02  0.51100000000E-03 0. -1.
         11   -1    0    0    0    0 -0.00000000000E+00 -0.00000000000E+00 -0.45593999997E+02  0.45594000000E+02  0.51100000000E-03 0.  1.
         23    2    1    2    0    0  0.13322676296E-14  0.00000000000E+00  0.00000000000E+00  0.91188000000E+02  0.91188000000E+02 0.  0.
    9900012    2    3    3    0    0 -0.10052003898E+01  0.46938269780E+01  0.40374793933E+02  0.50528850665E+02  0.29999972082E+02 0.  0.
        -12    1    3    3    0    0  0.10052003898E+01 -0.46938269780E+01 -0.40374793933E+02  0.40659149335E+02  0.00000000000E+00 0.  1.
         11    1    4    4    0    0 -0.32273234539E+01 -0.53087561723E+01  0.11079499559E+02  0.12702512331E+02  0.51100000000E-03 0. -1.
        -11    1    4    4    0    0  0.82215039825E+01  0.10252128861E+02  0.28971918121E+02  0.31813068287E+02  0.51100000000E-03 0.  1.
        -12    1    4    4    0    0 -0.59993809184E+01 -0.24954571082E+00  0.32337625220E+00  0.60132700476E+01  0.00000000000E+00 0.  1.
</event>
<event>
 8    1  0.6016610E-012  0.9118800E+02  0.7816164E-02  0.1184000E+00
        -11   -1    0    0    0    0  0.00000000000E+00  0.00000000000E+00  0.45593999997E+02  0.45594000000E+02  0.51100000000E-03 0. -1.
         11   -1    0    0    0    0 -0.00000000000E+00 -0.00000000000E+00 -0.45593999997E+02  0.45594000000E+02  0.51100000000E-03 0.  1.
         23    2    1    2    0    0  0.00000000000E+00 -0.17763568394E-14  0.00000000000E+00  0.91188000000E+02  0.91188000000E+02 0.  0.
    9900012    2    3    3    0    0  0.11955492493E+02 -0.14201587699E+02  0.36173877964E+02  0.50528827100E+02  0.29999900454E+02 0.  0.
        -12    1    3    3    0    0 -0.11955492493E+02  0.14201587699E+02 -0.36173877964E+02  0.40659172900E+02  0.00000000000E+00 0.  1.
         11    1    4    4    0    0 -0.26723437659E+01  0.17482326331E+01  0.24314216947E+01  0.40136704226E+01  0.51100000000E-03 0. -1.
        -11    1    4    4    0    0  0.14160822304E+02 -0.10914389162E+02  0.68416905206E+01  0.19143184389E+02  0.51100000000E-03 0.  1.
        -12    1    4    4    0    0  0.46701395479E+00 -0.50354311708E+01  0.26900765749E+02  0.27371972289E+02  0.00000000000E+00 0.  1.
</event>
<event>
 8    1  0.6016610E-012  0.9118800E+02  0.7816164E-02  0.1184000E+00
        -11   -1    0    0    0    0  0.00000000000E+00  0.00000000000E+00  0.45593999997E+02  0.45594000000E+02  0.51100000000E-03 0.  1.
         11   -1    0    0    0    0 -0.00000000000E+00 -0.00000000000E+00 -0.45593999997E+02  0.45594000000E+02  0.51100000000E-03 0. -1.
         23    2    1    2    0    0  0.00000000000E+00  0.00000000000E+00  0.00000000000E+00  0.91188000000E+02  0.91188000000E+02 0.  0.
    9900012    2    3    3    0    0 -0.10572165807E+02  0.36070952504E+02  0.15501008890E+02  0.50528861039E+02  0.30000003615E+02 0.  0.
         12    1    3    3    0    0  0.10572165807E+02 -0.36070952504E+02 -0.15501008890E+02  0.40659138961E+02  0.00000000000E+00 0. -1.
         11    1    4    4    0    0  0.44230360637E+01  0.46898607981E+01  0.18539722252E+01  0.67078502964E+01  0.51100000000E-03 0. -1.
        -11    1    4    4    0    0 -0.18243038768E+02  0.31722893130E+02  0.15852300135E+02  0.39880394078E+02  0.51100000000E-03 0.  1.
        -12    1    4    4    0    0  0.32478368973E+01 -0.34180142379E+00 -0.22052634698E+01  0.39406166644E+01  0.00000000000E+00 0.  1.
</event>
<event>
 8    1  0.6016610E-012  0.9118800E+02  0.7816164E-02  0.1184000E+00
        -11   -1    0    0    0    0  0.00000000000E+00  0.00000000000E+00  0.45593999997E+02  0.45594000000E+02  0.51100000000E-03 0. -1.
         11   -1    0    0    0    0 -0.00000000000E+00 -0.00000000000E+00 -0.45593999997E+02  0.45594000000E+02  0.51100000000E-03 0.  1.
         23    2    1    2    0    0  0.35527136788E-14  0.00000000000E+00  0.00000000000E+00  0.91188000000E+02  0.91188000000E+02 0.  0.
    9900012    2    3    3    0    0 -0.26668463427E+02 -0.19507359072E+02 -0.23694321056E+02  0.50528870031E+02  0.30000030947E+02 0.  0.
         12    1    3    3    0    0  0.26668463427E+02  0.19507359072E+02  0.23694321056E+02  0.40659129969E+02  0.00000000000E+00 0. -1.
         11    1    4    4    0    0 -0.93122214243E+01 -0.79389509801E+01  0.45354901408E+01  0.13050482045E+02  0.51100000000E-03 0. -1.
        -11    1    4    4    0    0 -0.92504240278E+01  0.12581350761E+01 -0.12749885223E+02  0.15802304327E+02  0.51100000000E-03 0.  1.
         12    1    4    4    0    0 -0.81058179750E+01 -0.12826543168E+02 -0.15479925973E+02  0.21676083660E+02  0.00000000000E+00 0. -1.
</event>
<event>
 8    1  0.6016610E-012  0.9118800E+02  0.7816164E-02  0.1184000E+00
        -11   -1    0    0    0    0  0.00000000000E+00  0.00000000000E+00  0.45593999997E+02  0.45594000000E+02  0.51100000000E-03 0. -1.
         11   -1    0    0    0    0 -0.00000000000E+00 -0.00000000000E+00 -0.45593999997E+02  0.45594000000E+02  0.51100000000E-03 0.  1.
         23    2    1    2    0    0  0.88817841970E-15  0.00000000000E+00  0.35527136788E-14  0.91188000000E+02  0.91188000000E+02 0.  0.
    9900012    2    3    3    0    0 -0.51373738895E+01 -0.25749754619E+02  0.31043833684E+02  0.50528904053E+02  0.30000134359E+02 0.  0.
        -12    1    3    3    0    0  0.51373738895E+01  0.25749754619E+02 -0.31043833684E+02  0.40659095947E+02  0.00000000000E+00 0.  1.
         11    1    4    4    0    0  0.81665578405E+00 -0.10983001291E+01  0.16400925469E+02  0.16457932626E+02  0.51100000000E-03 0. -1.
        -11    1    4    4    0    0 -0.65881010310E+01 -0.17263909566E+02  0.95391960620E+00  0.18502854147E+02  0.51100000000E-03 0.  1.
        -12    1    4    4    0    0  0.63407135747E+00 -0.73875449236E+01  0.13688988610E+02  0.15568117280E+02  0.00000000000E+00 0.  1.
</event>
<event>
 8    1  0.6016610E-012  0.9118800E+02  0.7816164E-02  0.1184000E+00
        -11   -1    0    0    0    0  0.00000000000E+00  0.00000000000E+00  0.45593999997E+02  0.45594000000E+02  0.51100000000E-03 0. -1.
         11   -1    0    0    0    0 -0.00000000000E+00 -0.00000000000E+00 -0.45593999997E+02  0.45594000000E+02  0.51100000000E-03 0.  1.
         23    2    1    2    0    0  0.00000000000E+00  0.00000000000E+00  0.00000000000E+00  0.91188000000E+02  0.91188000000E+02 0.  0.
    9900012    2    3    3    0    0 -0.16680848663E+02  0.20734737626E+02  0.30740623438E+02  0.50528856060E+02  0.29999988481E+02 0.  0.
        -12    1    3    3    0    0  0.16680848663E+02 -0.20734737626E+02 -0.30740623438E+02  0.40659143940E+02  0.00000000000E+00 0.  1.
         11    1    4    4    0    0 -0.62861901812E+01 -0.48137922955E+01  0.15300559307E+02  0.17227765341E+02  0.51100000000E-03 0. -1.
        -11    1    4    4    0    0 -0.82052150876E+01  0.10252609694E+02  0.30151674204E+01  0.13473410667E+02  0.51100000000E-03 0.  1.
         12    1    4    4    0    0 -0.21894433938E+01  0.15295920228E+02  0.12424896710E+02  0.19827680052E+02  0.00000000000E+00 0. -1.
</event>
<event>
 8    1  0.6016610E-012  0.9118800E+02  0.7816164E-02  0.1184000E+00
        -11   -1    0    0    0    0  0.00000000000E+00  0.00000000000E+00  0.45593999997E+02  0.45594000000E+02  0.51100000000E-03 0. -1.
         11   -1    0    0    0    0 -0.00000000000E+00 -0.00000000000E+00 -0.45593999997E+02  0.45594000000E+02  0.51100000000E-03 0.  1.
         23    2    1    2    0    0 -0.22204460493E-15  0.88817841970E-15  0.00000000000E+00  0.91188000000E+02  0.91188000000E+02 0.  0.
    9900012    2    3    3    0    0 -0.89240639639E+00  0.45830085706E+01 -0.40390162873E+02  0.50528860638E+02  0.30000002395E+02 0.  0.
         12    1    3    3    0    0  0.89240639639E+00 -0.45830085706E+01  0.40390162873E+02  0.40659139362E+02  0.00000000000E+00 0. -1.
         11    1    4    4    0    0 -0.14711168475E+01  0.80864330140E+01 -0.15810207461E+01  0.83698393371E+01  0.51100000000E-03 0. -1.
        -11    1    4    4    0    0  0.81319113345E+01 -0.79577000549E-01 -0.20753526180E+02  0.22289978996E+02  0.51100000000E-03 0.  1.
         12    1    4    4    0    0 -0.75532008834E+01 -0.34238474428E+01 -0.18055615947E+02  0.19869042305E+02  0.00000000000E+00 0. -1.
</event>
<event>
 8    1  0.6016610E-012  0.9118800E+02  0.7816164E-02  0.1184000E+00
        -11   -1    0    0    0    0  0.00000000000E+00  0.00000000000E+00  0.45593999997E+02  0.45594000000E+02  0.51100000000E-03 0. -1.
         11   -1    0    0    0    0 -0.00000000000E+00 -0.00000000000E+00 -0.45593999997E+02  0.45594000000E+02  0.51100000000E-03 0.  1.
         23    2    1    2    0    0 -0.35527136788E-14  0.00000000000E+00  0.00000000000E+00  0.91188000000E+02  0.91188000000E+02 0.  0.
    9900012    2    3    3    0    0  0.28651650871E+02 -0.14078007536E+02 -0.25180511099E+02  0.50528861630E+02  0.30000005410E+02 0.  0.
         12    1    3    3    0    0 -0.28651650871E+02  0.14078007536E+02  0.25180511099E+02  0.40659138370E+02  0.00000000000E+00 0. -1.
         11    1    4    4    0    0  0.29992239710E+02 -0.41968119692E+01 -0.20168982696E+02  0.36385924982E+02  0.51100000000E-03 0.  1.
        -11    1    4    4    0    0  0.38095061488E-01 -0.74908742166E+01  0.97200787044E+00  0.75537704045E+01  0.51100000000E-03 0. -1.
        -12    1    4    4    0    0 -0.13786839006E+01 -0.23903213501E+01 -0.59835362734E+01  0.65891662440E+01  0.00000000000E+00 0.  1.
</event>
<event>
 8    1  0.6016610E-012  0.9118800E+02  0.7816164E-02  0.1184000E+00
        -11   -1    0    0    0    0  0.00000000000E+00  0.00000000000E+00  0.45593999997E+02  0.45594000000E+02  0.51100000000E-03 0.  1.
         11   -1    0    0    0    0 -0.00000000000E+00 -0.00000000000E+00 -0.45593999997E+02  0.45594000000E+02  0.51100000000E-03 0. -1.
         23    2    1    2    0    0  0.35527136788E-14 -0.71054273576E-14  0.00000000000E+00  0.91188000000E+02  0.91188000000E+02 0.  0.
    9900012    2    3    3    0    0  0.89043447984E+01  0.37759103032E+02  0.12170862039E+02  0.50528842349E+02  0.29999946805E+02 0.  0.
        -12    1    3    3    0    0 -0.89043447984E+01 -0.37759103032E+02 -0.12170862039E+02  0.40659157651E+02  0.00000000000E+00 0.  1.
         11    1    4    4    0    0 -0.71877367879E+01  0.46663833582E+01  0.29587576989E+00  0.85747441075E+01  0.51100000000E-03 0. -1.
        -11    1    4    4    0    0  0.13443500580E+02  0.10999431704E+02  0.15958656218E+01  0.17443107321E+02  0.51100000000E-03 0.  1.
         12    1    4    4    0    0  0.26485810065E+01  0.22093287969E+02  0.10279120648E+02  0.24510990921E+02  0.00000000000E+00 0. -1.
</event>
<event>
 8    1  0.6016610E-012  0.9118800E+02  0.7816164E-02  0.1184000E+00
        -11   -1    0    0    0    0  0.00000000000E+00  0.00000000000E+00  0.45593999997E+02  0.45594000000E+02  0.51100000000E-03 0. -1.
         11   -1    0    0    0    0 -0.00000000000E+00 -0.00000000000E+00 -0.45593999997E+02  0.45594000000E+02  0.51100000000E-03 0.  1.
         23    2    1    2    0    0  0.00000000000E+00  0.00000000000E+00 -0.17763568394E-14  0.91188000000E+02  0.91188000000E+02 0.  0.
    9900012    2    3    3    0    0 -0.25050579121E+01  0.37735644206E+02  0.14930167433E+02  0.50528879764E+02  0.30000060531E+02 0.  0.
        -12    1    3    3    0    0  0.25050579121E+01 -0.37735644206E+02 -0.14930167433E+02  0.40659120236E+02  0.00000000000E+00 0.  1.
         11    1    4    4    0    0  0.38977498192E+00  0.10123481933E+02  0.12701818982E+02  0.16247246434E+02  0.51100000000E-03 0. -1.
        -11    1    4    4    0    0 -0.55991741751E+01  0.13315743419E+01 -0.41593950679E+01  0.71010146643E+01  0.51100000000E-03 0.  1.
        -12    1    4    4    0    0  0.27043412811E+01  0.26280587931E+02  0.63877435186E+01  0.27180618665E+02  0.00000000000E+00 0.  1.
</event>
<event>
 8    1  0.7560887E-012  0.9118800E+02  0.7816164E-02  0.1184000E+00
        -11   -1    0    0    0    0  0.00000000000E+00  0.00000000000E+00  0.45593999997E+02  0.45594000000E+02  0.51100000000E-03 0. -1.
         11   -1    0    0    0    0 -0.00000000000E+00 -0.00000000000E+00 -0.45593999997E+02  0.45594000000E+02  0.51100000000E-03 0.  1.
         23    2    1    2    0    0  0.11102230246E-14 -0.17763568394E-14  0.00000000000E+00  0.91188000000E+02  0.91188000000E+02 0.  0.
    9900012    2    3    3    0    0  0.18868699954E+01 -0.12216275234E+02  0.38734604726E+02  0.50528840365E+02  0.29999940773E+02 0.  0.
        -12    1    3    3    0    0 -0.18868699954E+01  0.12216275234E+02 -0.38734604726E+02  0.40659159635E+02  0.00000000000E+00 0.  1.
         11    1    4    4    0    0 -0.48540624825E+01 -0.16495799912E+02  0.29386599476E+02  0.34047695463E+02  0.51100000000E-03 0. -1.
        -11    1    4    4    0    0 -0.20975320849E+01  0.34137412664E+01  0.66606513474E+00  0.40616392387E+01  0.51100000000E-03 0.  1.
         12    1    4    4    0    0  0.88384645628E+01  0.86578341194E+00  0.86819401150E+01  0.12419505663E+02  0.00000000000E+00 0. -1.
</event>
<event>
 8    1  0.6016610E-012  0.9118800E+02  0.7816164E-02  0.1184000E+00
        -11   -1    0    0    0    0  0.00000000000E+00  0.00000000000E+00  0.45593999997E+02  0.45594000000E+02  0.51100000000E-03 0. -1.
         11   -1    0    0    0    0 -0.00000000000E+00 -0.00000000000E+00 -0.45593999997E+02  0.45594000000E+02  0.51100000000E-03 0.  1.
         23    2    1    2    0    0 -0.17763568394E-14  0.35527136788E-14 -0.71054273576E-14  0.91188000000E+02  0.91188000000E+02 0.  0.
    9900012    2    3    3    0    0  0.86325959064E+01 -0.21494076459E+02  0.33416290641E+02  0.50528861850E+02  0.30000006080E+02 0.  0.
        -12    1    3    3    0    0 -0.86325959064E+01  0.21494076459E+02 -0.33416290641E+02  0.40659138150E+02  0.00000000000E+00 0.  1.
         11    1    4    4    0    0 -0.45531478683E+01 -0.74273861347E+01  0.13460476438E+01  0.88152745178E+01  0.51100000000E-03 0. -1.
        -11    1    4    4    0    0  0.15005504605E+02 -0.35511477682E+01  0.14561186612E+02  0.21208582572E+02  0.51100000000E-03 0.  1.
         12    1    4    4    0    0 -0.18197608299E+01 -0.10515542556E+02  0.17509056385E+02  0.20505004760E+02  0.00000000000E+00 0. -1.
</event>
<event>
 8    1  0.6016610E-012  0.9118800E+02  0.7816164E-02  0.1184000E+00
        -11   -1    0    0    0    0  0.00000000000E+00  0.00000000000E+00  0.45593999997E+02  0.45594000000E+02  0.51100000000E-03 0. -1.
         11   -1    0    0    0    0 -0.00000000000E+00 -0.00000000000E+00 -0.45593999997E+02  0.45594000000E+02  0.51100000000E-03 0.  1.
         23    2    1    2    0    0  0.00000000000E+00  0.00000000000E+00  0.88817841970E-15  0.91188000000E+02  0.91188000000E+02 0.  0.
    9900012    2    3    3    0    0 -0.31064763683E+02 -0.25372031245E+02 -0.66637100162E+01  0.50528873800E+02  0.30000042403E+02 0.  0.
         12    1    3    3    0    0  0.31064763683E+02  0.25372031245E+02  0.66637100162E+01  0.40659126200E+02  0.00000000000E+00 0. -1.
         11    1    4    4    0    0 -0.43205317673E+01  0.22940987828E+01  0.28534371196E+01  0.56632135431E+01  0.51100000000E-03 0. -1.
        -11    1    4    4    0    0 -0.18813019886E+02 -0.24270316267E+02 -0.15469112052E+02  0.34384173639E+02  0.51100000000E-03 0.  1.
        -12    1    4    4    0    0 -0.79312120294E+01 -0.33958137614E+01  0.59519649161E+01  0.10481486618E+02  0.00000000000E+00 0.  1.
</event>
<event>
 8    1  0.6016610E-012  0.9118800E+02  0.7816164E-02  0.1184000E+00
        -11   -1    0    0    0    0  0.00000000000E+00  0.00000000000E+00  0.45593999997E+02  0.45594000000E+02  0.51100000000E-03 0. -1.
         11   -1    0    0    0    0 -0.00000000000E+00 -0.00000000000E+00 -0.45593999997E+02  0.45594000000E+02  0.51100000000E-03 0.  1.
         23    2    1    2    0    0  0.17763568394E-14 -0.17763568394E-14  0.00000000000E+00  0.91188000000E+02  0.91188000000E+02 0.  0.
    9900012    2    3    3    0    0  0.11017588639E+02 -0.29768249922E+01 -0.39024563289E+02  0.50528864663E+02  0.30000014629E+02 0.  0.
         12    1    3    3    0    0 -0.11017588639E+02  0.29768249922E+01  0.39024563289E+02  0.40659135337E+02  0.00000000000E+00 0. -1.
         11    1    4    4    0    0 -0.11300164599E+01  0.28396040113E+01 -0.24047654851E+02  0.24241080674E+02  0.51100000000E-03 0. -1.
        -11    1    4    4    0    0  0.89767873375E+01  0.26502824552E+01 -0.69610586269E+00  0.93856950530E+01  0.51100000000E-03 0.  1.
         12    1    4    4    0    0  0.31708177616E+01 -0.84667114587E+01 -0.14280802576E+02  0.16902088936E+02  0.00000000000E+00 0. -1.
</event>
<event>
 8    1  0.6016610E-012  0.9118800E+02  0.7816164E-02  0.1184000E+00
        -11   -1    0    0    0    0  0.00000000000E+00  0.00000000000E+00  0.45593999997E+02  0.45594000000E+02  0.51100000000E-03 0.  1.
         11   -1    0    0    0    0 -0.00000000000E+00 -0.00000000000E+00 -0.45593999997E+02  0.45594000000E+02  0.51100000000E-03 0. -1.
         23    2    1    2    0    0  0.00000000000E+00 -0.35527136788E-14  0.00000000000E+00  0.91188000000E+02  0.91188000000E+02 0.  0.
    9900012    2    3    3    0    0  0.34942249725E+02  0.16537172417E+02 -0.12598647729E+02  0.50528870496E+02  0.30000032360E+02 0.  0.
         12    1    3    3    0    0 -0.34942249725E+02 -0.16537172417E+02  0.12598647729E+02  0.40659129504E+02  0.00000000000E+00 0. -1.
         11    1    4    4    0    0  0.25458754886E+02  0.15561986903E+01  0.13804767271E+01  0.25543603328E+02  0.51100000000E-03 0. -1.
        -11    1    4    4    0    0 -0.15529552549E+01  0.66211305696E+01 -0.55318840753E+01  0.87665718344E+01  0.51100000000E-03 0.  1.
        -12    1    4    4    0    0  0.11036450094E+02  0.83598431570E+01 -0.84472403808E+01  0.16218695334E+02  0.00000000000E+00 0.  1.
</event>
<event>
 8    1  0.6016610E-012  0.9118800E+02  0.7816164E-02  0.1184000E+00
        -11   -1    0    0    0    0  0.00000000000E+00  0.00000000000E+00  0.45593999997E+02  0.45594000000E+02  0.51100000000E-03 0. -1.
         11   -1    0    0    0    0 -0.00000000000E+00 -0.00000000000E+00 -0.45593999997E+02  0.45594000000E+02  0.51100000000E-03 0.  1.
         23    2    1    2    0    0  0.00000000000E+00  0.00000000000E+00  0.00000000000E+00  0.91188000000E+02  0.91188000000E+02 0.  0.
    9900012    2    3    3    0    0 -0.12914718372E+02 -0.91660163494E+01  0.37448096331E+02  0.50528859267E+02  0.29999998228E+02 0.  0.
        -12    1    3    3    0    0  0.12914718372E+02  0.91660163494E+01 -0.37448096331E+02  0.40659140733E+02  0.00000000000E+00 0.  1.
         11    1    4    4    0    0 -0.14742999867E+02 -0.36984794158E+01  0.37904549926E+02  0.40838581029E+02  0.51100000000E-03 0. -1.
        -11    1    4    4    0    0  0.68314541731E+00  0.24817983659E+00 -0.31757857188E+01  0.32578974946E+01  0.51100000000E-03 0.  1.
         12    1    4    4    0    0  0.11451360775E+01 -0.57157167702E+01  0.27193321232E+01  0.64323807435E+01  0.00000000000E+00 0. -1.
</event>
<event>
 8    1  0.6016610E-012  0.9118800E+02  0.7816164E-02  0.1184000E+00
        -11   -1    0    0    0    0  0.00000000000E+00  0.00000000000E+00  0.45593999997E+02  0.45594000000E+02  0.51100000000E-03 0. -1.
         11   -1    0    0    0    0 -0.00000000000E+00 -0.00000000000E+00 -0.45593999997E+02  0.45594000000E+02  0.51100000000E-03 0.  1.
         23    2    1    2    0    0  0.00000000000E+00  0.17763568394E-14  0.00000000000E+00  0.91188000000E+02  0.91188000000E+02 0.  0.
    9900012    2    3    3    0    0 -0.46376136513E+01  0.13759826773E+02 -0.37977960161E+02  0.50528858947E+02  0.29999997256E+02 0.  0.
         12    1    3    3    0    0  0.46376136513E+01 -0.13759826773E+02  0.37977960161E+02  0.40659141053E+02  0.00000000000E+00 0. -1.
         11    1    4    4    0    0 -0.14802171966E+02  0.10950348907E+02 -0.15030365185E+02  0.23768178600E+02  0.51100000000E-03 0. -1.
        -11    1    4    4    0    0  0.72972836229E+01  0.48131515465E+00 -0.21640443390E+02  0.22842740706E+02  0.51100000000E-03 0.  1.
         12    1    4    4    0    0  0.28672746920E+01  0.23281627107E+01 -0.13071515849E+01  0.39179396413E+01  0.00000000000E+00 0. -1.
</event>
<event>
 8    1  0.6016610E-012  0.9118800E+02  0.7816164E-02  0.1184000E+00
        -11   -1    0    0    0    0  0.00000000000E+00  0.00000000000E+00  0.45593999997E+02  0.45594000000E+02  0.51100000000E-03 0. -1.
         11   -1    0    0    0    0 -0.00000000000E+00 -0.00000000000E+00 -0.45593999997E+02  0.45594000000E+02  0.51100000000E-03 0.  1.
         23    2    1    2    0    0  0.17763568394E-14  0.35527136788E-14  0.00000000000E+00  0.91188000000E+02  0.91188000000E+02 0.  0.
    9900012    2    3    3    0    0 -0.10202365693E+02 -0.18153495103E+02 -0.34921814045E+02  0.50528797519E+02  0.29999810537E+02 0.  0.
         12    1    3    3    0    0  0.10202365693E+02  0.18153495103E+02  0.34921814045E+02  0.40659202481E+02  0.00000000000E+00 0. -1.
         11    1    4    4    0    0 -0.15932676128E+01 -0.97844778561E+01  0.12922279629E+01  0.99972177115E+01  0.51100000000E-03 0. -1.
        -11    1    4    4    0    0 -0.10595529408E+02 -0.25970420438E+01 -0.29524867496E+02  0.31475826784E+02  0.51100000000E-03 0.  1.
        -12    1    4    4    0    0  0.19864313273E+01 -0.57719752032E+01 -0.66891745121E+01  0.90557530232E+01  0.00000000000E+00 0.  1.
</event>
<event>
 8    1  0.6016610E-012  0.9118800E+02  0.7816164E-02  0.1184000E+00
        -11   -1    0    0    0    0  0.00000000000E+00  0.00000000000E+00  0.45593999997E+02  0.45594000000E+02  0.51100000000E-03 0. -1.
         11   -1    0    0    0    0 -0.00000000000E+00 -0.00000000000E+00 -0.45593999997E+02  0.45594000000E+02  0.51100000000E-03 0.  1.
         23    2    1    2    0    0  0.88817841970E-15  0.00000000000E+00  0.71054273576E-14  0.91188000000E+02  0.91188000000E+02 0.  0.
    9900012    2    3    3    0    0 -0.30274579503E+01 -0.10647743791E+02  0.39123212756E+02  0.50528859259E+02  0.29999998203E+02 0.  0.
        -12    1    3    3    0    0  0.30274579503E+01  0.10647743791E+02 -0.39123212756E+02  0.40659140741E+02  0.00000000000E+00 0.  1.
         11    1    4    4    0    0  0.54458224315E+01  0.77216538933E+00  0.11142331569E+02  0.12425971769E+02  0.51100000000E-03 0. -1.
        -11    1    4    4    0    0 -0.92971435264E+01  0.24330885118E+01  0.40278611171E+01  0.10420194955E+02  0.51100000000E-03 0.  1.
        -12    1    4    4    0    0  0.82386314465E+00 -0.13852997692E+02  0.23953020070E+02  0.27682692535E+02  0.00000000000E+00 0.  1.
</event>
<event>
 8    1  0.6016610E-012  0.9118800E+02  0.7816164E-02  0.1184000E+00
        -11   -1    0    0    0    0  0.00000000000E+00  0.00000000000E+00  0.45593999997E+02  0.45594000000E+02  0.51100000000E-03 0. -1.
         11   -1    0    0    0    0 -0.00000000000E+00 -0.00000000000E+00 -0.45593999997E+02  0.45594000000E+02  0.51100000000E-03 0.  1.
         23    2    1    2    0    0  0.17763568394E-14  0.00000000000E+00  0.00000000000E+00  0.91188000000E+02  0.91188000000E+02 0.  0.
    9900012    2    3    3    0    0  0.10824184006E+02  0.35804739490E+02 -0.15938123509E+02  0.50528854530E+02  0.29999983830E+02 0.  0.
         12    1    3    3    0    0 -0.10824184006E+02 -0.35804739490E+02  0.15938123509E+02  0.40659145470E+02  0.00000000000E+00 0. -1.
         11    1    4    4    0    0 -0.29021687633E+01  0.16474304927E+02  0.32544527818E+01  0.17041618748E+02  0.51100000000E-03 0. -1.
        -11    1    4    4    0    0  0.82657577954E+01  0.17542144259E+02 -0.81417169422E+01  0.21031812384E+02  0.51100000000E-03 0.  1.
         12    1    4    4    0    0  0.54605949743E+01  0.17882903034E+01 -0.11050859349E+02  0.12455423398E+02  0.00000000000E+00 0. -1.
</event>
<event>
 8    1  0.6016610E-012  0.9118800E+02  0.7816164E-02  0.1184000E+00
        -11   -1    0    0    0    0  0.00000000000E+00  0.00000000000E+00  0.45593999997E+02  0.45594000000E+02  0.51100000000E-03 0. -1.
         11   -1    0    0    0    0 -0.00000000000E+00 -0.00000000000E+00 -0.45593999997E+02  0.45594000000E+02  0.51100000000E-03 0.  1.
         23    2    1    2    0    0  0.35527136788E-14  0.00000000000E+00  0.00000000000E+00  0.91188000000E+02  0.91188000000E+02 0.  0.
    9900012    2    3    3    0    0  0.19981488555E+02  0.23431937570E+02  0.26549021376E+02  0.50528854422E+02  0.29999983500E+02 0.  0.
        -12    1    3    3    0    0 -0.19981488555E+02 -0.23431937570E+02 -0.26549021376E+02  0.40659145578E+02  0.00000000000E+00 0.  1.
         11    1    4    4    0    0  0.90834558196E+01 -0.33223283034E+01  0.75340538060E+01  0.12260057177E+02  0.51100000000E-03 0. -1.
        -11    1    4    4    0    0 -0.14461246952E+01  0.17527330257E+02  0.79722206973E+01  0.19309450683E+02  0.51100000000E-03 0.  1.
         12    1    4    4    0    0  0.12344157431E+02  0.92269356157E+01  0.11042746872E+02  0.18959346561E+02  0.00000000000E+00 0. -1.
</event>
<event>
 8    1  0.6016610E-012  0.9118800E+02  0.7816164E-02  0.1184000E+00
        -11   -1    0    0    0    0  0.00000000000E+00  0.00000000000E+00  0.45593999997E+02  0.45594000000E+02  0.51100000000E-03 0. -1.
         11   -1    0    0    0    0 -0.00000000000E+00 -0.00000000000E+00 -0.45593999997E+02  0.45594000000E+02  0.51100000000E-03 0.  1.
         23    2    1    2    0    0  0.17763568394E-14  0.00000000000E+00  0.00000000000E+00  0.91188000000E+02  0.91188000000E+02 0.  0.
    9900012    2    3    3    0    0  0.50686801771E+01 -0.24205866647E+02 -0.32273051008E+02  0.50528864246E+02  0.30000013362E+02 0.  0.
         12    1    3    3    0    0 -0.50686801771E+01  0.24205866647E+02  0.32273051008E+02  0.40659135754E+02  0.00000000000E+00 0. -1.
         11    1    4    4    0    0  0.13577088756E+02 -0.79389489303E+01 -0.10583075193E+02  0.18956944110E+02  0.51100000000E-03 0. -1.
        -11    1    4    4    0    0 -0.46526307757E+01  0.82721320614E+00 -0.17826664570E+01  0.50506588462E+01  0.51100000000E-03 0.  1.
         12    1    4    4    0    0 -0.38557778033E+01 -0.17094130923E+02 -0.19907309359E+02  0.26521261289E+02  0.00000000000E+00 0. -1.
</event>
<event>
 8    1  0.6016610E-012  0.9118800E+02  0.7816164E-02  0.1184000E+00
        -11   -1    0    0    0    0  0.00000000000E+00  0.00000000000E+00  0.45593999997E+02  0.45594000000E+02  0.51100000000E-03 0. -1.
         11   -1    0    0    0    0 -0.00000000000E+00 -0.00000000000E+00 -0.45593999997E+02  0.45594000000E+02  0.51100000000E-03 0.  1.
         23    2    1    2    0    0  0.00000000000E+00  0.35527136788E-14  0.00000000000E+00  0.91188000000E+02  0.91188000000E+02 0.  0.
    9900012    2    3    3    0    0  0.16245442092E+02  0.20479056498E+02  0.31142566320E+02  0.50528861042E+02  0.30000003623E+02 0.  0.
        -12    1    3    3    0    0 -0.16245442092E+02 -0.20479056498E+02 -0.31142566320E+02  0.40659138958E+02  0.00000000000E+00 0.  1.
         11    1    4    4    0    0  0.11310119633E+02  0.99187352332E+00  0.85322017332E+01  0.14202150748E+02  0.51100000000E-03 0. -1.
        -11    1    4    4    0    0 -0.77768276841E+01  0.64802872916E+01  0.64993970080E+01  0.12029768657E+02  0.51100000000E-03 0.  1.
         12    1    4    4    0    0  0.12712150144E+02  0.13006895683E+02  0.16110967579E+02  0.24296941637E+02  0.00000000000E+00 0. -1.
</event>
<event>
 8    1  0.6016610E-012  0.9118800E+02  0.7816164E-02  0.1184000E+00
        -11   -1    0    0    0    0  0.00000000000E+00  0.00000000000E+00  0.45593999997E+02  0.45594000000E+02  0.51100000000E-03 0.  1.
         11   -1    0    0    0    0 -0.00000000000E+00 -0.00000000000E+00 -0.45593999997E+02  0.45594000000E+02  0.51100000000E-03 0. -1.
         23    2    1    2    0    0  0.00000000000E+00 -0.35527136788E-14  0.00000000000E+00  0.91188000000E+02  0.91188000000E+02 0.  0.
    9900012    2    3    3    0    0 -0.32087385617E+02  0.21851900597E+02 -0.12085537740E+02  0.50528854683E+02  0.29999984294E+02 0.  0.
         12    1    3    3    0    0  0.32087385617E+02 -0.21851900597E+02  0.12085537740E+02  0.40659145317E+02  0.00000000000E+00 0. -1.
         11    1    4    4    0    0  0.10607423265E+01  0.10682310509E+02 -0.35176916305E+01  0.11296507725E+02  0.51100000000E-03 0. -1.
        -11    1    4    4    0    0 -0.20356660576E+02 -0.77366336405E+00 -0.74693210301E+01  0.21697533079E+02  0.51100000000E-03 0.  1.
         12    1    4    4    0    0 -0.12791467367E+02  0.11943253452E+02 -0.10985250797E+01  0.17534813879E+02  0.00000000000E+00 0. -1.
</event>
<event>
 8    1  0.6016610E-012  0.9118800E+02  0.7816164E-02  0.1184000E+00
        -11   -1    0    0    0    0  0.00000000000E+00  0.00000000000E+00  0.45593999997E+02  0.45594000000E+02  0.51100000000E-03 0. -1.
         11   -1    0    0    0    0 -0.00000000000E+00 -0.00000000000E+00 -0.45593999997E+02  0.45594000000E+02  0.51100000000E-03 0.  1.
         23    2    1    2    0    0  0.35527136788E-14  0.00000000000E+00  0.00000000000E+00  0.91188000000E+02  0.91188000000E+02 0.  0.
    9900012    2    3    3    0    0  0.18879233863E+02 -0.14523084503E+02 -0.32951935484E+02  0.50528738978E+02  0.29999632595E+02 0.  0.
         12    1    3    3    0    0 -0.18879233863E+02  0.14523084503E+02  0.32951935484E+02  0.40659261022E+02  0.00000000000E+00 0. -1.
         11    1    4    4    0    0  0.32693970336E+01  0.15629013713E+01 -0.22483576409E+01  0.42645902502E+01  0.51100000000E-03 0. -1.
        -11    1    4    4    0    0  0.20244462689E+02 -0.26900139947E+01 -0.17580707868E+02  0.26947276936E+02  0.51100000000E-03 0.  1.
        -12    1    4    4    0    0 -0.46346258591E+01 -0.13395971880E+02 -0.13122869975E+02  0.19316871792E+02  0.00000000000E+00 0.  1.
</event>
<event>
 8    1  0.6016610E-012  0.9118800E+02  0.7816164E-02  0.1184000E+00
        -11   -1    0    0    0    0  0.00000000000E+00  0.00000000000E+00  0.45593999997E+02  0.45594000000E+02  0.51100000000E-03 0. -1.
         11   -1    0    0    0    0 -0.00000000000E+00 -0.00000000000E+00 -0.45593999997E+02  0.45594000000E+02  0.51100000000E-03 0.  1.
         23    2    1    2    0    0 -0.31086244690E-14  0.00000000000E+00  0.71054273576E-14  0.91188000000E+02  0.91188000000E+02 0.  0.
    9900012    2    3    3    0    0  0.35703318927E+01 -0.63773588391E+01 -0.39996875850E+02  0.50528830636E+02  0.29999911202E+02 0.  0.
         12    1    3    3    0    0 -0.35703318927E+01  0.63773588391E+01  0.39996875850E+02  0.40659169364E+02  0.00000000000E+00 0. -1.
         11    1    4    4    0    0  0.45123383710E+01  0.21607334454E+00 -0.47143364289E+01  0.65293838523E+01  0.51100000000E-03 0. -1.
        -11    1    4    4    0    0 -0.95363730479E+01 -0.11620142612E+02 -0.27582790026E+02  0.31413061473E+02  0.51100000000E-03 0.  1.
        -12    1    4    4    0    0  0.85943665696E+01  0.50267104279E+01 -0.76997493953E+01  0.12586385311E+02  0.00000000000E+00 0.  1.
</event>
<event>
 8    1  0.6016610E-012  0.9118800E+02  0.7816164E-02  0.1184000E+00
        -11   -1    0    0    0    0  0.00000000000E+00  0.00000000000E+00  0.45593999997E+02  0.45594000000E+02  0.51100000000E-03 0.  1.
         11   -1    0    0    0    0 -0.00000000000E+00 -0.00000000000E+00 -0.45593999997E+02  0.45594000000E+02  0.51100000000E-03 0. -1.
         23    2    1    2    0    0  0.00000000000E+00  0.00000000000E+00 -0.17763568394E-14  0.91188000000E+02  0.91188000000E+02 0.  0.
    9900012    2    3    3    0    0 -0.29809179014E+02 -0.24519218864E+02  0.12782274688E+02  0.50528858427E+02  0.29999995676E+02 0.  0.
         12    1    3    3    0    0  0.29809179014E+02  0.24519218864E+02 -0.12782274688E+02  0.40659141573E+02  0.00000000000E+00 0. -1.
         11    1    4    4    0    0 -0.25358508744E+01 -0.13464543882E+02 -0.91253896544E-01  0.13701562288E+02  0.51100000000E-03 0. -1.
        -11    1    4    4    0    0 -0.16680442547E+02  0.14979501064E+01  0.11560291460E+02  0.20349971916E+02  0.51100000000E-03 0.  1.
        -12    1    4    4    0    0 -0.10592885593E+02 -0.12552625089E+02  0.13132371242E+01  0.16477324223E+02  0.00000000000E+00 0.  1.
</event>
<event>
 8    1  0.6016610E-012  0.9118800E+02  0.7816164E-02  0.1184000E+00
        -11   -1    0    0    0    0  0.00000000000E+00  0.00000000000E+00  0.45593999997E+02  0.45594000000E+02  0.51100000000E-03 0. -1.
         11   -1    0    0    0    0 -0.00000000000E+00 -0.00000000000E+00 -0.45593999997E+02  0.45594000000E+02  0.51100000000E-03 0.  1.
         23    2    1    2    0    0  0.00000000000E+00 -0.35527136788E-14  0.71054273576E-14  0.91188000000E+02  0.91188000000E+02 0.  0.
    9900012    2    3    3    0    0 -0.14370119785E+02 -0.25830128645E+02 -0.27918988144E+02  0.50528858501E+02  0.29999995900E+02 0.  0.
         12    1    3    3    0    0  0.14370119785E+02  0.25830128645E+02  0.27918988144E+02  0.40659141499E+02  0.00000000000E+00 0. -1.
         11    1    4    4    0    0  0.23031661065E+01  0.37351129211E+01 -0.50136623964E+01  0.66627662073E+01  0.51100000000E-03 0. -1.
        -11    1    4    4    0    0 -0.79164052738E+01 -0.15618898577E+02 -0.20916854179E+02  0.27278824282E+02  0.51100000000E-03 0.  1.
         12    1    4    4    0    0 -0.87568806173E+01 -0.13946342989E+02 -0.19884715690E+01  0.16587268012E+02  0.00000000000E+00 0. -1.
</event>
<event>
 8    1  0.6016610E-012  0.9118800E+02  0.7816164E-02  0.1184000E+00
        -11   -1    0    0    0    0  0.00000000000E+00  0.00000000000E+00  0.45593999997E+02  0.45594000000E+02  0.51100000000E-03 0. -1.
         11   -1    0    0    0    0 -0.00000000000E+00 -0.00000000000E+00 -0.45593999997E+02  0.45594000000E+02  0.51100000000E-03 0.  1.
         23    2    1    2    0    0  0.71054273576E-14 -0.17763568394E-14  0.35527136788E-14  0.91188000000E+02  0.91188000000E+02 0.  0.
    9900012    2    3    3    0    0 -0.29236275972E+02 -0.87306553027E+01 -0.26873448233E+02  0.50528851034E+02  0.29999973203E+02 0.  0.
         12    1    3    3    0    0  0.29236275972E+02  0.87306553027E+01  0.26873448233E+02  0.40659148966E+02  0.00000000000E+00 0. -1.
         11    1    4    4    0    0 -0.67614578821E+01 -0.16988277645E+02 -0.12518966713E+02  0.22159499495E+02  0.51100000000E-03 0. -1.
        -11    1    4    4    0    0 -0.22332013770E+02  0.77628480544E+01 -0.14611852316E+02  0.27793648147E+02  0.51100000000E-03 0.  1.
         12    1    4    4    0    0 -0.14280431975E+00  0.49477428814E+00  0.25737079535E+00  0.57570339259E+00  0.00000000000E+00 0. -1.
</event>
<event>
 8    1  0.6016610E-012  0.9118800E+02  0.7816164E-02  0.1184000E+00
        -11   -1    0    0    0    0  0.00000000000E+00  0.00000000000E+00  0.45593999997E+02  0.45594000000E+02  0.51100000000E-03 0. -1.
         11   -1    0    0    0    0 -0.00000000000E+00 -0.00000000000E+00 -0.45593999997E+02  0.45594000000E+02  0.51100000000E-03 0.  1.
         23    2    1    2    0    0  0.00000000000E+00  0.44408920985E-15  0.88817841970E-15  0.91188000000E+02  0.91188000000E+02 0.  0.
    9900012    2    3    3    0    0  0.40122596402E+02 -0.36949969736E+01 -0.54488534526E+01  0.50528858979E+02  0.29999997352E+02 0.  0.
         12    1    3    3    0    0 -0.40122596402E+02  0.36949969736E+01  0.54488534526E+01  0.40659141021E+02  0.00000000000E+00 0. -1.
         11    1    4    4    0    0  0.14526775324E+01 -0.54038982734E+01 -0.83303216707E+01  0.10035270199E+02  0.51100000000E-03 0. -1.
        -11    1    4    4    0    0  0.22513298469E+02 -0.30503618015E+01 -0.23913655733E+01  0.22844516730E+02  0.51100000000E-03 0.  1.
         12    1    4    4    0    0  0.16156620400E+02  0.47592631013E+01  0.52728337914E+01  0.17649072050E+02  0.00000000000E+00 0. -1.
</event>
<event>
 8    1  0.6016610E-012  0.9118800E+02  0.7816164E-02  0.1184000E+00
        -11   -1    0    0    0    0  0.00000000000E+00  0.00000000000E+00  0.45593999997E+02  0.45594000000E+02  0.51100000000E-03 0. -1.
         11   -1    0    0    0    0 -0.00000000000E+00 -0.00000000000E+00 -0.45593999997E+02  0.45594000000E+02  0.51100000000E-03 0.  1.
         23    2    1    2    0    0  0.71054273576E-14  0.88817841970E-15  0.00000000000E+00  0.91188000000E+02  0.91188000000E+02 0.  0.
    9900012    2    3    3    0    0 -0.32637745840E+02 -0.38755474552E+01  0.23935796319E+02  0.50528872280E+02  0.30000037781E+02 0.  0.
        -12    1    3    3    0    0  0.32637745840E+02  0.38755474552E+01 -0.23935796319E+02  0.40659127720E+02  0.00000000000E+00 0.  1.
         11    1    4    4    0    0 -0.26561150983E+02 -0.13264824023E+02  0.21154514364E+02  0.36454955440E+02  0.51100000000E-03 0. -1.
        -11    1    4    4    0    0 -0.26643886595E+01  0.93973510588E+01  0.15660216325E+00  0.97690172663E+01  0.51100000000E-03 0.  1.
        -12    1    4    4    0    0 -0.34122061970E+01 -0.80744912820E-02  0.26246797912E+01  0.43048995731E+01  0.00000000000E+00 0.  1.
</event>
<event>
 8    1  0.6016610E-012  0.9118800E+02  0.7816164E-02  0.1184000E+00
        -11   -1    0    0    0    0  0.00000000000E+00  0.00000000000E+00  0.45593999997E+02  0.45594000000E+02  0.51100000000E-03 0. -1.
         11   -1    0    0    0    0 -0.00000000000E+00 -0.00000000000E+00 -0.45593999997E+02  0.45594000000E+02  0.51100000000E-03 0.  1.
         23    2    1    2    0    0  0.00000000000E+00 -0.35527136788E-14  0.00000000000E+00  0.91188000000E+02  0.91188000000E+02 0.  0.
    9900012    2    3    3    0    0 -0.18630801578E+02 -0.26255970173E+02 -0.24833120719E+02  0.50528848240E+02  0.29999964712E+02 0.  0.
         12    1    3    3    0    0  0.18630801578E+02  0.26255970173E+02  0.24833120719E+02  0.40659151760E+02  0.00000000000E+00 0. -1.
         11    1    4    4    0    0  0.42203373778E+01 -0.28371915617E+01  0.33146398065E+01  0.60702340028E+01  0.51100000000E-03 0. -1.
        -11    1    4    4    0    0 -0.14415852358E+02 -0.20319062977E+02 -0.17100511852E+02  0.30217687293E+02  0.51100000000E-03 0.  1.
         12    1    4    4    0    0 -0.84352865978E+01 -0.30997156348E+01 -0.11047248673E+02  0.14240926945E+02  0.00000000000E+00 0. -1.
</event>
<event>
 8    1  0.6016610E-012  0.9118800E+02  0.7816164E-02  0.1184000E+00
        -11   -1    0    0    0    0  0.00000000000E+00  0.00000000000E+00  0.45593999997E+02  0.45594000000E+02  0.51100000000E-03 0. -1.
         11   -1    0    0    0    0 -0.00000000000E+00 -0.00000000000E+00 -0.45593999997E+02  0.45594000000E+02  0.51100000000E-03 0.  1.
         23    2    1    2    0    0  0.00000000000E+00  0.00000000000E+00 -0.71054273576E-14  0.91188000000E+02  0.91188000000E+02 0.  0.
    9900012    2    3    3    0    0 -0.89254893213E+01 -0.11722328970E+02 -0.37895754618E+02  0.50528861123E+02  0.30000003870E+02 0.  0.
         12    1    3    3    0    0  0.89254893213E+01  0.11722328970E+02  0.37895754618E+02  0.40659138877E+02  0.00000000000E+00 0. -1.
         11    1    4    4    0    0  0.27910723966E+01 -0.63425067428E+01 -0.36713715401E+01  0.78419669823E+01  0.51100000000E-03 0. -1.
        -11    1    4    4    0    0 -0.42656182129E+01 -0.47486328132E+01 -0.34615427246E+02  0.35199045669E+02  0.51100000000E-03 0.  1.
        -12    1    4    4    0    0 -0.74509435050E+01 -0.63118941416E+00  0.39104416821E+00  0.74878484715E+01  0.00000000000E+00 0.  1.
</event>
<event>
 8    1  0.6016610E-012  0.9118800E+02  0.7816164E-02  0.1184000E+00
        -11   -1    0    0    0    0  0.00000000000E+00  0.00000000000E+00  0.45593999997E+02  0.45594000000E+02  0.51100000000E-03 0. -1.
         11   -1    0    0    0    0 -0.00000000000E+00 -0.00000000000E+00 -0.45593999997E+02  0.45594000000E+02  0.51100000000E-03 0.  1.
         23    2    1    2    0    0  0.35527136788E-14 -0.35527136788E-14 -0.35527136788E-14  0.91188000000E+02  0.91188000000E+02 0.  0.
    9900012    2    3    3    0    0 -0.24754241882E+02  0.24887795801E+02  0.20518103406E+02  0.50528838199E+02  0.29999934190E+02 0.  0.
        -12    1    3    3    0    0  0.24754241882E+02 -0.24887795801E+02 -0.20518103406E+02  0.40659161801E+02  0.00000000000E+00 0.  1.
         11    1    4    4    0    0 -0.28714036667E+02  0.14668963834E+02  0.14756139836E+02  0.35460091156E+02  0.51100000000E-03 0. -1.
        -11    1    4    4    0    0  0.21161277814E+01  0.20711207192E+01  0.60224418913E+01  0.67109868436E+01  0.51100000000E-03 0.  1.
         12    1    4    4    0    0  0.18436670032E+01  0.81477112477E+01 -0.26047832172E+00  0.83577601994E+01  0.00000000000E+00 0. -1.
</event>
<event>
 8    1  0.6016610E-012  0.9118800E+02  0.7816164E-02  0.1184000E+00
        -11   -1    0    0    0    0  0.00000000000E+00  0.00000000000E+00  0.45593999997E+02  0.45594000000E+02  0.51100000000E-03 0. -1.
         11   -1    0    0    0    0 -0.00000000000E+00 -0.00000000000E+00 -0.45593999997E+02  0.45594000000E+02  0.51100000000E-03 0.  1.
         23    2    1    2    0    0  0.00000000000E+00  0.00000000000E+00  0.35527136788E-14  0.91188000000E+02  0.91188000000E+02 0.  0.
    9900012    2    3    3    0    0  0.83105465831E+01  0.26022383901E+02  0.30115393949E+02  0.50528848495E+02  0.29999965486E+02 0.  0.
        -12    1    3    3    0    0 -0.83105465831E+01 -0.26022383901E+02 -0.30115393949E+02  0.40659151505E+02  0.00000000000E+00 0.  1.
         11    1    4    4    0    0 -0.68465696053E+01  0.92660810782E+01  0.10239810682E+02  0.15413938399E+02  0.51100000000E-03 0. -1.
        -11    1    4    4    0    0  0.82307127139E+01 -0.14667041837E+01  0.18479767413E+01  0.85621767816E+01  0.51100000000E-03 0.  1.
         12    1    4    4    0    0  0.69264034745E+01  0.18223007006E+02  0.18027606526E+02  0.26552733315E+02  0.00000000000E+00 0. -1.
</event>
<event>
 8    1  0.6016610E-012  0.9118800E+02  0.7816164E-02  0.1184000E+00
        -11   -1    0    0    0    0  0.00000000000E+00  0.00000000000E+00  0.45593999997E+02  0.45594000000E+02  0.51100000000E-03 0. -1.
         11   -1    0    0    0    0 -0.00000000000E+00 -0.00000000000E+00 -0.45593999997E+02  0.45594000000E+02  0.51100000000E-03 0.  1.
         23    2    1    2    0    0 -0.88817841970E-15 -0.44408920985E-15  0.00000000000E+00  0.91188000000E+02  0.91188000000E+02 0.  0.
    9900012    2    3    3    0    0 -0.29838692420E+01  0.37439617045E+01 -0.40376306136E+02  0.50528845777E+02  0.29999957225E+02 0.  0.
         12    1    3    3    0    0  0.29838692420E+01 -0.37439617045E+01  0.40376306136E+02  0.40659154223E+02  0.00000000000E+00 0. -1.
         11    1    4    4    0    0  0.65444337758E+01  0.83894040237E+01 -0.62224941445E+01  0.12326035330E+02  0.51100000000E-03 0. -1.
        -11    1    4    4    0    0 -0.87141293860E+01 -0.66947707769E+01 -0.13388481329E+02  0.17320722828E+02  0.51100000000E-03 0.  1.
         12    1    4    4    0    0 -0.81417363176E+00  0.20493284577E+01 -0.20765330663E+02  0.20882087620E+02  0.00000000000E+00 0. -1.
</event>
<event>
 8    1  0.6016610E-012  0.9118800E+02  0.7816164E-02  0.1184000E+00
        -11   -1    0    0    0    0  0.00000000000E+00  0.00000000000E+00  0.45593999997E+02  0.45594000000E+02  0.51100000000E-03 0. -1.
         11   -1    0    0    0    0 -0.00000000000E+00 -0.00000000000E+00 -0.45593999997E+02  0.45594000000E+02  0.51100000000E-03 0.  1.
         23    2    1    2    0    0  0.00000000000E+00 -0.33306690739E-15  0.00000000000E+00  0.91188000000E+02  0.91188000000E+02 0.  0.
    9900012    2    3    3    0    0  0.12416230344E+02  0.64417001040E+00 -0.38711608276E+02  0.50528851629E+02  0.29999975010E+02 0.  0.
         12    1    3    3    0    0 -0.12416230344E+02 -0.64417001040E+00  0.38711608276E+02  0.40659148371E+02  0.00000000000E+00 0. -1.
         11    1    4    4    0    0  0.62601751486E+01  0.12175059935E+01 -0.26136762712E-01  0.63775228049E+01  0.51100000000E-03 0. -1.
        -11    1    4    4    0    0  0.41075904643E+01 -0.10155542494E+02 -0.25233955362E+02  0.27509268370E+02  0.51100000000E-03 0.  1.
        -12    1    4    4    0    0  0.20484647313E+01  0.95822065111E+01 -0.13451516152E+02  0.16642060454E+02  0.00000000000E+00 0.  1.
</event>
<event>
 8    1  0.6016610E-012  0.9118800E+02  0.7816164E-02  0.1184000E+00
        -11   -1    0    0    0    0  0.00000000000E+00  0.00000000000E+00  0.45593999997E+02  0.45594000000E+02  0.51100000000E-03 0. -1.
         11   -1    0    0    0    0 -0.00000000000E+00 -0.00000000000E+00 -0.45593999997E+02  0.45594000000E+02  0.51100000000E-03 0.  1.
         23    2    1    2    0    0  0.00000000000E+00  0.00000000000E+00  0.17763568394E-14  0.91188000000E+02  0.91188000000E+02 0.  0.
    9900012    2    3    3    0    0  0.10045143396E+02  0.36948601690E+02  0.13677056966E+02  0.50528856380E+02  0.29999989452E+02 0.  0.
        -12    1    3    3    0    0 -0.10045143396E+02 -0.36948601690E+02 -0.13677056966E+02  0.40659143620E+02  0.00000000000E+00 0.  1.
         11    1    4    4    0    0  0.22673355679E+01  0.18552213093E+02  0.12611447028E+02  0.22547150987E+02  0.51100000000E-03 0. -1.
        -11    1    4    4    0    0  0.14395883240E+02  0.12791560371E+02  0.12471939377E+00  0.19258271630E+02  0.51100000000E-03 0.  1.
         12    1    4    4    0    0 -0.66180754120E+01  0.56048282259E+01  0.94089054431E+00  0.87234337629E+01  0.00000000000E+00 0. -1.
</event>
<event>
 8    1  0.6016610E-012  0.9118800E+02  0.7816164E-02  0.1184000E+00
        -11   -1    0    0    0    0  0.00000000000E+00  0.00000000000E+00  0.45593999997E+02  0.45594000000E+02  0.51100000000E-03 0. -1.
         11   -1    0    0    0    0 -0.00000000000E+00 -0.00000000000E+00 -0.45593999997E+02  0.45594000000E+02  0.51100000000E-03 0.  1.
         23    2    1    2    0    0  0.00000000000E+00  0.00000000000E+00  0.00000000000E+00  0.91188000000E+02  0.91188000000E+02 0.  0.
    9900012    2    3    3    0    0  0.35100667934E+02 -0.17587260873E+02  0.10573455817E+02  0.50528848480E+02  0.29999965438E+02 0.  0.
        -12    1    3    3    0    0 -0.35100667934E+02  0.17587260873E+02 -0.10573455817E+02  0.40659151520E+02  0.00000000000E+00 0.  1.
         11    1    4    4    0    0  0.17773574586E+02 -0.54307337100E+01 -0.47897798195E+01  0.19192050781E+02  0.51100000000E-03 0. -1.
        -11    1    4    4    0    0  0.14656904852E+02 -0.14599622007E+02  0.17532253961E+02  0.27117406805E+02  0.51100000000E-03 0.  1.
        -12    1    4    4    0    0  0.26701884965E+01  0.24430948442E+01 -0.21690183249E+01  0.42193908943E+01  0.00000000000E+00 0.  1.
</event>
<event>
 8    1  0.6016610E-012  0.9118800E+02  0.7816164E-02  0.1184000E+00
        -11   -1    0    0    0    0  0.00000000000E+00  0.00000000000E+00  0.45593999997E+02  0.45594000000E+02  0.51100000000E-03 0. -1.
         11   -1    0    0    0    0 -0.00000000000E+00 -0.00000000000E+00 -0.45593999997E+02  0.45594000000E+02  0.51100000000E-03 0.  1.
         23    2    1    2    0    0 -0.22204460493E-14  0.00000000000E+00  0.00000000000E+00  0.91188000000E+02  0.91188000000E+02 0.  0.
    9900012    2    3    3    0    0 -0.32652625613E+01 -0.28837234474E+02 -0.28476617239E+02  0.50528858825E+02  0.29999996886E+02 0.  0.
         12    1    3    3    0    0  0.32652625613E+01  0.28837234474E+02  0.28476617239E+02  0.40659141175E+02  0.00000000000E+00 0. -1.
         11    1    4    4    0    0  0.69680596230E+01 -0.32287662831E+01 -0.17101540064E+02  0.18746771974E+02  0.51100000000E-03 0. -1.
        -11    1    4    4    0    0 -0.64712678964E+01 -0.17131870831E+02 -0.12876907005E+02  0.22387341080E+02  0.51100000000E-03 0.  1.
         12    1    4    4    0    0 -0.37620542879E+01 -0.84765973603E+01  0.15018298304E+01  0.93947457717E+01  0.00000000000E+00 0. -1.
</event>
<event>
 8    1  0.6016610E-012  0.9118800E+02  0.7816164E-02  0.1184000E+00
        -11   -1    0    0    0    0  0.00000000000E+00  0.00000000000E+00  0.45593999997E+02  0.45594000000E+02  0.51100000000E-03 0. -1.
         11   -1    0    0    0    0 -0.00000000000E+00 -0.00000000000E+00 -0.45593999997E+02  0.45594000000E+02  0.51100000000E-03 0.  1.
         23    2    1    2    0    0 -0.88817841970E-15  0.35527136788E-14 -0.35527136788E-14  0.91188000000E+02  0.91188000000E+02 0.  0.
    9900012    2    3    3    0    0  0.50268250178E+01 -0.29270989429E+02 -0.27768875229E+02  0.50528803950E+02  0.29999830087E+02 0.  0.
         12    1    3    3    0    0 -0.50268250178E+01  0.29270989429E+02  0.27768875229E+02  0.40659196050E+02  0.00000000000E+00 0. -1.
         11    1    4    4    0    0 -0.40612238878E+01 -0.79094496749E+01  0.47082123026E+01  0.10060824865E+02  0.51100000000E-03 0. -1.
        -11    1    4    4    0    0  0.25083798007E+01 -0.96960890924E+01 -0.91303722172E+01  0.13552483536E+02  0.51100000000E-03 0.  1.
         12    1    4    4    0    0  0.65796691049E+01 -0.11665450662E+02 -0.23346715314E+02  0.26915495549E+02  0.00000000000E+00 0. -1.
</event>
<event>
 8    1  0.6016610E-012  0.9118800E+02  0.7816164E-02  0.1184000E+00
        -11   -1    0    0    0    0  0.00000000000E+00  0.00000000000E+00  0.45593999997E+02  0.45594000000E+02  0.51100000000E-03 0. -1.
         11   -1    0    0    0    0 -0.00000000000E+00 -0.00000000000E+00 -0.45593999997E+02  0.45594000000E+02  0.51100000000E-03 0.  1.
         23    2    1    2    0    0  0.00000000000E+00  0.00000000000E+00  0.00000000000E+00  0.91188000000E+02  0.91188000000E+02 0.  0.
    9900012    2    3    3    0    0 -0.20828396337E+02 -0.33524077951E+02 -0.97714045585E+01  0.50528852893E+02  0.29999978852E+02 0.  0.
         12    1    3    3    0    0  0.20828396337E+02  0.33524077951E+02  0.97714045585E+01  0.40659147107E+02  0.00000000000E+00 0. -1.
         11    1    4    4    0    0 -0.70158854840E+01  0.24619455026E+01 -0.74083227201E+01  0.10496050237E+02  0.51100000000E-03 0. -1.
        -11    1    4    4    0    0 -0.40260180123E+01 -0.24666024359E+02 -0.18323222754E+01  0.25059508852E+02  0.51100000000E-03 0.  1.
         12    1    4    4    0    0 -0.97864928407E+01 -0.11319999095E+02 -0.53075956303E+00  0.14973293804E+02  0.00000000000E+00 0. -1.
</event>
<event>
 8    1  0.6016610E-012  0.9118800E+02  0.7816164E-02  0.1184000E+00
        -11   -1    0    0    0    0  0.00000000000E+00  0.00000000000E+00  0.45593999997E+02  0.45594000000E+02  0.51100000000E-03 0. -1.
         11   -1    0    0    0    0 -0.00000000000E+00 -0.00000000000E+00 -0.45593999997E+02  0.45594000000E+02  0.51100000000E-03 0.  1.
         23    2    1    2    0    0 -0.35527136788E-14  0.17763568394E-14  0.00000000000E+00  0.91188000000E+02  0.91188000000E+02 0.  0.
    9900012    2    3    3    0    0  0.17515773869E+02 -0.69490067244E+01 -0.36028811458E+02  0.50528852397E+02  0.29999977347E+02 0.  0.
         12    1    3    3    0    0 -0.17515773869E+02  0.69490067244E+01  0.36028811458E+02  0.40659147603E+02  0.00000000000E+00 0. -1.
         11    1    4    4    0    0  0.16280723331E+01 -0.50269269092E+01  0.15265629829E+01  0.55000916787E+01  0.51100000000E-03 0. -1.
        -11    1    4    4    0    0  0.14261630175E+02 -0.83066885488E+01 -0.33355968646E+02  0.37215800602E+02  0.51100000000E-03 0.  1.
        -12    1    4    4    0    0  0.16260713609E+01  0.63846087335E+01 -0.41994057951E+01  0.78129601166E+01  0.00000000000E+00 0.  1.
</event>
<event>
 8    1  0.6016610E-012  0.9118800E+02  0.7816164E-02  0.1184000E+00
        -11   -1    0    0    0    0  0.00000000000E+00  0.00000000000E+00  0.45593999997E+02  0.45594000000E+02  0.51100000000E-03 0. -1.
         11   -1    0    0    0    0 -0.00000000000E+00 -0.00000000000E+00 -0.45593999997E+02  0.45594000000E+02  0.51100000000E-03 0.  1.
         23    2    1    2    0    0  0.17763568394E-14  0.17763568394E-14  0.00000000000E+00  0.91188000000E+02  0.91188000000E+02 0.  0.
    9900012    2    3    3    0    0  0.12447973863E+02  0.12478090755E+02  0.36640292467E+02  0.50528857925E+02  0.29999994149E+02 0.  0.
        -12    1    3    3    0    0 -0.12447973863E+02 -0.12478090755E+02 -0.36640292467E+02  0.40659142075E+02  0.00000000000E+00 0.  1.
         11    1    4    4    0    0  0.54387420795E+01  0.17515423965E+02  0.27227822751E+02  0.32828711886E+02  0.51100000000E-03 0. -1.
        -11    1    4    4    0    0  0.64964677755E+01  0.21620666673E+01  0.15362611963E+01  0.70170310357E+01  0.51100000000E-03 0.  1.
         12    1    4    4    0    0  0.51276400857E+00 -0.71993998776E+01  0.78762085198E+01  0.10683115003E+02  0.00000000000E+00 0. -1.
</event>
<event>
 8    1  0.6016610E-012  0.9118800E+02  0.7816164E-02  0.1184000E+00
        -11   -1    0    0    0    0  0.00000000000E+00  0.00000000000E+00  0.45593999997E+02  0.45594000000E+02  0.51100000000E-03 0. -1.
         11   -1    0    0    0    0 -0.00000000000E+00 -0.00000000000E+00 -0.45593999997E+02  0.45594000000E+02  0.51100000000E-03 0.  1.
         23    2    1    2    0    0 -0.27755575616E-14  0.00000000000E+00  0.00000000000E+00  0.91188000000E+02  0.91188000000E+02 0.  0.
    9900012    2    3    3    0    0  0.80832920315E+00  0.26853073439E+02  0.30519230267E+02  0.50528875989E+02  0.30000049057E+02 0.  0.
        -12    1    3    3    0    0 -0.80832920315E+00 -0.26853073439E+02 -0.30519230267E+02  0.40659124011E+02  0.00000000000E+00 0.  1.
         11    1    4    4    0    0  0.51626603685E+01  0.26608417745E+01  0.22472762753E+00  0.58123698951E+01  0.51100000000E-03 0. -1.
        -11    1    4    4    0    0 -0.13055964271E+02  0.17792124307E+02  0.19590376404E+02  0.29509333071E+02  0.51100000000E-03 0.  1.
        -12    1    4    4    0    0  0.87016331052E+01  0.64001073575E+01  0.10704126236E+02  0.15207173023E+02  0.00000000000E+00 0.  1.
</event>
<event>
 8    1  0.6016610E-012  0.9118800E+02  0.7816164E-02  0.1184000E+00
        -11   -1    0    0    0    0  0.00000000000E+00  0.00000000000E+00  0.45593999997E+02  0.45594000000E+02  0.51100000000E-03 0. -1.
         11   -1    0    0    0    0 -0.00000000000E+00 -0.00000000000E+00 -0.45593999997E+02  0.45594000000E+02  0.51100000000E-03 0.  1.
         23    2    1    2    0    0  0.00000000000E+00  0.00000000000E+00  0.00000000000E+00  0.91188000000E+02  0.91188000000E+02 0.  0.
    9900012    2    3    3    0    0 -0.50395381344E+01  0.35120675865E+02 -0.19857176058E+02  0.50528852704E+02  0.29999978280E+02 0.  0.
         12    1    3    3    0    0  0.50395381344E+01 -0.35120675865E+02  0.19857176058E+02  0.40659147296E+02  0.00000000000E+00 0. -1.
         11    1    4    4    0    0  0.43660372061E+01  0.52844917960E+01 -0.22242258095E+01  0.72066160672E+01  0.51100000000E-03 0. -1.
        -11    1    4    4    0    0 -0.37760651498E+01  0.32868837603E+02 -0.13659667024E+02  0.35793933241E+02  0.51100000000E-03 0.  1.
        -12    1    4    4    0    0 -0.56295101907E+01 -0.30326535339E+01 -0.39732832245E+01  0.75283033962E+01  0.00000000000E+00 0.  1.
</event>
<event>
 8    1  0.6016610E-012  0.9118800E+02  0.7816164E-02  0.1184000E+00
        -11   -1    0    0    0    0  0.00000000000E+00  0.00000000000E+00  0.45593999997E+02  0.45594000000E+02  0.51100000000E-03 0. -1.
         11   -1    0    0    0    0 -0.00000000000E+00 -0.00000000000E+00 -0.45593999997E+02  0.45594000000E+02  0.51100000000E-03 0.  1.
         23    2    1    2    0    0  0.00000000000E+00 -0.88817841970E-15  0.00000000000E+00  0.91188000000E+02  0.91188000000E+02 0.  0.
    9900012    2    3    3    0    0  0.63449592594E+01  0.41256237818E+01 -0.39948537939E+02  0.50528868638E+02  0.30000026713E+02 0.  0.
         12    1    3    3    0    0 -0.63449592594E+01 -0.41256237818E+01  0.39948537939E+02  0.40659131362E+02  0.00000000000E+00 0. -1.
         11    1    4    4    0    0 -0.65980384733E+01  0.10573157235E+02 -0.24453894717E+02  0.27446652486E+02  0.51100000000E-03 0. -1.
        -11    1    4    4    0    0  0.23816540613E+01 -0.35153043304E+01 -0.99085017392E+01  0.10779983654E+02  0.51100000000E-03 0.  1.
         12    1    4    4    0    0  0.10561343671E+02 -0.29322291226E+01 -0.55861414829E+01  0.12302232498E+02  0.00000000000E+00 0. -1.
</event>
<event>
 8    1  0.6016610E-012  0.9118800E+02  0.7816164E-02  0.1184000E+00
        -11   -1    0    0    0    0  0.00000000000E+00  0.00000000000E+00  0.45593999997E+02  0.45594000000E+02  0.51100000000E-03 0.  1.
         11   -1    0    0    0    0 -0.00000000000E+00 -0.00000000000E+00 -0.45593999997E+02  0.45594000000E+02  0.51100000000E-03 0. -1.
         23    2    1    2    0    0 -0.35527136788E-14  0.00000000000E+00  0.88817841970E-15  0.91188000000E+02  0.91188000000E+02 0.  0.
    9900012    2    3    3    0    0  0.30099055250E+02  0.26827095636E+02  0.52452891481E+01  0.50528938950E+02  0.30000240432E+02 0.  0.
        -12    1    3    3    0    0 -0.30099055250E+02 -0.26827095636E+02 -0.52452891481E+01  0.40659061050E+02  0.00000000000E+00 0.  1.
         11    1    4    4    0    0  0.25426033983E+02  0.21838099689E+02 -0.49700840165E+01  0.33883440462E+02  0.51100000000E-03 0. -1.
        -11    1    4    4    0    0  0.36236072273E+01 -0.13243605692E+01  0.94409643435E+01  0.10198836613E+02  0.51100000000E-03 0.  1.
         12    1    4    4    0    0  0.10494140401E+01  0.63133565157E+01  0.77440882114E+00  0.64466618761E+01  0.00000000000E+00 0. -1.
</event>
<event>
 8    1  0.6016610E-012  0.9118800E+02  0.7816164E-02  0.1184000E+00
        -11   -1    0    0    0    0  0.00000000000E+00  0.00000000000E+00  0.45593999997E+02  0.45594000000E+02  0.51100000000E-03 0. -1.
         11   -1    0    0    0    0 -0.00000000000E+00 -0.00000000000E+00 -0.45593999997E+02  0.45594000000E+02  0.51100000000E-03 0.  1.
         23    2    1    2    0    0  0.13322676296E-14  0.00000000000E+00  0.00000000000E+00  0.91188000000E+02  0.91188000000E+02 0.  0.
    9900012    2    3    3    0    0 -0.37848093236E+01  0.34061825078E+02 -0.21877645579E+02  0.50528879432E+02  0.30000059523E+02 0.  0.
         12    1    3    3    0    0  0.37848093236E+01 -0.34061825078E+02  0.21877645579E+02  0.40659120568E+02  0.00000000000E+00 0. -1.
         11    1    4    4    0    0 -0.12157764581E+02  0.21556922739E+02 -0.31777887732E+01  0.24952164222E+02  0.51100000000E-03 0. -1.
        -11    1    4    4    0    0  0.25411808058E+01  0.11160478991E+02 -0.12833768055E+02  0.17196496560E+02  0.51100000000E-03 0.  1.
         12    1    4    4    0    0  0.58317744519E+01  0.13444233476E+01 -0.58660887504E+01  0.83802186501E+01  0.00000000000E+00 0. -1.
</event>
<event>
 8    1  0.6574600E-012  0.9118800E+02  0.7816164E-02  0.1184000E+00
        -11   -1    0    0    0    0  0.00000000000E+00  0.00000000000E+00  0.45593999997E+02  0.45594000000E+02  0.51100000000E-03 0. -1.
         11   -1    0    0    0    0 -0.00000000000E+00 -0.00000000000E+00 -0.45593999997E+02  0.45594000000E+02  0.51100000000E-03 0.  1.
         23    2    1    2    0    0  0.00000000000E+00 -0.35527136788E-14 -0.35527136788E-14  0.91188000000E+02  0.91188000000E+02 0.  0.
    9900012    2    3    3    0    0  0.17237757167E+02  0.28457589343E+02  0.23370740468E+02  0.50528853755E+02  0.29999981473E+02 0.  0.
        -12    1    3    3    0    0 -0.17237757167E+02 -0.28457589343E+02 -0.23370740468E+02  0.40659146245E+02  0.00000000000E+00 0.  1.
         11    1    4    4    0    0  0.10220461145E+02  0.14317159723E+02  0.11401636918E+02  0.20962733916E+02  0.51100000000E-03 0. -1.
        -11    1    4    4    0    0 -0.29722140614E+01 -0.37347679113E+01  0.70375649790E+01  0.85035209692E+01  0.51100000000E-03 0.  1.
        -12    1    4    4    0    0  0.99895100837E+01  0.17875197531E+02  0.49315385717E+01  0.21062598870E+02  0.00000000000E+00 0.  1.
</event>
<event>
 8    1  0.6016610E-012  0.9118800E+02  0.7816164E-02  0.1184000E+00
        -11   -1    0    0    0    0  0.00000000000E+00  0.00000000000E+00  0.45593999997E+02  0.45594000000E+02  0.51100000000E-03 0. -1.
         11   -1    0    0    0    0 -0.00000000000E+00 -0.00000000000E+00 -0.45593999997E+02  0.45594000000E+02  0.51100000000E-03 0.  1.
         23    2    1    2    0    0  0.00000000000E+00 -0.35527136788E-14  0.00000000000E+00  0.91188000000E+02  0.91188000000E+02 0.  0.
    9900012    2    3    3    0    0 -0.13033179287E+02 -0.21140999002E+02  0.32192538525E+02  0.50528866490E+02  0.30000020182E+02 0.  0.
        -12    1    3    3    0    0  0.13033179287E+02  0.21140999002E+02 -0.32192538525E+02  0.40659133510E+02  0.00000000000E+00 0.  1.
         11    1    4    4    0    0 -0.16654590891E+02 -0.10773544344E+02  0.27973319537E+02  0.34292145772E+02  0.51100000000E-03 0. -1.
        -11    1    4    4    0    0  0.51813311349E+01 -0.98370645934E+00  0.41712525644E+01  0.67240775534E+01  0.51100000000E-03 0.  1.
         12    1    4    4    0    0 -0.15599195315E+01 -0.93837481980E+01  0.47966423276E-01  0.95126431640E+01  0.00000000000E+00 0. -1.
</event>
<event>
 8    1  0.6016610E-012  0.9118800E+02  0.7816164E-02  0.1184000E+00
        -11   -1    0    0    0    0  0.00000000000E+00  0.00000000000E+00  0.45593999997E+02  0.45594000000E+02  0.51100000000E-03 0. -1.
         11   -1    0    0    0    0 -0.00000000000E+00 -0.00000000000E+00 -0.45593999997E+02  0.45594000000E+02  0.51100000000E-03 0.  1.
         23    2    1    2    0    0  0.00000000000E+00  0.00000000000E+00 -0.17763568394E-14  0.91188000000E+02  0.91188000000E+02 0.  0.
    9900012    2    3    3    0    0 -0.18173082399E+02  0.32718730565E+02  0.15886740854E+02  0.50528870783E+02  0.30000033233E+02 0.  0.
        -12    1    3    3    0    0  0.18173082399E+02 -0.32718730565E+02 -0.15886740854E+02  0.40659129217E+02  0.00000000000E+00 0.  1.
         11    1    4    4    0    0 -0.11499941623E+02  0.18955279875E+02  0.21720707626E+02  0.31037725956E+02  0.51100000000E-03 0. -1.
        -11    1    4    4    0    0 -0.76294155636E+01  0.13919448435E+02 -0.75061658742E+01  0.17558517961E+02  0.51100000000E-03 0.  1.
         12    1    4    4    0    0  0.95627478810E+00 -0.15599774543E+00  0.16721991022E+01  0.19326268663E+01  0.00000000000E+00 0. -1.
</event>
<event>
 8    1  0.6016610E-012  0.9118800E+02  0.7816164E-02  0.1184000E+00
        -11   -1    0    0    0    0  0.00000000000E+00  0.00000000000E+00  0.45593999997E+02  0.45594000000E+02  0.51100000000E-03 0. -1.
         11   -1    0    0    0    0 -0.00000000000E+00 -0.00000000000E+00 -0.45593999997E+02  0.45594000000E+02  0.51100000000E-03 0.  1.
         23    2    1    2    0    0  0.17763568394E-14  0.44408920985E-15  0.00000000000E+00  0.91188000000E+02  0.91188000000E+02 0.  0.
    9900012    2    3    3    0    0 -0.12880384283E+02  0.22876606539E+01  0.38497120023E+02  0.50528856617E+02  0.29999990173E+02 0.  0.
        -12    1    3    3    0    0  0.12880384283E+02 -0.22876606539E+01 -0.38497120023E+02  0.40659143383E+02  0.00000000000E+00 0.  1.
         11    1    4    4    0    0  0.14334772050E+01 -0.61168717607E+01  0.19820962875E+02  0.20792824402E+02  0.51100000000E-03 0. -1.
        -11    1    4    4    0    0 -0.17662499048E+02  0.73108158866E+01  0.13221112080E+02  0.23242411804E+02  0.51100000000E-03 0.  1.
        -12    1    4    4    0    0  0.33486375601E+01  0.10937165281E+01  0.54550450681E+01  0.64936204114E+01  0.00000000000E+00 0.  1.
</event>
<event>
 8    1  0.6016610E-012  0.9118800E+02  0.7816164E-02  0.1184000E+00
        -11   -1    0    0    0    0  0.00000000000E+00  0.00000000000E+00  0.45593999997E+02  0.45594000000E+02  0.51100000000E-03 0. -1.
         11   -1    0    0    0    0 -0.00000000000E+00 -0.00000000000E+00 -0.45593999997E+02  0.45594000000E+02  0.51100000000E-03 0.  1.
         23    2    1    2    0    0 -0.22204460493E-15  0.00000000000E+00  0.00000000000E+00  0.91188000000E+02  0.91188000000E+02 0.  0.
    9900012    2    3    3    0    0 -0.35978859905E+00  0.20369211951E+02  0.35187099545E+02  0.50528853209E+02  0.29999979815E+02 0.  0.
        -12    1    3    3    0    0  0.35978859905E+00 -0.20369211951E+02 -0.35187099545E+02  0.40659146791E+02  0.00000000000E+00 0.  1.
         11    1    4    4    0    0 -0.24372758237E+01  0.14479965873E+02  0.15054051615E+02  0.21029365074E+02  0.51100000000E-03 0. -1.
        -11    1    4    4    0    0  0.12114246781E+01 -0.31653051350E+01  0.20120146724E+02  0.20403602887E+02  0.51100000000E-03 0.  1.
        -12    1    4    4    0    0  0.86606254653E+00  0.90545512127E+01  0.12901206766E-01  0.90958852477E+01  0.00000000000E+00 0.  1.
</event>
<event>
 8    1  0.6016610E-012  0.9118800E+02  0.7816164E-02  0.1184000E+00
        -11   -1    0    0    0    0  0.00000000000E+00  0.00000000000E+00  0.45593999997E+02  0.45594000000E+02  0.51100000000E-03 0. -1.
         11   -1    0    0    0    0 -0.00000000000E+00 -0.00000000000E+00 -0.45593999997E+02  0.45594000000E+02  0.51100000000E-03 0.  1.
         23    2    1    2    0    0  0.00000000000E+00  0.00000000000E+00  0.00000000000E+00  0.91188000000E+02  0.91188000000E+02 0.  0.
    9900012    2    3    3    0    0  0.26349491991E+02  0.25800137288E+02 -0.17123809827E+02  0.50528835285E+02  0.29999925333E+02 0.  0.
         12    1    3    3    0    0 -0.26349491991E+02 -0.25800137288E+02  0.17123809827E+02  0.40659164715E+02  0.00000000000E+00 0. -1.
         11    1    4    4    0    0 -0.46427493215E+01  0.32869638652E+01 -0.94029298104E+01  0.10989738031E+02  0.51100000000E-03 0. -1.
        -11    1    4    4    0    0  0.17265822370E+02  0.15587933166E+02 -0.29871675921E+01  0.23452408255E+02  0.51100000000E-03 0.  1.
        -12    1    4    4    0    0  0.13726418943E+02  0.69252402573E+01 -0.47337124249E+01  0.16086688999E+02  0.00000000000E+00 0.  1.
</event>
<event>
 8    1  0.6016610E-012  0.9118800E+02  0.7816164E-02  0.1184000E+00
        -11   -1    0    0    0    0  0.00000000000E+00  0.00000000000E+00  0.45593999997E+02  0.45594000000E+02  0.51100000000E-03 0. -1.
         11   -1    0    0    0    0 -0.00000000000E+00 -0.00000000000E+00 -0.45593999997E+02  0.45594000000E+02  0.51100000000E-03 0.  1.
         23    2    1    2    0    0 -0.44408920985E-15  0.11102230246E-15  0.00000000000E+00  0.91188000000E+02  0.91188000000E+02 0.  0.
    9900012    2    3    3    0    0  0.18742693050E+01 -0.92290625882E+00 -0.40605414393E+02  0.50528876554E+02  0.30000050773E+02 0.  0.
         12    1    3    3    0    0 -0.18742693050E+01  0.92290625882E+00  0.40605414393E+02  0.40659123446E+02  0.00000000000E+00 0. -1.
         11    1    4    4    0    0 -0.13185099719E+01 -0.35144736917E+01 -0.42163486295E+02  0.42330244161E+02  0.51100000000E-03 0.  1.
        -11    1    4    4    0    0  0.45290619747E+01 -0.33626749461E+00  0.19768779671E+01  0.49531328426E+01  0.51100000000E-03 0. -1.
        -12    1    4    4    0    0 -0.13362826978E+01  0.29278349275E+01 -0.41880606485E+00  0.32454995503E+01  0.00000000000E+00 0.  1.
</event>
<event>
 8    1  0.6016610E-012  0.9118800E+02  0.7816164E-02  0.1184000E+00
        -11   -1    0    0    0    0  0.00000000000E+00  0.00000000000E+00  0.45593999997E+02  0.45594000000E+02  0.51100000000E-03 0. -1.
         11   -1    0    0    0    0 -0.00000000000E+00 -0.00000000000E+00 -0.45593999997E+02  0.45594000000E+02  0.51100000000E-03 0.  1.
         23    2    1    2    0    0  0.00000000000E+00  0.00000000000E+00  0.00000000000E+00  0.91188000000E+02  0.91188000000E+02 0.  0.
    9900012    2    3    3    0    0 -0.19113940962E+02  0.22158750726E+02  0.28227871028E+02  0.50528859876E+02  0.30000000080E+02 0.  0.
        -12    1    3    3    0    0  0.19113940962E+02 -0.22158750726E+02 -0.28227871028E+02  0.40659140124E+02  0.00000000000E+00 0.  1.
         11    1    4    4    0    0  0.34340261442E+01  0.13813568518E+02  0.15657316364E+02  0.21160311121E+02  0.51100000000E-03 0. -1.
        -11    1    4    4    0    0 -0.53847095103E+01 -0.51051636216E+00  0.77706926282E+01  0.94678079643E+01  0.51100000000E-03 0.  1.
         12    1    4    4    0    0 -0.17163257596E+02  0.88556985704E+01  0.47998620357E+01  0.19900740791E+02  0.00000000000E+00 0. -1.
</event>
<event>
 8    1  0.6016610E-012  0.9118800E+02  0.7816164E-02  0.1184000E+00
        -11   -1    0    0    0    0  0.00000000000E+00  0.00000000000E+00  0.45593999997E+02  0.45594000000E+02  0.51100000000E-03 0. -1.
         11   -1    0    0    0    0 -0.00000000000E+00 -0.00000000000E+00 -0.45593999997E+02  0.45594000000E+02  0.51100000000E-03 0.  1.
         23    2    1    2    0    0  0.35527136788E-14  0.88817841970E-15  0.00000000000E+00  0.91188000000E+02  0.91188000000E+02 0.  0.
    9900012    2    3    3    0    0 -0.28570021088E+02  0.74655348655E+01 -0.27949688783E+02  0.50528863034E+02  0.30000009677E+02 0.  0.
         12    1    3    3    0    0  0.28570021088E+02 -0.74655348655E+01  0.27949688783E+02  0.40659136966E+02  0.00000000000E+00 0. -1.
         11    1    4    4    0    0 -0.69038132824E+01 -0.43962828917E+01 -0.39263867023E+01  0.90778000584E+01  0.51100000000E-03 0. -1.
        -11    1    4    4    0    0 -0.11861070559E+02  0.18146188848E+02 -0.18767552597E+02  0.28673859092E+02  0.51100000000E-03 0.  1.
        -12    1    4    4    0    0 -0.98051372466E+01 -0.62843710909E+01 -0.52557494836E+01  0.12777203883E+02  0.00000000000E+00 0.  1.
</event>
<event>
 8    1  0.6016610E-012  0.9118800E+02  0.7816164E-02  0.1184000E+00
        -11   -1    0    0    0    0  0.00000000000E+00  0.00000000000E+00  0.45593999997E+02  0.45594000000E+02  0.51100000000E-03 0. -1.
         11   -1    0    0    0    0 -0.00000000000E+00 -0.00000000000E+00 -0.45593999997E+02  0.45594000000E+02  0.51100000000E-03 0.  1.
         23    2    1    2    0    0  0.00000000000E+00  0.17763568394E-14  0.00000000000E+00  0.91188000000E+02  0.91188000000E+02 0.  0.
    9900012    2    3    3    0    0 -0.27190895548E+02  0.15106119235E+02  0.26184464504E+02  0.50528858095E+02  0.29999994667E+02 0.  0.
        -12    1    3    3    0    0  0.27190895548E+02 -0.15106119235E+02 -0.26184464504E+02  0.40659141905E+02  0.00000000000E+00 0.  1.
         11    1    4    4    0    0 -0.15041764310E+02 -0.22319683206E+01  0.21991233492E+02  0.26736692146E+02  0.51100000000E-03 0. -1.
        -11    1    4    4    0    0 -0.11449156857E+01  0.13421978894E+01 -0.26692557966E+01  0.31995708884E+01  0.51100000000E-03 0.  1.
         12    1    4    4    0    0 -0.11004215552E+02  0.15995889667E+02  0.68624868088E+01  0.20592595061E+02  0.00000000000E+00 0. -1.
</event>
<event>
 8    1  0.7342403E-012  0.9118800E+02  0.7816164E-02  0.1184000E+00
        -11   -1    0    0    0    0  0.00000000000E+00  0.00000000000E+00  0.45593999997E+02  0.45594000000E+02  0.51100000000E-03 0. -1.
         11   -1    0    0    0    0 -0.00000000000E+00 -0.00000000000E+00 -0.45593999997E+02  0.45594000000E+02  0.51100000000E-03 0.  1.
         23    2    1    2    0    0  0.00000000000E+00  0.35527136788E-14  0.00000000000E+00  0.91188000000E+02  0.91188000000E+02 0.  0.
    9900012    2    3    3    0    0  0.13244607170E+02 -0.14978702352E+02  0.35403156825E+02  0.50528872410E+02  0.30000038177E+02 0.  0.
        -12    1    3    3    0    0 -0.13244607170E+02  0.14978702352E+02 -0.35403156825E+02  0.40659127590E+02  0.00000000000E+00 0.  1.
         11    1    4    4    0    0 -0.67537891606E+00 -0.42773198845E+01  0.16910953457E+02  0.17456573236E+02  0.51100000000E-03 0. -1.
        -11    1    4    4    0    0 -0.38460842856E+00 -0.88385074004E+00 -0.43120747181E+01  0.44184957180E+01  0.51100000000E-03 0.  1.
        -12    1    4    4    0    0  0.14304594514E+02 -0.98175317277E+01  0.22804278086E+02  0.28653803456E+02  0.00000000000E+00 0.  1.
</event>
<event>
 8    1  0.6016610E-012  0.9118800E+02  0.7816164E-02  0.1184000E+00
        -11   -1    0    0    0    0  0.00000000000E+00  0.00000000000E+00  0.45593999997E+02  0.45594000000E+02  0.51100000000E-03 0. -1.
         11   -1    0    0    0    0 -0.00000000000E+00 -0.00000000000E+00 -0.45593999997E+02  0.45594000000E+02  0.51100000000E-03 0.  1.
         23    2    1    2    0    0 -0.17763568394E-14 -0.35527136788E-14  0.00000000000E+00  0.91188000000E+02  0.91188000000E+02 0.  0.
    9900012    2    3    3    0    0  0.14627745870E+02 -0.22901380408E+02 -0.30244318672E+02  0.50528892954E+02  0.30000100624E+02 0.  0.
         12    1    3    3    0    0 -0.14627745870E+02  0.22901380408E+02  0.30244318672E+02  0.40659107046E+02  0.00000000000E+00 0. -1.
         11    1    4    4    0    0  0.68957307654E+01 -0.34868910885E+01  0.45772130537E+00  0.77407377754E+01  0.51100000000E-03 0. -1.
        -11    1    4    4    0    0 -0.26025109403E+01 -0.29311501446E+01 -0.20401083556E+02  0.20774236806E+02  0.51100000000E-03 0.  1.
        -12    1    4    4    0    0  0.10334526045E+02 -0.16483339175E+02 -0.10300956421E+02  0.22013918373E+02  0.00000000000E+00 0.  1.
</event>
<event>
 8    1  0.6016610E-012  0.9118800E+02  0.7816164E-02  0.1184000E+00
        -11   -1    0    0    0    0  0.00000000000E+00  0.00000000000E+00  0.45593999997E+02  0.45594000000E+02  0.51100000000E-03 0. -1.
         11   -1    0    0    0    0 -0.00000000000E+00 -0.00000000000E+00 -0.45593999997E+02  0.45594000000E+02  0.51100000000E-03 0.  1.
         23    2    1    2    0    0  0.44408920985E-15 -0.35527136788E-14  0.00000000000E+00  0.91188000000E+02  0.91188000000E+02 0.  0.
    9900012    2    3    3    0    0 -0.28438829917E+01  0.24311285579E+02  0.32465974129E+02  0.50528858923E+02  0.29999997182E+02 0.  0.
        -12    1    3    3    0    0  0.28438829917E+01 -0.24311285579E+02 -0.32465974129E+02  0.40659141077E+02  0.00000000000E+00 0.  1.
         11    1    4    4    0    0 -0.46524051691E+01  0.24625467171E+02  0.36992861073E+02  0.44682550038E+02  0.51100000000E-03 0. -1.
        -11    1    4    4    0    0  0.97066763802E+00 -0.95200739692E-01 -0.48309958305E+01  0.49284662745E+01  0.51100000000E-03 0.  1.
        -12    1    4    4    0    0  0.83785453940E+00 -0.21898085183E+00  0.30410888612E+00  0.91784261030E+00  0.00000000000E+00 0.  1.
</event>
<event>
 8    1  0.6016610E-012  0.9118800E+02  0.7816164E-02  0.1184000E+00
        -11   -1    0    0    0    0  0.00000000000E+00  0.00000000000E+00  0.45593999997E+02  0.45594000000E+02  0.51100000000E-03 0. -1.
         11   -1    0    0    0    0 -0.00000000000E+00 -0.00000000000E+00 -0.45593999997E+02  0.45594000000E+02  0.51100000000E-03 0.  1.
         23    2    1    2    0    0  0.44408920985E-15  0.35527136788E-14  0.00000000000E+00  0.91188000000E+02  0.91188000000E+02 0.  0.
    9900012    2    3    3    0    0  0.27474965371E+01 -0.18326457020E+02  0.36190581830E+02  0.50528856166E+02  0.29999988801E+02 0.  0.
        -12    1    3    3    0    0 -0.27474965371E+01  0.18326457020E+02 -0.36190581830E+02  0.40659143834E+02  0.00000000000E+00 0.  1.
         11    1    4    4    0    0 -0.23061116121E+01 -0.15643600308E+02  0.39403124712E+02  0.42457586115E+02  0.51100000000E-03 0. -1.
        -11    1    4    4    0    0  0.51207617102E+01 -0.34205425222E+01 -0.17021615480E+01  0.63890269866E+01  0.51100000000E-03 0.  1.
         12    1    4    4    0    0 -0.67153560998E-01  0.73768581019E+00 -0.15103813336E+01  0.16822430645E+01  0.00000000000E+00 0. -1.
</event>
<event>
 8    1  0.6016610E-012  0.9118800E+02  0.7816164E-02  0.1184000E+00
        -11   -1    0    0    0    0  0.00000000000E+00  0.00000000000E+00  0.45593999997E+02  0.45594000000E+02  0.51100000000E-03 0.  1.
         11   -1    0    0    0    0 -0.00000000000E+00 -0.00000000000E+00 -0.45593999997E+02  0.45594000000E+02  0.51100000000E-03 0. -1.
         23    2    1    2    0    0  0.00000000000E+00  0.00000000000E+00 -0.17763568394E-14  0.91188000000E+02  0.91188000000E+02 0.  0.
    9900012    2    3    3    0    0  0.27449286967E+02  0.27068507569E+02 -0.12922756638E+02  0.50528867002E+02  0.30000021740E+02 0.  0.
         12    1    3    3    0    0 -0.27449286967E+02 -0.27068507569E+02  0.12922756638E+02  0.40659132998E+02  0.00000000000E+00 0. -1.
         11    1    4    4    0    0 -0.22339194972E+01 -0.21428368787E+01  0.19412764814E+01  0.36538610875E+01  0.51100000000E-03 0. -1.
        -11    1    4    4    0    0  0.16285825602E+02  0.10058290456E+02  0.62852031214E-01  0.19141611037E+02  0.51100000000E-03 0.  1.
         12    1    4    4    0    0  0.13397380862E+02  0.19153053992E+02 -0.14926885151E+02  0.27733394878E+02  0.00000000000E+00 0. -1.
</event>
<event>
 8    1  0.8937153E-012  0.9118800E+02  0.7816164E-02  0.1184000E+00
        -11   -1    0    0    0    0  0.00000000000E+00  0.00000000000E+00  0.45593999997E+02  0.45594000000E+02  0.51100000000E-03 0. -1.
         11   -1    0    0    0    0 -0.00000000000E+00 -0.00000000000E+00 -0.45593999997E+02  0.45594000000E+02  0.51100000000E-03 0.  1.
         23    2    1    2    0    0  0.00000000000E+00  0.00000000000E+00 -0.35527136788E-14  0.91188000000E+02  0.91188000000E+02 0.  0.
    9900012    2    3    3    0    0 -0.16855749218E+02 -0.21355342290E+02  0.30215868722E+02  0.50528860208E+02  0.30000001087E+02 0.  0.
        -12    1    3    3    0    0  0.16855749218E+02  0.21355342290E+02 -0.30215868722E+02  0.40659139792E+02  0.00000000000E+00 0.  1.
         11    1    4    4    0    0 -0.52610877314E+01 -0.46676199686E+01  0.13223805243E+02  0.14977808439E+02  0.51100000000E-03 0. -1.
        -11    1    4    4    0    0 -0.46725658294E+00  0.47050136159E+01 -0.17173612810E+01  0.50303888389E+01  0.51100000000E-03 0.  1.
        -12    1    4    4    0    0 -0.11127404904E+02 -0.21392735938E+02  0.18709424760E+02  0.30520662929E+02  0.00000000000E+00 0.  1.
</event>
<event>
 8    1  0.6016610E-012  0.9118800E+02  0.7816164E-02  0.1184000E+00
        -11   -1    0    0    0    0  0.00000000000E+00  0.00000000000E+00  0.45593999997E+02  0.45594000000E+02  0.51100000000E-03 0. -1.
         11   -1    0    0    0    0 -0.00000000000E+00 -0.00000000000E+00 -0.45593999997E+02  0.45594000000E+02  0.51100000000E-03 0.  1.
         23    2    1    2    0    0 -0.17763568394E-14  0.00000000000E+00  0.00000000000E+00  0.91188000000E+02  0.91188000000E+02 0.  0.
    9900012    2    3    3    0    0 -0.68727771144E+01 -0.19781350889E+02  0.34851526153E+02  0.50528858550E+02  0.29999996048E+02 0.  0.
        -12    1    3    3    0    0  0.68727771144E+01  0.19781350889E+02 -0.34851526153E+02  0.40659141450E+02  0.00000000000E+00 0.  1.
         11    1    4    4    0    0 -0.16544054263E+02 -0.19023939478E+02  0.18593516677E+02  0.31326264817E+02  0.51100000000E-03 0. -1.
        -11    1    4    4    0    0  0.57118457616E+01 -0.99323010138E+00  0.67352888400E+01  0.88868331850E+01  0.51100000000E-03 0.  1.
         12    1    4    4    0    0  0.39594313867E+01  0.23581869090E+00  0.95227206364E+01  0.10315760548E+02  0.00000000000E+00 0. -1.
</event>
<event>
 8    1  0.6016610E-012  0.9118800E+02  0.7816164E-02  0.1184000E+00
        -11   -1    0    0    0    0  0.00000000000E+00  0.00000000000E+00  0.45593999997E+02  0.45594000000E+02  0.51100000000E-03 0. -1.
         11   -1    0    0    0    0 -0.00000000000E+00 -0.00000000000E+00 -0.45593999997E+02  0.45594000000E+02  0.51100000000E-03 0.  1.
         23    2    1    2    0    0  0.00000000000E+00 -0.71054273576E-14 -0.13322676296E-14  0.91188000000E+02  0.91188000000E+02 0.  0.
    9900012    2    3    3    0    0 -0.11050144438E+02 -0.38993950835E+02  0.32452975291E+01  0.50528857733E+02  0.29999993566E+02 0.  0.
        -12    1    3    3    0    0  0.11050144438E+02  0.38993950835E+02 -0.32452975291E+01  0.40659142267E+02  0.00000000000E+00 0.  1.
         11    1    4    4    0    0 -0.51878120325E+01 -0.14025530086E+02 -0.37796359297E+01  0.15424478465E+02  0.51100000000E-03 0. -1.
        -11    1    4    4    0    0 -0.10300122063E+02 -0.10886617384E+02  0.12338708769E+02  0.19412745476E+02  0.51100000000E-03 0.  1.
        -12    1    4    4    0    0  0.44377896573E+01 -0.14081803364E+02 -0.53137753098E+01  0.15691633793E+02  0.00000000000E+00 0.  1.
</event>
<event>
 8    1  0.6016610E-012  0.9118800E+02  0.7816164E-02  0.1184000E+00
        -11   -1    0    0    0    0  0.00000000000E+00  0.00000000000E+00  0.45593999997E+02  0.45594000000E+02  0.51100000000E-03 0. -1.
         11   -1    0    0    0    0 -0.00000000000E+00 -0.00000000000E+00 -0.45593999997E+02  0.45594000000E+02  0.51100000000E-03 0.  1.
         23    2    1    2    0    0  0.17763568394E-14  0.00000000000E+00  0.00000000000E+00  0.91188000000E+02  0.91188000000E+02 0.  0.
    9900012    2    3    3    0    0  0.20619279370E+01 -0.82555752387E+01  0.39758767438E+02  0.50528860099E+02  0.30000000756E+02 0.  0.
        -12    1    3    3    0    0 -0.20619279370E+01  0.82555752387E+01 -0.39758767438E+02  0.40659139901E+02  0.00000000000E+00 0.  1.
         11    1    4    4    0    0  0.14806262114E+02 -0.84690636731E+01  0.20751626677E+02  0.26862249483E+02  0.51100000000E-03 0. -1.
        -11    1    4    4    0    0 -0.10674838512E+02  0.24430709201E+01  0.13582168285E+02  0.17446950116E+02  0.51100000000E-03 0.  1.
         12    1    4    4    0    0 -0.20694956653E+01 -0.22295824858E+01  0.54249724754E+01  0.62196604995E+01  0.00000000000E+00 0. -1.
</event>
<event>
 8    1  0.6016610E-012  0.9118800E+02  0.7816164E-02  0.1184000E+00
        -11   -1    0    0    0    0  0.00000000000E+00  0.00000000000E+00  0.45593999997E+02  0.45594000000E+02  0.51100000000E-03 0.  1.
         11   -1    0    0    0    0 -0.00000000000E+00 -0.00000000000E+00 -0.45593999997E+02  0.45594000000E+02  0.51100000000E-03 0. -1.
         23    2    1    2    0    0  0.17763568394E-14  0.00000000000E+00  0.00000000000E+00  0.91188000000E+02  0.91188000000E+02 0.  0.
    9900012    2    3    3    0    0 -0.41472816126E+01 -0.35751309777E+02 -0.18915858321E+02  0.50528858450E+02  0.29999995745E+02 0.  0.
        -12    1    3    3    0    0  0.41472816126E+01  0.35751309777E+02  0.18915858321E+02  0.40659141550E+02  0.00000000000E+00 0.  1.
         11    1    4    4    0    0 -0.12687547233E+02 -0.88294821267E+01 -0.12450354801E+02  0.19848046361E+02  0.51100000000E-03 0. -1.
        -11    1    4    4    0    0  0.45503504374E+01 -0.39807679794E+01 -0.40354658123E+01  0.72689192727E+01  0.51100000000E-03 0.  1.
         12    1    4    4    0    0  0.39899151828E+01 -0.22941059671E+02 -0.24300377081E+01  0.23411892817E+02  0.00000000000E+00 0. -1.
</event>
<event>
 8    1  0.6016610E-012  0.9118800E+02  0.7816164E-02  0.1184000E+00
        -11   -1    0    0    0    0  0.00000000000E+00  0.00000000000E+00  0.45593999997E+02  0.45594000000E+02  0.51100000000E-03 0. -1.
         11   -1    0    0    0    0 -0.00000000000E+00 -0.00000000000E+00 -0.45593999997E+02  0.45594000000E+02  0.51100000000E-03 0.  1.
         23    2    1    2    0    0 -0.71054273576E-14  0.88817841970E-15  0.88817841970E-15  0.91188000000E+02  0.91188000000E+02 0.  0.
    9900012    2    3    3    0    0  0.40184780149E+02 -0.23389889325E+01 -0.57339809049E+01  0.50528856356E+02  0.29999989381E+02 0.  0.
         12    1    3    3    0    0 -0.40184780149E+02  0.23389889325E+01  0.57339809049E+01  0.40659143644E+02  0.00000000000E+00 0. -1.
         11    1    4    4    0    0  0.80746362238E+01 -0.12385203545E+02  0.30103444562E+01  0.15088246784E+02  0.51100000000E-03 0. -1.
        -11    1    4    4    0    0  0.19106346127E+02  0.35277450480E+01 -0.75531821657E+01  0.20845815132E+02  0.51100000000E-03 0.  1.
         12    1    4    4    0    0  0.13003797798E+02  0.65184695648E+01 -0.11911431954E+01  0.14594794440E+02  0.00000000000E+00 0. -1.
</event>
<event>
 8    1  0.6016610E-012  0.9118800E+02  0.7816164E-02  0.1184000E+00
        -11   -1    0    0    0    0  0.00000000000E+00  0.00000000000E+00  0.45593999997E+02  0.45594000000E+02  0.51100000000E-03 0. -1.
         11   -1    0    0    0    0 -0.00000000000E+00 -0.00000000000E+00 -0.45593999997E+02  0.45594000000E+02  0.51100000000E-03 0.  1.
         23    2    1    2    0    0 -0.15543122345E-14  0.35527136788E-14 -0.71054273576E-14  0.91188000000E+02  0.91188000000E+02 0.  0.
    9900012    2    3    3    0    0 -0.12078095606E+01 -0.27779007901E+02  0.29665368472E+02  0.50528853790E+02  0.29999981581E+02 0.  0.
        -12    1    3    3    0    0  0.12078095606E+01  0.27779007901E+02 -0.29665368472E+02  0.40659146210E+02  0.00000000000E+00 0.  1.
         11    1    4    4    0    0 -0.94654079243E+01 -0.13335934687E+02  0.24778238682E+01  0.16540275467E+02  0.51100000000E-03 0.  1.
        -11    1    4    4    0    0  0.98237150210E+01 -0.13796644275E+02  0.27469361942E+02  0.32271018202E+02  0.51100000000E-03 0. -1.
         12    1    4    4    0    0 -0.15661166574E+01 -0.64642893928E+00 -0.28181733743E+00  0.17175601212E+01  0.00000000000E+00 0. -1.
</event>
<event>
 8    1  0.6016610E-012  0.9118800E+02  0.7816164E-02  0.1184000E+00
        -11   -1    0    0    0    0  0.00000000000E+00  0.00000000000E+00  0.45593999997E+02  0.45594000000E+02  0.51100000000E-03 0. -1.
         11   -1    0    0    0    0 -0.00000000000E+00 -0.00000000000E+00 -0.45593999997E+02  0.45594000000E+02  0.51100000000E-03 0.  1.
         23    2    1    2    0    0  0.00000000000E+00  0.00000000000E+00  0.00000000000E+00  0.91188000000E+02  0.91188000000E+02 0.  0.
    9900012    2    3    3    0    0  0.10021000724E+02  0.12580149015E+02  0.37342798138E+02  0.50528866001E+02  0.30000018696E+02 0.  0.
        -12    1    3    3    0    0 -0.10021000724E+02 -0.12580149015E+02 -0.37342798138E+02  0.40659133999E+02  0.00000000000E+00 0.  1.
         11    1    4    4    0    0  0.61019585696E+01  0.80326126989E+01  0.38954714644E+01  0.10813485254E+02  0.51100000000E-03 0. -1.
        -11    1    4    4    0    0  0.22724501911E+01  0.14741429744E+01  0.35543850707E+02  0.35646913621E+02  0.51100000000E-03 0.  1.
        -12    1    4    4    0    0  0.16465919637E+01  0.30733933419E+01 -0.20965240329E+01  0.40684671253E+01  0.00000000000E+00 0.  1.
</event>
<event>
 8    1  0.6016610E-012  0.9118800E+02  0.7816164E-02  0.1184000E+00
        -11   -1    0    0    0    0  0.00000000000E+00  0.00000000000E+00  0.45593999997E+02  0.45594000000E+02  0.51100000000E-03 0. -1.
         11   -1    0    0    0    0 -0.00000000000E+00 -0.00000000000E+00 -0.45593999997E+02  0.45594000000E+02  0.51100000000E-03 0.  1.
         23    2    1    2    0    0  0.71054273576E-14  0.44408920985E-15  0.11102230246E-14  0.91188000000E+02  0.91188000000E+02 0.  0.
    9900012    2    3    3    0    0 -0.40554689616E+02  0.21593841890E+01  0.19542576177E+01  0.50528869257E+02  0.30000028593E+02 0.  0.
         12    1    3    3    0    0  0.40554689616E+02 -0.21593841890E+01 -0.19542576177E+01  0.40659130743E+02  0.00000000000E+00 0. -1.
         11    1    4    4    0    0 -0.61098772368E+01  0.70848399737E+01  0.98924694321E+01  0.13615671450E+02  0.51100000000E-03 0. -1.
        -11    1    4    4    0    0 -0.29213776180E+02 -0.71276579402E+00 -0.75681259174E+01  0.30186574564E+02  0.51100000000E-03 0.  1.
         12    1    4    4    0    0 -0.52310361995E+01 -0.42126899908E+01 -0.37008589700E+00  0.67266232428E+01  0.00000000000E+00 0. -1.
</event>
<event>
 8    1  0.6016610E-012  0.9118800E+02  0.7816164E-02  0.1184000E+00
        -11   -1    0    0    0    0  0.00000000000E+00  0.00000000000E+00  0.45593999997E+02  0.45594000000E+02  0.51100000000E-03 0. -1.
         11   -1    0    0    0    0 -0.00000000000E+00 -0.00000000000E+00 -0.45593999997E+02  0.45594000000E+02  0.51100000000E-03 0.  1.
         23    2    1    2    0    0  0.35527136788E-14 -0.17763568394E-14  0.00000000000E+00  0.91188000000E+02  0.91188000000E+02 0.  0.
    9900012    2    3    3    0    0 -0.18085817905E+02  0.12434240030E+02  0.34226595756E+02  0.50528843695E+02  0.29999950895E+02 0.  0.
        -12    1    3    3    0    0  0.18085817905E+02 -0.12434240030E+02 -0.34226595756E+02  0.40659156305E+02  0.00000000000E+00 0.  1.
         11    1    4    4    0    0 -0.17306450187E+02  0.10768031258E+02  0.19403431229E+02  0.28141728073E+02  0.51100000000E-03 0. -1.
        -11    1    4    4    0    0  0.72519862434E+01  0.72043207185E+00  0.11562727460E+02  0.13667735490E+02  0.51100000000E-03 0.  1.
        -12    1    4    4    0    0 -0.80313539613E+01  0.94577670037E+00  0.32604370669E+01  0.87193801319E+01  0.00000000000E+00 0.  1.
</event>
<event>
 8    1  0.6016610E-012  0.9118800E+02  0.7816164E-02  0.1184000E+00
        -11   -1    0    0    0    0  0.00000000000E+00  0.00000000000E+00  0.45593999997E+02  0.45594000000E+02  0.51100000000E-03 0. -1.
         11   -1    0    0    0    0 -0.00000000000E+00 -0.00000000000E+00 -0.45593999997E+02  0.45594000000E+02  0.51100000000E-03 0.  1.
         23    2    1    2    0    0 -0.88817841970E-15 -0.13322676296E-14  0.71054273576E-14  0.91188000000E+02  0.91188000000E+02 0.  0.
    9900012    2    3    3    0    0 -0.40381354363E+01 -0.30899207505E+01  0.40339933307E+02  0.50528875965E+02  0.30000048984E+02 0.  0.
        -12    1    3    3    0    0  0.40381354363E+01  0.30899207505E+01 -0.40339933307E+02  0.40659124035E+02  0.00000000000E+00 0.  1.
         11    1    4    4    0    0  0.68087200373E+01  0.37958014428E+01  0.55367892985E+01  0.95615277617E+01  0.51100000000E-03 0. -1.
        -11    1    4    4    0    0 -0.36147787377E+01 -0.12101604525E+02  0.18818634989E+02  0.22663990834E+02  0.51100000000E-03 0.  1.
        -12    1    4    4    0    0 -0.72320767359E+01  0.52158823317E+01  0.15984509019E+02  0.18303357370E+02  0.00000000000E+00 0.  1.
</event>
<event>
 8    1  0.6016610E-012  0.9118800E+02  0.7816164E-02  0.1184000E+00
        -11   -1    0    0    0    0  0.00000000000E+00  0.00000000000E+00  0.45593999997E+02  0.45594000000E+02  0.51100000000E-03 0. -1.
         11   -1    0    0    0    0 -0.00000000000E+00 -0.00000000000E+00 -0.45593999997E+02  0.45594000000E+02  0.51100000000E-03 0.  1.
         23    2    1    2    0    0  0.00000000000E+00  0.35527136788E-14  0.00000000000E+00  0.91188000000E+02  0.91188000000E+02 0.  0.
    9900012    2    3    3    0    0  0.33151311904E+01  0.17791796164E+02 -0.36409162079E+02  0.50528865862E+02  0.30000018275E+02 0.  0.
         12    1    3    3    0    0 -0.33151311904E+01 -0.17791796164E+02  0.36409162079E+02  0.40659134138E+02  0.00000000000E+00 0. -1.
         11    1    4    4    0    0  0.27485588261E+01 -0.16244198491E+01  0.11071245135E+01  0.33792070692E+01  0.51100000000E-03 0. -1.
        -11    1    4    4    0    0  0.78862669293E+00  0.22167958651E+02 -0.21480676271E+02  0.30878143987E+02  0.51100000000E-03 0.  1.
        -12    1    4    4    0    0 -0.22205432867E+00 -0.27517426379E+01 -0.16035610322E+02  0.16271514806E+02  0.00000000000E+00 0.  1.
</event>
<event>
 8    1  0.6016610E-012  0.9118800E+02  0.7816164E-02  0.1184000E+00
        -11   -1    0    0    0    0  0.00000000000E+00  0.00000000000E+00  0.45593999997E+02  0.45594000000E+02  0.51100000000E-03 0. -1.
         11   -1    0    0    0    0 -0.00000000000E+00 -0.00000000000E+00 -0.45593999997E+02  0.45594000000E+02  0.51100000000E-03 0.  1.
         23    2    1    2    0    0  0.35527136788E-14  0.44408920985E-15  0.00000000000E+00  0.91188000000E+02  0.91188000000E+02 0.  0.
    9900012    2    3    3    0    0 -0.35556112232E+01 -0.22945848186E+01  0.40438334725E+02  0.50528850895E+02  0.29999972779E+02 0.  0.
        -12    1    3    3    0    0  0.35556112232E+01  0.22945848186E+01 -0.40438334725E+02  0.40659149105E+02  0.00000000000E+00 0.  1.
         11    1    4    4    0    0  0.92419949049E+01 -0.99210067751E+01  0.19650894264E+02  0.23874641167E+02  0.51100000000E-03 0. -1.
        -11    1    4    4    0    0  0.63069994656E+00 -0.43348360632E+00  0.20785978878E+00  0.79302989379E+00  0.51100000000E-03 0.  1.
         12    1    4    4    0    0 -0.13428306075E+02  0.80599055628E+01  0.20579580673E+02  0.25861179833E+02  0.00000000000E+00 0. -1.
</event>
<event>
 8    1  0.6016610E-012  0.9118800E+02  0.7816164E-02  0.1184000E+00
        -11   -1    0    0    0    0  0.00000000000E+00  0.00000000000E+00  0.45593999997E+02  0.45594000000E+02  0.51100000000E-03 0.  1.
         11   -1    0    0    0    0 -0.00000000000E+00 -0.00000000000E+00 -0.45593999997E+02  0.45594000000E+02  0.51100000000E-03 0. -1.
         23    2    1    2    0    0 -0.35527136788E-14  0.00000000000E+00 -0.88817841970E-15  0.91188000000E+02  0.91188000000E+02 0.  0.
    9900012    2    3    3    0    0  0.30488600441E+02 -0.26356225570E+02  0.53815613357E+01  0.50528848687E+02  0.29999966068E+02 0.  0.
        -12    1    3    3    0    0 -0.30488600441E+02  0.26356225570E+02 -0.53815613357E+01  0.40659151313E+02  0.00000000000E+00 0.  1.
         11    1    4    4    0    0  0.22089143710E+02 -0.16801706419E+02 -0.26460613444E+01  0.27878831563E+02  0.51100000000E-03 0. -1.
        -11    1    4    4    0    0 -0.26647504118E+01 -0.85760524032E+01  0.60454420864E-01  0.89807140349E+01  0.51100000000E-03 0.  1.
        -12    1    4    4    0    0  0.11064207142E+02 -0.97846674792E+00  0.79671682592E+01  0.13669303089E+02  0.00000000000E+00 0.  1.
</event>
<event>
 8    1  0.6016610E-012  0.9118800E+02  0.7816164E-02  0.1184000E+00
        -11   -1    0    0    0    0  0.00000000000E+00  0.00000000000E+00  0.45593999997E+02  0.45594000000E+02  0.51100000000E-03 0. -1.
         11   -1    0    0    0    0 -0.00000000000E+00 -0.00000000000E+00 -0.45593999997E+02  0.45594000000E+02  0.51100000000E-03 0.  1.
         23    2    1    2    0    0  0.00000000000E+00 -0.19984014443E-14  0.00000000000E+00  0.91188000000E+02  0.91188000000E+02 0.  0.
    9900012    2    3    3    0    0  0.16522690950E+02 -0.10469377697E+01  0.37135849620E+02  0.50528847009E+02  0.29999960969E+02 0.  0.
        -12    1    3    3    0    0 -0.16522690950E+02  0.10469377697E+01 -0.37135849620E+02  0.40659152991E+02  0.00000000000E+00 0.  1.
         11    1    4    4    0    0  0.73578079084E+01 -0.41113506406E+01  0.65994166587E+01  0.10704804613E+02  0.51100000000E-03 0. -1.
        -11    1    4    4    0    0  0.22215532652E+01  0.85078312023E+01  0.29685443928E+02  0.30960362920E+02  0.51100000000E-03 0.  1.
        -12    1    4    4    0    0  0.69433297763E+01 -0.54434183314E+01  0.85098903305E+00  0.88636794757E+01  0.00000000000E+00 0.  1.
</event>
<event>
 8    1  0.6016610E-012  0.9118800E+02  0.7816164E-02  0.1184000E+00
        -11   -1    0    0    0    0  0.00000000000E+00  0.00000000000E+00  0.45593999997E+02  0.45594000000E+02  0.51100000000E-03 0. -1.
         11   -1    0    0    0    0 -0.00000000000E+00 -0.00000000000E+00 -0.45593999997E+02  0.45594000000E+02  0.51100000000E-03 0.  1.
         23    2    1    2    0    0  0.00000000000E+00  0.00000000000E+00  0.35527136788E-14  0.91188000000E+02  0.91188000000E+02 0.  0.
    9900012    2    3    3    0    0  0.23346028389E+02  0.17390889117E+02 -0.28384608368E+02  0.50528855174E+02  0.29999985787E+02 0.  0.
         12    1    3    3    0    0 -0.23346028389E+02 -0.17390889117E+02  0.28384608368E+02  0.40659144826E+02  0.00000000000E+00 0. -1.
         11    1    4    4    0    0  0.32944055891E+01  0.12043047285E+02  0.29946190196E+00  0.12489106204E+02  0.51100000000E-03 0. -1.
        -11    1    4    4    0    0  0.15746013955E+02  0.65993268972E+01 -0.28882832223E+02  0.33551543459E+02  0.51100000000E-03 0.  1.
         12    1    4    4    0    0  0.43056088452E+01 -0.12514850651E+01  0.19876195376E+00  0.44882055111E+01  0.00000000000E+00 0. -1.
</event>
<event>
 8    1  0.6016610E-012  0.9118800E+02  0.7816164E-02  0.1184000E+00
        -11   -1    0    0    0    0  0.00000000000E+00  0.00000000000E+00  0.45593999997E+02  0.45594000000E+02  0.51100000000E-03 0. -1.
         11   -1    0    0    0    0 -0.00000000000E+00 -0.00000000000E+00 -0.45593999997E+02  0.45594000000E+02  0.51100000000E-03 0.  1.
         23    2    1    2    0    0  0.35527136788E-14  0.00000000000E+00  0.00000000000E+00  0.91188000000E+02  0.91188000000E+02 0.  0.
    9900012    2    3    3    0    0  0.24165669359E+02  0.97807263404E+01 -0.31201279992E+02  0.50528904383E+02  0.30000135361E+02 0.  0.
         12    1    3    3    0    0 -0.24165669359E+02 -0.97807263404E+01  0.31201279992E+02  0.40659095617E+02  0.00000000000E+00 0. -1.
         11    1    4    4    0    0 -0.24259288258E+01  0.55218916263E+01 -0.27976953950E+01  0.66485725975E+01  0.51100000000E-03 0. -1.
        -11    1    4    4    0    0  0.29878485732E+02  0.35946005077E+01 -0.25559025411E+02  0.39483019675E+02  0.51100000000E-03 0.  1.
        -12    1    4    4    0    0 -0.32868875475E+01  0.66423420641E+00 -0.28445591860E+01  0.43973121101E+01  0.00000000000E+00 0.  1.
</event>
<event>
 8    1  0.6016610E-012  0.9118800E+02  0.7816164E-02  0.1184000E+00
        -11   -1    0    0    0    0  0.00000000000E+00  0.00000000000E+00  0.45593999997E+02  0.45594000000E+02  0.51100000000E-03 0. -1.
         11   -1    0    0    0    0 -0.00000000000E+00 -0.00000000000E+00 -0.45593999997E+02  0.45594000000E+02  0.51100000000E-03 0.  1.
         23    2    1    2    0    0  0.00000000000E+00  0.00000000000E+00  0.00000000000E+00  0.91188000000E+02  0.91188000000E+02 0.  0.
    9900012    2    3    3    0    0 -0.84660105783E+01  0.18214458526E+02 -0.35351453324E+02  0.50528867119E+02  0.30000022094E+02 0.  0.
         12    1    3    3    0    0  0.84660105783E+01 -0.18214458526E+02  0.35351453324E+02  0.40659132881E+02  0.00000000000E+00 0. -1.
         11    1    4    4    0    0  0.54103868822E+01 -0.45170261544E+01 -0.36555570911E+01  0.79397046168E+01  0.51100000000E-03 0. -1.
        -11    1    4    4    0    0 -0.46431897477E+01  0.10258517074E+02 -0.65118992926E+01  0.13007736784E+02  0.51100000000E-03 0.  1.
         12    1    4    4    0    0 -0.92332077129E+01  0.12472967607E+02 -0.25183996941E+02  0.29581425718E+02  0.00000000000E+00 0. -1.
</event>
<event>
 8    1  0.6016610E-012  0.9118800E+02  0.7816164E-02  0.1184000E+00
        -11   -1    0    0    0    0  0.00000000000E+00  0.00000000000E+00  0.45593999997E+02  0.45594000000E+02  0.51100000000E-03 0. -1.
         11   -1    0    0    0    0 -0.00000000000E+00 -0.00000000000E+00 -0.45593999997E+02  0.45594000000E+02  0.51100000000E-03 0.  1.
         23    2    1    2    0    0  0.00000000000E+00  0.00000000000E+00  0.35527136788E-14  0.91188000000E+02  0.91188000000E+02 0.  0.
    9900012    2    3    3    0    0  0.25009535960E+02  0.23429420128E+02  0.21880340805E+02  0.50528881340E+02  0.30000065322E+02 0.  0.
        -12    1    3    3    0    0 -0.25009535960E+02 -0.23429420128E+02 -0.21880340805E+02  0.40659118660E+02  0.00000000000E+00 0.  1.
         11    1    4    4    0    0  0.12120503430E+02  0.97574429371E+01  0.14470460852E+02  0.21248730164E+02  0.51100000000E-03 0. -1.
        -11    1    4    4    0    0  0.17155804885E+01 -0.47616202912E+01  0.57508000917E+01  0.76608058431E+01  0.51100000000E-03 0.  1.
        -12    1    4    4    0    0  0.11173452041E+02  0.18433597482E+02  0.16590798614E+01  0.21619345333E+02  0.00000000000E+00 0.  1.
</event>
<event>
 8    1  0.6016610E-012  0.9118800E+02  0.7816164E-02  0.1184000E+00
        -11   -1    0    0    0    0  0.00000000000E+00  0.00000000000E+00  0.45593999997E+02  0.45594000000E+02  0.51100000000E-03 0. -1.
         11   -1    0    0    0    0 -0.00000000000E+00 -0.00000000000E+00 -0.45593999997E+02  0.45594000000E+02  0.51100000000E-03 0.  1.
         23    2    1    2    0    0  0.00000000000E+00  0.00000000000E+00  0.17763568394E-14  0.91188000000E+02  0.91188000000E+02 0.  0.
    9900012    2    3    3    0    0  0.11951578852E+02 -0.36810934787E+02 -0.12461176021E+02  0.50528855091E+02  0.29999985534E+02 0.  0.
         12    1    3    3    0    0 -0.11951578852E+02  0.36810934787E+02  0.12461176021E+02  0.40659144909E+02  0.00000000000E+00 0. -1.
         11    1    4    4    0    0  0.61097295420E+01  0.46067398433E+00 -0.37769638734E+01  0.71976712872E+01  0.51100000000E-03 0. -1.
        -11    1    4    4    0    0  0.16941300799E+01 -0.23916286440E+02  0.41703939043E+01  0.24336207991E+02  0.51100000000E-03 0.  1.
        -12    1    4    4    0    0  0.41477192298E+01 -0.13355322331E+02 -0.12854606052E+02  0.18994975813E+02  0.00000000000E+00 0.  1.
</event>
<event>
 8    1  0.6016610E-012  0.9118800E+02  0.7816164E-02  0.1184000E+00
        -11   -1    0    0    0    0  0.00000000000E+00  0.00000000000E+00  0.45593999997E+02  0.45594000000E+02  0.51100000000E-03 0.  1.
         11   -1    0    0    0    0 -0.00000000000E+00 -0.00000000000E+00 -0.45593999997E+02  0.45594000000E+02  0.51100000000E-03 0. -1.
         23    2    1    2    0    0 -0.17763568394E-14  0.00000000000E+00  0.00000000000E+00  0.91188000000E+02  0.91188000000E+02 0.  0.
    9900012    2    3    3    0    0  0.13774471980E+02 -0.34895396814E+02  0.15676119365E+02  0.50528861846E+02  0.30000006066E+02 0.  0.
        -12    1    3    3    0    0 -0.13774471980E+02  0.34895396814E+02 -0.15676119365E+02  0.40659138154E+02  0.00000000000E+00 0.  1.
         11    1    4    4    0    0  0.19026242120E+02 -0.17272671039E+02  0.77466191297E+01  0.26839395713E+02  0.51100000000E-03 0. -1.
        -11    1    4    4    0    0 -0.18251614471E+01  0.17518823377E+01  0.15752734011E+00  0.25347822701E+01  0.51100000000E-03 0.  1.
         12    1    4    4    0    0 -0.34266086928E+01 -0.19374608112E+02  0.77719728950E+01  0.21154683862E+02  0.00000000000E+00 0. -1.
</event>
<event>
 8    1  0.6016610E-012  0.9118800E+02  0.7816164E-02  0.1184000E+00
        -11   -1    0    0    0    0  0.00000000000E+00  0.00000000000E+00  0.45593999997E+02  0.45594000000E+02  0.51100000000E-03 0.  1.
         11   -1    0    0    0    0 -0.00000000000E+00 -0.00000000000E+00 -0.45593999997E+02  0.45594000000E+02  0.51100000000E-03 0. -1.
         23    2    1    2    0    0  0.00000000000E+00  0.00000000000E+00  0.00000000000E+00  0.91188000000E+02  0.91188000000E+02 0.  0.
    9900012    2    3    3    0    0 -0.13504147337E+02 -0.37236000189E+02  0.91806433737E+01  0.50528856894E+02  0.29999991015E+02 0.  0.
        -12    1    3    3    0    0  0.13504147337E+02  0.37236000189E+02 -0.91806433737E+01  0.40659143106E+02  0.00000000000E+00 0.  1.
         11    1    4    4    0    0 -0.89442793442E+01 -0.22440242573E+02  0.13588465813E+02  0.27716619980E+02  0.51100000000E-03 0. -1.
        -11    1    4    4    0    0 -0.13802881993E+01  0.29502710656E+01 -0.34700233457E+01  0.47592391361E+01  0.51100000000E-03 0.  1.
        -12    1    4    4    0    0 -0.31795797937E+01 -0.17746028682E+02 -0.93779909313E+00  0.18052997778E+02  0.00000000000E+00 0.  1.
</event>
<event>
 8    1  0.7038577E-012  0.9118800E+02  0.7816164E-02  0.1184000E+00
        -11   -1    0    0    0    0  0.00000000000E+00  0.00000000000E+00  0.45593999997E+02  0.45594000000E+02  0.51100000000E-03 0.  1.
         11   -1    0    0    0    0 -0.00000000000E+00 -0.00000000000E+00 -0.45593999997E+02  0.45594000000E+02  0.51100000000E-03 0. -1.
         23    2    1    2    0    0  0.00000000000E+00 -0.71054273576E-14  0.00000000000E+00  0.91188000000E+02  0.91188000000E+02 0.  0.
    9900012    2    3    3    0    0  0.21013603460E+02 -0.31390532723E+02  0.15040868770E+02  0.50528870541E+02  0.30000032496E+02 0.  0.
        -12    1    3    3    0    0 -0.21013603460E+02  0.31390532723E+02 -0.15040868770E+02  0.40659129459E+02  0.00000000000E+00 0.  1.
         11    1    4    4    0    0  0.23930252726E+01 -0.19941762102E+02  0.76031938975E+01  0.21475777131E+02  0.51100000000E-03 0. -1.
        -11    1    4    4    0    0  0.12246883541E+02 -0.78468088956E+01 -0.43459025261E+01  0.15180429353E+02  0.51100000000E-03 0.  1.
        -12    1    4    4    0    0  0.63736946466E+01 -0.36019617258E+01  0.11783577399E+02  0.13872664057E+02  0.00000000000E+00 0.  1.
</event>
<event>
 8    1  0.6016610E-012  0.9118800E+02  0.7816164E-02  0.1184000E+00
        -11   -1    0    0    0    0  0.00000000000E+00  0.00000000000E+00  0.45593999997E+02  0.45594000000E+02  0.51100000000E-03 0. -1.
         11   -1    0    0    0    0 -0.00000000000E+00 -0.00000000000E+00 -0.45593999997E+02  0.45594000000E+02  0.51100000000E-03 0.  1.
         23    2    1    2    0    0 -0.17763568394E-14 -0.35527136788E-14  0.00000000000E+00  0.91188000000E+02  0.91188000000E+02 0.  0.
    9900012    2    3    3    0    0 -0.10865897646E+02 -0.22981368122E+02 -0.31732545303E+02  0.50528862727E+02  0.30000008744E+02 0.  0.
         12    1    3    3    0    0  0.10865897646E+02  0.22981368122E+02  0.31732545303E+02  0.40659137273E+02  0.00000000000E+00 0. -1.
         11    1    4    4    0    0 -0.24195487219E+01 -0.69915443827E+00 -0.62943134543E+01  0.67794848675E+01  0.51100000000E-03 0. -1.
        -11    1    4    4    0    0 -0.20793271467E-01 -0.16422952859E+02 -0.11253767613E+00  0.16423351606E+02  0.51100000000E-03 0.  1.
        -12    1    4    4    0    0 -0.84255556524E+01 -0.58592608244E+01 -0.25325694173E+02  0.27326026253E+02  0.00000000000E+00 0.  1.
</event>
<event>
 8    1  0.6016610E-012  0.9118800E+02  0.7816164E-02  0.1184000E+00
        -11   -1    0    0    0    0  0.00000000000E+00  0.00000000000E+00  0.45593999997E+02  0.45594000000E+02  0.51100000000E-03 0. -1.
         11   -1    0    0    0    0 -0.00000000000E+00 -0.00000000000E+00 -0.45593999997E+02  0.45594000000E+02  0.51100000000E-03 0.  1.
         23    2    1    2    0    0 -0.13322676296E-14  0.00000000000E+00  0.71054273576E-14  0.91188000000E+02  0.91188000000E+02 0.  0.
    9900012    2    3    3    0    0  0.26753327537E+01 -0.22243724856E+02 -0.33929718257E+02  0.50528849962E+02  0.29999969944E+02 0.  0.
         12    1    3    3    0    0 -0.26753327537E+01  0.22243724856E+02  0.33929718257E+02  0.40659150038E+02  0.00000000000E+00 0. -1.
         11    1    4    4    0    0  0.10626306359E+02 -0.94291993846E+01 -0.15575097510E+01  0.14291746736E+02  0.51100000000E-03 0. -1.
        -11    1    4    4    0    0 -0.80033554716E+01 -0.80167484739E+01 -0.20307335004E+02  0.23253167744E+02  0.51100000000E-03 0.  1.
         12    1    4    4    0    0  0.52381865938E-01 -0.47977769979E+01 -0.12064873502E+02  0.12983935482E+02  0.00000000000E+00 0. -1.
</event>
<event>
 8    1  0.6016610E-012  0.9118800E+02  0.7816164E-02  0.1184000E+00
        -11   -1    0    0    0    0  0.00000000000E+00  0.00000000000E+00  0.45593999997E+02  0.45594000000E+02  0.51100000000E-03 0.  1.
         11   -1    0    0    0    0 -0.00000000000E+00 -0.00000000000E+00 -0.45593999997E+02  0.45594000000E+02  0.51100000000E-03 0. -1.
         23    2    1    2    0    0  0.00000000000E+00  0.00000000000E+00  0.00000000000E+00  0.91188000000E+02  0.91188000000E+02 0.  0.
    9900012    2    3    3    0    0  0.14221518314E+02 -0.36440527002E+02 -0.11090625867E+02  0.50528861132E+02  0.30000003897E+02 0.  0.
         12    1    3    3    0    0 -0.14221518314E+02  0.36440527002E+02  0.11090625867E+02  0.40659138868E+02  0.00000000000E+00 0. -1.
         11    1    4    4    0    0  0.78024269616E+01 -0.36612447238E+02 -0.14557728478E+02  0.40165614870E+02  0.51100000000E-03 0. -1.
        -11    1    4    4    0    0  0.42907822464E+00 -0.16155010259E+01  0.37501842806E+01  0.41058292813E+01  0.51100000000E-03 0.  1.
         12    1    4    4    0    0  0.59900131277E+01  0.17874212610E+01 -0.28308166913E+00  0.62574169804E+01  0.00000000000E+00 0. -1.
</event>
<event>
 8    1  0.6016610E-012  0.9118800E+02  0.7816164E-02  0.1184000E+00
        -11   -1    0    0    0    0  0.00000000000E+00  0.00000000000E+00  0.45593999997E+02  0.45594000000E+02  0.51100000000E-03 0. -1.
         11   -1    0    0    0    0 -0.00000000000E+00 -0.00000000000E+00 -0.45593999997E+02  0.45594000000E+02  0.51100000000E-03 0.  1.
         23    2    1    2    0    0  0.00000000000E+00  0.55511151231E-15  0.00000000000E+00  0.91188000000E+02  0.91188000000E+02 0.  0.
    9900012    2    3    3    0    0 -0.29508532089E+01  0.56025092782E+00 -0.40548040807E+02  0.50528867827E+02  0.30000024248E+02 0.  0.
         12    1    3    3    0    0  0.29508532089E+01 -0.56025092782E+00  0.40548040807E+02  0.40659132173E+02  0.00000000000E+00 0. -1.
         11    1    4    4    0    0  0.13880498155E+01 -0.64548647495E+01 -0.16863729037E+02  0.18110144077E+02  0.51100000000E-03 0. -1.
        -11    1    4    4    0    0  0.26508418772E+01 -0.52319327829E+00  0.28712948820E+01  0.39427184055E+01  0.51100000000E-03 0.  1.
        -12    1    4    4    0    0 -0.69897449016E+01  0.75383089556E+01 -0.26555606652E+02  0.28476005344E+02  0.00000000000E+00 0.  1.
</event>
<event>
 8    1  0.6016610E-012  0.9118800E+02  0.7816164E-02  0.1184000E+00
        -11   -1    0    0    0    0  0.00000000000E+00  0.00000000000E+00  0.45593999997E+02  0.45594000000E+02  0.51100000000E-03 0. -1.
         11   -1    0    0    0    0 -0.00000000000E+00 -0.00000000000E+00 -0.45593999997E+02  0.45594000000E+02  0.51100000000E-03 0.  1.
         23    2    1    2    0    0  0.00000000000E+00 -0.88817841970E-15  0.35527136788E-14  0.91188000000E+02  0.91188000000E+02 0.  0.
    9900012    2    3    3    0    0  0.28919145731E+02  0.35573031205E+01  0.28358324893E+02  0.50528856058E+02  0.29999988475E+02 0.  0.
        -12    1    3    3    0    0 -0.28919145731E+02 -0.35573031205E+01 -0.28358324893E+02  0.40659143942E+02  0.00000000000E+00 0.  1.
         11    1    4    4    0    0  0.42863563074E+01 -0.34333861199E+01  0.17409581612E+02  0.18255260141E+02  0.51100000000E-03 0. -1.
        -11    1    4    4    0    0  0.23629067370E+02  0.85712093932E+01  0.44702947003E+01  0.25530021351E+02  0.51100000000E-03 0.  1.
        -12    1    4    4    0    0  0.10037220542E+01 -0.15805201529E+01  0.64784485806E+01  0.67435745660E+01  0.00000000000E+00 0.  1.
</event>
<event>
 8    1  0.6016610E-012  0.9118800E+02  0.7816164E-02  0.1184000E+00
        -11   -1    0    0    0    0  0.00000000000E+00  0.00000000000E+00  0.45593999997E+02  0.45594000000E+02  0.51100000000E-03 0. -1.
         11   -1    0    0    0    0 -0.00000000000E+00 -0.00000000000E+00 -0.45593999997E+02  0.45594000000E+02  0.51100000000E-03 0.  1.
         23    2    1    2    0    0  0.00000000000E+00  0.44408920985E-15  0.00000000000E+00  0.91188000000E+02  0.91188000000E+02 0.  0.
    9900012    2    3    3    0    0 -0.17005753612E+02  0.38944497847E+01  0.36726054598E+02  0.50528862265E+02  0.30000007339E+02 0.  0.
        -12    1    3    3    0    0  0.17005753612E+02 -0.38944497847E+01 -0.36726054598E+02  0.40659137735E+02  0.00000000000E+00 0.  1.
         11    1    4    4    0    0 -0.68433793410E+01  0.11920870332E+02  0.67096719314E+01  0.15295708155E+02  0.51100000000E-03 0. -1.
        -11    1    4    4    0    0 -0.10991750700E+02 -0.64594633888E+01  0.30770014396E+02  0.33306711590E+02  0.51100000000E-03 0.  1.
        -12    1    4    4    0    0  0.82937642916E+00 -0.15669571588E+01 -0.75363172898E+00  0.19264425197E+01  0.00000000000E+00 0.  1.
</event>
<event>
 8    1  0.6016610E-012  0.9118800E+02  0.7816164E-02  0.1184000E+00
        -11   -1    0    0    0    0  0.00000000000E+00  0.00000000000E+00  0.45593999997E+02  0.45594000000E+02  0.51100000000E-03 0. -1.
         11   -1    0    0    0    0 -0.00000000000E+00 -0.00000000000E+00 -0.45593999997E+02  0.45594000000E+02  0.51100000000E-03 0.  1.
         23    2    1    2    0    0 -0.88817841970E-15  0.11102230246E-14  0.00000000000E+00  0.91188000000E+02  0.91188000000E+02 0.  0.
    9900012    2    3    3    0    0 -0.53475131443E+01 -0.16637030915E+01 -0.40271605231E+02  0.50528855977E+02  0.29999988228E+02 0.  0.
         12    1    3    3    0    0  0.53475131443E+01  0.16637030915E+01  0.40271605231E+02  0.40659144023E+02  0.00000000000E+00 0. -1.
         11    1    4    4    0    0 -0.13339088357E+01 -0.29426130703E+01  0.24872743211E+01  0.40773543227E+01  0.51100000000E-03 0. -1.
        -11    1    4    4    0    0 -0.24768577430E+01  0.89828059689E+01 -0.30499498853E+02  0.31891143879E+02  0.51100000000E-03 0.  1.
         12    1    4    4    0    0 -0.15367465656E+01 -0.77038959901E+01 -0.12259380698E+02  0.14560357775E+02  0.00000000000E+00 0. -1.
</event>
<event>
 8    1  0.6016610E-012  0.9118800E+02  0.7816164E-02  0.1184000E+00
        -11   -1    0    0    0    0  0.00000000000E+00  0.00000000000E+00  0.45593999997E+02  0.45594000000E+02  0.51100000000E-03 0. -1.
         11   -1    0    0    0    0 -0.00000000000E+00 -0.00000000000E+00 -0.45593999997E+02  0.45594000000E+02  0.51100000000E-03 0.  1.
         23    2    1    2    0    0  0.00000000000E+00  0.00000000000E+00  0.00000000000E+00  0.91188000000E+02  0.91188000000E+02 0.  0.
    9900012    2    3    3    0    0 -0.20219055285E+02 -0.24201313643E+02 -0.25664260833E+02  0.50528830520E+02  0.29999910849E+02 0.  0.
         12    1    3    3    0    0  0.20219055285E+02  0.24201313643E+02  0.25664260833E+02  0.40659169480E+02  0.00000000000E+00 0. -1.
         11    1    4    4    0    0 -0.14412167795E+02 -0.23243173580E+02 -0.11622094544E+02  0.29715800182E+02  0.51100000000E-03 0. -1.
        -11    1    4    4    0    0 -0.94689716420E+01  0.30355030610E+01 -0.91356489879E+01  0.13503176866E+02  0.51100000000E-03 0.  1.
         12    1    4    4    0    0  0.36620841525E+01 -0.39936431242E+01 -0.49065173015E+01  0.73098534714E+01  0.00000000000E+00 0. -1.
</event>
<event>
 8    1  0.6016610E-012  0.9118800E+02  0.7816164E-02  0.1184000E+00
        -11   -1    0    0    0    0  0.00000000000E+00  0.00000000000E+00  0.45593999997E+02  0.45594000000E+02  0.51100000000E-03 0. -1.
         11   -1    0    0    0    0 -0.00000000000E+00 -0.00000000000E+00 -0.45593999997E+02  0.45594000000E+02  0.51100000000E-03 0.  1.
         23    2    1    2    0    0  0.44408920985E-15  0.00000000000E+00  0.00000000000E+00  0.91188000000E+02  0.91188000000E+02 0.  0.
    9900012    2    3    3    0    0  0.23504476183E+01 -0.34667471759E+02 -0.21114141939E+02  0.50528865824E+02  0.30000018157E+02 0.  0.
         12    1    3    3    0    0 -0.23504476183E+01  0.34667471759E+02  0.21114141939E+02  0.40659134176E+02  0.00000000000E+00 0. -1.
         11    1    4    4    0    0 -0.50033127457E+01 -0.23054582104E+02 -0.37336657294E+01  0.23884872922E+02  0.51100000000E-03 0. -1.
        -11    1    4    4    0    0  0.52789948889E+01 -0.12856966523E+02 -0.19139054867E+02  0.23653177306E+02  0.51100000000E-03 0.  1.
        -12    1    4    4    0    0  0.20747654751E+01  0.12440768682E+01  0.17585786580E+01  0.29908155956E+01  0.00000000000E+00 0.  1.
</event>
<event>
 8    1  0.6016610E-012  0.9118800E+02  0.7816164E-02  0.1184000E+00
        -11   -1    0    0    0    0  0.00000000000E+00  0.00000000000E+00  0.45593999997E+02  0.45594000000E+02  0.51100000000E-03 0. -1.
         11   -1    0    0    0    0 -0.00000000000E+00 -0.00000000000E+00 -0.45593999997E+02  0.45594000000E+02  0.51100000000E-03 0.  1.
         23    2    1    2    0    0 -0.17763568394E-14 -0.35527136788E-14  0.35527136788E-14  0.91188000000E+02  0.91188000000E+02 0.  0.
    9900012    2    3    3    0    0 -0.10191113105E+02 -0.23398796033E+02  0.31651267581E+02  0.50528865951E+02  0.30000018545E+02 0.  0.
        -12    1    3    3    0    0  0.10191113105E+02  0.23398796033E+02 -0.31651267581E+02  0.40659134049E+02  0.00000000000E+00 0.  1.
         11    1    4    4    0    0  0.21691529776E+01 -0.11431055264E+02  0.50737544620E+01  0.12693196354E+02  0.51100000000E-03 0. -1.
        -11    1    4    4    0    0 -0.16617636156E+02 -0.11402273737E+02  0.26803655361E+02  0.33534961142E+02  0.51100000000E-03 0.  1.
         12    1    4    4    0    0  0.42573700731E+01 -0.56546703282E+00 -0.22614224252E+00  0.43007084554E+01  0.00000000000E+00 0. -1.
</event>
<event>
 8    1  0.6016610E-012  0.9118800E+02  0.7816164E-02  0.1184000E+00
        -11   -1    0    0    0    0  0.00000000000E+00  0.00000000000E+00  0.45593999997E+02  0.45594000000E+02  0.51100000000E-03 0. -1.
         11   -1    0    0    0    0 -0.00000000000E+00 -0.00000000000E+00 -0.45593999997E+02  0.45594000000E+02  0.51100000000E-03 0.  1.
         23    2    1    2    0    0 -0.22204460493E-15  0.00000000000E+00 -0.71054273576E-14  0.91188000000E+02  0.91188000000E+02 0.  0.
    9900012    2    3    3    0    0 -0.56713775429E+00 -0.21216284532E+02  0.34680159448E+02  0.50528857930E+02  0.29999994164E+02 0.  0.
        -12    1    3    3    0    0  0.56713775429E+00  0.21216284532E+02 -0.34680159448E+02  0.40659142070E+02  0.00000000000E+00 0.  1.
         11    1    4    4    0    0 -0.50394796818E+01 -0.23504582417E+02  0.23107542260E+02  0.33343968864E+02  0.51100000000E-03 0. -1.
        -11    1    4    4    0    0  0.15451712598E+01 -0.41664135703E+01  0.11661609012E+01  0.45941797711E+01  0.51100000000E-03 0.  1.
         12    1    4    4    0    0  0.29271706677E+01  0.64547114557E+01  0.10406456287E+02  0.12590709295E+02  0.00000000000E+00 0. -1.
</event>
<event>
 8    1  0.6016610E-012  0.9118800E+02  0.7816164E-02  0.1184000E+00
        -11   -1    0    0    0    0  0.00000000000E+00  0.00000000000E+00  0.45593999997E+02  0.45594000000E+02  0.51100000000E-03 0. -1.
         11   -1    0    0    0    0 -0.00000000000E+00 -0.00000000000E+00 -0.45593999997E+02  0.45594000000E+02  0.51100000000E-03 0.  1.
         23    2    1    2    0    0  0.35527136788E-14  0.00000000000E+00 -0.35527136788E-14  0.91188000000E+02  0.91188000000E+02 0.  0.
    9900012    2    3    3    0    0  0.18440466906E+02  0.17028158222E+02 -0.31986825378E+02  0.50528856012E+02  0.29999988333E+02 0.  0.
         12    1    3    3    0    0 -0.18440466906E+02 -0.17028158222E+02  0.31986825378E+02  0.40659143988E+02  0.00000000000E+00 0. -1.
         11    1    4    4    0    0  0.12602083187E+02 -0.59019133095E+01 -0.82415403266E+01  0.16173066147E+02  0.51100000000E-03 0. -1.
        -11    1    4    4    0    0  0.37924530464E+01  0.19899646238E+02 -0.16083129600E+02  0.25865917314E+02  0.51100000000E-03 0.  1.
        -12    1    4    4    0    0  0.20459306724E+01  0.30304252931E+01 -0.76621554514E+01  0.84898725511E+01  0.00000000000E+00 0.  1.
</event>
<event>
 8    1  0.6016610E-012  0.9118800E+02  0.7816164E-02  0.1184000E+00
        -11   -1    0    0    0    0  0.00000000000E+00  0.00000000000E+00  0.45593999997E+02  0.45594000000E+02  0.51100000000E-03 0. -1.
         11   -1    0    0    0    0 -0.00000000000E+00 -0.00000000000E+00 -0.45593999997E+02  0.45594000000E+02  0.51100000000E-03 0.  1.
         23    2    1    2    0    0  0.00000000000E+00  0.00000000000E+00  0.00000000000E+00  0.91188000000E+02  0.91188000000E+02 0.  0.
    9900012    2    3    3    0    0 -0.33074539122E+02  0.87056319777E+01 -0.21987553366E+02  0.50528859954E+02  0.30000000315E+02 0.  0.
         12    1    3    3    0    0  0.33074539122E+02 -0.87056319777E+01  0.21987553366E+02  0.40659140046E+02  0.00000000000E+00 0. -1.
         11    1    4    4    0    0 -0.18209682151E+02  0.22948076111E+01  0.41097600710E+01  0.18808210816E+02  0.51100000000E-03 0. -1.
        -11    1    4    4    0    0 -0.15307145349E+02  0.49423133629E+01 -0.21346487124E+02  0.26728405731E+02  0.51100000000E-03 0.  1.
        -12    1    4    4    0    0  0.44228837765E+00  0.14685110037E+01 -0.47508263129E+01  0.49922434068E+01  0.00000000000E+00 0.  1.
</event>
<event>
 8    1  0.6016610E-012  0.9118800E+02  0.7816164E-02  0.1184000E+00
        -11   -1    0    0    0    0  0.00000000000E+00  0.00000000000E+00  0.45593999997E+02  0.45594000000E+02  0.51100000000E-03 0.  1.
         11   -1    0    0    0    0 -0.00000000000E+00 -0.00000000000E+00 -0.45593999997E+02  0.45594000000E+02  0.51100000000E-03 0. -1.
         23    2    1    2    0    0  0.00000000000E+00 -0.44408920985E-15  0.00000000000E+00  0.91188000000E+02  0.91188000000E+02 0.  0.
    9900012    2    3    3    0    0 -0.40012575916E+02  0.23986036694E+01 -0.68121811723E+01  0.50528863963E+02  0.30000012502E+02 0.  0.
         12    1    3    3    0    0  0.40012575916E+02 -0.23986036694E+01  0.68121811723E+01  0.40659136037E+02  0.00000000000E+00 0. -1.
         11    1    4    4    0    0 -0.17077061791E+02 -0.67653408732E+01 -0.71441715041E+01  0.19708756006E+02  0.51100000000E-03 0. -1.
        -11    1    4    4    0    0 -0.23048778887E+02  0.10777065913E+02  0.49554964293E+01  0.25921965647E+02  0.51100000000E-03 0.  1.
        -12    1    4    4    0    0  0.11326476252E+00 -0.16131213701E+01 -0.46235060975E+01  0.48981423106E+01  0.00000000000E+00 0.  1.
</event>
<event>
 8    1  0.6016610E-012  0.9118800E+02  0.7816164E-02  0.1184000E+00
        -11   -1    0    0    0    0  0.00000000000E+00  0.00000000000E+00  0.45593999997E+02  0.45594000000E+02  0.51100000000E-03 0. -1.
         11   -1    0    0    0    0 -0.00000000000E+00 -0.00000000000E+00 -0.45593999997E+02  0.45594000000E+02  0.51100000000E-03 0.  1.
         23    2    1    2    0    0  0.00000000000E+00  0.00000000000E+00  0.00000000000E+00  0.91188000000E+02  0.91188000000E+02 0.  0.
    9900012    2    3    3    0    0 -0.51285034250E+01  0.37145494741E+02 -0.15718738209E+02  0.50528830581E+02  0.29999911034E+02 0.  0.
         12    1    3    3    0    0  0.51285034250E+01 -0.37145494741E+02  0.15718738209E+02  0.40659169419E+02  0.00000000000E+00 0. -1.
         11    1    4    4    0    0 -0.12898210418E+02  0.80139002679E+01 -0.77067240956E+01  0.17028799900E+02  0.51100000000E-03 0. -1.
        -11    1    4    4    0    0  0.73385548464E+01  0.78705957420E+01  0.40367615831E-01  0.10761147447E+02  0.51100000000E-03 0.  1.
         12    1    4    4    0    0  0.43115214624E+00  0.21260998731E+02 -0.80523817297E+01  0.22738883234E+02  0.00000000000E+00 0. -1.
</event>
<event>
 8    1  0.7854219E-012  0.9118800E+02  0.7816164E-02  0.1184000E+00
        -11   -1    0    0    0    0  0.00000000000E+00  0.00000000000E+00  0.45593999997E+02  0.45594000000E+02  0.51100000000E-03 0. -1.
         11   -1    0    0    0    0 -0.00000000000E+00 -0.00000000000E+00 -0.45593999997E+02  0.45594000000E+02  0.51100000000E-03 0.  1.
         23    2    1    2    0    0  0.35527136788E-14  0.00000000000E+00  0.17763568394E-14  0.91188000000E+02  0.91188000000E+02 0.  0.
    9900012    2    3    3    0    0 -0.17896571483E+02 -0.33515287740E+02  0.14477681648E+02  0.50528867581E+02  0.30000023500E+02 0.  0.
        -12    1    3    3    0    0  0.17896571483E+02  0.33515287740E+02 -0.14477681648E+02  0.40659132419E+02  0.00000000000E+00 0.  1.
         11    1    4    4    0    0 -0.21814081682E+02 -0.28417882765E+02  0.13610000127E+02  0.38323130407E+02  0.51100000000E-03 0. -1.
        -11    1    4    4    0    0  0.52362069106E+01 -0.61576155433E+01  0.37132774407E+01  0.88950841256E+01  0.51100000000E-03 0.  1.
        -12    1    4    4    0    0 -0.13186967117E+01  0.10602105684E+01 -0.28455959203E+01  0.33106530486E+01  0.00000000000E+00 0.  1.
</event>
<event>
 8    1  0.6016610E-012  0.9118800E+02  0.7816164E-02  0.1184000E+00
        -11   -1    0    0    0    0  0.00000000000E+00  0.00000000000E+00  0.45593999997E+02  0.45594000000E+02  0.51100000000E-03 0. -1.
         11   -1    0    0    0    0 -0.00000000000E+00 -0.00000000000E+00 -0.45593999997E+02  0.45594000000E+02  0.51100000000E-03 0.  1.
         23    2    1    2    0    0  0.17763568394E-14  0.00000000000E+00  0.00000000000E+00  0.91188000000E+02  0.91188000000E+02 0.  0.
    9900012    2    3    3    0    0 -0.93646845563E+01 -0.17720607549E+01 -0.39526315785E+02  0.50528841675E+02  0.29999944754E+02 0.  0.
         12    1    3    3    0    0  0.93646845563E+01  0.17720607549E+01  0.39526315785E+02  0.40659158325E+02  0.00000000000E+00 0. -1.
         11    1    4    4    0    0 -0.99187663658E+00 -0.10154535205E+02 -0.22325685587E+01  0.10444269583E+02  0.51100000000E-03 0. -1.
        -11    1    4    4    0    0 -0.75948582947E+00  0.68964381111E+01 -0.17676782159E+02  0.18989636781E+02  0.51100000000E-03 0.  1.
         12    1    4    4    0    0 -0.76133220902E+01  0.14860363394E+01 -0.19616965068E+02  0.21094935310E+02  0.00000000000E+00 0. -1.
</event>
<event>
 8    1  0.6016610E-012  0.9118800E+02  0.7816164E-02  0.1184000E+00
        -11   -1    0    0    0    0  0.00000000000E+00  0.00000000000E+00  0.45593999997E+02  0.45594000000E+02  0.51100000000E-03 0.  1.
         11   -1    0    0    0    0 -0.00000000000E+00 -0.00000000000E+00 -0.45593999997E+02  0.45594000000E+02  0.51100000000E-03 0. -1.
         23    2    1    2    0    0  0.00000000000E+00 -0.17763568394E-14  0.00000000000E+00  0.91188000000E+02  0.91188000000E+02 0.  0.
    9900012    2    3    3    0    0  0.20563059015E+02  0.15284895806E+02 -0.31570434471E+02  0.50528932518E+02  0.30000220880E+02 0.  0.
         12    1    3    3    0    0 -0.20563059015E+02 -0.15284895806E+02  0.31570434471E+02  0.40659067482E+02  0.00000000000E+00 0. -1.
         11    1    4    4    0    0  0.18194879546E+02  0.49789224021E+01 -0.74636316535E+01  0.20286673155E+02  0.51100000000E-03 0.  1.
        -11    1    4    4    0    0  0.32675531962E+01  0.14042046415E+02 -0.18919397829E+02  0.23786542117E+02  0.51100000000E-03 0. -1.
        -12    1    4    4    0    0 -0.89937372715E+00 -0.37360730108E+01 -0.51874049879E+01  0.64557172453E+01  0.00000000000E+00 0.  1.
</event>
<event>
 8    1  0.6016610E-012  0.9118800E+02  0.7816164E-02  0.1184000E+00
        -11   -1    0    0    0    0  0.00000000000E+00  0.00000000000E+00  0.45593999997E+02  0.45594000000E+02  0.51100000000E-03 0. -1.
         11   -1    0    0    0    0 -0.00000000000E+00 -0.00000000000E+00 -0.45593999997E+02  0.45594000000E+02  0.51100000000E-03 0.  1.
         23    2    1    2    0    0  0.00000000000E+00  0.00000000000E+00  0.00000000000E+00  0.91188000000E+02  0.91188000000E+02 0.  0.
    9900012    2    3    3    0    0 -0.44067393011E+01  0.11673663876E+02 -0.38697178024E+02  0.50528863677E+02  0.30000011632E+02 0.  0.
         12    1    3    3    0    0  0.44067393011E+01 -0.11673663876E+02  0.38697178024E+02  0.40659136323E+02  0.00000000000E+00 0. -1.
         11    1    4    4    0    0 -0.43846198508E+01 -0.30974100188E+01 -0.10503806624E+02  0.11796134702E+02  0.51100000000E-03 0. -1.
        -11    1    4    4    0    0  0.20510078127E+01  0.16918954187E+02 -0.89323256417E+01  0.19241727715E+02  0.51100000000E-03 0.  1.
        -12    1    4    4    0    0 -0.20731272630E+01 -0.21478802922E+01 -0.19261045758E+02  0.19491001260E+02  0.00000000000E+00 0.  1.
</event>
<event>
 8    1  0.6016610E-012  0.9118800E+02  0.7816164E-02  0.1184000E+00
        -11   -1    0    0    0    0  0.00000000000E+00  0.00000000000E+00  0.45593999997E+02  0.45594000000E+02  0.51100000000E-03 0. -1.
         11   -1    0    0    0    0 -0.00000000000E+00 -0.00000000000E+00 -0.45593999997E+02  0.45594000000E+02  0.51100000000E-03 0.  1.
         23    2    1    2    0    0  0.00000000000E+00  0.17763568394E-14  0.35527136788E-14  0.91188000000E+02  0.91188000000E+02 0.  0.
    9900012    2    3    3    0    0 -0.24257951841E+02  0.68633305049E+01  0.31900034159E+02  0.50528859423E+02  0.29999998701E+02 0.  0.
        -12    1    3    3    0    0  0.24257951841E+02 -0.68633305049E+01 -0.31900034159E+02  0.40659140577E+02  0.00000000000E+00 0.  1.
         11    1    4    4    0    0 -0.33281240692E+01 -0.81173390197E+01  0.14274143801E+02  0.16754664548E+02  0.51100000000E-03 0.  1.
        -11    1    4    4    0    0 -0.11508996139E+02  0.14565937457E+02  0.15313008786E+02  0.24064741106E+02  0.51100000000E-03 0. -1.
         12    1    4    4    0    0 -0.94208316326E+01  0.41473206758E+00  0.23128815713E+01  0.97094537694E+01  0.00000000000E+00 0. -1.
</event>
<event>
 8    1  0.6016610E-012  0.9118800E+02  0.7816164E-02  0.1184000E+00
        -11   -1    0    0    0    0  0.00000000000E+00  0.00000000000E+00  0.45593999997E+02  0.45594000000E+02  0.51100000000E-03 0. -1.
         11   -1    0    0    0    0 -0.00000000000E+00 -0.00000000000E+00 -0.45593999997E+02  0.45594000000E+02  0.51100000000E-03 0.  1.
         23    2    1    2    0    0 -0.71054273576E-14  0.35527136788E-14  0.00000000000E+00  0.91188000000E+02  0.91188000000E+02 0.  0.
    9900012    2    3    3    0    0  0.33090107612E+02 -0.23151467122E+02  0.47137386825E+01  0.50528868381E+02  0.30000025931E+02 0.  0.
        -12    1    3    3    0    0 -0.33090107612E+02  0.23151467122E+02 -0.47137386825E+01  0.40659131619E+02  0.00000000000E+00 0.  1.
         11    1    4    4    0    0  0.29351918514E+02 -0.19885725825E+02 -0.12073425488E+01  0.35474425835E+02  0.51100000000E-03 0. -1.
        -11    1    4    4    0    0 -0.33467973235E+01 -0.42421136201E+01  0.57641710962E+01  0.79007752137E+01  0.51100000000E-03 0.  1.
        -12    1    4    4    0    0  0.70849864213E+01  0.97637232387E+00  0.15691013515E+00  0.71536673319E+01  0.00000000000E+00 0.  1.
</event>
<event>
 8    1  0.6016610E-012  0.9118800E+02  0.7816164E-02  0.1184000E+00
        -11   -1    0    0    0    0  0.00000000000E+00  0.00000000000E+00  0.45593999997E+02  0.45594000000E+02  0.51100000000E-03 0. -1.
         11   -1    0    0    0    0 -0.00000000000E+00 -0.00000000000E+00 -0.45593999997E+02  0.45594000000E+02  0.51100000000E-03 0.  1.
         23    2    1    2    0    0  0.88817841970E-15  0.00000000000E+00  0.00000000000E+00  0.91188000000E+02  0.91188000000E+02 0.  0.
    9900012    2    3    3    0    0 -0.73428347776E+01 -0.30682124286E+02 -0.25648703001E+02  0.50528856638E+02  0.29999990238E+02 0.  0.
         12    1    3    3    0    0  0.73428347776E+01  0.30682124286E+02  0.25648703001E+02  0.40659143362E+02  0.00000000000E+00 0. -1.
         11    1    4    4    0    0  0.59259701535E+00  0.22832048665E+01  0.14684472456E+01  0.27785847583E+01  0.51100000000E-03 0. -1.
        -11    1    4    4    0    0 -0.10579568403E+02 -0.31214270339E+02 -0.16872940733E+02  0.37026396930E+02  0.51100000000E-03 0.  1.
        -12    1    4    4    0    0  0.26441366104E+01 -0.17510588136E+01 -0.10244209514E+02  0.10723874950E+02  0.00000000000E+00 0.  1.
</event>
<event>
 8    1  0.6016610E-012  0.9118800E+02  0.7816164E-02  0.1184000E+00
        -11   -1    0    0    0    0  0.00000000000E+00  0.00000000000E+00  0.45593999997E+02  0.45594000000E+02  0.51100000000E-03 0. -1.
         11   -1    0    0    0    0 -0.00000000000E+00 -0.00000000000E+00 -0.45593999997E+02  0.45594000000E+02  0.51100000000E-03 0.  1.
         23    2    1    2    0    0 -0.71054273576E-14  0.17763568394E-14  0.13322676296E-14  0.91188000000E+02  0.91188000000E+02 0.  0.
    9900012    2    3    3    0    0 -0.38046421665E+02  0.14026204454E+02  0.29835403509E+01  0.50528854339E+02  0.29999983249E+02 0.  0.
        -12    1    3    3    0    0  0.38046421665E+02 -0.14026204454E+02 -0.29835403509E+01  0.40659145661E+02  0.00000000000E+00 0.  1.
         11    1    4    4    0    0 -0.19111527046E+02  0.34741629615E+01  0.80103801052E+01  0.21011579284E+02  0.51100000000E-03 0. -1.
        -11    1    4    4    0    0 -0.13684937546E+02  0.29512671600E+01 -0.11598973855E+02  0.18180310454E+02  0.51100000000E-03 0.  1.
        -12    1    4    4    0    0 -0.52499570727E+01  0.76007743326E+01  0.65721341003E+01  0.11336964600E+02  0.00000000000E+00 0.  1.
</event>
<event>
 8    1  0.6016610E-012  0.9118800E+02  0.7816164E-02  0.1184000E+00
        -11   -1    0    0    0    0  0.00000000000E+00  0.00000000000E+00  0.45593999997E+02  0.45594000000E+02  0.51100000000E-03 0. -1.
         11   -1    0    0    0    0 -0.00000000000E+00 -0.00000000000E+00 -0.45593999997E+02  0.45594000000E+02  0.51100000000E-03 0.  1.
         23    2    1    2    0    0 -0.35527136788E-14 -0.35527136788E-14  0.00000000000E+00  0.91188000000E+02  0.91188000000E+02 0.  0.
    9900012    2    3    3    0    0  0.19195269633E+02  0.15419479915E+02  0.32356558372E+02  0.50528860722E+02  0.30000002651E+02 0.  0.
        -12    1    3    3    0    0 -0.19195269633E+02 -0.15419479915E+02 -0.32356558372E+02  0.40659139278E+02  0.00000000000E+00 0.  1.
         11    1    4    4    0    0  0.15987407327E+02  0.52024282914E+01  0.30017454630E+02  0.34405087355E+02  0.51100000000E-03 0. -1.
        -11    1    4    4    0    0 -0.32326969832E+01  0.86450399989E+01  0.22207207652E+01  0.94930841852E+01  0.51100000000E-03 0.  1.
        -12    1    4    4    0    0  0.64405592891E+01  0.15720116245E+01  0.11838297695E+00  0.66306891824E+01  0.00000000000E+00 0.  1.
</event>
<event>
 8    1  0.6016610E-012  0.9118800E+02  0.7816164E-02  0.1184000E+00
        -11   -1    0    0    0    0  0.00000000000E+00  0.00000000000E+00  0.45593999997E+02  0.45594000000E+02  0.51100000000E-03 0. -1.
         11   -1    0    0    0    0 -0.00000000000E+00 -0.00000000000E+00 -0.45593999997E+02  0.45594000000E+02  0.51100000000E-03 0.  1.
         23    2    1    2    0    0  0.00000000000E+00 -0.17763568394E-14  0.00000000000E+00  0.91188000000E+02  0.91188000000E+02 0.  0.
    9900012    2    3    3    0    0  0.22679423534E+02  0.98610525877E+01  0.32273351979E+02  0.50528857634E+02  0.29999993265E+02 0.  0.
        -12    1    3    3    0    0 -0.22679423534E+02 -0.98610525877E+01 -0.32273351979E+02  0.40659142366E+02  0.00000000000E+00 0.  1.
         11    1    4    4    0    0  0.21148271103E+02  0.30473818549E+00  0.10481883209E+02  0.23605340749E+02  0.51100000000E-03 0. -1.
        -11    1    4    4    0    0  0.34327737173E+01  0.82254352442E+01  0.55125900552E+01  0.10479998556E+02  0.51100000000E-03 0.  1.
         12    1    4    4    0    0 -0.19016212865E+01  0.13308791580E+01  0.16278878715E+02  0.16443518330E+02  0.00000000000E+00 0. -1.
</event>
<event>
 8    1  0.6479871E-012  0.9118800E+02  0.7816164E-02  0.1184000E+00
        -11   -1    0    0    0    0  0.00000000000E+00  0.00000000000E+00  0.45593999997E+02  0.45594000000E+02  0.51100000000E-03 0. -1.
         11   -1    0    0    0    0 -0.00000000000E+00 -0.00000000000E+00 -0.45593999997E+02  0.45594000000E+02  0.51100000000E-03 0.  1.
         23    2    1    2    0    0  0.00000000000E+00  0.11102230246E-14  0.35527136788E-14  0.91188000000E+02  0.91188000000E+02 0.  0.
    9900012    2    3    3    0    0 -0.25634951294E+02  0.39934488212E+00  0.31557169665E+02  0.50528866199E+02  0.30000019300E+02 0.  0.
        -12    1    3    3    0    0  0.25634951294E+02 -0.39934488212E+00 -0.31557169665E+02  0.40659133801E+02  0.00000000000E+00 0.  1.
         11    1    4    4    0    0 -0.10046431979E+02  0.46234853607E+01  0.12703448151E+02  0.16842951273E+02  0.51100000000E-03 0. -1.
        -11    1    4    4    0    0 -0.16257581072E+02 -0.39066463324E+01  0.20268691847E+01  0.16842773727E+02  0.51100000000E-03 0.  1.
        -12    1    4    4    0    0  0.66906175700E+00 -0.31749414619E+00  0.16826852329E+02  0.16843141199E+02  0.00000000000E+00 0.  1.
</event>
<event>
 8    1  0.6016610E-012  0.9118800E+02  0.7816164E-02  0.1184000E+00
        -11   -1    0    0    0    0  0.00000000000E+00  0.00000000000E+00  0.45593999997E+02  0.45594000000E+02  0.51100000000E-03 0. -1.
         11   -1    0    0    0    0 -0.00000000000E+00 -0.00000000000E+00 -0.45593999997E+02  0.45594000000E+02  0.51100000000E-03 0.  1.
         23    2    1    2    0    0  0.00000000000E+00 -0.44408920985E-15  0.00000000000E+00  0.91188000000E+02  0.91188000000E+02 0.  0.
    9900012    2    3    3    0    0 -0.26031052002E+02  0.31197407054E+01 -0.31077577840E+02  0.50528876857E+02  0.30000051693E+02 0.  0.
         12    1    3    3    0    0  0.26031052002E+02 -0.31197407054E+01  0.31077577840E+02  0.40659123143E+02  0.00000000000E+00 0. -1.
         11    1    4    4    0    0 -0.13236452468E+02  0.10582129188E+02 -0.11980865062E+02  0.20753945649E+02  0.51100000000E-03 0. -1.
        -11    1    4    4    0    0  0.27700765771E+00 -0.57521957033E+01  0.89490596493E+00  0.58279795468E+01  0.51100000000E-03 0.  1.
        -12    1    4    4    0    0 -0.13071607191E+02 -0.17101927790E+01 -0.19991618743E+02  0.23946951661E+02  0.00000000000E+00 0.  1.
</event>
<event>
 8    1  0.6016610E-012  0.9118800E+02  0.7816164E-02  0.1184000E+00
        -11   -1    0    0    0    0  0.00000000000E+00  0.00000000000E+00  0.45593999997E+02  0.45594000000E+02  0.51100000000E-03 0. -1.
         11   -1    0    0    0    0 -0.00000000000E+00 -0.00000000000E+00 -0.45593999997E+02  0.45594000000E+02  0.51100000000E-03 0.  1.
         23    2    1    2    0    0  0.44408920985E-15  0.35527136788E-14 -0.71054273576E-14  0.91188000000E+02  0.91188000000E+02 0.  0.
    9900012    2    3    3    0    0  0.32791785487E+01  0.14689004053E+02 -0.37770951864E+02  0.50528872406E+02  0.30000038164E+02 0.  0.
         12    1    3    3    0    0 -0.32791785487E+01 -0.14689004053E+02  0.37770951864E+02  0.40659127594E+02  0.00000000000E+00 0. -1.
         11    1    4    4    0    0  0.11812725156E+02  0.17008453890E+02 -0.21500037911E+02  0.29850956597E+02  0.51100000000E-03 0. -1.
        -11    1    4    4    0    0 -0.50448373414E+01  0.33574569430E+01 -0.85428607089E+01  0.10473937668E+02  0.51100000000E-03 0.  1.
         12    1    4    4    0    0 -0.34887092661E+01 -0.56769067803E+01 -0.77280532442E+01  0.10203978140E+02  0.00000000000E+00 0. -1.
</event>
<event>
 8    1  0.6016610E-012  0.9118800E+02  0.7816164E-02  0.1184000E+00
        -11   -1    0    0    0    0  0.00000000000E+00  0.00000000000E+00  0.45593999997E+02  0.45594000000E+02  0.51100000000E-03 0. -1.
         11   -1    0    0    0    0 -0.00000000000E+00 -0.00000000000E+00 -0.45593999997E+02  0.45594000000E+02  0.51100000000E-03 0.  1.
         23    2    1    2    0    0  0.17763568394E-14  0.00000000000E+00  0.00000000000E+00  0.91188000000E+02  0.91188000000E+02 0.  0.
    9900012    2    3    3    0    0  0.73849029829E+01 -0.25333698760E+02  0.30932645087E+02  0.50528909786E+02  0.30000151785E+02 0.  0.
        -12    1    3    3    0    0 -0.73849029829E+01  0.25333698760E+02 -0.30932645087E+02  0.40659090214E+02  0.00000000000E+00 0.  1.
         11    1    4    4    0    0 -0.78627632305E+01 -0.11221546645E+01  0.65275543368E+01  0.10280624621E+02  0.51100000000E-03 0. -1.
        -11    1    4    4    0    0  0.45681983838E+01 -0.14720258111E+02  0.51071574319E+01  0.16236917584E+02  0.51100000000E-03 0.  1.
         12    1    4    4    0    0  0.10679467830E+02 -0.94912859842E+01  0.19297933319E+02  0.24011367581E+02  0.00000000000E+00 0. -1.
</event>
<event>
 8    1  0.6016610E-012  0.9118800E+02  0.7816164E-02  0.1184000E+00
        -11   -1    0    0    0    0  0.00000000000E+00  0.00000000000E+00  0.45593999997E+02  0.45594000000E+02  0.51100000000E-03 0. -1.
         11   -1    0    0    0    0 -0.00000000000E+00 -0.00000000000E+00 -0.45593999997E+02  0.45594000000E+02  0.51100000000E-03 0.  1.
         23    2    1    2    0    0  0.35527136788E-14 -0.88817841970E-15  0.00000000000E+00  0.91188000000E+02  0.91188000000E+02 0.  0.
    9900012    2    3    3    0    0 -0.27003376801E+02  0.75297026030E+01  0.29449736309E+02  0.50528858978E+02  0.29999997350E+02 0.  0.
        -12    1    3    3    0    0  0.27003376801E+02 -0.75297026030E+01 -0.29449736309E+02  0.40659141022E+02  0.00000000000E+00 0.  1.
         11    1    4    4    0    0 -0.10756465976E+02  0.13775397731E+02  0.60869049186E+01  0.18507121729E+02  0.51100000000E-03 0. -1.
        -11    1    4    4    0    0 -0.16267150032E+02 -0.80987600250E+01  0.15319148562E+02  0.23767338871E+02  0.51100000000E-03 0.  1.
         12    1    4    4    0    0  0.20239206329E-01  0.18530648973E+01  0.80436828287E+01  0.82543983783E+01  0.00000000000E+00 0. -1.
</event>
<event>
 8    1  0.6016610E-012  0.9118800E+02  0.7816164E-02  0.1184000E+00
        -11   -1    0    0    0    0  0.00000000000E+00  0.00000000000E+00  0.45593999997E+02  0.45594000000E+02  0.51100000000E-03 0. -1.
         11   -1    0    0    0    0 -0.00000000000E+00 -0.00000000000E+00 -0.45593999997E+02  0.45594000000E+02  0.51100000000E-03 0.  1.
         23    2    1    2    0    0  0.00000000000E+00  0.00000000000E+00  0.00000000000E+00  0.91188000000E+02  0.91188000000E+02 0.  0.
    9900012    2    3    3    0    0  0.25513297503E+02 -0.30577723961E+02  0.81999369038E+01  0.50528874120E+02  0.30000043376E+02 0.  0.
        -12    1    3    3    0    0 -0.25513297503E+02  0.30577723961E+02 -0.81999369038E+01  0.40659125880E+02  0.00000000000E+00 0.  1.
         11    1    4    4    0    0  0.43357687979E+01  0.39927259749E+01  0.73041335499E+01  0.93856869198E+01  0.51100000000E-03 0. -1.
        -11    1    4    4    0    0  0.10686880017E+02 -0.14850181940E+02 -0.27797014286E+01  0.18505784189E+02  0.51100000000E-03 0.  1.
        -12    1    4    4    0    0  0.10490648688E+02 -0.19720267995E+02  0.36755047825E+01  0.22637403011E+02  0.00000000000E+00 0.  1.
</event>
<event>
 8    1  0.6016610E-012  0.9118800E+02  0.7816164E-02  0.1184000E+00
        -11   -1    0    0    0    0  0.00000000000E+00  0.00000000000E+00  0.45593999997E+02  0.45594000000E+02  0.51100000000E-03 0. -1.
         11   -1    0    0    0    0 -0.00000000000E+00 -0.00000000000E+00 -0.45593999997E+02  0.45594000000E+02  0.51100000000E-03 0.  1.
         23    2    1    2    0    0 -0.35527136788E-14  0.00000000000E+00  0.00000000000E+00  0.91188000000E+02  0.91188000000E+02 0.  0.
    9900012    2    3    3    0    0  0.15182471735E+02  0.91606122942E+01 -0.36588813539E+02  0.50528861522E+02  0.30000005083E+02 0.  0.
         12    1    3    3    0    0 -0.15182471735E+02 -0.91606122942E+01  0.36588813539E+02  0.40659138478E+02  0.00000000000E+00 0. -1.
         11    1    4    4    0    0 -0.66509090964E+01  0.16467618206E+00 -0.16733251294E+02  0.18007315435E+02  0.51100000000E-03 0. -1.
        -11    1    4    4    0    0  0.20537488037E+02  0.10230807949E+02 -0.20345252843E+02  0.30665732662E+02  0.51100000000E-03 0.  1.
         12    1    4    4    0    0  0.12958927943E+01 -0.12348718365E+01  0.48969059867E+00  0.18558134252E+01  0.00000000000E+00 0. -1.
</event>
<event>
 8    1  0.6016610E-012  0.9118800E+02  0.7816164E-02  0.1184000E+00
        -11   -1    0    0    0    0  0.00000000000E+00  0.00000000000E+00  0.45593999997E+02  0.45594000000E+02  0.51100000000E-03 0. -1.
         11   -1    0    0    0    0 -0.00000000000E+00 -0.00000000000E+00 -0.45593999997E+02  0.45594000000E+02  0.51100000000E-03 0.  1.
         23    2    1    2    0    0 -0.35527136788E-14  0.17763568394E-14 -0.71054273576E-14  0.91188000000E+02  0.91188000000E+02 0.  0.
    9900012    2    3    3    0    0  0.17580177465E+02 -0.97665433824E+01  0.35337200794E+02  0.50528858724E+02  0.29999996577E+02 0.  0.
        -12    1    3    3    0    0 -0.17580177465E+02  0.97665433824E+01 -0.35337200794E+02  0.40659141276E+02  0.00000000000E+00 0.  1.
         11    1    4    4    0    0 -0.36112759085E+00  0.47111395722E+01  0.86415438985E+01  0.98489354966E+01  0.51100000000E-03 0.  1.
        -11    1    4    4    0    0  0.77321148291E+01 -0.12600673146E+02  0.26444667877E+02  0.30296584343E+02  0.51100000000E-03 0. -1.
         12    1    4    4    0    0  0.10209190226E+02 -0.18770098090E+01  0.25098901889E+00  0.10383338884E+02  0.00000000000E+00 0. -1.
</event>
<event>
 8    1  0.6016610E-012  0.9118800E+02  0.7816164E-02  0.1184000E+00
        -11   -1    0    0    0    0  0.00000000000E+00  0.00000000000E+00  0.45593999997E+02  0.45594000000E+02  0.51100000000E-03 0. -1.
         11   -1    0    0    0    0 -0.00000000000E+00 -0.00000000000E+00 -0.45593999997E+02  0.45594000000E+02  0.51100000000E-03 0.  1.
         23    2    1    2    0    0 -0.14210854715E-13  0.35527136788E-14  0.53290705182E-14  0.91188000000E+02  0.91188000000E+02 0.  0.
    9900012    2    3    3    0    0 -0.34443575116E+02  0.15415713752E+02  0.15138110257E+02  0.50528849991E+02  0.29999970034E+02 0.  0.
        -12    1    3    3    0    0  0.34443575116E+02 -0.15415713752E+02 -0.15138110257E+02  0.40659150009E+02  0.00000000000E+00 0.  1.
         11    1    4    4    0    0 -0.10922835990E+02  0.54703140372E+01  0.17725570473E+02  0.21527390241E+02  0.51100000000E-03 0. -1.
        -11    1    4    4    0    0 -0.63484995897E+01  0.77969182778E+01 -0.54866155443E+01  0.11454184042E+02  0.51100000000E-03 0.  1.
        -12    1    4    4    0    0 -0.17172239536E+02  0.21484814365E+01  0.28991553289E+01  0.17547275709E+02  0.00000000000E+00 0.  1.
</event>
<event>
 8    1  0.6016610E-012  0.9118800E+02  0.7816164E-02  0.1184000E+00
        -11   -1    0    0    0    0  0.00000000000E+00  0.00000000000E+00  0.45593999997E+02  0.45594000000E+02  0.51100000000E-03 0. -1.
         11   -1    0    0    0    0 -0.00000000000E+00 -0.00000000000E+00 -0.45593999997E+02  0.45594000000E+02  0.51100000000E-03 0.  1.
         23    2    1    2    0    0 -0.71054273576E-14  0.00000000000E+00  0.35527136788E-14  0.91188000000E+02  0.91188000000E+02 0.  0.
    9900012    2    3    3    0    0  0.27343251200E+02 -0.38774003878E+01 -0.29840897306E+02  0.50528846394E+02  0.29999959098E+02 0.  0.
         12    1    3    3    0    0 -0.27343251200E+02  0.38774003878E+01  0.29840897306E+02  0.40659153606E+02  0.00000000000E+00 0. -1.
         11    1    4    4    0    0 -0.50920984368E+01 -0.40972712184E+01 -0.75542527850E+01  0.99891858191E+01  0.51100000000E-03 0. -1.
        -11    1    4    4    0    0  0.12054658118E+02 -0.46267576251E+01 -0.82425933849E+01  0.15318681876E+02  0.51100000000E-03 0.  1.
         12    1    4    4    0    0  0.20380691519E+02  0.48466284557E+01 -0.14044051136E+02  0.25220978698E+02  0.00000000000E+00 0. -1.
</event>
<event>
 8    1  0.6016610E-012  0.9118800E+02  0.7816164E-02  0.1184000E+00
        -11   -1    0    0    0    0  0.00000000000E+00  0.00000000000E+00  0.45593999997E+02  0.45594000000E+02  0.51100000000E-03 0. -1.
         11   -1    0    0    0    0 -0.00000000000E+00 -0.00000000000E+00 -0.45593999997E+02  0.45594000000E+02  0.51100000000E-03 0.  1.
         23    2    1    2    0    0  0.00000000000E+00  0.00000000000E+00  0.00000000000E+00  0.91188000000E+02  0.91188000000E+02 0.  0.
    9900012    2    3    3    0    0  0.39209591576E+01  0.35180521049E+02  0.20003065199E+02  0.50528860813E+02  0.30000002929E+02 0.  0.
        -12    1    3    3    0    0 -0.39209591576E+01 -0.35180521049E+02 -0.20003065199E+02  0.40659139187E+02  0.00000000000E+00 0.  1.
         11    1    4    4    0    0  0.10888470217E+02  0.24424140489E+02  0.15703135165E+02  0.31011060552E+02  0.51100000000E-03 0. -1.
        -11    1    4    4    0    0 -0.54834028684E+01  0.80415001187E+01 -0.41035736051E+01  0.10562800186E+02  0.51100000000E-03 0.  1.
        -12    1    4    4    0    0 -0.14841081908E+01  0.27148804421E+01  0.84035036397E+01  0.89550000759E+01  0.00000000000E+00 0.  1.
</event>
<event>
 8    1  0.6016610E-012  0.9118800E+02  0.7816164E-02  0.1184000E+00
        -11   -1    0    0    0    0  0.00000000000E+00  0.00000000000E+00  0.45593999997E+02  0.45594000000E+02  0.51100000000E-03 0. -1.
         11   -1    0    0    0    0 -0.00000000000E+00 -0.00000000000E+00 -0.45593999997E+02  0.45594000000E+02  0.51100000000E-03 0.  1.
         23    2    1    2    0    0  0.27755575616E-16  0.17763568394E-14  0.71054273576E-14  0.91188000000E+02  0.91188000000E+02 0.  0.
    9900012    2    3    3    0    0 -0.21353202964E+00 -0.13835782535E+02 -0.38232072393E+02  0.50528857932E+02  0.29999994170E+02 0.  0.
         12    1    3    3    0    0  0.21353202964E+00  0.13835782535E+02  0.38232072393E+02  0.40659142068E+02  0.00000000000E+00 0. -1.
         11    1    4    4    0    0  0.92362536745E+00  0.64279021017E+01 -0.20382975376E+02  0.21392444804E+02  0.51100000000E-03 0. -1.
        -11    1    4    4    0    0  0.21649051326E+00 -0.10088161250E+02 -0.20519620581E+01  0.10297009959E+02  0.51100000000E-03 0.  1.
         12    1    4    4    0    0 -0.13536479104E+01 -0.10175523386E+02 -0.15797134958E+02  0.18839403168E+02  0.00000000000E+00 0. -1.
</event>
<event>
 8    1  0.6016610E-012  0.9118800E+02  0.7816164E-02  0.1184000E+00
        -11   -1    0    0    0    0  0.00000000000E+00  0.00000000000E+00  0.45593999997E+02  0.45594000000E+02  0.51100000000E-03 0. -1.
         11   -1    0    0    0    0 -0.00000000000E+00 -0.00000000000E+00 -0.45593999997E+02  0.45594000000E+02  0.51100000000E-03 0.  1.
         23    2    1    2    0    0  0.00000000000E+00  0.00000000000E+00 -0.35527136788E-14  0.91188000000E+02  0.91188000000E+02 0.  0.
    9900012    2    3    3    0    0 -0.26060022218E+02  0.80958099181E+01 -0.30141315460E+02  0.50528858422E+02  0.29999995659E+02 0.  0.
         12    1    3    3    0    0  0.26060022218E+02 -0.80958099181E+01  0.30141315460E+02  0.40659141578E+02  0.00000000000E+00 0. -1.
         11    1    4    4    0    0 -0.17571229488E+02 -0.28693233252E+01 -0.10220092365E+02  0.20528794662E+02  0.51100000000E-03 0. -1.
        -11    1    4    4    0    0  0.22725573288E+01  0.91481802840E+01 -0.15671945696E+02  0.18288346057E+02  0.51100000000E-03 0.  1.
         12    1    4    4    0    0 -0.10761350059E+02  0.18169529594E+01 -0.42492773988E+01  0.11711717703E+02  0.00000000000E+00 0. -1.
</event>
<event>
 8    1  0.6016610E-012  0.9118800E+02  0.7816164E-02  0.1184000E+00
        -11   -1    0    0    0    0  0.00000000000E+00  0.00000000000E+00  0.45593999997E+02  0.45594000000E+02  0.51100000000E-03 0. -1.
         11   -1    0    0    0    0 -0.00000000000E+00 -0.00000000000E+00 -0.45593999997E+02  0.45594000000E+02  0.51100000000E-03 0.  1.
         23    2    1    2    0    0  0.66613381478E-15  0.00000000000E+00  0.00000000000E+00  0.91188000000E+02  0.91188000000E+02 0.  0.
    9900012    2    3    3    0    0 -0.14676713790E+01  0.21581417578E+02 -0.34427555211E+02  0.50528828811E+02  0.29999905655E+02 0.  0.
         12    1    3    3    0    0  0.14676713790E+01 -0.21581417578E+02  0.34427555211E+02  0.40659171189E+02  0.00000000000E+00 0. -1.
         11    1    4    4    0    0  0.94756420825E+01  0.83710491196E+01 -0.18933579497E+01  0.12784641599E+02  0.51100000000E-03 0. -1.
        -11    1    4    4    0    0 -0.49773047669E+00 -0.10341246016E+01 -0.71892760617E+00  0.13542549550E+01  0.51100000000E-03 0.  1.
         12    1    4    4    0    0 -0.10445582985E+02  0.14244493060E+02 -0.31815269655E+02  0.36389932257E+02  0.00000000000E+00 0. -1.
</event>
<event>
 8    1  0.6016610E-012  0.9118800E+02  0.7816164E-02  0.1184000E+00
        -11   -1    0    0    0    0  0.00000000000E+00  0.00000000000E+00  0.45593999997E+02  0.45594000000E+02  0.51100000000E-03 0. -1.
         11   -1    0    0    0    0 -0.00000000000E+00 -0.00000000000E+00 -0.45593999997E+02  0.45594000000E+02  0.51100000000E-03 0.  1.
         23    2    1    2    0    0 -0.83266726847E-16  0.00000000000E+00  0.00000000000E+00  0.91188000000E+02  0.91188000000E+02 0.  0.
    9900012    2    3    3    0    0 -0.22914596928E+00 -0.24238994666E+02  0.32643290549E+02  0.50528858492E+02  0.29999995871E+02 0.  0.
        -12    1    3    3    0    0  0.22914596928E+00  0.24238994666E+02 -0.32643290549E+02  0.40659141508E+02  0.00000000000E+00 0.  1.
         11    1    4    4    0    0 -0.79909659524E+01 -0.25926657806E+01  0.66371342105E+01  0.10706493520E+02  0.51100000000E-03 0. -1.
        -11    1    4    4    0    0  0.13384018029E+02 -0.98910115809E+01  0.11003971556E+02  0.19951226502E+02  0.51100000000E-03 0.  1.
        -12    1    4    4    0    0 -0.56221980456E+01 -0.11755317305E+02  0.15002184783E+02  0.19871138469E+02  0.00000000000E+00 0.  1.
</event>
<event>
 8    1  0.6016610E-012  0.9118800E+02  0.7816164E-02  0.1184000E+00
        -11   -1    0    0    0    0  0.00000000000E+00  0.00000000000E+00  0.45593999997E+02  0.45594000000E+02  0.51100000000E-03 0. -1.
         11   -1    0    0    0    0 -0.00000000000E+00 -0.00000000000E+00 -0.45593999997E+02  0.45594000000E+02  0.51100000000E-03 0.  1.
         23    2    1    2    0    0 -0.66613381478E-15  0.00000000000E+00  0.00000000000E+00  0.91188000000E+02  0.91188000000E+02 0.  0.
    9900012    2    3    3    0    0 -0.14552544327E+01  0.33543341594E+02 -0.22932343683E+02  0.50528856900E+02  0.29999991035E+02 0.  0.
         12    1    3    3    0    0  0.14552544327E+01 -0.33543341594E+02  0.22932343683E+02  0.40659143100E+02  0.00000000000E+00 0. -1.
         11    1    4    4    0    0 -0.10232867236E+02  0.51043314496E+01 -0.10263034254E+02  0.15365404120E+02  0.51100000000E-03 0. -1.
        -11    1    4    4    0    0 -0.16106546662E+01  0.18009220214E+02 -0.69491930187E+01  0.19370531873E+02  0.51100000000E-03 0.  1.
         12    1    4    4    0    0  0.10388267470E+02  0.10429789931E+02 -0.57201164108E+01  0.15792920907E+02  0.00000000000E+00 0. -1.
</event>
<event>
 8    1  0.6016610E-012  0.9118800E+02  0.7816164E-02  0.1184000E+00
        -11   -1    0    0    0    0  0.00000000000E+00  0.00000000000E+00  0.45593999997E+02  0.45594000000E+02  0.51100000000E-03 0. -1.
         11   -1    0    0    0    0 -0.00000000000E+00 -0.00000000000E+00 -0.45593999997E+02  0.45594000000E+02  0.51100000000E-03 0.  1.
         23    2    1    2    0    0  0.00000000000E+00 -0.35527136788E-14  0.00000000000E+00  0.91188000000E+02  0.91188000000E+02 0.  0.
    9900012    2    3    3    0    0  0.80592496588E+01 -0.22623833468E+02  0.32808174583E+02  0.50528860003E+02  0.30000000464E+02 0.  0.
        -12    1    3    3    0    0 -0.80592496588E+01  0.22623833468E+02 -0.32808174583E+02  0.40659139997E+02  0.00000000000E+00 0.  1.
         11    1    4    4    0    0  0.95050637481E+01 -0.24733353886E+02  0.21902942424E+02  0.34377665983E+02  0.51100000000E-03 0. -1.
        -11    1    4    4    0    0 -0.49385921375E+01  0.47360191596E+01  0.38475167677E+01  0.78500290012E+01  0.51100000000E-03 0.  1.
        -12    1    4    4    0    0  0.34927780482E+01 -0.26264987418E+01  0.70577153906E+01  0.83011650188E+01  0.00000000000E+00 0.  1.
</event>
<event>
 8    1  0.6016610E-012  0.9118800E+02  0.7816164E-02  0.1184000E+00
        -11   -1    0    0    0    0  0.00000000000E+00  0.00000000000E+00  0.45593999997E+02  0.45594000000E+02  0.51100000000E-03 0.  1.
         11   -1    0    0    0    0 -0.00000000000E+00 -0.00000000000E+00 -0.45593999997E+02  0.45594000000E+02  0.51100000000E-03 0. -1.
         23    2    1    2    0    0  0.00000000000E+00 -0.35527136788E-14  0.00000000000E+00  0.91188000000E+02  0.91188000000E+02 0.  0.
    9900012    2    3    3    0    0 -0.25438536831E+02  0.29915306117E+02 -0.10541482050E+02  0.50528836949E+02  0.29999930390E+02 0.  0.
         12    1    3    3    0    0  0.25438536831E+02 -0.29915306117E+02  0.10541482050E+02  0.40659163051E+02  0.00000000000E+00 0. -1.
         11    1    4    4    0    0 -0.21888905465E+02  0.25459728577E+02 -0.15614205497E+02  0.37028710148E+02  0.51100000000E-03 0. -1.
        -11    1    4    4    0    0 -0.73558452177E+01  0.11019863691E+01  0.30338685214E+01  0.80328818795E+01  0.51100000000E-03 0.  1.
         12    1    4    4    0    0  0.38062138511E+01  0.33535911711E+01  0.20388549254E+01  0.54672449213E+01  0.00000000000E+00 0. -1.
</event>
<event>
 8    1  0.6016610E-012  0.9118800E+02  0.7816164E-02  0.1184000E+00
        -11   -1    0    0    0    0  0.00000000000E+00  0.00000000000E+00  0.45593999997E+02  0.45594000000E+02  0.51100000000E-03 0. -1.
         11   -1    0    0    0    0 -0.00000000000E+00 -0.00000000000E+00 -0.45593999997E+02  0.45594000000E+02  0.51100000000E-03 0.  1.
         23    2    1    2    0    0  0.88817841970E-15  0.71054273576E-14  0.35527136788E-14  0.91188000000E+02  0.91188000000E+02 0.  0.
    9900012    2    3    3    0    0 -0.35205815431E+01  0.32331729550E+02  0.24401444013E+02  0.50528859576E+02  0.29999999166E+02 0.  0.
        -12    1    3    3    0    0  0.35205815431E+01 -0.32331729550E+02 -0.24401444013E+02  0.40659140424E+02  0.00000000000E+00 0.  1.
         11    1    4    4    0    0  0.35878923352E+01  0.13434106358E+02 -0.41916495181E+01  0.14523020037E+02  0.51100000000E-03 0. -1.
        -11    1    4    4    0    0 -0.28253650587E+01  0.16237482350E+02  0.18877673204E+02  0.25060029263E+02  0.51100000000E-03 0.  1.
         12    1    4    4    0    0 -0.42831088196E+01  0.26601408417E+01  0.97154203272E+01  0.10945810276E+02  0.00000000000E+00 0. -1.
</event>
<event>
 8    1  0.6016610E-012  0.9118800E+02  0.7816164E-02  0.1184000E+00
        -11   -1    0    0    0    0  0.00000000000E+00  0.00000000000E+00  0.45593999997E+02  0.45594000000E+02  0.51100000000E-03 0. -1.
         11   -1    0    0    0    0 -0.00000000000E+00 -0.00000000000E+00 -0.45593999997E+02  0.45594000000E+02  0.51100000000E-03 0.  1.
         23    2    1    2    0    0  0.00000000000E+00  0.00000000000E+00 -0.17763568394E-14  0.91188000000E+02  0.91188000000E+02 0.  0.
    9900012    2    3    3    0    0 -0.36269476331E+02 -0.12329036005E+02  0.13626643085E+02  0.50528862726E+02  0.30000008741E+02 0.  0.
        -12    1    3    3    0    0  0.36269476331E+02  0.12329036005E+02 -0.13626643085E+02  0.40659137274E+02  0.00000000000E+00 0.  1.
         11    1    4    4    0    0 -0.17128335283E+02  0.44144446143E+01 -0.31010691406E+01  0.17957834527E+02  0.51100000000E-03 0.  1.
        -11    1    4    4    0    0 -0.35637780819E+01 -0.85164004589E+01  0.16396869273E+01  0.93764686569E+01  0.51100000000E-03 0. -1.
         12    1    4    4    0    0 -0.15577362966E+02 -0.82270801603E+01  0.15088025298E+02  0.23194559542E+02  0.00000000000E+00 0. -1.
</event>
<event>
 8    1  0.6016610E-012  0.9118800E+02  0.7816164E-02  0.1184000E+00
        -11   -1    0    0    0    0  0.00000000000E+00  0.00000000000E+00  0.45593999997E+02  0.45594000000E+02  0.51100000000E-03 0.  1.
         11   -1    0    0    0    0 -0.00000000000E+00 -0.00000000000E+00 -0.45593999997E+02  0.45594000000E+02  0.51100000000E-03 0. -1.
         23    2    1    2    0    0 -0.35527136788E-14  0.00000000000E+00  0.00000000000E+00  0.91188000000E+02  0.91188000000E+02 0.  0.
    9900012    2    3    3    0    0 -0.20843576583E+02 -0.32870661248E+02  0.11757150517E+02  0.50528860265E+02  0.30000001263E+02 0.  0.
        -12    1    3    3    0    0  0.20843576583E+02  0.32870661248E+02 -0.11757150517E+02  0.40659139735E+02  0.00000000000E+00 0.  1.
         11    1    4    4    0    0 -0.16229407892E+02 -0.11303926795E+02 -0.11676628845E+00  0.19778424511E+02  0.51100000000E-03 0. -1.
        -11    1    4    4    0    0 -0.14338434006E+01 -0.23699358304E+02  0.12560170062E+02  0.26860256200E+02  0.51100000000E-03 0.  1.
         12    1    4    4    0    0 -0.31803252899E+01  0.21326238498E+01 -0.68625325574E+00  0.38901795544E+01  0.00000000000E+00 0. -1.
</event>
<event>
 8    1  0.6016610E-012  0.9118800E+02  0.7816164E-02  0.1184000E+00
        -11   -1    0    0    0    0  0.00000000000E+00  0.00000000000E+00  0.45593999997E+02  0.45594000000E+02  0.51100000000E-03 0. -1.
         11   -1    0    0    0    0 -0.00000000000E+00 -0.00000000000E+00 -0.45593999997E+02  0.45594000000E+02  0.51100000000E-03 0.  1.
         23    2    1    2    0    0  0.35527136788E-14 -0.35527136788E-14  0.00000000000E+00  0.91188000000E+02  0.91188000000E+02 0.  0.
    9900012    2    3    3    0    0 -0.21362081521E+02  0.18496467765E+02 -0.29235373204E+02  0.50528869499E+02  0.30000029329E+02 0.  0.
         12    1    3    3    0    0  0.21362081521E+02 -0.18496467765E+02  0.29235373204E+02  0.40659130501E+02  0.00000000000E+00 0. -1.
         11    1    4    4    0    0 -0.10440508578E+02  0.18054074581E+02 -0.60611355480E+01  0.21718452816E+02  0.51100000000E-03 0.  1.
        -11    1    4    4    0    0 -0.13808879895E+02 -0.15591909572E+00 -0.21052634553E+02  0.25177825494E+02  0.51100000000E-03 0. -1.
         12    1    4    4    0    0  0.28873069519E+01  0.59831228045E+00 -0.21216031031E+01  0.36325911890E+01  0.00000000000E+00 0. -1.
</event>
<event>
 8    1  0.6016610E-012  0.9118800E+02  0.7816164E-02  0.1184000E+00
        -11   -1    0    0    0    0  0.00000000000E+00  0.00000000000E+00  0.45593999997E+02  0.45594000000E+02  0.51100000000E-03 0.  1.
         11   -1    0    0    0    0 -0.00000000000E+00 -0.00000000000E+00 -0.45593999997E+02  0.45594000000E+02  0.51100000000E-03 0. -1.
         23    2    1    2    0    0  0.00000000000E+00  0.00000000000E+00  0.17763568394E-14  0.91188000000E+02  0.91188000000E+02 0.  0.
    9900012    2    3    3    0    0  0.38716551596E+02  0.11467388746E+01  0.12364300454E+02  0.50528901347E+02  0.30000126135E+02 0.  0.
        -12    1    3    3    0    0 -0.38716551596E+02 -0.11467388746E+01 -0.12364300454E+02  0.40659098653E+02  0.00000000000E+00 0.  1.
         11    1    4    4    0    0  0.30321435501E+02 -0.73692468367E+00  0.74951182849E+01  0.31242748073E+02  0.51100000000E-03 0. -1.
        -11    1    4    4    0    0 -0.31108021193E+01 -0.33337729350E+01 -0.19158222011E+01  0.49458575369E+01  0.51100000000E-03 0.  1.
        -12    1    4    4    0    0  0.11505918215E+02  0.52174364933E+01  0.67850043700E+01  0.14340295737E+02  0.00000000000E+00 0.  1.
</event>
<event>
 8    1  0.6016610E-012  0.9118800E+02  0.7816164E-02  0.1184000E+00
        -11   -1    0    0    0    0  0.00000000000E+00  0.00000000000E+00  0.45593999997E+02  0.45594000000E+02  0.51100000000E-03 0. -1.
         11   -1    0    0    0    0 -0.00000000000E+00 -0.00000000000E+00 -0.45593999997E+02  0.45594000000E+02  0.51100000000E-03 0.  1.
         23    2    1    2    0    0 -0.88817841970E-15  0.00000000000E+00  0.00000000000E+00  0.91188000000E+02  0.91188000000E+02 0.  0.
    9900012    2    3    3    0    0  0.74846544499E+01  0.12646886306E+02 -0.37910453697E+02  0.50528852382E+02  0.29999977301E+02 0.  0.
         12    1    3    3    0    0 -0.74846544499E+01 -0.12646886306E+02  0.37910453697E+02  0.40659147618E+02  0.00000000000E+00 0. -1.
         11    1    4    4    0    0  0.14546541054E+02  0.14837096526E+02 -0.13472292746E+02  0.24763763083E+02  0.51100000000E-03 0. -1.
        -11    1    4    4    0    0 -0.16068351641E+01 -0.10821887233E+01 -0.11763535715E+02  0.11921989115E+02  0.51100000000E-03 0.  1.
         12    1    4    4    0    0 -0.54550514396E+01 -0.11080214958E+01 -0.12674625236E+02  0.13843100184E+02  0.00000000000E+00 0. -1.
</event>
<event>
 8    1  0.6016610E-012  0.9118800E+02  0.7816164E-02  0.1184000E+00
        -11   -1    0    0    0    0  0.00000000000E+00  0.00000000000E+00  0.45593999997E+02  0.45594000000E+02  0.51100000000E-03 0. -1.
         11   -1    0    0    0    0 -0.00000000000E+00 -0.00000000000E+00 -0.45593999997E+02  0.45594000000E+02  0.51100000000E-03 0.  1.
         23    2    1    2    0    0 -0.35527136788E-14  0.00000000000E+00  0.71054273576E-14  0.91188000000E+02  0.91188000000E+02 0.  0.
    9900012    2    3    3    0    0  0.23228226719E+02  0.16349586348E+02 -0.29091339608E+02  0.50528861661E+02  0.30000005504E+02 0.  0.
         12    1    3    3    0    0 -0.23228226719E+02 -0.16349586348E+02  0.29091339608E+02  0.40659138339E+02  0.00000000000E+00 0. -1.
         11    1    4    4    0    0 -0.54273224467E+01  0.54929012766E+01 -0.33965440157E+01  0.84358938404E+01  0.51100000000E-03 0. -1.
        -11    1    4    4    0    0  0.21689894106E+02  0.78526393211E+01 -0.25663661050E+02  0.34507085495E+02  0.51100000000E-03 0.  1.
         12    1    4    4    0    0  0.69656550603E+01  0.30040457505E+01 -0.31134542276E-01  0.75858823251E+01  0.00000000000E+00 0. -1.
</event>
<event>
 8    1  0.6016610E-012  0.9118800E+02  0.7816164E-02  0.1184000E+00
        -11   -1    0    0    0    0  0.00000000000E+00  0.00000000000E+00  0.45593999997E+02  0.45594000000E+02  0.51100000000E-03 0. -1.
         11   -1    0    0    0    0 -0.00000000000E+00 -0.00000000000E+00 -0.45593999997E+02  0.45594000000E+02  0.51100000000E-03 0.  1.
         23    2    1    2    0    0 -0.71054273576E-14  0.10963452368E-14 -0.35527136788E-14  0.91188000000E+02  0.91188000000E+02 0.  0.
    9900012    2    3    3    0    0  0.28197151013E+02 -0.10502138083E+00  0.29292892872E+02  0.50528881373E+02  0.30000065420E+02 0.  0.
        -12    1    3    3    0    0 -0.28197151013E+02  0.10502138083E+00 -0.29292892872E+02  0.40659118627E+02  0.00000000000E+00 0.  1.
         11    1    4    4    0    0  0.26321586557E+02 -0.40246611871E+01  0.75684105250E+01  0.27682208270E+02  0.51100000000E-03 0. -1.
        -11    1    4    4    0    0 -0.19199513544E+00  0.40885302714E+01  0.18923882026E+02  0.19361463093E+02  0.51100000000E-03 0.  1.
        -12    1    4    4    0    0  0.20675595908E+01 -0.16889046508E+00  0.28006003217E+01  0.34852100098E+01  0.00000000000E+00 0.  1.
</event>
<event>
 8    1  0.6016610E-012  0.9118800E+02  0.7816164E-02  0.1184000E+00
        -11   -1    0    0    0    0  0.00000000000E+00  0.00000000000E+00  0.45593999997E+02  0.45594000000E+02  0.51100000000E-03 0. -1.
         11   -1    0    0    0    0 -0.00000000000E+00 -0.00000000000E+00 -0.45593999997E+02  0.45594000000E+02  0.51100000000E-03 0.  1.
         23    2    1    2    0    0  0.00000000000E+00  0.00000000000E+00  0.35527136788E-14  0.91188000000E+02  0.91188000000E+02 0.  0.
    9900012    2    3    3    0    0 -0.26077156960E+02 -0.16332460035E+02  0.26578130825E+02  0.50528875513E+02  0.30000047608E+02 0.  0.
        -12    1    3    3    0    0  0.26077156960E+02  0.16332460035E+02 -0.26578130825E+02  0.40659124487E+02  0.00000000000E+00 0.  1.
         11    1    4    4    0    0 -0.59677086066E+01 -0.20869012369E+02  0.14414790325E+02  0.26056005136E+02  0.51100000000E-03 0. -1.
        -11    1    4    4    0    0 -0.14912027291E+02  0.36037423672E+01  0.11452898125E+02  0.19144826787E+02  0.51100000000E-03 0.  1.
         12    1    4    4    0    0 -0.51974210618E+01  0.93280996607E+00  0.71044237505E+00  0.53280435898E+01  0.00000000000E+00 0. -1.
</event>
<event>
 8    1  0.6016610E-012  0.9118800E+02  0.7816164E-02  0.1184000E+00
        -11   -1    0    0    0    0  0.00000000000E+00  0.00000000000E+00  0.45593999997E+02  0.45594000000E+02  0.51100000000E-03 0.  1.
         11   -1    0    0    0    0 -0.00000000000E+00 -0.00000000000E+00 -0.45593999997E+02  0.45594000000E+02  0.51100000000E-03 0. -1.
         23    2    1    2    0    0  0.00000000000E+00  0.00000000000E+00  0.11102230246E-15  0.91188000000E+02  0.91188000000E+02 0.  0.
    9900012    2    3    3    0    0  0.31682362985E+02  0.25465797852E+02  0.94188021399E+00  0.50528854376E+02  0.29999983362E+02 0.  0.
         12    1    3    3    0    0 -0.31682362985E+02 -0.25465797852E+02 -0.94188021399E+00  0.40659145624E+02  0.00000000000E+00 0. -1.
         11    1    4    4    0    0 -0.18863116948E+00  0.34829480518E+01 -0.85131784197E+01  0.92000389084E+01  0.51100000000E-03 0. -1.
        -11    1    4    4    0    0  0.18253544547E+02  0.62586086523E+01  0.28615751812E+01  0.19507708312E+02  0.51100000000E-03 0.  1.
         12    1    4    4    0    0  0.13617449607E+02  0.15724241148E+02  0.65934834525E+01  0.21821107156E+02  0.00000000000E+00 0. -1.
</event>
<event>
 8    1  0.6016610E-012  0.9118800E+02  0.7816164E-02  0.1184000E+00
        -11   -1    0    0    0    0  0.00000000000E+00  0.00000000000E+00  0.45593999997E+02  0.45594000000E+02  0.51100000000E-03 0. -1.
         11   -1    0    0    0    0 -0.00000000000E+00 -0.00000000000E+00 -0.45593999997E+02  0.45594000000E+02  0.51100000000E-03 0.  1.
         23    2    1    2    0    0  0.00000000000E+00  0.35527136788E-14  0.00000000000E+00  0.91188000000E+02  0.91188000000E+02 0.  0.
    9900012    2    3    3    0    0  0.20583060677E+02 -0.28622845046E+02  0.20254284109E+02  0.50528859944E+02  0.30000000286E+02 0.  0.
        -12    1    3    3    0    0 -0.20583060677E+02  0.28622845046E+02 -0.20254284109E+02  0.40659140056E+02  0.00000000000E+00 0.  1.
         11    1    4    4    0    0 -0.39027276435E+01  0.31173511813E+01  0.35503203149E+01  0.61281266344E+01  0.51100000000E-03 0.  1.
        -11    1    4    4    0    0  0.19235925729E+02 -0.19711676990E+02  0.81035962087E+01  0.28709568443E+02  0.51100000000E-03 0. -1.
        -12    1    4    4    0    0  0.52498625912E+01 -0.12028519237E+02  0.86003675851E+01  0.15691164866E+02  0.00000000000E+00 0.  1.
</event>
<event>
 8    1  0.6016610E-012  0.9118800E+02  0.7816164E-02  0.1184000E+00
        -11   -1    0    0    0    0  0.00000000000E+00  0.00000000000E+00  0.45593999997E+02  0.45594000000E+02  0.51100000000E-03 0. -1.
         11   -1    0    0    0    0 -0.00000000000E+00 -0.00000000000E+00 -0.45593999997E+02  0.45594000000E+02  0.51100000000E-03 0.  1.
         23    2    1    2    0    0  0.17763568394E-14  0.35527136788E-14  0.00000000000E+00  0.91188000000E+02  0.91188000000E+02 0.  0.
    9900012    2    3    3    0    0  0.14975643674E+02  0.30747941289E+02 -0.21987758774E+02  0.50528839496E+02  0.29999938133E+02 0.  0.
         12    1    3    3    0    0 -0.14975643674E+02 -0.30747941289E+02  0.21987758774E+02  0.40659160504E+02  0.00000000000E+00 0. -1.
         11    1    4    4    0    0  0.14039756195E+02  0.89511834076E+01 -0.19481617691E+02  0.25627560682E+02  0.51100000000E-03 0. -1.
        -11    1    4    4    0    0  0.46165927167E+01  0.11843900963E+02 -0.55368377938E+01  0.13865334160E+02  0.51100000000E-03 0.  1.
         12    1    4    4    0    0 -0.36807052380E+01  0.99528569176E+01  0.30306967101E+01  0.11035944655E+02  0.00000000000E+00 0. -1.
</event>
<event>
 8    1  0.6016610E-012  0.9118800E+02  0.7816164E-02  0.1184000E+00
        -11   -1    0    0    0    0  0.00000000000E+00  0.00000000000E+00  0.45593999997E+02  0.45594000000E+02  0.51100000000E-03 0.  1.
         11   -1    0    0    0    0 -0.00000000000E+00 -0.00000000000E+00 -0.45593999997E+02  0.45594000000E+02  0.51100000000E-03 0. -1.
         23    2    1    2    0    0  0.00000000000E+00  0.00000000000E+00  0.00000000000E+00  0.91188000000E+02  0.91188000000E+02 0.  0.
    9900012    2    3    3    0    0  0.32735384298E+02  0.18669956116E+02  0.15264117917E+02  0.50528856597E+02  0.29999990112E+02 0.  0.
        -12    1    3    3    0    0 -0.32735384298E+02 -0.18669956116E+02 -0.15264117917E+02  0.40659143403E+02  0.00000000000E+00 0.  1.
         11    1    4    4    0    0  0.26718360613E+02  0.18387397720E+01  0.11379790871E+02  0.29098993081E+02  0.51100000000E-03 0. -1.
        -11    1    4    4    0    0  0.83694641561E+01  0.15023088466E+02  0.89857390165E+00  0.17220585142E+02  0.51100000000E-03 0.  1.
         12    1    4    4    0    0 -0.23524404711E+01  0.18081278781E+01  0.29857531444E+01  0.42092783743E+01  0.00000000000E+00 0. -1.
</event>
<event>
 8    1  0.6016610E-012  0.9118800E+02  0.7816164E-02  0.1184000E+00
        -11   -1    0    0    0    0  0.00000000000E+00  0.00000000000E+00  0.45593999997E+02  0.45594000000E+02  0.51100000000E-03 0. -1.
         11   -1    0    0    0    0 -0.00000000000E+00 -0.00000000000E+00 -0.45593999997E+02  0.45594000000E+02  0.51100000000E-03 0.  1.
         23    2    1    2    0    0  0.00000000000E+00  0.00000000000E+00  0.00000000000E+00  0.91188000000E+02  0.91188000000E+02 0.  0.
    9900012    2    3    3    0    0 -0.18511369371E+02  0.54517486616E+01  0.35787895172E+02  0.50528858343E+02  0.29999995420E+02 0.  0.
        -12    1    3    3    0    0  0.18511369371E+02 -0.54517486616E+01 -0.35787895172E+02  0.40659141657E+02  0.00000000000E+00 0.  1.
         11    1    4    4    0    0  0.39999532470E+01  0.59271618247E+01  0.14910854886E+02  0.16536761079E+02  0.51100000000E-03 0. -1.
        -11    1    4    4    0    0 -0.68962187462E+01 -0.70218055511E+00 -0.11132606184E+01  0.70207008192E+01  0.51100000000E-03 0.  1.
         12    1    4    4    0    0 -0.15615103872E+02  0.22676739207E+00  0.21990300904E+02  0.26971396446E+02  0.00000000000E+00 0. -1.
</event>
<event>
 8    1  0.6016610E-012  0.9118800E+02  0.7816164E-02  0.1184000E+00
        -11   -1    0    0    0    0  0.00000000000E+00  0.00000000000E+00  0.45593999997E+02  0.45594000000E+02  0.51100000000E-03 0. -1.
         11   -1    0    0    0    0 -0.00000000000E+00 -0.00000000000E+00 -0.45593999997E+02  0.45594000000E+02  0.51100000000E-03 0.  1.
         23    2    1    2    0    0 -0.44408920985E-15 -0.88817841970E-15  0.00000000000E+00  0.91188000000E+02  0.91188000000E+02 0.  0.
    9900012    2    3    3    0    0 -0.14391846807E+01 -0.77208250849E+01 -0.39893397536E+02  0.50528861304E+02  0.30000004421E+02 0.  0.
         12    1    3    3    0    0  0.14391846807E+01  0.77208250849E+01  0.39893397536E+02  0.40659138696E+02  0.00000000000E+00 0. -1.
         11    1    4    4    0    0  0.28419571383E+01 -0.68211964282E+01 -0.34494466360E+01  0.81550060358E+01  0.51100000000E-03 0. -1.
        -11    1    4    4    0    0  0.48789653863E+01  0.76151496118E+01 -0.13648087064E+02  0.16372693353E+02  0.51100000000E-03 0.  1.
        -12    1    4    4    0    0 -0.91601072054E+01 -0.85147782686E+01 -0.22795863835E+02  0.26001161916E+02  0.00000000000E+00 0.  1.
</event>
<event>
 8    1  0.6016610E-012  0.9118800E+02  0.7816164E-02  0.1184000E+00
        -11   -1    0    0    0    0  0.00000000000E+00  0.00000000000E+00  0.45593999997E+02  0.45594000000E+02  0.51100000000E-03 0. -1.
         11   -1    0    0    0    0 -0.00000000000E+00 -0.00000000000E+00 -0.45593999997E+02  0.45594000000E+02  0.51100000000E-03 0.  1.
         23    2    1    2    0    0 -0.17763568394E-14  0.17763568394E-14  0.00000000000E+00  0.91188000000E+02  0.91188000000E+02 0.  0.
    9900012    2    3    3    0    0 -0.15660719057E+02  0.15020632643E+02 -0.34384401808E+02  0.50528872930E+02  0.30000039757E+02 0.  0.
         12    1    3    3    0    0  0.15660719057E+02 -0.15020632643E+02  0.34384401808E+02  0.40659127070E+02  0.00000000000E+00 0. -1.
         11    1    4    4    0    0 -0.81482718991E+01  0.25339120013E+01  0.49061177206E+00  0.85472653605E+01  0.51100000000E-03 0. -1.
        -11    1    4    4    0    0 -0.32466276052E+01  0.16120443043E+02 -0.31235776851E+02  0.35299901281E+02  0.51100000000E-03 0.  1.
        -12    1    4    4    0    0 -0.42658195531E+01 -0.36337224013E+01 -0.36392367299E+01  0.66817062885E+01  0.00000000000E+00 0.  1.
</event>
<event>
 8    1  0.6016610E-012  0.9118800E+02  0.7816164E-02  0.1184000E+00
        -11   -1    0    0    0    0  0.00000000000E+00  0.00000000000E+00  0.45593999997E+02  0.45594000000E+02  0.51100000000E-03 0.  1.
         11   -1    0    0    0    0 -0.00000000000E+00 -0.00000000000E+00 -0.45593999997E+02  0.45594000000E+02  0.51100000000E-03 0. -1.
         23    2    1    2    0    0 -0.17763568394E-14  0.00000000000E+00  0.44408920985E-15  0.91188000000E+02  0.91188000000E+02 0.  0.
    9900012    2    3    3    0    0 -0.12794119595E+02 -0.38495647022E+02  0.27498352287E+01  0.50528856753E+02  0.29999990585E+02 0.  0.
         12    1    3    3    0    0  0.12794119595E+02  0.38495647022E+02 -0.27498352287E+01  0.40659143247E+02  0.00000000000E+00 0. -1.
         11    1    4    4    0    0  0.15005241967E+01 -0.44667211901E+01  0.95173719830E+01  0.10619959547E+02  0.51100000000E-03 0. -1.
        -11    1    4    4    0    0 -0.99615165696E+01 -0.18832387299E+02  0.27194548013E+01  0.21477571055E+02  0.51100000000E-03 0.  1.
         12    1    4    4    0    0 -0.43331272219E+01 -0.15196538532E+02 -0.94869915555E+01  0.18431326150E+02  0.00000000000E+00 0. -1.
</event>
<event>
 8    1  0.6016610E-012  0.9118800E+02  0.7816164E-02  0.1184000E+00
        -11   -1    0    0    0    0  0.00000000000E+00  0.00000000000E+00  0.45593999997E+02  0.45594000000E+02  0.51100000000E-03 0. -1.
         11   -1    0    0    0    0 -0.00000000000E+00 -0.00000000000E+00 -0.45593999997E+02  0.45594000000E+02  0.51100000000E-03 0.  1.
         23    2    1    2    0    0  0.00000000000E+00  0.00000000000E+00 -0.71054273576E-14  0.91188000000E+02  0.91188000000E+02 0.  0.
    9900012    2    3    3    0    0 -0.15163617137E+02  0.22696565984E+02 -0.30134635607E+02  0.50528860126E+02  0.30000000839E+02 0.  0.
         12    1    3    3    0    0  0.15163617137E+02 -0.22696565984E+02  0.30134635607E+02  0.40659139874E+02  0.00000000000E+00 0. -1.
         11    1    4    4    0    0 -0.10396479681E+02  0.22171561176E+02 -0.76293904980E+01  0.25649025602E+02  0.51100000000E-03 0. -1.
        -11    1    4    4    0    0  0.26956007987E+01  0.89022396344E+00 -0.91055765389E+01  0.95378344889E+01  0.51100000000E-03 0.  1.
         12    1    4    4    0    0 -0.74627382548E+01 -0.36521915486E+00 -0.13399668570E+02  0.15342000035E+02  0.00000000000E+00 0. -1.
</event>
<event>
 8    1  0.6016610E-012  0.9118800E+02  0.7816164E-02  0.1184000E+00
        -11   -1    0    0    0    0  0.00000000000E+00  0.00000000000E+00  0.45593999997E+02  0.45594000000E+02  0.51100000000E-03 0. -1.
         11   -1    0    0    0    0 -0.00000000000E+00 -0.00000000000E+00 -0.45593999997E+02  0.45594000000E+02  0.51100000000E-03 0.  1.
         23    2    1    2    0    0  0.00000000000E+00  0.88817841970E-15 -0.35527136788E-14  0.91188000000E+02  0.91188000000E+02 0.  0.
    9900012    2    3    3    0    0  0.28713516636E+02 -0.40695839747E+01  0.28498009545E+02  0.50528879260E+02  0.30000058997E+02 0.  0.
        -12    1    3    3    0    0 -0.28713516636E+02  0.40695839747E+01 -0.28498009545E+02  0.40659120740E+02  0.00000000000E+00 0.  1.
         11    1    4    4    0    0  0.12962575554E+02  0.74144602184E+01  0.80265778427E+01  0.16953717511E+02  0.51100000000E-03 0. -1.
        -11    1    4    4    0    0  0.16032665522E+02 -0.15448671314E+02  0.19206700083E+02  0.29404168709E+02  0.51100000000E-03 0.  1.
        -12    1    4    4    0    0 -0.28172443989E+00  0.39646271207E+01  0.12647316189E+01  0.41709930394E+01  0.00000000000E+00 0.  1.
</event>
<event>
 8    1  0.6016610E-012  0.9118800E+02  0.7816164E-02  0.1184000E+00
        -11   -1    0    0    0    0  0.00000000000E+00  0.00000000000E+00  0.45593999997E+02  0.45594000000E+02  0.51100000000E-03 0. -1.
         11   -1    0    0    0    0 -0.00000000000E+00 -0.00000000000E+00 -0.45593999997E+02  0.45594000000E+02  0.51100000000E-03 0.  1.
         23    2    1    2    0    0  0.00000000000E+00 -0.17763568394E-14 -0.35527136788E-14  0.91188000000E+02  0.91188000000E+02 0.  0.
    9900012    2    3    3    0    0  0.30600718542E+02  0.85741514427E+01 -0.25362254169E+02  0.50528880669E+02  0.30000063282E+02 0.  0.
         12    1    3    3    0    0 -0.30600718542E+02 -0.85741514427E+01  0.25362254169E+02  0.40659119331E+02  0.00000000000E+00 0. -1.
         11    1    4    4    0    0  0.22691431440E+02 -0.80948258763E+01 -0.13272284591E+02  0.27506013984E+02  0.51100000000E-03 0. -1.
        -11    1    4    4    0    0  0.23308017995E+01  0.71808767007E+01 -0.13978433781E+01  0.76779941124E+01  0.51100000000E-03 0.  1.
         12    1    4    4    0    0  0.55784853027E+01  0.94881006183E+01 -0.10692126199E+02  0.15344872573E+02  0.00000000000E+00 0. -1.
</event>
<event>
 8    1  0.6016610E-012  0.9118800E+02  0.7816164E-02  0.1184000E+00
        -11   -1    0    0    0    0  0.00000000000E+00  0.00000000000E+00  0.45593999997E+02  0.45594000000E+02  0.51100000000E-03 0. -1.
         11   -1    0    0    0    0 -0.00000000000E+00 -0.00000000000E+00 -0.45593999997E+02  0.45594000000E+02  0.51100000000E-03 0.  1.
         23    2    1    2    0    0  0.00000000000E+00  0.00000000000E+00  0.00000000000E+00  0.91188000000E+02  0.91188000000E+02 0.  0.
    9900012    2    3    3    0    0 -0.20823785267E+02 -0.19448570729E+02  0.29004982657E+02  0.50528856438E+02  0.29999989630E+02 0.  0.
        -12    1    3    3    0    0  0.20823785267E+02  0.19448570729E+02 -0.29004982657E+02  0.40659143562E+02  0.00000000000E+00 0.  1.
         11    1    4    4    0    0 -0.13256598108E+02 -0.13340508481E+01  0.12755452465E+01  0.13384472384E+02  0.51100000000E-03 0. -1.
        -11    1    4    4    0    0 -0.77866634754E+01 -0.20198320657E+02  0.21248710738E+02  0.30333347882E+02  0.51100000000E-03 0.  1.
        -12    1    4    4    0    0  0.21947631682E+00  0.20838007765E+01  0.64807266724E+01  0.68110361717E+01  0.00000000000E+00 0.  1.
</event>
<event>
 8    1  0.6016610E-012  0.9118800E+02  0.7816164E-02  0.1184000E+00
        -11   -1    0    0    0    0  0.00000000000E+00  0.00000000000E+00  0.45593999997E+02  0.45594000000E+02  0.51100000000E-03 0. -1.
         11   -1    0    0    0    0 -0.00000000000E+00 -0.00000000000E+00 -0.45593999997E+02  0.45594000000E+02  0.51100000000E-03 0.  1.
         23    2    1    2    0    0  0.88817841970E-15  0.00000000000E+00  0.00000000000E+00  0.91188000000E+02  0.91188000000E+02 0.  0.
    9900012    2    3    3    0    0 -0.19510182699E+01 -0.24645011161E+02 -0.32279757845E+02  0.50528858176E+02  0.29999994910E+02 0.  0.
         12    1    3    3    0    0  0.19510182699E+01  0.24645011161E+02  0.32279757845E+02  0.40659141824E+02  0.00000000000E+00 0. -1.
         11    1    4    4    0    0  0.64649120770E+01 -0.11815077495E+02 -0.90802879326E+00  0.13498728122E+02  0.51100000000E-03 0. -1.
        -11    1    4    4    0    0 -0.81143164364E+01 -0.31534996863E+01 -0.21536937365E+02  0.23229859294E+02  0.51100000000E-03 0.  1.
        -12    1    4    4    0    0 -0.30161391050E+00 -0.96764339795E+01 -0.98347916864E+01  0.13800270759E+02  0.00000000000E+00 0.  1.
</event>
<event>
 8    1  0.6016610E-012  0.9118800E+02  0.7816164E-02  0.1184000E+00
        -11   -1    0    0    0    0  0.00000000000E+00  0.00000000000E+00  0.45593999997E+02  0.45594000000E+02  0.51100000000E-03 0. -1.
         11   -1    0    0    0    0 -0.00000000000E+00 -0.00000000000E+00 -0.45593999997E+02  0.45594000000E+02  0.51100000000E-03 0.  1.
         23    2    1    2    0    0  0.88817841970E-15  0.17763568394E-14  0.00000000000E+00  0.91188000000E+02  0.91188000000E+02 0.  0.
    9900012    2    3    3    0    0  0.62562340590E+01 -0.14843671811E+02 -0.37332104284E+02  0.50528916542E+02  0.30000172320E+02 0.  0.
         12    1    3    3    0    0 -0.62562340590E+01  0.14843671811E+02  0.37332104284E+02  0.40659083458E+02  0.00000000000E+00 0. -1.
         11    1    4    4    0    0 -0.23063386761E+01 -0.10218896128E+00 -0.15673036181E+01  0.27903550966E+01  0.51100000000E-03 0. -1.
        -11    1    4    4    0    0  0.12157559660E+02  0.32359185581E+01 -0.97689925682E+01  0.15928296891E+02  0.51100000000E-03 0.  1.
        -12    1    4    4    0    0 -0.35949869246E+01 -0.17977401408E+02 -0.25995808097E+02  0.31810264554E+02  0.00000000000E+00 0.  1.
</event>
<event>
 8    1  0.6016610E-012  0.9118800E+02  0.7816164E-02  0.1184000E+00
        -11   -1    0    0    0    0  0.00000000000E+00  0.00000000000E+00  0.45593999997E+02  0.45594000000E+02  0.51100000000E-03 0.  1.
         11   -1    0    0    0    0 -0.00000000000E+00 -0.00000000000E+00 -0.45593999997E+02  0.45594000000E+02  0.51100000000E-03 0. -1.
         23    2    1    2    0    0  0.00000000000E+00  0.00000000000E+00  0.00000000000E+00  0.91188000000E+02  0.91188000000E+02 0.  0.
    9900012    2    3    3    0    0  0.17951225945E+02 -0.32306188078E+02  0.16947841944E+02  0.50528860221E+02  0.30000001128E+02 0.  0.
        -12    1    3    3    0    0 -0.17951225945E+02  0.32306188078E+02 -0.16947841944E+02  0.40659139779E+02  0.00000000000E+00 0.  1.
         11    1    4    4    0    0  0.37349402002E+00 -0.14464362619E+02 -0.44300194467E+01  0.15132162975E+02  0.51100000000E-03 0. -1.
        -11    1    4    4    0    0  0.60999450831E+01 -0.15141394329E+02  0.10954505546E+02  0.19658899874E+02  0.51100000000E-03 0.  1.
         12    1    4    4    0    0  0.11477786841E+02 -0.27004311304E+01  0.10423355845E+02  0.15737797372E+02  0.00000000000E+00 0. -1.
</event>
<event>
 8    1  0.6016610E-012  0.9118800E+02  0.7816164E-02  0.1184000E+00
        -11   -1    0    0    0    0  0.00000000000E+00  0.00000000000E+00  0.45593999997E+02  0.45594000000E+02  0.51100000000E-03 0. -1.
         11   -1    0    0    0    0 -0.00000000000E+00 -0.00000000000E+00 -0.45593999997E+02  0.45594000000E+02  0.51100000000E-03 0.  1.
         23    2    1    2    0    0  0.35527136788E-14 -0.13322676296E-14  0.00000000000E+00  0.91188000000E+02  0.91188000000E+02 0.  0.
    9900012    2    3    3    0    0  0.26024000768E+02  0.15328727072E+01 -0.31202032842E+02  0.50528866116E+02  0.30000019047E+02 0.  0.
         12    1    3    3    0    0 -0.26024000768E+02 -0.15328727072E+01  0.31202032842E+02  0.40659133884E+02  0.00000000000E+00 0. -1.
         11    1    4    4    0    0  0.29549083297E+01 -0.11722980207E+02 -0.11525238851E+02  0.16703020057E+02  0.51100000000E-03 0. -1.
        -11    1    4    4    0    0  0.12879090497E+02  0.62722025825E+01 -0.14646959501E+02  0.20487677276E+02  0.51100000000E-03 0.  1.
         12    1    4    4    0    0  0.10190001941E+02  0.69836503316E+01 -0.50298344893E+01  0.13338168784E+02  0.00000000000E+00 0. -1.
</event>
<event>
 8    1  0.6016610E-012  0.9118800E+02  0.7816164E-02  0.1184000E+00
        -11   -1    0    0    0    0  0.00000000000E+00  0.00000000000E+00  0.45593999997E+02  0.45594000000E+02  0.51100000000E-03 0.  1.
         11   -1    0    0    0    0 -0.00000000000E+00 -0.00000000000E+00 -0.45593999997E+02  0.45594000000E+02  0.51100000000E-03 0. -1.
         23    2    1    2    0    0  0.00000000000E+00  0.00000000000E+00  0.35527136788E-14  0.91188000000E+02  0.91188000000E+02 0.  0.
    9900012    2    3    3    0    0 -0.22025466783E+02  0.29766735168E+02 -0.16792450158E+02  0.50528854757E+02  0.29999984520E+02 0.  0.
         12    1    3    3    0    0  0.22025466783E+02 -0.29766735168E+02  0.16792450158E+02  0.40659145243E+02  0.00000000000E+00 0. -1.
         11    1    4    4    0    0 -0.21961798044E+02  0.89293862336E+01 -0.33285676207E+01  0.23940214588E+02  0.51100000000E-03 0. -1.
        -11    1    4    4    0    0  0.42262989054E+01  0.80029744526E+01 -0.76888976293E+01  0.11875535758E+02  0.51100000000E-03 0.  1.
        -12    1    4    4    0    0 -0.42899676443E+01  0.12834374482E+02 -0.57749849085E+01  0.14713104411E+02  0.00000000000E+00 0.  1.
</event>
<event>
 8    1  0.6016610E-012  0.9118800E+02  0.7816164E-02  0.1184000E+00
        -11   -1    0    0    0    0  0.00000000000E+00  0.00000000000E+00  0.45593999997E+02  0.45594000000E+02  0.51100000000E-03 0. -1.
         11   -1    0    0    0    0 -0.00000000000E+00 -0.00000000000E+00 -0.45593999997E+02  0.45594000000E+02  0.51100000000E-03 0.  1.
         23    2    1    2    0    0 -0.35527136788E-14  0.17763568394E-14  0.00000000000E+00  0.91188000000E+02  0.91188000000E+02 0.  0.
    9900012    2    3    3    0    0 -0.27301378555E+02  0.13822971000E+02  0.26771728936E+02  0.50528864882E+02  0.30000015296E+02 0.  0.
        -12    1    3    3    0    0  0.27301378555E+02 -0.13822971000E+02 -0.26771728936E+02  0.40659135118E+02  0.00000000000E+00 0.  1.
         11    1    4    4    0    0 -0.16712479565E+02 -0.48202916379E+01  0.73883299675E+01  0.18897873019E+02  0.51100000000E-03 0. -1.
        -11    1    4    4    0    0 -0.94541122288E+01  0.15550311075E+02  0.21142519353E+02  0.27896210090E+02  0.51100000000E-03 0.  1.
        -12    1    4    4    0    0 -0.11347867618E+01  0.30929515630E+01 -0.17591203840E+01  0.37347817729E+01  0.00000000000E+00 0.  1.
</event>
<event>
 8    1  0.6016610E-012  0.9118800E+02  0.7816164E-02  0.1184000E+00
        -11   -1    0    0    0    0  0.00000000000E+00  0.00000000000E+00  0.45593999997E+02  0.45594000000E+02  0.51100000000E-03 0. -1.
         11   -1    0    0    0    0 -0.00000000000E+00 -0.00000000000E+00 -0.45593999997E+02  0.45594000000E+02  0.51100000000E-03 0.  1.
         23    2    1    2    0    0 -0.17763568394E-14 -0.88817841970E-15  0.00000000000E+00  0.91188000000E+02  0.91188000000E+02 0.  0.
    9900012    2    3    3    0    0 -0.96108192079E+01 -0.21953015675E+01  0.39445849011E+02  0.50528902629E+02  0.30000130031E+02 0.  0.
        -12    1    3    3    0    0  0.96108192079E+01  0.21953015675E+01 -0.39445849011E+02  0.40659097371E+02  0.00000000000E+00 0.  1.
         11    1    4    4    0    0 -0.11831691567E+02 -0.80517123678E+01  0.34354539033E+02  0.37216304892E+02  0.51100000000E-03 0. -1.
        -11    1    4    4    0    0  0.50407401031E-01  0.86038961939E+01  0.25103630214E+01  0.89627837965E+01  0.51100000000E-03 0.  1.
        -12    1    4    4    0    0  0.21704649582E+01 -0.27474853936E+01  0.25809469571E+01  0.43498139406E+01  0.00000000000E+00 0.  1.
</event>
<event>
 8    1  0.6016610E-012  0.9118800E+02  0.7816164E-02  0.1184000E+00
        -11   -1    0    0    0    0  0.00000000000E+00  0.00000000000E+00  0.45593999997E+02  0.45594000000E+02  0.51100000000E-03 0. -1.
         11   -1    0    0    0    0 -0.00000000000E+00 -0.00000000000E+00 -0.45593999997E+02  0.45594000000E+02  0.51100000000E-03 0.  1.
         23    2    1    2    0    0 -0.17763568394E-14  0.17763568394E-14  0.00000000000E+00  0.91188000000E+02  0.91188000000E+02 0.  0.
    9900012    2    3    3    0    0  0.95433818417E+01 -0.12562828368E+02  0.37473522034E+02  0.50528860225E+02  0.30000001141E+02 0.  0.
        -12    1    3    3    0    0 -0.95433818417E+01  0.12562828368E+02 -0.37473522034E+02  0.40659139775E+02  0.00000000000E+00 0.  1.
         11    1    4    4    0    0  0.91100225001E+01  0.17763363451E+01  0.31324710349E+02  0.32670864076E+02  0.51100000000E-03 0. -1.
        -11    1    4    4    0    0  0.26847092980E+01 -0.14258043487E+02  0.54643339905E+01  0.15503496841E+02  0.51100000000E-03 0.  1.
         12    1    4    4    0    0 -0.22513499564E+01 -0.81121226134E-01  0.68447769502E+00  0.23544993087E+01  0.00000000000E+00 0. -1.
</event>
<event>
 8    1  0.6016610E-012  0.9118800E+02  0.7816164E-02  0.1184000E+00
        -11   -1    0    0    0    0  0.00000000000E+00  0.00000000000E+00  0.45593999997E+02  0.45594000000E+02  0.51100000000E-03 0. -1.
         11   -1    0    0    0    0 -0.00000000000E+00 -0.00000000000E+00 -0.45593999997E+02  0.45594000000E+02  0.51100000000E-03 0.  1.
         23    2    1    2    0    0 -0.22204460493E-14  0.00000000000E+00  0.00000000000E+00  0.91188000000E+02  0.91188000000E+02 0.  0.
    9900012    2    3    3    0    0 -0.35744437925E+01  0.17068769805E+02  0.36729363095E+02  0.50528860013E+02  0.30000000496E+02 0.  0.
        -12    1    3    3    0    0  0.35744437925E+01 -0.17068769805E+02 -0.36729363095E+02  0.40659139987E+02  0.00000000000E+00 0.  1.
         11    1    4    4    0    0 -0.64666272271E+01  0.11430148522E+02  0.27218732311E+02  0.30221266549E+02  0.51100000000E-03 0. -1.
        -11    1    4    4    0    0  0.90603706551E+01 -0.47631439412E+00  0.34052044420E+01  0.96908518389E+01  0.51100000000E-03 0.  1.
        -12    1    4    4    0    0 -0.61681872206E+01  0.61149356772E+01  0.61054263425E+01  0.10616741626E+02  0.00000000000E+00 0.  1.
</event>
<event>
 8    1  0.6016610E-012  0.9118800E+02  0.7816164E-02  0.1184000E+00
        -11   -1    0    0    0    0  0.00000000000E+00  0.00000000000E+00  0.45593999997E+02  0.45594000000E+02  0.51100000000E-03 0. -1.
         11   -1    0    0    0    0 -0.00000000000E+00 -0.00000000000E+00 -0.45593999997E+02  0.45594000000E+02  0.51100000000E-03 0.  1.
         23    2    1    2    0    0  0.13322676296E-14  0.00000000000E+00 -0.71054273576E-14  0.91188000000E+02  0.91188000000E+02 0.  0.
    9900012    2    3    3    0    0 -0.23660266083E+01 -0.17530232465E+02  0.36609542254E+02  0.50528859376E+02  0.29999998560E+02 0.  0.
        -12    1    3    3    0    0  0.23660266083E+01  0.17530232465E+02 -0.36609542254E+02  0.40659140624E+02  0.00000000000E+00 0.  1.
         11    1    4    4    0    0 -0.11528836729E+02 -0.13367605548E+02  0.32465166237E+02  0.36953943950E+02  0.51100000000E-03 0. -1.
        -11    1    4    4    0    0  0.36491735651E+01  0.23105607211E+01  0.22221439929E+01  0.48572711207E+01  0.51100000000E-03 0.  1.
         12    1    4    4    0    0  0.55136365557E+01 -0.64731876389E+01  0.19222320239E+01  0.87176443051E+01  0.00000000000E+00 0. -1.
</event>
<event>
 8    1  0.6016610E-012  0.9118800E+02  0.7816164E-02  0.1184000E+00
        -11   -1    0    0    0    0  0.00000000000E+00  0.00000000000E+00  0.45593999997E+02  0.45594000000E+02  0.51100000000E-03 0. -1.
         11   -1    0    0    0    0 -0.00000000000E+00 -0.00000000000E+00 -0.45593999997E+02  0.45594000000E+02  0.51100000000E-03 0.  1.
         23    2    1    2    0    0  0.35527136788E-14 -0.17763568394E-14 -0.35527136788E-14  0.91188000000E+02  0.91188000000E+02 0.  0.
    9900012    2    3    3    0    0  0.30868310984E+02 -0.10454276643E+02 -0.24310839124E+02  0.50528912184E+02  0.30000159073E+02 0.  0.
         12    1    3    3    0    0 -0.30868310984E+02  0.10454276643E+02  0.24310839124E+02  0.40659087816E+02  0.00000000000E+00 0. -1.
         11    1    4    4    0    0  0.64236822651E+01  0.44365941451E+01  0.26088205587E+01  0.82312214416E+01  0.51100000000E-03 0. -1.
        -11    1    4    4    0    0  0.16398434178E+02 -0.74511490851E+01 -0.25540109833E+02  0.31252607519E+02  0.51100000000E-03 0.  1.
        -12    1    4    4    0    0  0.80461945416E+01 -0.74397217030E+01 -0.13795498491E+01  0.11045083223E+02  0.00000000000E+00 0.  1.
</event>
<event>
 8    1  0.6016610E-012  0.9118800E+02  0.7816164E-02  0.1184000E+00
        -11   -1    0    0    0    0  0.00000000000E+00  0.00000000000E+00  0.45593999997E+02  0.45594000000E+02  0.51100000000E-03 0. -1.
         11   -1    0    0    0    0 -0.00000000000E+00 -0.00000000000E+00 -0.45593999997E+02  0.45594000000E+02  0.51100000000E-03 0.  1.
         23    2    1    2    0    0  0.00000000000E+00  0.88817841970E-15  0.00000000000E+00  0.91188000000E+02  0.91188000000E+02 0.  0.
    9900012    2    3    3    0    0  0.36999313934E+02  0.57958682824E+01  0.15831112726E+02  0.50528862640E+02  0.30000008480E+02 0.  0.
        -12    1    3    3    0    0 -0.36999313934E+02 -0.57958682824E+01 -0.15831112726E+02  0.40659137360E+02  0.00000000000E+00 0.  1.
         11    1    4    4    0    0  0.15231873292E+02  0.12286067540E+01  0.21875980047E+02  0.26684788585E+02  0.51100000000E-03 0. -1.
        -11    1    4    4    0    0  0.16805272590E+02  0.12528648327E+01 -0.29027033908E+01  0.17100074396E+02  0.51100000000E-03 0.  1.
         12    1    4    4    0    0  0.49621680527E+01  0.33143966957E+01 -0.31421639304E+01  0.67439996593E+01  0.00000000000E+00 0. -1.
</event>
<event>
 8    1  0.6016610E-012  0.9118800E+02  0.7816164E-02  0.1184000E+00
        -11   -1    0    0    0    0  0.00000000000E+00  0.00000000000E+00  0.45593999997E+02  0.45594000000E+02  0.51100000000E-03 0. -1.
         11   -1    0    0    0    0 -0.00000000000E+00 -0.00000000000E+00 -0.45593999997E+02  0.45594000000E+02  0.51100000000E-03 0.  1.
         23    2    1    2    0    0  0.00000000000E+00 -0.35527136788E-14  0.00000000000E+00  0.91188000000E+02  0.91188000000E+02 0.  0.
    9900012    2    3    3    0    0 -0.96774829391E+01  0.30647914178E+02 -0.24904162561E+02  0.50528860408E+02  0.30000001696E+02 0.  0.
         12    1    3    3    0    0  0.96774829391E+01 -0.30647914178E+02  0.24904162561E+02  0.40659139592E+02  0.00000000000E+00 0. -1.
         11    1    4    4    0    0  0.71612272984E+00  0.54626854609E+01 -0.12550556366E+02  0.13706576143E+02  0.51100000000E-03 0. -1.
        -11    1    4    4    0    0 -0.16101186921E+02  0.22802277597E+02 -0.73466283921E+01  0.28864598263E+02  0.51100000000E-03 0.  1.
        -12    1    4    4    0    0  0.57075812523E+01  0.23829511198E+01 -0.50069778037E+01  0.79576860027E+01  0.00000000000E+00 0.  1.
</event>
<event>
 8    1  0.6016610E-012  0.9118800E+02  0.7816164E-02  0.1184000E+00
        -11   -1    0    0    0    0  0.00000000000E+00  0.00000000000E+00  0.45593999997E+02  0.45594000000E+02  0.51100000000E-03 0.  1.
         11   -1    0    0    0    0 -0.00000000000E+00 -0.00000000000E+00 -0.45593999997E+02  0.45594000000E+02  0.51100000000E-03 0. -1.
         23    2    1    2    0    0  0.00000000000E+00 -0.71054273576E-14  0.00000000000E+00  0.91188000000E+02  0.91188000000E+02 0.  0.
    9900012    2    3    3    0    0  0.99731545058E+01  0.38579168294E+02  0.80838222796E+01  0.50528877780E+02  0.30000054501E+02 0.  0.
        -12    1    3    3    0    0 -0.99731545058E+01 -0.38579168294E+02 -0.80838222796E+01  0.40659122220E+02  0.00000000000E+00 0.  1.
         11    1    4    4    0    0  0.43159157207E+01  0.36147777201E+02  0.12353473053E+02  0.38443428851E+02  0.51100000000E-03 0. -1.
        -11    1    4    4    0    0  0.30316549884E+00 -0.15592222003E+01 -0.51136461375E+01  0.53546671484E+01  0.51100000000E-03 0.  1.
        -12    1    4    4    0    0  0.53540732863E+01  0.39906132924E+01  0.84399536392E+00  0.67307817807E+01  0.00000000000E+00 0.  1.
</event>
<event>
 8    1  0.6016610E-012  0.9118800E+02  0.7816164E-02  0.1184000E+00
        -11   -1    0    0    0    0  0.00000000000E+00  0.00000000000E+00  0.45593999997E+02  0.45594000000E+02  0.51100000000E-03 0. -1.
         11   -1    0    0    0    0 -0.00000000000E+00 -0.00000000000E+00 -0.45593999997E+02  0.45594000000E+02  0.51100000000E-03 0.  1.
         23    2    1    2    0    0  0.00000000000E+00 -0.35527136788E-14  0.00000000000E+00  0.91188000000E+02  0.91188000000E+02 0.  0.
    9900012    2    3    3    0    0  0.25380263204E+02 -0.30612869635E+02  0.84769681347E+01  0.50528873886E+02  0.30000042664E+02 0.  0.
        -12    1    3    3    0    0 -0.25380263204E+02  0.30612869635E+02 -0.84769681347E+01  0.40659126114E+02  0.00000000000E+00 0.  1.
         11    1    4    4    0    0  0.52072177385E+00 -0.94292019584E+00  0.98833958173E+00  0.14618703949E+01  0.51100000000E-03 0. -1.
        -11    1    4    4    0    0  0.29014293969E+02 -0.21302494486E+02  0.12940656835E+02  0.38250308828E+02  0.51100000000E-03 0.  1.
        -12    1    4    4    0    0 -0.41547525388E+01 -0.83674549534E+01 -0.54520282817E+01  0.10816694663E+02  0.00000000000E+00 0.  1.
</event>
<event>
 8    1  0.6016610E-012  0.9118800E+02  0.7816164E-02  0.1184000E+00
        -11   -1    0    0    0    0  0.00000000000E+00  0.00000000000E+00  0.45593999997E+02  0.45594000000E+02  0.51100000000E-03 0.  1.
         11   -1    0    0    0    0 -0.00000000000E+00 -0.00000000000E+00 -0.45593999997E+02  0.45594000000E+02  0.51100000000E-03 0. -1.
         23    2    1    2    0    0  0.00000000000E+00 -0.88817841970E-15 -0.88817841970E-15  0.91188000000E+02  0.91188000000E+02 0.  0.
    9900012    2    3    3    0    0 -0.39512326971E+02  0.53217833339E+01 -0.79762727263E+01  0.50528852356E+02  0.29999977222E+02 0.  0.
         12    1    3    3    0    0  0.39512326971E+02 -0.53217833339E+01  0.79762727263E+01  0.40659147644E+02  0.00000000000E+00 0. -1.
         11    1    4    4    0    0 -0.18339865195E+01  0.92084824241E+01 -0.76300832766E+01  0.12098670430E+02  0.51100000000E-03 0. -1.
        -11    1    4    4    0    0 -0.23311439645E+02 -0.31131418341E+01  0.28538081943E+01  0.23690907367E+02  0.51100000000E-03 0.  1.
         12    1    4    4    0    0 -0.14366900806E+02 -0.77355725616E+00 -0.31999976441E+01  0.14739274559E+02  0.00000000000E+00 0. -1.
</event>
<event>
 8    1  0.6016610E-012  0.9118800E+02  0.7816164E-02  0.1184000E+00
        -11   -1    0    0    0    0  0.00000000000E+00  0.00000000000E+00  0.45593999997E+02  0.45594000000E+02  0.51100000000E-03 0. -1.
         11   -1    0    0    0    0 -0.00000000000E+00 -0.00000000000E+00 -0.45593999997E+02  0.45594000000E+02  0.51100000000E-03 0.  1.
         23    2    1    2    0    0 -0.71054273576E-14 -0.35527136788E-14  0.00000000000E+00  0.91188000000E+02  0.91188000000E+02 0.  0.
    9900012    2    3    3    0    0  0.34503092088E+02  0.15169063040E+02 -0.15251297186E+02  0.50528857080E+02  0.29999991582E+02 0.  0.
         12    1    3    3    0    0 -0.34503092088E+02 -0.15169063040E+02  0.15251297186E+02  0.40659142920E+02  0.00000000000E+00 0. -1.
         11    1    4    4    0    0  0.13104923098E+02  0.17021994637E+02 -0.40806261393E+01  0.21866385636E+02  0.51100000000E-03 0. -1.
        -11    1    4    4    0    0  0.83742255233E+01 -0.22302140334E+01 -0.12877266040E+02  0.15521774663E+02  0.51100000000E-03 0.  1.
        -12    1    4    4    0    0  0.13023943466E+02  0.37728243665E+00  0.17065949937E+01  0.13140696782E+02  0.00000000000E+00 0.  1.
</event>
<event>
 8    1  0.6016610E-012  0.9118800E+02  0.7816164E-02  0.1184000E+00
        -11   -1    0    0    0    0  0.00000000000E+00  0.00000000000E+00  0.45593999997E+02  0.45594000000E+02  0.51100000000E-03 0.  1.
         11   -1    0    0    0    0 -0.00000000000E+00 -0.00000000000E+00 -0.45593999997E+02  0.45594000000E+02  0.51100000000E-03 0. -1.
         23    2    1    2    0    0  0.00000000000E+00  0.00000000000E+00 -0.13322676296E-14  0.91188000000E+02  0.91188000000E+02 0.  0.
    9900012    2    3    3    0    0 -0.11443934877E+02 -0.38905268496E+02  0.29295900327E+01  0.50528855150E+02  0.29999985714E+02 0.  0.
         12    1    3    3    0    0  0.11443934877E+02  0.38905268496E+02 -0.29295900327E+01  0.40659144850E+02  0.00000000000E+00 0. -1.
         11    1    4    4    0    0  0.29869001942E+01  0.11540313994E+00 -0.50306256998E+01  0.58516737646E+01  0.51100000000E-03 0. -1.
        -11    1    4    4    0    0 -0.14991552495E+02 -0.36519708171E+02  0.10724168609E+02  0.40907744056E+02  0.51100000000E-03 0.  1.
        -12    1    4    4    0    0  0.56071742421E+00 -0.25009634646E+01 -0.27639528761E+01  0.37694373297E+01  0.00000000000E+00 0.  1.
</event>
<event>
 8    1  0.6016610E-012  0.9118800E+02  0.7816164E-02  0.1184000E+00
        -11   -1    0    0    0    0  0.00000000000E+00  0.00000000000E+00  0.45593999997E+02  0.45594000000E+02  0.51100000000E-03 0. -1.
         11   -1    0    0    0    0 -0.00000000000E+00 -0.00000000000E+00 -0.45593999997E+02  0.45594000000E+02  0.51100000000E-03 0.  1.
         23    2    1    2    0    0  0.00000000000E+00  0.00000000000E+00 -0.88817841970E-15  0.91188000000E+02  0.91188000000E+02 0.  0.
    9900012    2    3    3    0    0 -0.22995324994E+02  0.32922735417E+02  0.63621007872E+01  0.50528833687E+02  0.29999920474E+02 0.  0.
        -12    1    3    3    0    0  0.22995324994E+02 -0.32922735417E+02 -0.63621007872E+01  0.40659166313E+02  0.00000000000E+00 0.  1.
         11    1    4    4    0    0 -0.14393035847E+02  0.11103370568E+02  0.11763422225E+02  0.21652307534E+02  0.51100000000E-03 0. -1.
        -11    1    4    4    0    0  0.22081660878E+01  0.15924135780E+01 -0.52811994011E+01  0.59416198001E+01  0.51100000000E-03 0.  1.
        -12    1    4    4    0    0 -0.10810455235E+02  0.20226951271E+02 -0.12012203655E+00  0.22934906352E+02  0.00000000000E+00 0.  1.
</event>
<event>
 8    1  0.6016610E-012  0.9118800E+02  0.7816164E-02  0.1184000E+00
        -11   -1    0    0    0    0  0.00000000000E+00  0.00000000000E+00  0.45593999997E+02  0.45594000000E+02  0.51100000000E-03 0. -1.
         11   -1    0    0    0    0 -0.00000000000E+00 -0.00000000000E+00 -0.45593999997E+02  0.45594000000E+02  0.51100000000E-03 0.  1.
         23    2    1    2    0    0 -0.88817841970E-15 -0.35527136788E-14  0.35527136788E-14  0.91188000000E+02  0.91188000000E+02 0.  0.
    9900012    2    3    3    0    0  0.56094722807E+01  0.28288253326E+02 -0.28661309501E+02  0.50528903628E+02  0.30000133066E+02 0.  0.
         12    1    3    3    0    0 -0.56094722807E+01 -0.28288253326E+02  0.28661309501E+02  0.40659096372E+02  0.00000000000E+00 0. -1.
         11    1    4    4    0    0  0.42908046962E+01  0.11610501836E+02 -0.22608657521E+01  0.12582776802E+02  0.51100000000E-03 0. -1.
        -11    1    4    4    0    0  0.92688719961E+01  0.69682856559E+01 -0.21589151065E+02  0.24506334630E+02  0.51100000000E-03 0.  1.
        -12    1    4    4    0    0 -0.79502044115E+01  0.97094658338E+01 -0.48112926844E+01  0.13439792196E+02  0.00000000000E+00 0.  1.
</event>
<event>
 8    1  0.6016610E-012  0.9118800E+02  0.7816164E-02  0.1184000E+00
        -11   -1    0    0    0    0  0.00000000000E+00  0.00000000000E+00  0.45593999997E+02  0.45594000000E+02  0.51100000000E-03 0. -1.
         11   -1    0    0    0    0 -0.00000000000E+00 -0.00000000000E+00 -0.45593999997E+02  0.45594000000E+02  0.51100000000E-03 0.  1.
         23    2    1    2    0    0  0.88817841970E-15 -0.26645352591E-14  0.71054273576E-14  0.91188000000E+02  0.91188000000E+02 0.  0.
    9900012    2    3    3    0    0 -0.74888316306E+01  0.28898501856E+01 -0.39858904157E+02  0.50528854978E+02  0.29999985192E+02 0.  0.
         12    1    3    3    0    0  0.74888316306E+01 -0.28898501856E+01  0.39858904157E+02  0.40659145022E+02  0.00000000000E+00 0. -1.
         11    1    4    4    0    0 -0.80492880652E+01 -0.53055360339E+01 -0.37625438044E+01  0.10348743262E+02  0.51100000000E-03 0. -1.
        -11    1    4    4    0    0  0.76087285645E+01  0.58514710177E+01 -0.25439530067E+02  0.27190111322E+02  0.51100000000E-03 0.  1.
         12    1    4    4    0    0 -0.70482721299E+01  0.23439152018E+01 -0.10656830286E+02  0.12990000394E+02  0.00000000000E+00 0. -1.
</event>
<event>
 8    1  0.6016610E-012  0.9118800E+02  0.7816164E-02  0.1184000E+00
        -11   -1    0    0    0    0  0.00000000000E+00  0.00000000000E+00  0.45593999997E+02  0.45594000000E+02  0.51100000000E-03 0.  1.
         11   -1    0    0    0    0 -0.00000000000E+00 -0.00000000000E+00 -0.45593999997E+02  0.45594000000E+02  0.51100000000E-03 0. -1.
         23    2    1    2    0    0  0.35527136788E-14 -0.71054273576E-14  0.26645352591E-14  0.91188000000E+02  0.91188000000E+02 0.  0.
    9900012    2    3    3    0    0  0.22836672453E+02 -0.33205411026E+02  0.53908012162E+01  0.50528761592E+02  0.29999701334E+02 0.  0.
         12    1    3    3    0    0 -0.22836672453E+02  0.33205411026E+02 -0.53908012162E+01  0.40659238408E+02  0.00000000000E+00 0. -1.
         11    1    4    4    0    0  0.59971191693E+00 -0.66439070405E+01 -0.10039180127E+02  0.12053476388E+02  0.51100000000E-03 0. -1.
        -11    1    4    4    0    0  0.12244959428E+02 -0.16317157163E+02  0.57399377763E+01  0.21192818010E+02  0.51100000000E-03 0.  1.
         12    1    4    4    0    0  0.99920011086E+01 -0.10244346822E+02  0.96900435672E+01  0.17282467194E+02  0.00000000000E+00 0. -1.
</event>
<event>
 8    1  0.6016610E-012  0.9118800E+02  0.7816164E-02  0.1184000E+00
        -11   -1    0    0    0    0  0.00000000000E+00  0.00000000000E+00  0.45593999997E+02  0.45594000000E+02  0.51100000000E-03 0.  1.
         11   -1    0    0    0    0 -0.00000000000E+00 -0.00000000000E+00 -0.45593999997E+02  0.45594000000E+02  0.51100000000E-03 0. -1.
         23    2    1    2    0    0  0.00000000000E+00  0.00000000000E+00  0.71054273576E-14  0.91188000000E+02  0.91188000000E+02 0.  0.
    9900012    2    3    3    0    0 -0.13263787590E+02 -0.16356975205E+02 -0.34780549592E+02  0.50528864138E+02  0.30000013035E+02 0.  0.
         12    1    3    3    0    0  0.13263787590E+02  0.16356975205E+02  0.34780549592E+02  0.40659135862E+02  0.00000000000E+00 0. -1.
         11    1    4    4    0    0  0.10445056208E+01 -0.13548549610E+02 -0.21379620232E+02  0.25332634092E+02  0.51100000000E-03 0. -1.
        -11    1    4    4    0    0 -0.81586499172E+01  0.47174227353E+01 -0.10539849634E+01  0.94830654484E+01  0.51100000000E-03 0.  1.
         12    1    4    4    0    0 -0.61496432940E+01 -0.75258483304E+01 -0.12346944397E+02  0.15713164597E+02  0.00000000000E+00 0. -1.
</event>
<event>
 8    1  0.6016610E-012  0.9118800E+02  0.7816164E-02  0.1184000E+00
        -11   -1    0    0    0    0  0.00000000000E+00  0.00000000000E+00  0.45593999997E+02  0.45594000000E+02  0.51100000000E-03 0. -1.
         11   -1    0    0    0    0 -0.00000000000E+00 -0.00000000000E+00 -0.45593999997E+02  0.45594000000E+02  0.51100000000E-03 0.  1.
         23    2    1    2    0    0  0.35527136788E-14 -0.35527136788E-14 -0.35527136788E-14  0.91188000000E+02  0.91188000000E+02 0.  0.
    9900012    2    3    3    0    0  0.26956925484E+02 -0.10767376242E+02 -0.28470215435E+02  0.50528863393E+02  0.30000010769E+02 0.  0.
         12    1    3    3    0    0 -0.26956925484E+02  0.10767376242E+02  0.28470215435E+02  0.40659136607E+02  0.00000000000E+00 0. -1.
         11    1    4    4    0    0  0.14316187859E+02  0.16247052253E+01 -0.12427237207E+02  0.19027063009E+02  0.51100000000E-03 0. -1.
        -11    1    4    4    0    0  0.11167594738E+02 -0.13761058427E+02 -0.26033518202E+01  0.17912547061E+02  0.51100000000E-03 0.  1.
        -12    1    4    4    0    0  0.14731428871E+01  0.13689769593E+01 -0.13439626408E+02  0.13589253323E+02  0.00000000000E+00 0.  1.
</event>
<event>
 8    1  0.6191451E-012  0.9118800E+02  0.7816164E-02  0.1184000E+00
        -11   -1    0    0    0    0  0.00000000000E+00  0.00000000000E+00  0.45593999997E+02  0.45594000000E+02  0.51100000000E-03 0. -1.
         11   -1    0    0    0    0 -0.00000000000E+00 -0.00000000000E+00 -0.45593999997E+02  0.45594000000E+02  0.51100000000E-03 0.  1.
         23    2    1    2    0    0  0.44408920985E-15 -0.17763568394E-14 -0.71054273576E-14  0.91188000000E+02  0.91188000000E+02 0.  0.
    9900012    2    3    3    0    0 -0.25956363553E+01  0.99379458381E+01  0.39340403179E+02  0.50528838451E+02  0.29999934956E+02 0.  0.
        -12    1    3    3    0    0  0.25956363553E+01 -0.99379458381E+01 -0.39340403179E+02  0.40659161549E+02  0.00000000000E+00 0.  1.
         11    1    4    4    0    0 -0.11106063470E+02  0.11270565842E+02  0.15861637279E+02  0.22404504852E+02  0.51100000000E-03 0. -1.
        -11    1    4    4    0    0  0.85122605705E+01  0.44740132618E+01  0.13417706584E+02  0.16507883720E+02  0.51100000000E-03 0.  1.
        -12    1    4    4    0    0 -0.18334553391E-02 -0.58066332653E+01  0.10061059316E+02  0.11616449879E+02  0.00000000000E+00 0.  1.
</event>
<event>
 8    1  0.6016610E-012  0.9118800E+02  0.7816164E-02  0.1184000E+00
        -11   -1    0    0    0    0  0.00000000000E+00  0.00000000000E+00  0.45593999997E+02  0.45594000000E+02  0.51100000000E-03 0. -1.
         11   -1    0    0    0    0 -0.00000000000E+00 -0.00000000000E+00 -0.45593999997E+02  0.45594000000E+02  0.51100000000E-03 0.  1.
         23    2    1    2    0    0  0.71054273576E-14  0.00000000000E+00  0.44408920985E-15  0.91188000000E+02  0.91188000000E+02 0.  0.
    9900012    2    3    3    0    0 -0.38310325102E+02  0.13541686307E+02  0.14516357379E+01  0.50528861743E+02  0.30000005755E+02 0.  0.
        -12    1    3    3    0    0  0.38310325102E+02 -0.13541686307E+02 -0.14516357379E+01  0.40659138257E+02  0.00000000000E+00 0.  1.
         11    1    4    4    0    0 -0.32882966175E+02  0.18375982315E+02  0.52494076767E+01  0.38033175935E+02  0.51100000000E-03 0. -1.
        -11    1    4    4    0    0  0.18967253375E+01 -0.59909263647E+00 -0.35051197734E+01  0.40301791374E+01  0.51100000000E-03 0.  1.
         12    1    4    4    0    0 -0.73240842648E+01 -0.42352033707E+01 -0.29265216541E+00  0.84655066711E+01  0.00000000000E+00 0. -1.
</event>
<event>
 8    1  0.6016610E-012  0.9118800E+02  0.7816164E-02  0.1184000E+00
        -11   -1    0    0    0    0  0.00000000000E+00  0.00000000000E+00  0.45593999997E+02  0.45594000000E+02  0.51100000000E-03 0. -1.
         11   -1    0    0    0    0 -0.00000000000E+00 -0.00000000000E+00 -0.45593999997E+02  0.45594000000E+02  0.51100000000E-03 0.  1.
         23    2    1    2    0    0  0.00000000000E+00 -0.22204460493E-15 -0.35527136788E-14  0.91188000000E+02  0.91188000000E+02 0.  0.
    9900012    2    3    3    0    0  0.33935533536E+02  0.19097968199E+01 -0.22313623558E+02  0.50528861340E+02  0.30000004530E+02 0.  0.
         12    1    3    3    0    0 -0.33935533536E+02 -0.19097968199E+01  0.22313623558E+02  0.40659138660E+02  0.00000000000E+00 0. -1.
         11    1    4    4    0    0  0.12760012601E+02  0.56904668173E+00 -0.25903725769E+02  0.28881564097E+02  0.51100000000E-03 0.  1.
        -11    1    4    4    0    0  0.17799913146E+02  0.65644349359E+00  0.37373524094E+01  0.18199879927E+02  0.51100000000E-03 0. -1.
        -12    1    4    4    0    0  0.33756077894E+01  0.68430664461E+00 -0.14725019739E+00  0.34474173162E+01  0.00000000000E+00 0.  1.
</event>
<event>
 8    1  0.6016610E-012  0.9118800E+02  0.7816164E-02  0.1184000E+00
        -11   -1    0    0    0    0  0.00000000000E+00  0.00000000000E+00  0.45593999997E+02  0.45594000000E+02  0.51100000000E-03 0. -1.
         11   -1    0    0    0    0 -0.00000000000E+00 -0.00000000000E+00 -0.45593999997E+02  0.45594000000E+02  0.51100000000E-03 0.  1.
         23    2    1    2    0    0  0.22204460493E-14 -0.35527136788E-14  0.35527136788E-14  0.91188000000E+02  0.91188000000E+02 0.  0.
    9900012    2    3    3    0    0  0.13988708496E+01  0.28369582303E+02  0.29092541169E+02  0.50528855993E+02  0.29999988276E+02 0.  0.
        -12    1    3    3    0    0 -0.13988708496E+01 -0.28369582303E+02 -0.29092541169E+02  0.40659144007E+02  0.00000000000E+00 0.  1.
         11    1    4    4    0    0 -0.81659581837E+01  0.21351181727E+01  0.14557296490E+02  0.16827254203E+02  0.51100000000E-03 0. -1.
        -11    1    4    4    0    0 -0.75554897990E+00  0.11936246331E+02  0.21471719808E+01  0.12151344720E+02  0.51100000000E-03 0.  1.
         12    1    4    4    0    0  0.10320378013E+02  0.14298217799E+02  0.12388072699E+02  0.21550257069E+02  0.00000000000E+00 0. -1.
</event>
<event>
 8    1  0.6016610E-012  0.9118800E+02  0.7816164E-02  0.1184000E+00
        -11   -1    0    0    0    0  0.00000000000E+00  0.00000000000E+00  0.45593999997E+02  0.45594000000E+02  0.51100000000E-03 0. -1.
         11   -1    0    0    0    0 -0.00000000000E+00 -0.00000000000E+00 -0.45593999997E+02  0.45594000000E+02  0.51100000000E-03 0.  1.
         23    2    1    2    0    0 -0.35527136788E-14 -0.88817841970E-15  0.71054273576E-14  0.91188000000E+02  0.91188000000E+02 0.  0.
    9900012    2    3    3    0    0  0.11883126705E+02  0.71941500212E+01  0.38212574484E+02  0.50528863960E+02  0.30000012492E+02 0.  0.
        -12    1    3    3    0    0 -0.11883126705E+02 -0.71941500212E+01 -0.38212574484E+02  0.40659136040E+02  0.00000000000E+00 0.  1.
         11    1    4    4    0    0  0.61929135631E+01  0.31586796735E+01  0.90502675649E+01  0.11412132971E+02  0.51100000000E-03 0. -1.
        -11    1    4    4    0    0  0.10705513050E+01 -0.52368963817E+00 -0.45919631584E+01  0.47440970524E+01  0.51100000000E-03 0.  1.
        -12    1    4    4    0    0  0.46196618365E+01  0.45591599858E+01  0.33754270078E+02  0.34372633937E+02  0.00000000000E+00 0.  1.
</event>
<event>
 8    1  0.9447299E-012  0.9118800E+02  0.7816164E-02  0.1184000E+00
        -11   -1    0    0    0    0  0.00000000000E+00  0.00000000000E+00  0.45593999997E+02  0.45594000000E+02  0.51100000000E-03 0. -1.
         11   -1    0    0    0    0 -0.00000000000E+00 -0.00000000000E+00 -0.45593999997E+02  0.45594000000E+02  0.51100000000E-03 0.  1.
         23    2    1    2    0    0  0.00000000000E+00  0.00000000000E+00  0.71054273576E-14  0.91188000000E+02  0.91188000000E+02 0.  0.
    9900012    2    3    3    0    0  0.25255009976E+02 -0.11697555216E+02  0.29639777631E+02  0.50528871321E+02  0.30000034867E+02 0.  0.
        -12    1    3    3    0    0 -0.25255009976E+02  0.11697555216E+02 -0.29639777631E+02  0.40659128679E+02  0.00000000000E+00 0.  1.
         11    1    4    4    0    0  0.59248279350E+01 -0.75242148266E+01  0.92406505541E+01  0.13308156061E+02  0.51100000000E-03 0. -1.
        -11    1    4    4    0    0  0.14161216703E+02 -0.10759790340E+00 -0.16074124335E+01  0.14252558045E+02  0.51100000000E-03 0.  1.
        -12    1    4    4    0    0  0.51689653375E+01 -0.40657424855E+01  0.22006539511E+02  0.22968157215E+02  0.00000000000E+00 0.  1.
</event>
<event>
 8    1  0.6016610E-012  0.9118800E+02  0.7816164E-02  0.1184000E+00
        -11   -1    0    0    0    0  0.00000000000E+00  0.00000000000E+00  0.45593999997E+02  0.45594000000E+02  0.51100000000E-03 0.  1.
         11   -1    0    0    0    0 -0.00000000000E+00 -0.00000000000E+00 -0.45593999997E+02  0.45594000000E+02  0.51100000000E-03 0. -1.
         23    2    1    2    0    0  0.00000000000E+00  0.00000000000E+00  0.35527136788E-14  0.91188000000E+02  0.91188000000E+02 0.  0.
    9900012    2    3    3    0    0 -0.34652872311E+02 -0.12247826771E+02 -0.17387773456E+02  0.50528862211E+02  0.30000007176E+02 0.  0.
         12    1    3    3    0    0  0.34652872311E+02  0.12247826771E+02  0.17387773456E+02  0.40659137789E+02  0.00000000000E+00 0. -1.
         11    1    4    4    0    0 -0.30569053097E+00  0.53616262160E+01  0.33051916137E+01  0.63059316715E+01  0.51100000000E-03 0. -1.
        -11    1    4    4    0    0 -0.23105022323E+02 -0.98557667810E+01 -0.16000910130E+02  0.29782668125E+02  0.51100000000E-03 0.  1.
         12    1    4    4    0    0 -0.11242159457E+02 -0.77536862063E+01 -0.46920549402E+01  0.14440262415E+02  0.00000000000E+00 0. -1.
</event>
<event>
 8    1  0.6016610E-012  0.9118800E+02  0.7816164E-02  0.1184000E+00
        -11   -1    0    0    0    0  0.00000000000E+00  0.00000000000E+00  0.45593999997E+02  0.45594000000E+02  0.51100000000E-03 0. -1.
         11   -1    0    0    0    0 -0.00000000000E+00 -0.00000000000E+00 -0.45593999997E+02  0.45594000000E+02  0.51100000000E-03 0.  1.
         23    2    1    2    0    0  0.17763568394E-14 -0.13322676296E-14 -0.71054273576E-14  0.91188000000E+02  0.91188000000E+02 0.  0.
    9900012    2    3    3    0    0  0.67780748370E+01 -0.37886207874E+01 -0.39910780374E+02  0.50528851755E+02  0.29999975393E+02 0.  0.
         12    1    3    3    0    0 -0.67780748370E+01  0.37886207874E+01  0.39910780374E+02  0.40659148245E+02  0.00000000000E+00 0. -1.
         11    1    4    4    0    0 -0.78376115823E+01  0.23685338858E+01 -0.21850675619E+01  0.84742332157E+01  0.51100000000E-03 0. -1.
        -11    1    4    4    0    0  0.27322915569E+01 -0.11719434466E+01 -0.19545830760E+02  0.19770644121E+02  0.51100000000E-03 0.  1.
         12    1    4    4    0    0  0.11883394862E+02 -0.49852112266E+01 -0.18179882052E+02  0.22283974418E+02  0.00000000000E+00 0. -1.
</event>
<event>
 8    1  0.6016610E-012  0.9118800E+02  0.7816164E-02  0.1184000E+00
        -11   -1    0    0    0    0  0.00000000000E+00  0.00000000000E+00  0.45593999997E+02  0.45594000000E+02  0.51100000000E-03 0. -1.
         11   -1    0    0    0    0 -0.00000000000E+00 -0.00000000000E+00 -0.45593999997E+02  0.45594000000E+02  0.51100000000E-03 0.  1.
         23    2    1    2    0    0 -0.71054273576E-14 -0.35527136788E-14  0.00000000000E+00  0.91188000000E+02  0.91188000000E+02 0.  0.
    9900012    2    3    3    0    0 -0.33357069933E+02 -0.17368835238E+02  0.15453017260E+02  0.50528852265E+02  0.29999976946E+02 0.  0.
        -12    1    3    3    0    0  0.33357069933E+02  0.17368835238E+02 -0.15453017260E+02  0.40659147735E+02  0.00000000000E+00 0.  1.
         11    1    4    4    0    0 -0.29322201263E+01 -0.67083334124E+01  0.54820101906E+01  0.91461515421E+01  0.51100000000E-03 0. -1.
        -11    1    4    4    0    0 -0.20607933063E+02  0.52668006245E+01  0.72737886296E+01  0.22479637347E+02  0.51100000000E-03 0.  1.
        -12    1    4    4    0    0 -0.98169167437E+01 -0.15927302450E+02  0.26972184400E+01  0.18903063376E+02  0.00000000000E+00 0.  1.
</event>
<event>
 8    1  0.6016610E-012  0.9118800E+02  0.7816164E-02  0.1184000E+00
        -11   -1    0    0    0    0  0.00000000000E+00  0.00000000000E+00  0.45593999997E+02  0.45594000000E+02  0.51100000000E-03 0. -1.
         11   -1    0    0    0    0 -0.00000000000E+00 -0.00000000000E+00 -0.45593999997E+02  0.45594000000E+02  0.51100000000E-03 0.  1.
         23    2    1    2    0    0  0.00000000000E+00  0.00000000000E+00  0.00000000000E+00  0.91188000000E+02  0.91188000000E+02 0.  0.
    9900012    2    3    3    0    0 -0.17019486099E+02  0.11968973880E+02 -0.34932024888E+02  0.50528860737E+02  0.30000002698E+02 0.  0.
         12    1    3    3    0    0  0.17019486099E+02 -0.11968973880E+02  0.34932024888E+02  0.40659139263E+02  0.00000000000E+00 0. -1.
         11    1    4    4    0    0 -0.13618996231E+01 -0.13568651208E+01  0.82069484599E+00  0.20903095060E+01  0.51100000000E-03 0. -1.
        -11    1    4    4    0    0 -0.19915199027E+02  0.13730837319E+02 -0.36797058427E+02  0.44036059712E+02  0.51100000000E-03 0.  1.
        -12    1    4    4    0    0  0.42576125515E+01 -0.40499831760E+00  0.10443386935E+01  0.44024915199E+01  0.00000000000E+00 0.  1.
</event>
<event>
 8    1  0.6016610E-012  0.9118800E+02  0.7816164E-02  0.1184000E+00
        -11   -1    0    0    0    0  0.00000000000E+00  0.00000000000E+00  0.45593999997E+02  0.45594000000E+02  0.51100000000E-03 0. -1.
         11   -1    0    0    0    0 -0.00000000000E+00 -0.00000000000E+00 -0.45593999997E+02  0.45594000000E+02  0.51100000000E-03 0.  1.
         23    2    1    2    0    0 -0.35527136788E-14  0.00000000000E+00  0.71054273576E-14  0.91188000000E+02  0.91188000000E+02 0.  0.
    9900012    2    3    3    0    0 -0.22216948603E+02  0.97118461337E+01  0.32638210950E+02  0.50528861118E+02  0.30000003856E+02 0.  0.
        -12    1    3    3    0    0  0.22216948603E+02 -0.97118461337E+01 -0.32638210950E+02  0.40659138882E+02  0.00000000000E+00 0.  1.
         11    1    4    4    0    0 -0.10135280758E+02  0.43220139832E+01  0.10638521757E+02  0.15316065628E+02  0.51100000000E-03 0. -1.
        -11    1    4    4    0    0  0.58958462713E+01  0.72059348941E+01  0.59852831447E+01  0.11068428774E+02  0.51100000000E-03 0.  1.
        -12    1    4    4    0    0 -0.17977514117E+02 -0.18161027435E+01  0.16014406049E+02  0.24144366716E+02  0.00000000000E+00 0.  1.
</event>
<event>
 8    1  0.6016610E-012  0.9118800E+02  0.7816164E-02  0.1184000E+00
        -11   -1    0    0    0    0  0.00000000000E+00  0.00000000000E+00  0.45593999997E+02  0.45594000000E+02  0.51100000000E-03 0. -1.
         11   -1    0    0    0    0 -0.00000000000E+00 -0.00000000000E+00 -0.45593999997E+02  0.45594000000E+02  0.51100000000E-03 0.  1.
         23    2    1    2    0    0  0.00000000000E+00  0.00000000000E+00  0.00000000000E+00  0.91188000000E+02  0.91188000000E+02 0.  0.
    9900012    2    3    3    0    0  0.13020110092E+02 -0.18703265541E+02 -0.33672391311E+02  0.50528863938E+02  0.30000012426E+02 0.  0.
         12    1    3    3    0    0 -0.13020110092E+02  0.18703265541E+02  0.33672391311E+02  0.40659136062E+02  0.00000000000E+00 0. -1.
         11    1    4    4    0    0  0.27088101617E+01 -0.30643397966E+01  0.52467376053E+01  0.66525248320E+01  0.51100000000E-03 0. -1.
        -11    1    4    4    0    0  0.51667953125E+01 -0.12786386029E+02 -0.22013809879E+02  0.25976821729E+02  0.51100000000E-03 0.  1.
        -12    1    4    4    0    0  0.51445046174E+01 -0.28525397156E+01 -0.16905319037E+02  0.17899517377E+02  0.00000000000E+00 0.  1.
</event>
<event>
 8    1  0.9817008E-012  0.9118800E+02  0.7816164E-02  0.1184000E+00
        -11   -1    0    0    0    0  0.00000000000E+00  0.00000000000E+00  0.45593999997E+02  0.45594000000E+02  0.51100000000E-03 0. -1.
         11   -1    0    0    0    0 -0.00000000000E+00 -0.00000000000E+00 -0.45593999997E+02  0.45594000000E+02  0.51100000000E-03 0.  1.
         23    2    1    2    0    0  0.88817841970E-15  0.88817841970E-15  0.71054273576E-14  0.91188000000E+02  0.91188000000E+02 0.  0.
    9900012    2    3    3    0    0 -0.69897071035E+01  0.45181893450E+01  0.39798186480E+02  0.50528859730E+02  0.29999999636E+02 0.  0.
        -12    1    3    3    0    0  0.69897071035E+01 -0.45181893450E+01 -0.39798186480E+02  0.40659140270E+02  0.00000000000E+00 0.  1.
         11    1    4    4    0    0  0.34655459066E+01 -0.55572229971E+01  0.25163936265E+02  0.26002238836E+02  0.51100000000E-03 0. -1.
        -11    1    4    4    0    0 -0.11340180402E+02  0.19836274807E+01  0.79028513453E+01  0.13963865123E+02  0.51100000000E-03 0.  1.
        -12    1    4    4    0    0  0.88492739192E+00  0.80917848614E+01  0.67313988705E+01  0.10562755771E+02  0.00000000000E+00 0.  1.
</event>
<event>
 8    1  0.6016610E-012  0.9118800E+02  0.7816164E-02  0.1184000E+00
        -11   -1    0    0    0    0  0.00000000000E+00  0.00000000000E+00  0.45593999997E+02  0.45594000000E+02  0.51100000000E-03 0. -1.
         11   -1    0    0    0    0 -0.00000000000E+00 -0.00000000000E+00 -0.45593999997E+02  0.45594000000E+02  0.51100000000E-03 0.  1.
         23    2    1    2    0    0 -0.17763568394E-14 -0.71054273576E-14  0.35527136788E-14  0.91188000000E+02  0.91188000000E+02 0.  0.
    9900012    2    3    3    0    0  0.98490119098E+01  0.32857183254E+02 -0.21830404219E+02  0.50528879556E+02  0.30000059897E+02 0.  0.
         12    1    3    3    0    0 -0.98490119098E+01 -0.32857183254E+02  0.21830404219E+02  0.40659120444E+02  0.00000000000E+00 0. -1.
         11    1    4    4    0    0  0.20612472058E+00  0.13785036961E+02  0.52501625565E+01  0.14752421447E+02  0.51100000000E-03 0. -1.
        -11    1    4    4    0    0  0.95151885343E+01  0.10516092609E+02 -0.12672442451E+02  0.19018880475E+02  0.51100000000E-03 0.  1.
         12    1    4    4    0    0  0.12769865494E+00  0.85560536839E+01 -0.14408124325E+02  0.16757577633E+02  0.00000000000E+00 0. -1.
</event>
<event>
 8    1  0.6016610E-012  0.9118800E+02  0.7816164E-02  0.1184000E+00
        -11   -1    0    0    0    0  0.00000000000E+00  0.00000000000E+00  0.45593999997E+02  0.45594000000E+02  0.51100000000E-03 0. -1.
         11   -1    0    0    0    0 -0.00000000000E+00 -0.00000000000E+00 -0.45593999997E+02  0.45594000000E+02  0.51100000000E-03 0.  1.
         23    2    1    2    0    0  0.00000000000E+00  0.00000000000E+00  0.00000000000E+00  0.91188000000E+02  0.91188000000E+02 0.  0.
    9900012    2    3    3    0    0 -0.66578522274E+01 -0.26886654487E+02 -0.29764863606E+02  0.50528852305E+02  0.29999977067E+02 0.  0.
         12    1    3    3    0    0  0.66578522274E+01  0.26886654487E+02  0.29764863606E+02  0.40659147695E+02  0.00000000000E+00 0. -1.
         11    1    4    4    0    0  0.58592990610E+01 -0.75823999631E+01 -0.24554897896E+02  0.26358436707E+02  0.51100000000E-03 0. -1.
        -11    1    4    4    0    0 -0.80633221969E+01 -0.16314985578E+02 -0.34329929735E+01  0.18519755946E+02  0.51100000000E-03 0.  1.
         12    1    4    4    0    0 -0.44538290916E+01 -0.29892689450E+01 -0.17769727366E+01  0.56506596525E+01  0.00000000000E+00 0. -1.
</event>
<event>
 8    1  0.6016610E-012  0.9118800E+02  0.7816164E-02  0.1184000E+00
        -11   -1    0    0    0    0  0.00000000000E+00  0.00000000000E+00  0.45593999997E+02  0.45594000000E+02  0.51100000000E-03 0.  1.
         11   -1    0    0    0    0 -0.00000000000E+00 -0.00000000000E+00 -0.45593999997E+02  0.45594000000E+02  0.51100000000E-03 0. -1.
         23    2    1    2    0    0  0.00000000000E+00  0.00000000000E+00 -0.17763568394E-14  0.91188000000E+02  0.91188000000E+02 0.  0.
    9900012    2    3    3    0    0 -0.94669302193E+01  0.37052304507E+02 -0.13808318881E+02  0.50528859485E+02  0.29999998892E+02 0.  0.
         12    1    3    3    0    0  0.94669302193E+01 -0.37052304507E+02  0.13808318881E+02  0.40659140515E+02  0.00000000000E+00 0. -1.
         11    1    4    4    0    0 -0.12828508386E+02  0.18949834186E+02 -0.93122698469E+01  0.24705975250E+02  0.51100000000E-03 0. -1.
        -11    1    4    4    0    0  0.71547618956E+01  0.15895583072E+02 -0.89287784312E+01  0.19585281809E+02  0.51100000000E-03 0.  1.
         12    1    4    4    0    0 -0.37931837289E+01  0.22068872490E+01  0.44327293967E+01  0.62376024269E+01  0.00000000000E+00 0. -1.
</event>
<event>
 8    1  0.6016610E-012  0.9118800E+02  0.7816164E-02  0.1184000E+00
        -11   -1    0    0    0    0  0.00000000000E+00  0.00000000000E+00  0.45593999997E+02  0.45594000000E+02  0.51100000000E-03 0. -1.
         11   -1    0    0    0    0 -0.00000000000E+00 -0.00000000000E+00 -0.45593999997E+02  0.45594000000E+02  0.51100000000E-03 0.  1.
         23    2    1    2    0    0  0.00000000000E+00  0.35527136788E-14  0.00000000000E+00  0.91188000000E+02  0.91188000000E+02 0.  0.
    9900012    2    3    3    0    0  0.20159530453E+02 -0.19020330145E+02  0.29748728361E+02  0.50528850156E+02  0.29999970535E+02 0.  0.
        -12    1    3    3    0    0 -0.20159530453E+02  0.19020330145E+02 -0.29748728361E+02  0.40659149844E+02  0.00000000000E+00 0.  1.
         11    1    4    4    0    0  0.19951005757E+02 -0.22704809203E+02  0.12536872519E+02  0.32721921773E+02  0.51100000000E-03 0. -1.
        -11    1    4    4    0    0 -0.86497420485E+00  0.18062772699E+01  0.46919209295E+01  0.51014645173E+01  0.51100000000E-03 0.  1.
         12    1    4    4    0    0  0.10734989012E+01  0.18782017885E+01  0.12519934912E+02  0.12705463866E+02  0.00000000000E+00 0. -1.
</event>
<event>
 8    1  0.6016610E-012  0.9118800E+02  0.7816164E-02  0.1184000E+00
        -11   -1    0    0    0    0  0.00000000000E+00  0.00000000000E+00  0.45593999997E+02  0.45594000000E+02  0.51100000000E-03 0.  1.
         11   -1    0    0    0    0 -0.00000000000E+00 -0.00000000000E+00 -0.45593999997E+02  0.45594000000E+02  0.51100000000E-03 0. -1.
         23    2    1    2    0    0 -0.10658141036E-13  0.35527136788E-14 -0.17763568394E-14  0.91188000000E+02  0.91188000000E+02 0.  0.
    9900012    2    3    3    0    0  0.28834580083E+02 -0.24259357940E+02  0.15271373528E+02  0.50528876723E+02  0.30000051288E+02 0.  0.
        -12    1    3    3    0    0 -0.28834580083E+02  0.24259357940E+02 -0.15271373528E+02  0.40659123277E+02  0.00000000000E+00 0.  1.
         11    1    4    4    0    0  0.30114306985E+02 -0.24305745535E+02  0.73234130670E+01  0.39386204824E+02  0.51100000000E-03 0. -1.
        -11    1    4    4    0    0 -0.21122163393E+01 -0.36958978453E+00  0.92762205923E+01  0.95208362664E+01  0.51100000000E-03 0.  1.
        -12    1    4    4    0    0  0.83248943729E+00  0.41597737978E+00 -0.13282601317E+01  0.16218356332E+01  0.00000000000E+00 0.  1.
</event>
<event>
 8    1  0.6016610E-012  0.9118800E+02  0.7816164E-02  0.1184000E+00
        -11   -1    0    0    0    0  0.00000000000E+00  0.00000000000E+00  0.45593999997E+02  0.45594000000E+02  0.51100000000E-03 0. -1.
         11   -1    0    0    0    0 -0.00000000000E+00 -0.00000000000E+00 -0.45593999997E+02  0.45594000000E+02  0.51100000000E-03 0.  1.
         23    2    1    2    0    0  0.00000000000E+00  0.00000000000E+00  0.35527136788E-14  0.91188000000E+02  0.91188000000E+02 0.  0.
    9900012    2    3    3    0    0  0.23711536156E+02  0.18567020420E+02  0.27316532808E+02  0.50528878529E+02  0.30000056777E+02 0.  0.
        -12    1    3    3    0    0 -0.23711536156E+02 -0.18567020420E+02 -0.27316532808E+02  0.40659121471E+02  0.00000000000E+00 0.  1.
         11    1    4    4    0    0  0.42213082978E+01  0.14909693267E+02  0.22321544769E+02  0.27172960057E+02  0.51100000000E-03 0. -1.
        -11    1    4    4    0    0  0.77338454950E+01  0.63044533939E+01 -0.74958097574E+00  0.10006016722E+02  0.51100000000E-03 0.  1.
         12    1    4    4    0    0  0.11756382363E+02 -0.26471262409E+01  0.57445690139E+01  0.13349901751E+02  0.00000000000E+00 0. -1.
</event>
<event>
 8    1  0.8285890E-012  0.9118800E+02  0.7816164E-02  0.1184000E+00
        -11   -1    0    0    0    0  0.00000000000E+00  0.00000000000E+00  0.45593999997E+02  0.45594000000E+02  0.51100000000E-03 0. -1.
         11   -1    0    0    0    0 -0.00000000000E+00 -0.00000000000E+00 -0.45593999997E+02  0.45594000000E+02  0.51100000000E-03 0.  1.
         23    2    1    2    0    0  0.71054273576E-14  0.00000000000E+00 -0.71054273576E-14  0.91188000000E+02  0.91188000000E+02 0.  0.
    9900012    2    3    3    0    0 -0.30664024943E+02  0.10342361921E+02  0.24615426789E+02  0.50528854512E+02  0.29999983774E+02 0.  0.
        -12    1    3    3    0    0  0.30664024943E+02 -0.10342361921E+02 -0.24615426789E+02  0.40659145488E+02  0.00000000000E+00 0.  1.
         11    1    4    4    0    0 -0.15718590945E+02  0.41935573625E+01  0.14088270029E+02  0.21520673254E+02  0.51100000000E-03 0. -1.
        -11    1    4    4    0    0 -0.25648659491E+01  0.12683614161E+02  0.38705338621E+01  0.13506799701E+02  0.51100000000E-03 0.  1.
        -12    1    4    4    0    0 -0.12380568049E+02 -0.65348096026E+01  0.66566228979E+01  0.15501381557E+02  0.00000000000E+00 0.  1.
</event>
<event>
 8    1  0.6016610E-012  0.9118800E+02  0.7816164E-02  0.1184000E+00
        -11   -1    0    0    0    0  0.00000000000E+00  0.00000000000E+00  0.45593999997E+02  0.45594000000E+02  0.51100000000E-03 0. -1.
         11   -1    0    0    0    0 -0.00000000000E+00 -0.00000000000E+00 -0.45593999997E+02  0.45594000000E+02  0.51100000000E-03 0.  1.
         23    2    1    2    0    0  0.00000000000E+00  0.00000000000E+00  0.00000000000E+00  0.91188000000E+02  0.91188000000E+02 0.  0.
    9900012    2    3    3    0    0  0.26068514622E+01  0.22341758435E+02 -0.33870566803E+02  0.50528866462E+02  0.30000020097E+02 0.  0.
         12    1    3    3    0    0 -0.26068514622E+01 -0.22341758435E+02  0.33870566803E+02  0.40659133538E+02  0.00000000000E+00 0. -1.
         11    1    4    4    0    0 -0.11407780975E+02  0.16160749985E+02 -0.16781200272E+02  0.25940624312E+02  0.51100000000E-03 0. -1.
        -11    1    4    4    0    0  0.74159455136E+01  0.68080074042E+01 -0.14079902592E+02  0.17308635704E+02  0.51100000000E-03 0.  1.
         12    1    4    4    0    0  0.65986869236E+01 -0.62699895423E+00 -0.30094639389E+01  0.72796064457E+01  0.00000000000E+00 0. -1.
</event>
<event>
 8    1  0.6016610E-012  0.9118800E+02  0.7816164E-02  0.1184000E+00
        -11   -1    0    0    0    0  0.00000000000E+00  0.00000000000E+00  0.45593999997E+02  0.45594000000E+02  0.51100000000E-03 0. -1.
         11   -1    0    0    0    0 -0.00000000000E+00 -0.00000000000E+00 -0.45593999997E+02  0.45594000000E+02  0.51100000000E-03 0.  1.
         23    2    1    2    0    0  0.00000000000E+00 -0.88817841970E-15  0.00000000000E+00  0.91188000000E+02  0.91188000000E+02 0.  0.
    9900012    2    3    3    0    0 -0.95318418956E+01 -0.66183263729E+01  0.38968019644E+02  0.50528870535E+02  0.30000032478E+02 0.  0.
        -12    1    3    3    0    0  0.95318418956E+01  0.66183263729E+01 -0.38968019644E+02  0.40659129465E+02  0.00000000000E+00 0.  1.
         11    1    4    4    0    0  0.61950389919E+01 -0.59414595535E+01  0.41584879423E+01  0.95379490439E+01  0.51100000000E-03 0. -1.
        -11    1    4    4    0    0 -0.14940751764E+02  0.47137241461E+01  0.21439500764E+02  0.26553671156E+02  0.51100000000E-03 0.  1.
        -12    1    4    4    0    0 -0.78612912341E+00 -0.53905909656E+01  0.13370030938E+02  0.14437250335E+02  0.00000000000E+00 0.  1.
</event>
<event>
 8    1  0.6016610E-012  0.9118800E+02  0.7816164E-02  0.1184000E+00
        -11   -1    0    0    0    0  0.00000000000E+00  0.00000000000E+00  0.45593999997E+02  0.45594000000E+02  0.51100000000E-03 0. -1.
         11   -1    0    0    0    0 -0.00000000000E+00 -0.00000000000E+00 -0.45593999997E+02  0.45594000000E+02  0.51100000000E-03 0.  1.
         23    2    1    2    0    0  0.00000000000E+00  0.00000000000E+00  0.35527136788E-14  0.91188000000E+02  0.91188000000E+02 0.  0.
    9900012    2    3    3    0    0  0.29461901495E+02 -0.15204478365E+02  0.23536877854E+02  0.50528875302E+02  0.30000046969E+02 0.  0.
        -12    1    3    3    0    0 -0.29461901495E+02  0.15204478365E+02 -0.23536877854E+02  0.40659124698E+02  0.00000000000E+00 0.  1.
         11    1    4    4    0    0  0.27037877748E+02 -0.23297677343E+01  0.13161655339E+02  0.30161296761E+02  0.51100000000E-03 0. -1.
        -11    1    4    4    0    0 -0.34254493573E+01 -0.18811007846E+00  0.30649455111E+01  0.46003238960E+01  0.51100000000E-03 0.  1.
         12    1    4    4    0    0  0.58494731048E+01 -0.12686600552E+02  0.73102770042E+01  0.15767254645E+02  0.00000000000E+00 0. -1.
</event>
<event>
 8    1  0.6016610E-012  0.9118800E+02  0.7816164E-02  0.1184000E+00
        -11   -1    0    0    0    0  0.00000000000E+00  0.00000000000E+00  0.45593999997E+02  0.45594000000E+02  0.51100000000E-03 0. -1.
         11   -1    0    0    0    0 -0.00000000000E+00 -0.00000000000E+00 -0.45593999997E+02  0.45594000000E+02  0.51100000000E-03 0.  1.
         23    2    1    2    0    0  0.00000000000E+00 -0.17763568394E-14  0.00000000000E+00  0.91188000000E+02  0.91188000000E+02 0.  0.
    9900012    2    3    3    0    0 -0.25574714389E+02 -0.93851732571E+01 -0.30183088883E+02  0.50528851612E+02  0.29999974960E+02 0.  0.
         12    1    3    3    0    0  0.25574714389E+02  0.93851732571E+01  0.30183088883E+02  0.40659148388E+02  0.00000000000E+00 0. -1.
         11    1    4    4    0    0 -0.46714766957E+00  0.40156209505E+01 -0.29358712576E+01  0.49962765001E+01  0.51100000000E-03 0. -1.
        -11    1    4    4    0    0 -0.28919330218E+02 -0.13566853918E+02 -0.26788999668E+02  0.41689779191E+02  0.51100000000E-03 0.  1.
        -12    1    4    4    0    0  0.38117634985E+01  0.16605971065E+00 -0.45821795713E+00  0.38427959212E+01  0.00000000000E+00 0.  1.
</event>
<event>
 8    1  0.6016610E-012  0.9118800E+02  0.7816164E-02  0.1184000E+00
        -11   -1    0    0    0    0  0.00000000000E+00  0.00000000000E+00  0.45593999997E+02  0.45594000000E+02  0.51100000000E-03 0. -1.
         11   -1    0    0    0    0 -0.00000000000E+00 -0.00000000000E+00 -0.45593999997E+02  0.45594000000E+02  0.51100000000E-03 0.  1.
         23    2    1    2    0    0  0.00000000000E+00  0.71054273576E-14 -0.35527136788E-14  0.91188000000E+02  0.91188000000E+02 0.  0.
    9900012    2    3    3    0    0 -0.11153751435E+02 -0.25467064676E+02  0.29667963560E+02  0.50528860608E+02  0.30000002305E+02 0.  0.
        -12    1    3    3    0    0  0.11153751435E+02  0.25467064676E+02 -0.29667963560E+02  0.40659139392E+02  0.00000000000E+00 0.  1.
         11    1    4    4    0    0  0.45504069669E+01 -0.22340508387E+02  0.21031199827E+02  0.31017992923E+02  0.51100000000E-03 0. -1.
        -11    1    4    4    0    0 -0.68727006839E+01  0.16290806159E+01  0.15548320563E+01  0.72322487047E+01  0.51100000000E-03 0.  1.
        -12    1    4    4    0    0 -0.88314577180E+01 -0.47556369043E+01  0.70819316770E+01  0.12278618980E+02  0.00000000000E+00 0.  1.
</event>
<event>
 8    1  0.6016610E-012  0.9118800E+02  0.7816164E-02  0.1184000E+00
        -11   -1    0    0    0    0  0.00000000000E+00  0.00000000000E+00  0.45593999997E+02  0.45594000000E+02  0.51100000000E-03 0. -1.
         11   -1    0    0    0    0 -0.00000000000E+00 -0.00000000000E+00 -0.45593999997E+02  0.45594000000E+02  0.51100000000E-03 0.  1.
         23    2    1    2    0    0  0.24424906542E-14  0.44408920985E-15  0.00000000000E+00  0.91188000000E+02  0.91188000000E+02 0.  0.
    9900012    2    3    3    0    0  0.11014658553E+01 -0.16478476962E+01 -0.40610798027E+02  0.50528861477E+02  0.30000004946E+02 0.  0.
         12    1    3    3    0    0 -0.11014658553E+01  0.16478476962E+01  0.40610798027E+02  0.40659138523E+02  0.00000000000E+00 0. -1.
         11    1    4    4    0    0 -0.80574612449E+01 -0.19119271015E+01 -0.13804663290E+02  0.16098039500E+02  0.51100000000E-03 0.  1.
        -11    1    4    4    0    0  0.91824886493E+01  0.81566583721E+01 -0.99078143222E+01  0.15780176124E+02  0.51100000000E-03 0. -1.
         12    1    4    4    0    0 -0.23561549134E-01 -0.78925789667E+01 -0.16898320415E+02  0.18650645853E+02  0.00000000000E+00 0. -1.
</event>
<event>
 8    1  0.6016610E-012  0.9118800E+02  0.7816164E-02  0.1184000E+00
        -11   -1    0    0    0    0  0.00000000000E+00  0.00000000000E+00  0.45593999997E+02  0.45594000000E+02  0.51100000000E-03 0. -1.
         11   -1    0    0    0    0 -0.00000000000E+00 -0.00000000000E+00 -0.45593999997E+02  0.45594000000E+02  0.51100000000E-03 0.  1.
         23    2    1    2    0    0 -0.17763568394E-14  0.95409791179E-15  0.00000000000E+00  0.91188000000E+02  0.91188000000E+02 0.  0.
    9900012    2    3    3    0    0 -0.13238221820E+02  0.14740346912E-01  0.38443665211E+02  0.50528854300E+02  0.29999983129E+02 0.  0.
        -12    1    3    3    0    0  0.13238221820E+02 -0.14740346912E-01 -0.38443665211E+02  0.40659145700E+02  0.00000000000E+00 0.  1.
         11    1    4    4    0    0  0.33288244257E+01  0.31189088347E+01  0.67202019618E+01  0.81221782205E+01  0.51100000000E-03 0. -1.
        -11    1    4    4    0    0 -0.20263146221E+02 -0.75681668476E+01  0.28487737952E+02  0.35769029314E+02  0.51100000000E-03 0.  1.
        -12    1    4    4    0    0  0.36960999748E+01  0.44639983598E+01  0.32357252971E+01  0.66376467651E+01  0.00000000000E+00 0.  1.
</event>
<event>
 8    1  0.6016610E-012  0.9118800E+02  0.7816164E-02  0.1184000E+00
        -11   -1    0    0    0    0  0.00000000000E+00  0.00000000000E+00  0.45593999997E+02  0.45594000000E+02  0.51100000000E-03 0. -1.
         11   -1    0    0    0    0 -0.00000000000E+00 -0.00000000000E+00 -0.45593999997E+02  0.45594000000E+02  0.51100000000E-03 0.  1.
         23    2    1    2    0    0 -0.35527136788E-14  0.00000000000E+00 -0.35527136788E-14  0.91188000000E+02  0.91188000000E+02 0.  0.
    9900012    2    3    3    0    0  0.17604883484E+02 -0.21177828648E+02  0.29912122949E+02  0.50528838080E+02  0.29999933827E+02 0.  0.
        -12    1    3    3    0    0 -0.17604883484E+02  0.21177828648E+02 -0.29912122949E+02  0.40659161920E+02  0.00000000000E+00 0.  1.
         11    1    4    4    0    0  0.14147653261E+01 -0.11800815805E+02  0.27945335210E+02  0.30367788442E+02  0.51100000000E-03 0. -1.
        -11    1    4    4    0    0  0.61211784593E+01 -0.73496555839E+01 -0.56861067257E+00  0.95817316436E+01  0.51100000000E-03 0.  1.
         12    1    4    4    0    0  0.10068939699E+02 -0.20273572594E+01  0.25353984119E+01  0.10579317994E+02  0.00000000000E+00 0. -1.
</event>
<event>
 8    1  0.6016610E-012  0.9118800E+02  0.7816164E-02  0.1184000E+00
        -11   -1    0    0    0    0  0.00000000000E+00  0.00000000000E+00  0.45593999997E+02  0.45594000000E+02  0.51100000000E-03 0. -1.
         11   -1    0    0    0    0 -0.00000000000E+00 -0.00000000000E+00 -0.45593999997E+02  0.45594000000E+02  0.51100000000E-03 0.  1.
         23    2    1    2    0    0  0.17763568394E-14  0.00000000000E+00  0.00000000000E+00  0.91188000000E+02  0.91188000000E+02 0.  0.
    9900012    2    3    3    0    0 -0.12080713149E+02  0.88048177076E+01  0.37811339934E+02  0.50528857453E+02  0.29999992713E+02 0.  0.
        -12    1    3    3    0    0  0.12080713149E+02 -0.88048177076E+01 -0.37811339934E+02  0.40659142547E+02  0.00000000000E+00 0.  1.
         11    1    4    4    0    0 -0.19138333290E+02  0.21393775067E+01  0.28746296951E+02  0.34600611640E+02  0.51100000000E-03 0. -1.
        -11    1    4    4    0    0  0.70879092838E+01  0.54267907514E+01  0.25323322178E+01  0.92790744472E+01  0.51100000000E-03 0.  1.
        -12    1    4    4    0    0 -0.30289142544E-01  0.12386494495E+01  0.65327107660E+01  0.66491713652E+01  0.00000000000E+00 0.  1.
</event>
<event>
 8    1  0.6016610E-012  0.9118800E+02  0.7816164E-02  0.1184000E+00
        -11   -1    0    0    0    0  0.00000000000E+00  0.00000000000E+00  0.45593999997E+02  0.45594000000E+02  0.51100000000E-03 0. -1.
         11   -1    0    0    0    0 -0.00000000000E+00 -0.00000000000E+00 -0.45593999997E+02  0.45594000000E+02  0.51100000000E-03 0.  1.
         23    2    1    2    0    0 -0.17763568394E-14  0.00000000000E+00  0.00000000000E+00  0.91188000000E+02  0.91188000000E+02 0.  0.
    9900012    2    3    3    0    0 -0.12589344713E+02  0.24799836147E+02 -0.29658762059E+02  0.50528860313E+02  0.30000001407E+02 0.  0.
         12    1    3    3    0    0  0.12589344713E+02 -0.24799836147E+02  0.29658762059E+02  0.40659139687E+02  0.00000000000E+00 0. -1.
         11    1    4    4    0    0  0.31412745017E+01  0.21012549177E+02 -0.81728360964E+01  0.22763788756E+02  0.51100000000E-03 0. -1.
        -11    1    4    4    0    0 -0.55679849979E+01  0.48264361391E+01 -0.88338453902E+01  0.11503641483E+02  0.51100000000E-03 0.  1.
         12    1    4    4    0    0 -0.10162634217E+02 -0.10391491694E+01 -0.12652080572E+02  0.16261430073E+02  0.00000000000E+00 0. -1.
</event>
<event>
 8    1  0.6016610E-012  0.9118800E+02  0.7816164E-02  0.1184000E+00
        -11   -1    0    0    0    0  0.00000000000E+00  0.00000000000E+00  0.45593999997E+02  0.45594000000E+02  0.51100000000E-03 0. -1.
         11   -1    0    0    0    0 -0.00000000000E+00 -0.00000000000E+00 -0.45593999997E+02  0.45594000000E+02  0.51100000000E-03 0.  1.
         23    2    1    2    0    0  0.00000000000E+00  0.44408920985E-15  0.00000000000E+00  0.91188000000E+02  0.91188000000E+02 0.  0.
    9900012    2    3    3    0    0  0.16488486165E+02 -0.23634457376E+01 -0.37090533383E+02  0.50528883944E+02  0.30000073236E+02 0.  0.
         12    1    3    3    0    0 -0.16488486165E+02  0.23634457376E+01  0.37090533383E+02  0.40659116056E+02  0.00000000000E+00 0. -1.
         11    1    4    4    0    0 -0.35085644954E+01  0.72466143779E+01 -0.65675908347E+01  0.10390221095E+02  0.51100000000E-03 0. -1.
        -11    1    4    4    0    0  0.48034695086E+01 -0.14910326570E+00 -0.17110083185E+02  0.17772183264E+02  0.51100000000E-03 0.  1.
         12    1    4    4    0    0  0.15193581152E+02 -0.94609568497E+01 -0.13412859364E+02  0.22366479586E+02  0.00000000000E+00 0. -1.
</event>
<event>
 8    1  0.6016610E-012  0.9118800E+02  0.7816164E-02  0.1184000E+00
        -11   -1    0    0    0    0  0.00000000000E+00  0.00000000000E+00  0.45593999997E+02  0.45594000000E+02  0.51100000000E-03 0. -1.
         11   -1    0    0    0    0 -0.00000000000E+00 -0.00000000000E+00 -0.45593999997E+02  0.45594000000E+02  0.51100000000E-03 0.  1.
         23    2    1    2    0    0  0.88817841970E-15  0.00000000000E+00  0.00000000000E+00  0.91188000000E+02  0.91188000000E+02 0.  0.
    9900012    2    3    3    0    0 -0.38747517860E+01 -0.32442649465E+02 -0.24199735556E+02  0.50528850886E+02  0.29999972753E+02 0.  0.
         12    1    3    3    0    0  0.38747517860E+01  0.32442649465E+02  0.24199735556E+02  0.40659149114E+02  0.00000000000E+00 0. -1.
         11    1    4    4    0    0  0.12048537437E+02 -0.13097734690E+02 -0.57773839821E+01  0.18710854452E+02  0.51100000000E-03 0. -1.
        -11    1    4    4    0    0 -0.12901313744E+02 -0.13719800789E+02 -0.10233017579E+02  0.21433419677E+02  0.51100000000E-03 0.  1.
         12    1    4    4    0    0 -0.30219754789E+01 -0.56251139857E+01 -0.81893339942E+01  0.10384576757E+02  0.00000000000E+00 0. -1.
</event>
<event>
 8    1  0.6016610E-012  0.9118800E+02  0.7816164E-02  0.1184000E+00
        -11   -1    0    0    0    0  0.00000000000E+00  0.00000000000E+00  0.45593999997E+02  0.45594000000E+02  0.51100000000E-03 0. -1.
         11   -1    0    0    0    0 -0.00000000000E+00 -0.00000000000E+00 -0.45593999997E+02  0.45594000000E+02  0.51100000000E-03 0.  1.
         23    2    1    2    0    0  0.44408920985E-15  0.17763568394E-14 -0.71054273576E-14  0.91188000000E+02  0.91188000000E+02 0.  0.
    9900012    2    3    3    0    0  0.28740618395E+01  0.84902946846E+01 -0.39658895896E+02  0.50528765391E+02  0.29999712880E+02 0.  0.
         12    1    3    3    0    0 -0.28740618395E+01 -0.84902946846E+01  0.39658895896E+02  0.40659234609E+02  0.00000000000E+00 0. -1.
         11    1    4    4    0    0 -0.65362316026E+01 -0.65284773020E+01 -0.81802618943E+01  0.12339368880E+02  0.51100000000E-03 0. -1.
        -11    1    4    4    0    0  0.90474397423E+01  0.70251317089E+01 -0.26223758799E+02  0.28616326935E+02  0.51100000000E-03 0.  1.
        -12    1    4    4    0    0  0.36285369983E+00  0.79936402778E+01 -0.52548752027E+01  0.95730695753E+01  0.00000000000E+00 0.  1.
</event>
<event>
 8    1  0.6016610E-012  0.9118800E+02  0.7816164E-02  0.1184000E+00
        -11   -1    0    0    0    0  0.00000000000E+00  0.00000000000E+00  0.45593999997E+02  0.45594000000E+02  0.51100000000E-03 0. -1.
         11   -1    0    0    0    0 -0.00000000000E+00 -0.00000000000E+00 -0.45593999997E+02  0.45594000000E+02  0.51100000000E-03 0.  1.
         23    2    1    2    0    0  0.00000000000E+00  0.00000000000E+00  0.00000000000E+00  0.91188000000E+02  0.91188000000E+02 0.  0.
    9900012    2    3    3    0    0  0.19553064528E+02  0.16360741974E+02 -0.31672856514E+02  0.50528855270E+02  0.29999986080E+02 0.  0.
         12    1    3    3    0    0 -0.19553064528E+02 -0.16360741974E+02  0.31672856514E+02  0.40659144730E+02  0.00000000000E+00 0. -1.
         11    1    4    4    0    0  0.19796528860E+01  0.14006080740E+02 -0.19188292876E+02  0.23838622170E+02  0.51100000000E-03 0. -1.
        -11    1    4    4    0    0  0.18149597025E+02  0.42549034694E+01 -0.55106218270E+01  0.19439110805E+02  0.51100000000E-03 0.  1.
         12    1    4    4    0    0 -0.57618538337E+00 -0.19002422346E+01 -0.69739418116E+01  0.72511222950E+01  0.00000000000E+00 0. -1.
</event>
<event>
 8    1  0.6016610E-012  0.9118800E+02  0.7816164E-02  0.1184000E+00
        -11   -1    0    0    0    0  0.00000000000E+00  0.00000000000E+00  0.45593999997E+02  0.45594000000E+02  0.51100000000E-03 0. -1.
         11   -1    0    0    0    0 -0.00000000000E+00 -0.00000000000E+00 -0.45593999997E+02  0.45594000000E+02  0.51100000000E-03 0.  1.
         23    2    1    2    0    0  0.00000000000E+00  0.88817841970E-15  0.00000000000E+00  0.91188000000E+02  0.91188000000E+02 0.  0.
    9900012    2    3    3    0    0 -0.13843477463E+02 -0.39348043517E+01  0.38026790653E+02  0.50528912936E+02  0.30000161359E+02 0.  0.
        -12    1    3    3    0    0  0.13843477463E+02  0.39348043517E+01 -0.38026790653E+02  0.40659087064E+02  0.00000000000E+00 0.  1.
         11    1    4    4    0    0  0.19780604860E+01 -0.28089318162E+01  0.12235434593E+02  0.12708606579E+02  0.51100000000E-03 0. -1.
        -11    1    4    4    0    0 -0.16990991720E+02 -0.85854909089E+01  0.13294896733E+02  0.23219791842E+02  0.51100000000E-03 0.  1.
        -12    1    4    4    0    0  0.11694537716E+01  0.74596183734E+01  0.12496459326E+02  0.14600514515E+02  0.00000000000E+00 0.  1.
</event>
<event>
 8    1  0.6016610E-012  0.9118800E+02  0.7816164E-02  0.1184000E+00
        -11   -1    0    0    0    0  0.00000000000E+00  0.00000000000E+00  0.45593999997E+02  0.45594000000E+02  0.51100000000E-03 0.  1.
         11   -1    0    0    0    0 -0.00000000000E+00 -0.00000000000E+00 -0.45593999997E+02  0.45594000000E+02  0.51100000000E-03 0. -1.
         23    2    1    2    0    0 -0.35527136788E-14  0.35527136788E-14  0.35527136788E-14  0.91188000000E+02  0.91188000000E+02 0.  0.
    9900012    2    3    3    0    0  0.31255044896E+02 -0.20468303047E+02 -0.16041745713E+02  0.50528845230E+02  0.29999955561E+02 0.  0.
         12    1    3    3    0    0 -0.31255044896E+02  0.20468303047E+02  0.16041745713E+02  0.40659154770E+02  0.00000000000E+00 0. -1.
         11    1    4    4    0    0  0.58583587469E+01 -0.14981603436E+02  0.16692649356E+01  0.16172669984E+02  0.51100000000E-03 0. -1.
        -11    1    4    4    0    0  0.11800418715E+01  0.33073057124E+01 -0.33836488804E+01  0.48764587459E+01  0.51100000000E-03 0.  1.
         12    1    4    4    0    0  0.24216644278E+02 -0.87940053235E+01 -0.14327361768E+02  0.29479716500E+02  0.00000000000E+00 0. -1.
</event>
<event>
 8    1  0.6016610E-012  0.9118800E+02  0.7816164E-02  0.1184000E+00
        -11   -1    0    0    0    0  0.00000000000E+00  0.00000000000E+00  0.45593999997E+02  0.45594000000E+02  0.51100000000E-03 0. -1.
         11   -1    0    0    0    0 -0.00000000000E+00 -0.00000000000E+00 -0.45593999997E+02  0.45594000000E+02  0.51100000000E-03 0.  1.
         23    2    1    2    0    0  0.17763568394E-14  0.00000000000E+00  0.71054273576E-14  0.91188000000E+02  0.91188000000E+02 0.  0.
    9900012    2    3    3    0    0  0.84644877779E+01 -0.23918188580E+02  0.31771497742E+02  0.50528986644E+02  0.30000385402E+02 0.  0.
        -12    1    3    3    0    0 -0.84644877779E+01  0.23918188580E+02 -0.31771497742E+02  0.40659013356E+02  0.00000000000E+00 0.  1.
         11    1    4    4    0    0  0.28686748824E+01  0.16853459619E+01  0.13491906800E+02  0.13896087073E+02  0.51100000000E-03 0. -1.
        -11    1    4    4    0    0  0.98714722957E+01 -0.24940085395E+02  0.13000395154E+02  0.29807114910E+02  0.51100000000E-03 0.  1.
        -12    1    4    4    0    0 -0.42756594002E+01 -0.66344914686E+00  0.52791957882E+01  0.68257846616E+01  0.00000000000E+00 0.  1.
</event>
<event>
 8    1  0.6016610E-012  0.9118800E+02  0.7816164E-02  0.1184000E+00
        -11   -1    0    0    0    0  0.00000000000E+00  0.00000000000E+00  0.45593999997E+02  0.45594000000E+02  0.51100000000E-03 0. -1.
         11   -1    0    0    0    0 -0.00000000000E+00 -0.00000000000E+00 -0.45593999997E+02  0.45594000000E+02  0.51100000000E-03 0.  1.
         23    2    1    2    0    0  0.00000000000E+00  0.00000000000E+00  0.00000000000E+00  0.91188000000E+02  0.91188000000E+02 0.  0.
    9900012    2    3    3    0    0 -0.18740761201E+02 -0.22333370049E+02  0.28340248101E+02  0.50528865595E+02  0.30000017462E+02 0.  0.
        -12    1    3    3    0    0  0.18740761201E+02  0.22333370049E+02 -0.28340248101E+02  0.40659134405E+02  0.00000000000E+00 0.  1.
         11    1    4    4    0    0 -0.10247806298E+02 -0.12892897146E+02 -0.36184882650E+00  0.16473471570E+02  0.51100000000E-03 0. -1.
        -11    1    4    4    0    0  0.19395168660E+01 -0.74293127004E+01  0.11147029662E+02  0.13535607981E+02  0.51100000000E-03 0.  1.
         12    1    4    4    0    0 -0.10432471768E+02 -0.20111602034E+01  0.17555067266E+02  0.20519786043E+02  0.00000000000E+00 0. -1.
</event>
<event>
 8    1  0.6016610E-012  0.9118800E+02  0.7816164E-02  0.1184000E+00
        -11   -1    0    0    0    0  0.00000000000E+00  0.00000000000E+00  0.45593999997E+02  0.45594000000E+02  0.51100000000E-03 0. -1.
         11   -1    0    0    0    0 -0.00000000000E+00 -0.00000000000E+00 -0.45593999997E+02  0.45594000000E+02  0.51100000000E-03 0.  1.
         23    2    1    2    0    0  0.00000000000E+00  0.00000000000E+00 -0.35527136788E-14  0.91188000000E+02  0.91188000000E+02 0.  0.
    9900012    2    3    3    0    0  0.25441773099E+02  0.32398920112E+01  0.31549729917E+02  0.50528853717E+02  0.29999981358E+02 0.  0.
        -12    1    3    3    0    0 -0.25441773099E+02 -0.32398920112E+01 -0.31549729917E+02  0.40659146283E+02  0.00000000000E+00 0.  1.
         11    1    4    4    0    0 -0.16783408393E+01  0.11087945119E+01  0.37223420191E+01  0.42310853939E+01  0.51100000000E-03 0. -1.
        -11    1    4    4    0    0  0.13689723528E+02 -0.92113755305E+01  0.22552777239E+02  0.27944332715E+02  0.51100000000E-03 0.  1.
        -12    1    4    4    0    0  0.13430390410E+02  0.11342473030E+02  0.52746106584E+01  0.18353435608E+02  0.00000000000E+00 0.  1.
</event>
<event>
 8    1  0.6016610E-012  0.9118800E+02  0.7816164E-02  0.1184000E+00
        -11   -1    0    0    0    0  0.00000000000E+00  0.00000000000E+00  0.45593999997E+02  0.45594000000E+02  0.51100000000E-03 0. -1.
         11   -1    0    0    0    0 -0.00000000000E+00 -0.00000000000E+00 -0.45593999997E+02  0.45594000000E+02  0.51100000000E-03 0.  1.
         23    2    1    2    0    0  0.17763568394E-14 -0.11102230246E-15  0.00000000000E+00  0.91188000000E+02  0.91188000000E+02 0.  0.
    9900012    2    3    3    0    0  0.95108855439E+01  0.81920217616E+00 -0.39522624825E+02  0.50528857005E+02  0.29999991352E+02 0.  0.
         12    1    3    3    0    0 -0.95108855439E+01 -0.81920217616E+00  0.39522624825E+02  0.40659142995E+02  0.00000000000E+00 0. -1.
         11    1    4    4    0    0 -0.39392238598E+01  0.39342005124E+01 -0.33360867277E+02  0.33822224706E+02  0.51100000000E-03 0. -1.
        -11    1    4    4    0    0  0.90809522225E+01  0.11084344145E+01 -0.20668212091E+01  0.93789162641E+01  0.51100000000E-03 0.  1.
         12    1    4    4    0    0  0.43691571812E+01 -0.42234327507E+01 -0.40949363386E+01  0.73277160351E+01  0.00000000000E+00 0. -1.
</event>
<event>
 8    1  0.6016610E-012  0.9118800E+02  0.7816164E-02  0.1184000E+00
        -11   -1    0    0    0    0  0.00000000000E+00  0.00000000000E+00  0.45593999997E+02  0.45594000000E+02  0.51100000000E-03 0. -1.
         11   -1    0    0    0    0 -0.00000000000E+00 -0.00000000000E+00 -0.45593999997E+02  0.45594000000E+02  0.51100000000E-03 0.  1.
         23    2    1    2    0    0 -0.17763568394E-14 -0.35527136788E-14  0.35527136788E-14  0.91188000000E+02  0.91188000000E+02 0.  0.
    9900012    2    3    3    0    0 -0.10457673024E+02 -0.30511083015E+02  0.24756339012E+02  0.50528862859E+02  0.30000009145E+02 0.  0.
        -12    1    3    3    0    0  0.10457673024E+02  0.30511083015E+02 -0.24756339012E+02  0.40659137141E+02  0.00000000000E+00 0.  1.
         11    1    4    4    0    0  0.12794967183E+00  0.45342716265E+01  0.26227242791E+01  0.52397207184E+01  0.51100000000E-03 0. -1.
        -11    1    4    4    0    0 -0.98365805147E+01 -0.23463031967E+02  0.22073433472E+02  0.33682468004E+02  0.51100000000E-03 0.  1.
        -12    1    4    4    0    0 -0.74904218081E+00 -0.11582322674E+02  0.60181260582E-01  0.11606674136E+02  0.00000000000E+00 0.  1.
</event>
<event>
 8    1  0.6016610E-012  0.9118800E+02  0.7816164E-02  0.1184000E+00
        -11   -1    0    0    0    0  0.00000000000E+00  0.00000000000E+00  0.45593999997E+02  0.45594000000E+02  0.51100000000E-03 0. -1.
         11   -1    0    0    0    0 -0.00000000000E+00 -0.00000000000E+00 -0.45593999997E+02  0.45594000000E+02  0.51100000000E-03 0.  1.
         23    2    1    2    0    0  0.00000000000E+00  0.88817841970E-15 -0.35527136788E-14  0.91188000000E+02  0.91188000000E+02 0.  0.
    9900012    2    3    3    0    0  0.25574116502E+02  0.40870462037E+01 -0.31343702644E+02  0.50528842643E+02  0.29999947698E+02 0.  0.
         12    1    3    3    0    0 -0.25574116502E+02 -0.40870462037E+01  0.31343702644E+02  0.40659157357E+02  0.00000000000E+00 0. -1.
         11    1    4    4    0    0  0.15404259102E+02  0.15717633082E+02 -0.24404024475E+02  0.32861704140E+02  0.51100000000E-03 0. -1.
        -11    1    4    4    0    0  0.95563742689E+01 -0.11312687225E+02 -0.50355894549E+01  0.15641558197E+02  0.51100000000E-03 0.  1.
        -12    1    4    4    0    0  0.61348313094E+00 -0.31789965320E+00 -0.19040887147E+01  0.20255803057E+01  0.00000000000E+00 0.  1.
</event>
<event>
 8    1  0.6016610E-012  0.9118800E+02  0.7816164E-02  0.1184000E+00
        -11   -1    0    0    0    0  0.00000000000E+00  0.00000000000E+00  0.45593999997E+02  0.45594000000E+02  0.51100000000E-03 0. -1.
         11   -1    0    0    0    0 -0.00000000000E+00 -0.00000000000E+00 -0.45593999997E+02  0.45594000000E+02  0.51100000000E-03 0.  1.
         23    2    1    2    0    0  0.17763568394E-14  0.35527136788E-14  0.00000000000E+00  0.91188000000E+02  0.91188000000E+02 0.  0.
    9900012    2    3    3    0    0  0.10324015495E+02  0.19341181971E+02 -0.34241781767E+02  0.50528853003E+02  0.29999979188E+02 0.  0.
         12    1    3    3    0    0 -0.10324015495E+02 -0.19341181971E+02  0.34241781767E+02  0.40659146997E+02  0.00000000000E+00 0. -1.
         11    1    4    4    0    0  0.78211207052E+01  0.15927822008E+02 -0.27812240050E+01  0.17961087111E+02  0.51100000000E-03 0. -1.
        -11    1    4    4    0    0 -0.21859462389E+01  0.25922785473E+01 -0.17280245328E+02  0.17609802608E+02  0.51100000000E-03 0.  1.
         12    1    4    4    0    0  0.46888410289E+01  0.82108141590E+00 -0.14180312433E+02  0.14957963284E+02  0.00000000000E+00 0. -1.
</event>
<event>
 8    1  0.6016610E-012  0.9118800E+02  0.7816164E-02  0.1184000E+00
        -11   -1    0    0    0    0  0.00000000000E+00  0.00000000000E+00  0.45593999997E+02  0.45594000000E+02  0.51100000000E-03 0. -1.
         11   -1    0    0    0    0 -0.00000000000E+00 -0.00000000000E+00 -0.45593999997E+02  0.45594000000E+02  0.51100000000E-03 0.  1.
         23    2    1    2    0    0  0.00000000000E+00 -0.17763568394E-14  0.00000000000E+00  0.91188000000E+02  0.91188000000E+02 0.  0.
    9900012    2    3    3    0    0  0.17374835049E+02  0.15227744905E+02  0.33457394383E+02  0.50528851622E+02  0.29999974991E+02 0.  0.
        -12    1    3    3    0    0 -0.17374835049E+02 -0.15227744905E+02 -0.33457394383E+02  0.40659148378E+02  0.00000000000E+00 0.  1.
         11    1    4    4    0    0  0.65192084122E+01 -0.73044277299E+01  0.11124654700E+02  0.14819334845E+02  0.51100000000E-03 0.  1.
        -11    1    4    4    0    0  0.11273613667E+02  0.17480444162E+02  0.11543672295E+02  0.23789002995E+02  0.51100000000E-03 0. -1.
         12    1    4    4    0    0 -0.41798702946E+00  0.50517284732E+01  0.10789067388E+02  0.11920513782E+02  0.00000000000E+00 0. -1.
</event>
<event>
 8    1  0.6016610E-012  0.9118800E+02  0.7816164E-02  0.1184000E+00
        -11   -1    0    0    0    0  0.00000000000E+00  0.00000000000E+00  0.45593999997E+02  0.45594000000E+02  0.51100000000E-03 0. -1.
         11   -1    0    0    0    0 -0.00000000000E+00 -0.00000000000E+00 -0.45593999997E+02  0.45594000000E+02  0.51100000000E-03 0.  1.
         23    2    1    2    0    0  0.00000000000E+00  0.00000000000E+00  0.35527136788E-14  0.91188000000E+02  0.91188000000E+02 0.  0.
    9900012    2    3    3    0    0  0.25335821536E+02  0.13248833417E+02 -0.28908998648E+02  0.50528860282E+02  0.30000001313E+02 0.  0.
         12    1    3    3    0    0 -0.25335821536E+02 -0.13248833417E+02  0.28908998648E+02  0.40659139718E+02  0.00000000000E+00 0. -1.
         11    1    4    4    0    0  0.26195905376E+01 -0.50167403960E+01 -0.18846385717E+02  0.19677809676E+02  0.51100000000E-03 0. -1.
        -11    1    4    4    0    0  0.91325209166E+01  0.71913647132E+01 -0.35461843427E+01  0.12152945667E+02  0.51100000000E-03 0.  1.
         12    1    4    4    0    0  0.13583710081E+02  0.11074209100E+02 -0.65164285874E+01  0.18698104939E+02  0.00000000000E+00 0. -1.
</event>
<event>
 8    1  0.6016610E-012  0.9118800E+02  0.7816164E-02  0.1184000E+00
        -11   -1    0    0    0    0  0.00000000000E+00  0.00000000000E+00  0.45593999997E+02  0.45594000000E+02  0.51100000000E-03 0. -1.
         11   -1    0    0    0    0 -0.00000000000E+00 -0.00000000000E+00 -0.45593999997E+02  0.45594000000E+02  0.51100000000E-03 0.  1.
         23    2    1    2    0    0  0.00000000000E+00 -0.35527136788E-14  0.00000000000E+00  0.91188000000E+02  0.91188000000E+02 0.  0.
    9900012    2    3    3    0    0 -0.21883960493E+02  0.29193422993E+02 -0.17944423365E+02  0.50528855852E+02  0.29999987849E+02 0.  0.
         12    1    3    3    0    0  0.21883960493E+02 -0.29193422993E+02  0.17944423365E+02  0.40659144148E+02  0.00000000000E+00 0. -1.
         11    1    4    4    0    0  0.57243386610E+01  0.25494165280E+01 -0.26724090863E+01  0.68124407025E+01  0.51100000000E-03 0. -1.
        -11    1    4    4    0    0 -0.16307527776E+02  0.72583209280E+01 -0.10715964228E+02  0.20819475845E+02  0.51100000000E-03 0.  1.
        -12    1    4    4    0    0 -0.11300771378E+02  0.19385685537E+02 -0.45560500509E+01  0.22896939305E+02  0.00000000000E+00 0.  1.
</event>
<event>
 8    1  0.6016610E-012  0.9118800E+02  0.7816164E-02  0.1184000E+00
        -11   -1    0    0    0    0  0.00000000000E+00  0.00000000000E+00  0.45593999997E+02  0.45594000000E+02  0.51100000000E-03 0.  1.
         11   -1    0    0    0    0 -0.00000000000E+00 -0.00000000000E+00 -0.45593999997E+02  0.45594000000E+02  0.51100000000E-03 0. -1.
         23    2    1    2    0    0  0.00000000000E+00  0.88817841970E-15 -0.17763568394E-14  0.91188000000E+02  0.91188000000E+02 0.  0.
    9900012    2    3    3    0    0  0.38846113464E+02 -0.79403344263E+01  0.90053936564E+01  0.50528849038E+02  0.29999967137E+02 0.  0.
        -12    1    3    3    0    0 -0.38846113464E+02  0.79403344263E+01 -0.90053936564E+01  0.40659150962E+02  0.00000000000E+00 0.  1.
         11    1    4    4    0    0  0.13938120029E+02  0.12381789516E+01  0.16447041533E+02  0.21594199511E+02  0.51100000000E-03 0. -1.
        -11    1    4    4    0    0  0.29094644012E+01 -0.24239823515E+01 -0.42661351356E+01  0.57044353620E+01  0.51100000000E-03 0.  1.
         12    1    4    4    0    0  0.21998529033E+02 -0.67545310264E+01 -0.31755127408E+01  0.23230214166E+02  0.00000000000E+00 0. -1.
</event>
<event>
 8    1  0.6016610E-012  0.9118800E+02  0.7816164E-02  0.1184000E+00
        -11   -1    0    0    0    0  0.00000000000E+00  0.00000000000E+00  0.45593999997E+02  0.45594000000E+02  0.51100000000E-03 0. -1.
         11   -1    0    0    0    0 -0.00000000000E+00 -0.00000000000E+00 -0.45593999997E+02  0.45594000000E+02  0.51100000000E-03 0.  1.
         23    2    1    2    0    0 -0.35527136788E-14 -0.35527136788E-14  0.00000000000E+00  0.91188000000E+02  0.91188000000E+02 0.  0.
    9900012    2    3    3    0    0 -0.26909439537E+02  0.26326369651E+02  0.15361316150E+02  0.50528859465E+02  0.29999998829E+02 0.  0.
        -12    1    3    3    0    0  0.26909439537E+02 -0.26326369651E+02 -0.15361316150E+02  0.40659140535E+02  0.00000000000E+00 0.  1.
         11    1    4    4    0    0 -0.10962554011E+02  0.32381894552E+01 -0.71955042411E+01  0.13506988670E+02  0.51100000000E-03 0.  1.
        -11    1    4    4    0    0 -0.13788602599E+02  0.14683634118E+02  0.18845744468E+02  0.27584357113E+02  0.51100000000E-03 0. -1.
         12    1    4    4    0    0 -0.21582829270E+01  0.84045460781E+01  0.37110759229E+01  0.94375136809E+01  0.00000000000E+00 0. -1.
</event>
<event>
 8    1  0.6016610E-012  0.9118800E+02  0.7816164E-02  0.1184000E+00
        -11   -1    0    0    0    0  0.00000000000E+00  0.00000000000E+00  0.45593999997E+02  0.45594000000E+02  0.51100000000E-03 0. -1.
         11   -1    0    0    0    0 -0.00000000000E+00 -0.00000000000E+00 -0.45593999997E+02  0.45594000000E+02  0.51100000000E-03 0.  1.
         23    2    1    2    0    0  0.88817841970E-15  0.00000000000E+00  0.00000000000E+00  0.91188000000E+02  0.91188000000E+02 0.  0.
    9900012    2    3    3    0    0 -0.40679514858E+01 -0.34009821174E+01  0.40311932940E+02  0.50528845484E+02  0.29999956332E+02 0.  0.
        -12    1    3    3    0    0  0.40679514858E+01  0.34009821174E+01 -0.40311932940E+02  0.40659154516E+02  0.00000000000E+00 0.  1.
         11    1    4    4    0    0 -0.10666404870E+02 -0.63045308239E+01  0.56041308072E+01  0.13598734651E+02  0.51100000000E-03 0. -1.
        -11    1    4    4    0    0 -0.46572071298E+00  0.51758999293E+01  0.14247413974E+02  0.15165607177E+02  0.51100000000E-03 0.  1.
         12    1    4    4    0    0  0.70641740967E+01 -0.22723512228E+01  0.20460388159E+02  0.21764503655E+02  0.00000000000E+00 0. -1.
</event>
<event>
 8    1  0.6016610E-012  0.9118800E+02  0.7816164E-02  0.1184000E+00
        -11   -1    0    0    0    0  0.00000000000E+00  0.00000000000E+00  0.45593999997E+02  0.45594000000E+02  0.51100000000E-03 0.  1.
         11   -1    0    0    0    0 -0.00000000000E+00 -0.00000000000E+00 -0.45593999997E+02  0.45594000000E+02  0.51100000000E-03 0. -1.
         23    2    1    2    0    0  0.00000000000E+00  0.26645352591E-14  0.00000000000E+00  0.91188000000E+02  0.91188000000E+02 0.  0.
    9900012    2    3    3    0    0  0.39443521764E+02 -0.72117232759E+01  0.67354643372E+01  0.50528845538E+02  0.29999956497E+02 0.  0.
         12    1    3    3    0    0 -0.39443521764E+02  0.72117232759E+01 -0.67354643372E+01  0.40659154462E+02  0.00000000000E+00 0. -1.
         11    1    4    4    0    0 -0.27731546808E+01  0.36675045450E+01 -0.17950624722E+00  0.46014344747E+01  0.51100000000E-03 0. -1.
        -11    1    4    4    0    0  0.22312487308E+02  0.72123134598E+00  0.43877389170E+01  0.22751253100E+02  0.51100000000E-03 0.  1.
         12    1    4    4    0    0  0.19904189136E+02 -0.11600459167E+02  0.25272316674E+01  0.23176157964E+02  0.00000000000E+00 0. -1.
</event>
<event>
 8    1  0.6016610E-012  0.9118800E+02  0.7816164E-02  0.1184000E+00
        -11   -1    0    0    0    0  0.00000000000E+00  0.00000000000E+00  0.45593999997E+02  0.45594000000E+02  0.51100000000E-03 0. -1.
         11   -1    0    0    0    0 -0.00000000000E+00 -0.00000000000E+00 -0.45593999997E+02  0.45594000000E+02  0.51100000000E-03 0.  1.
         23    2    1    2    0    0  0.00000000000E+00  0.44408920985E-15  0.00000000000E+00  0.91188000000E+02  0.91188000000E+02 0.  0.
    9900012    2    3    3    0    0  0.32792173599E+02  0.21860224538E+01 -0.23938667063E+02  0.50528866656E+02  0.30000020687E+02 0.  0.
         12    1    3    3    0    0 -0.32792173599E+02 -0.21860224538E+01  0.23938667063E+02  0.40659133344E+02  0.00000000000E+00 0. -1.
         11    1    4    4    0    0  0.17524884047E+02  0.92551627661E+01 -0.45898506420E+01  0.20343213312E+02  0.51100000000E-03 0. -1.
        -11    1    4    4    0    0  0.11324672782E+02 -0.10294155687E+02 -0.19853048694E+02  0.25067137802E+02  0.51100000000E-03 0.  1.
        -12    1    4    4    0    0  0.39426167700E+01  0.32250153745E+01  0.50423227208E+00  0.51185155412E+01  0.00000000000E+00 0.  1.
</event>
<event>
 8    1  0.6016610E-012  0.9118800E+02  0.7816164E-02  0.1184000E+00
        -11   -1    0    0    0    0  0.00000000000E+00  0.00000000000E+00  0.45593999997E+02  0.45594000000E+02  0.51100000000E-03 0.  1.
         11   -1    0    0    0    0 -0.00000000000E+00 -0.00000000000E+00 -0.45593999997E+02  0.45594000000E+02  0.51100000000E-03 0. -1.
         23    2    1    2    0    0  0.00000000000E+00 -0.17763568394E-14  0.00000000000E+00  0.91188000000E+02  0.91188000000E+02 0.  0.
    9900012    2    3    3    0    0  0.39137292701E+02 -0.96270806715E+01  0.53625687765E+01  0.50528861961E+02  0.30000006416E+02 0.  0.
         12    1    3    3    0    0 -0.39137292701E+02  0.96270806715E+01 -0.53625687765E+01  0.40659138039E+02  0.00000000000E+00 0. -1.
         11    1    4    4    0    0  0.22074271755E+02  0.41011953351E+01  0.12085783541E+02  0.25498224267E+02  0.51100000000E-03 0. -1.
        -11    1    4    4    0    0  0.17769553021E+02 -0.14222630526E+02 -0.53045498405E+01  0.23370461760E+02  0.51100000000E-03 0.  1.
         12    1    4    4    0    0 -0.70653207439E+00  0.49435451913E+00 -0.14186649244E+01  0.16601759336E+01  0.00000000000E+00 0. -1.
</event>
<event>
 8    1  0.6016610E-012  0.9118800E+02  0.7816164E-02  0.1184000E+00
        -11   -1    0    0    0    0  0.00000000000E+00  0.00000000000E+00  0.45593999997E+02  0.45594000000E+02  0.51100000000E-03 0. -1.
         11   -1    0    0    0    0 -0.00000000000E+00 -0.00000000000E+00 -0.45593999997E+02  0.45594000000E+02  0.51100000000E-03 0.  1.
         23    2    1    2    0    0  0.00000000000E+00  0.00000000000E+00  0.00000000000E+00  0.91188000000E+02  0.91188000000E+02 0.  0.
    9900012    2    3    3    0    0  0.25862129095E+02  0.19014051654E+02 -0.24955613288E+02  0.50528849539E+02  0.29999968659E+02 0.  0.
         12    1    3    3    0    0 -0.25862129095E+02 -0.19014051654E+02  0.24955613288E+02  0.40659150461E+02  0.00000000000E+00 0. -1.
         11    1    4    4    0    0 -0.18717746795E+01 -0.41612871946E+01 -0.63958148098E+01  0.78566086137E+01  0.51100000000E-03 0. -1.
        -11    1    4    4    0    0  0.17846111064E+02  0.10835137099E+02 -0.41662672246E+01  0.21289472960E+02  0.51100000000E-03 0.  1.
         12    1    4    4    0    0  0.98877927104E+01  0.12340201749E+02 -0.14393531254E+02  0.21382767965E+02  0.00000000000E+00 0. -1.
</event>
<event>
 8    1  0.6016610E-012  0.9118800E+02  0.7816164E-02  0.1184000E+00
        -11   -1    0    0    0    0  0.00000000000E+00  0.00000000000E+00  0.45593999997E+02  0.45594000000E+02  0.51100000000E-03 0. -1.
         11   -1    0    0    0    0 -0.00000000000E+00 -0.00000000000E+00 -0.45593999997E+02  0.45594000000E+02  0.51100000000E-03 0.  1.
         23    2    1    2    0    0 -0.17763568394E-14 -0.17763568394E-14  0.00000000000E+00  0.91188000000E+02  0.91188000000E+02 0.  0.
    9900012    2    3    3    0    0 -0.22792590576E+01 -0.80347916495E+01  0.39792100704E+02  0.50528878304E+02  0.30000056092E+02 0.  0.
        -12    1    3    3    0    0  0.22792590576E+01  0.80347916495E+01 -0.39792100704E+02  0.40659121696E+02  0.00000000000E+00 0.  1.
         11    1    4    4    0    0 -0.93087573276E+01 -0.35095359700E+00  0.30035809972E+01  0.97876263965E+01  0.51100000000E-03 0.  1.
        -11    1    4    4    0    0 -0.21359256136E+01 -0.28707290986E+01  0.13545367761E+01  0.38259683641E+01  0.51100000000E-03 0. -1.
         12    1    4    4    0    0  0.91654238835E+01 -0.48131089539E+01  0.35433982930E+02  0.36915283543E+02  0.00000000000E+00 0. -1.
</event>
<event>
 8    1  0.6016610E-012  0.9118800E+02  0.7816164E-02  0.1184000E+00
        -11   -1    0    0    0    0  0.00000000000E+00  0.00000000000E+00  0.45593999997E+02  0.45594000000E+02  0.51100000000E-03 0. -1.
         11   -1    0    0    0    0 -0.00000000000E+00 -0.00000000000E+00 -0.45593999997E+02  0.45594000000E+02  0.51100000000E-03 0.  1.
         23    2    1    2    0    0  0.00000000000E+00  0.00000000000E+00  0.00000000000E+00  0.91188000000E+02  0.91188000000E+02 0.  0.
    9900012    2    3    3    0    0 -0.12999374155E+02  0.18503995184E+02 -0.33790276802E+02  0.50528875901E+02  0.30000048788E+02 0.  0.
         12    1    3    3    0    0  0.12999374155E+02 -0.18503995184E+02  0.33790276802E+02  0.40659124099E+02  0.00000000000E+00 0. -1.
         11    1    4    4    0    0  0.60611180244E+01  0.91562198694E+01 -0.15980067155E+02  0.19389070646E+02  0.51100000000E-03 0. -1.
        -11    1    4    4    0    0 -0.20341783119E+02  0.51725315860E+01 -0.16086095783E+02  0.26444388842E+02  0.51100000000E-03 0.  1.
        -12    1    4    4    0    0  0.12812909396E+01  0.41752437286E+01 -0.17241138643E+01  0.46954164120E+01  0.00000000000E+00 0.  1.
</event>
<event>
 8    1  0.6016610E-012  0.9118800E+02  0.7816164E-02  0.1184000E+00
        -11   -1    0    0    0    0  0.00000000000E+00  0.00000000000E+00  0.45593999997E+02  0.45594000000E+02  0.51100000000E-03 0.  1.
         11   -1    0    0    0    0 -0.00000000000E+00 -0.00000000000E+00 -0.45593999997E+02  0.45594000000E+02  0.51100000000E-03 0. -1.
         23    2    1    2    0    0  0.00000000000E+00  0.00000000000E+00  0.00000000000E+00  0.91188000000E+02  0.91188000000E+02 0.  0.
    9900012    2    3    3    0    0 -0.19856398287E+02  0.22974581788E+02  0.27038026115E+02  0.50528895024E+02  0.30000106914E+02 0.  0.
        -12    1    3    3    0    0  0.19856398287E+02 -0.22974581788E+02 -0.27038026115E+02  0.40659104976E+02  0.00000000000E+00 0.  1.
         11    1    4    4    0    0 -0.75173923174E+01  0.20124051579E+02  0.18570844357E+02  0.28396564926E+02  0.51100000000E-03 0. -1.
        -11    1    4    4    0    0 -0.57411538420E+01 -0.17042072975E+01 -0.40771153594E+01  0.72448629984E+01  0.51100000000E-03 0.  1.
         12    1    4    4    0    0 -0.65978521278E+01  0.45547375062E+01  0.12544297117E+02  0.14887467099E+02  0.00000000000E+00 0. -1.
</event>
<event>
 8    1  0.6016610E-012  0.9118800E+02  0.7816164E-02  0.1184000E+00
        -11   -1    0    0    0    0  0.00000000000E+00  0.00000000000E+00  0.45593999997E+02  0.45594000000E+02  0.51100000000E-03 0. -1.
         11   -1    0    0    0    0 -0.00000000000E+00 -0.00000000000E+00 -0.45593999997E+02  0.45594000000E+02  0.51100000000E-03 0.  1.
         23    2    1    2    0    0  0.00000000000E+00  0.35527136788E-14  0.17763568394E-14  0.91188000000E+02  0.91188000000E+02 0.  0.
    9900012    2    3    3    0    0  0.24093752545E+02  0.30313322449E+02  0.12399887983E+02  0.50528884767E+02  0.30000075737E+02 0.  0.
        -12    1    3    3    0    0 -0.24093752545E+02 -0.30313322449E+02 -0.12399887983E+02  0.40659115233E+02  0.00000000000E+00 0.  1.
         11    1    4    4    0    0  0.70615863133E+00  0.15960323051E+02  0.15207384205E+02  0.22056634071E+02  0.51100000000E-03 0. -1.
        -11    1    4    4    0    0  0.17702991272E+02  0.78626695185E+01 -0.39498712655E+01  0.19769141489E+02  0.51100000000E-03 0.  1.
        -12    1    4    4    0    0  0.56846026408E+01  0.64903298788E+01  0.11423750436E+01  0.87031092065E+01  0.00000000000E+00 0.  1.
</event>
<event>
 8    1  0.6016610E-012  0.9118800E+02  0.7816164E-02  0.1184000E+00
        -11   -1    0    0    0    0  0.00000000000E+00  0.00000000000E+00  0.45593999997E+02  0.45594000000E+02  0.51100000000E-03 0. -1.
         11   -1    0    0    0    0 -0.00000000000E+00 -0.00000000000E+00 -0.45593999997E+02  0.45594000000E+02  0.51100000000E-03 0.  1.
         23    2    1    2    0    0  0.17763568394E-14 -0.22204460493E-15  0.00000000000E+00  0.91188000000E+02  0.91188000000E+02 0.  0.
    9900012    2    3    3    0    0  0.11514273989E+01 -0.13448044220E+01 -0.40620574293E+02  0.50528864004E+02  0.30000012627E+02 0.  0.
         12    1    3    3    0    0 -0.11514273989E+01  0.13448044220E+01  0.40620574293E+02  0.40659135996E+02  0.00000000000E+00 0. -1.
         11    1    4    4    0    0  0.11306795330E+02 -0.27748055479E+01 -0.33342560221E+02  0.35316702689E+02  0.51100000000E-03 0.  1.
        -11    1    4    4    0    0 -0.80762717701E+00  0.13071123689E+01 -0.54812260029E+01  0.56925076336E+01  0.51100000000E-03 0. -1.
         12    1    4    4    0    0 -0.93477407544E+01  0.12288875699E+00 -0.17967880698E+01  0.95196536820E+01  0.00000000000E+00 0. -1.
</event>
<event>
 8    1  0.6016610E-012  0.9118800E+02  0.7816164E-02  0.1184000E+00
        -11   -1    0    0    0    0  0.00000000000E+00  0.00000000000E+00  0.45593999997E+02  0.45594000000E+02  0.51100000000E-03 0. -1.
         11   -1    0    0    0    0 -0.00000000000E+00 -0.00000000000E+00 -0.45593999997E+02  0.45594000000E+02  0.51100000000E-03 0.  1.
         23    2    1    2    0    0 -0.35527136788E-14 -0.17763568394E-14  0.00000000000E+00  0.91188000000E+02  0.91188000000E+02 0.  0.
    9900012    2    3    3    0    0 -0.16639731781E+02  0.94451056077E+01  0.35875806583E+02  0.50528878125E+02  0.30000055548E+02 0.  0.
        -12    1    3    3    0    0  0.16639731781E+02 -0.94451056077E+01 -0.35875806583E+02  0.40659121875E+02  0.00000000000E+00 0.  1.
         11    1    4    4    0    0  0.40862938496E+01  0.11049841134E+01  0.62965969988E+01  0.75872209235E+01  0.51100000000E-03 0. -1.
        -11    1    4    4    0    0 -0.20728241065E+02  0.10774311382E+02  0.14130439615E+02  0.27302290881E+02  0.51100000000E-03 0.  1.
        -12    1    4    4    0    0  0.22154345783E-02 -0.24341898873E+01  0.15448769969E+02  0.15639366320E+02  0.00000000000E+00 0.  1.
</event>
<event>
 8    1  0.6016610E-012  0.9118800E+02  0.7816164E-02  0.1184000E+00
        -11   -1    0    0    0    0  0.00000000000E+00  0.00000000000E+00  0.45593999997E+02  0.45594000000E+02  0.51100000000E-03 0. -1.
         11   -1    0    0    0    0 -0.00000000000E+00 -0.00000000000E+00 -0.45593999997E+02  0.45594000000E+02  0.51100000000E-03 0.  1.
         23    2    1    2    0    0  0.17763568394E-14  0.00000000000E+00  0.00000000000E+00  0.91188000000E+02  0.91188000000E+02 0.  0.
    9900012    2    3    3    0    0 -0.10364065940E+02 -0.11635479610E+02  0.37554860228E+02  0.50528858650E+02  0.29999996352E+02 0.  0.
        -12    1    3    3    0    0  0.10364065940E+02  0.11635479610E+02 -0.37554860228E+02  0.40659141350E+02  0.00000000000E+00 0.  1.
         11    1    4    4    0    0 -0.13949812413E+02 -0.96188702967E+01  0.22746553800E+02  0.28364161228E+02  0.51100000000E-03 0. -1.
        -11    1    4    4    0    0  0.61537483477E+01 -0.59320178136E+01  0.23634631843E+01  0.88681121188E+01  0.51100000000E-03 0.  1.
        -12    1    4    4    0    0 -0.25680018748E+01  0.39154085004E+01  0.12444843244E+02  0.13296585303E+02  0.00000000000E+00 0.  1.
</event>
<event>
 8    1  0.6016610E-012  0.9118800E+02  0.7816164E-02  0.1184000E+00
        -11   -1    0    0    0    0  0.00000000000E+00  0.00000000000E+00  0.45593999997E+02  0.45594000000E+02  0.51100000000E-03 0. -1.
         11   -1    0    0    0    0 -0.00000000000E+00 -0.00000000000E+00 -0.45593999997E+02  0.45594000000E+02  0.51100000000E-03 0.  1.
         23    2    1    2    0    0  0.17763568394E-14  0.00000000000E+00  0.71054273576E-14  0.91188000000E+02  0.91188000000E+02 0.  0.
    9900012    2    3    3    0    0 -0.33781904251E+01  0.57066261253E+01  0.40114686685E+02  0.50528857853E+02  0.29999993930E+02 0.  0.
        -12    1    3    3    0    0  0.33781904251E+01 -0.57066261253E+01 -0.40114686685E+02  0.40659142147E+02  0.00000000000E+00 0.  1.
         11    1    4    4    0    0  0.12828006801E+02  0.17715406841E+01  0.14455104529E+02  0.19407373910E+02  0.51100000000E-03 0. -1.
        -11    1    4    4    0    0 -0.15540252300E+02  0.31401234534E+01  0.20804976224E+02  0.26157347970E+02  0.51100000000E-03 0.  1.
         12    1    4    4    0    0 -0.66594492589E+00  0.79496198788E+00  0.48546059324E+01  0.49641359737E+01  0.00000000000E+00 0. -1.
</event>
<event>
 8    1  0.6016610E-012  0.9118800E+02  0.7816164E-02  0.1184000E+00
        -11   -1    0    0    0    0  0.00000000000E+00  0.00000000000E+00  0.45593999997E+02  0.45594000000E+02  0.51100000000E-03 0. -1.
         11   -1    0    0    0    0 -0.00000000000E+00 -0.00000000000E+00 -0.45593999997E+02  0.45594000000E+02  0.51100000000E-03 0.  1.
         23    2    1    2    0    0 -0.35527136788E-14 -0.44408920985E-15  0.00000000000E+00  0.91188000000E+02  0.91188000000E+02 0.  0.
    9900012    2    3    3    0    0  0.14138782491E+02 -0.25328617972E+01  0.38037395224E+02  0.50528880548E+02  0.30000062914E+02 0.  0.
        -12    1    3    3    0    0 -0.14138782491E+02  0.25328617972E+01 -0.38037395224E+02  0.40659119452E+02  0.00000000000E+00 0.  1.
         11    1    4    4    0    0 -0.14023013947E+01  0.67347793115E+01  0.22749665470E+02  0.23767014554E+02  0.51100000000E-03 0. -1.
        -11    1    4    4    0    0  0.16539114632E+02 -0.51485431108E+01  0.14168015744E+02  0.22378169705E+02  0.51100000000E-03 0.  1.
         12    1    4    4    0    0 -0.99803074612E+00 -0.41190979978E+01  0.11197140097E+01  0.43836962885E+01  0.00000000000E+00 0. -1.
</event>
<event>
 8    1  0.6016610E-012  0.9118800E+02  0.7816164E-02  0.1184000E+00
        -11   -1    0    0    0    0  0.00000000000E+00  0.00000000000E+00  0.45593999997E+02  0.45594000000E+02  0.51100000000E-03 0. -1.
         11   -1    0    0    0    0 -0.00000000000E+00 -0.00000000000E+00 -0.45593999997E+02  0.45594000000E+02  0.51100000000E-03 0.  1.
         23    2    1    2    0    0  0.00000000000E+00 -0.35527136788E-14  0.00000000000E+00  0.91188000000E+02  0.91188000000E+02 0.  0.
    9900012    2    3    3    0    0  0.26803881588E+02 -0.17600805919E+02 -0.24998599087E+02  0.50528851048E+02  0.29999973246E+02 0.  0.
         12    1    3    3    0    0 -0.26803881588E+02  0.17600805919E+02  0.24998599087E+02  0.40659148952E+02  0.00000000000E+00 0. -1.
         11    1    4    4    0    0 -0.28240619257E+01 -0.81099674597E+01  0.56511001324E+00  0.86061749660E+01  0.51100000000E-03 0. -1.
        -11    1    4    4    0    0  0.30354245387E+02 -0.88534535929E+01 -0.25927561442E+02  0.40890124677E+02  0.51100000000E-03 0.  1.
        -12    1    4    4    0    0 -0.72630187302E+00 -0.63738486608E+00  0.36385234160E+00  0.10325514054E+01  0.00000000000E+00 0.  1.
</event>
<event>
 8    1  0.6016610E-012  0.9118800E+02  0.7816164E-02  0.1184000E+00
        -11   -1    0    0    0    0  0.00000000000E+00  0.00000000000E+00  0.45593999997E+02  0.45594000000E+02  0.51100000000E-03 0. -1.
         11   -1    0    0    0    0 -0.00000000000E+00 -0.00000000000E+00 -0.45593999997E+02  0.45594000000E+02  0.51100000000E-03 0.  1.
         23    2    1    2    0    0  0.00000000000E+00 -0.35527136788E-14  0.35527136788E-14  0.91188000000E+02  0.91188000000E+02 0.  0.
    9900012    2    3    3    0    0  0.24260480888E+02  0.24203961307E+02  0.21880653056E+02  0.50528860142E+02  0.30000000887E+02 0.  0.
        -12    1    3    3    0    0 -0.24260480888E+02 -0.24203961307E+02 -0.21880653056E+02  0.40659139858E+02  0.00000000000E+00 0.  1.
         11    1    4    4    0    0  0.77480298848E+01 -0.23295488056E+01  0.55697858055E+01  0.98224884278E+01  0.51100000000E-03 0. -1.
        -11    1    4    4    0    0  0.86966479454E+01  0.27968149815E+02  0.13762811932E+02  0.32361459826E+02  0.51100000000E-03 0.  1.
        -12    1    4    4    0    0  0.78158030578E+01 -0.14346397023E+01  0.25480553179E+01  0.83449118878E+01  0.00000000000E+00 0.  1.
</event>
<event>
 8    1  0.6016610E-012  0.9118800E+02  0.7816164E-02  0.1184000E+00
        -11   -1    0    0    0    0  0.00000000000E+00  0.00000000000E+00  0.45593999997E+02  0.45594000000E+02  0.51100000000E-03 0. -1.
         11   -1    0    0    0    0 -0.00000000000E+00 -0.00000000000E+00 -0.45593999997E+02  0.45594000000E+02  0.51100000000E-03 0.  1.
         23    2    1    2    0    0 -0.23314683517E-14  0.00000000000E+00  0.35527136788E-14  0.91188000000E+02  0.91188000000E+02 0.  0.
    9900012    2    3    3    0    0 -0.52386922118E+00  0.39104776530E+02 -0.11122352302E+02  0.50528871785E+02  0.30000036278E+02 0.  0.
         12    1    3    3    0    0  0.52386922118E+00 -0.39104776530E+02  0.11122352302E+02  0.40659128215E+02  0.00000000000E+00 0. -1.
         11    1    4    4    0    0 -0.96628244211E+01  0.90583610332E+01  0.50680317645E+01  0.14181291430E+02  0.51100000000E-03 0. -1.
        -11    1    4    4    0    0  0.73548883736E+01  0.10036415559E+02 -0.57481211206E+01  0.13706382343E+02  0.51100000000E-03 0.  1.
         12    1    4    4    0    0  0.17840668263E+01  0.20009999938E+02 -0.10442262946E+02  0.22641198012E+02  0.00000000000E+00 0. -1.
</event>
<event>
 8    1  0.6016610E-012  0.9118800E+02  0.7816164E-02  0.1184000E+00
        -11   -1    0    0    0    0  0.00000000000E+00  0.00000000000E+00  0.45593999997E+02  0.45594000000E+02  0.51100000000E-03 0. -1.
         11   -1    0    0    0    0 -0.00000000000E+00 -0.00000000000E+00 -0.45593999997E+02  0.45594000000E+02  0.51100000000E-03 0.  1.
         23    2    1    2    0    0  0.00000000000E+00  0.00000000000E+00  0.61062266354E-15  0.91188000000E+02  0.91188000000E+02 0.  0.
    9900012    2    3    3    0    0  0.39260306123E+02  0.10565154201E+02 -0.41515334481E+00  0.50528850077E+02  0.29999970294E+02 0.  0.
        -12    1    3    3    0    0 -0.39260306123E+02 -0.10565154201E+02  0.41515334481E+00  0.40659149923E+02  0.00000000000E+00 0.  1.
         11    1    4    4    0    0  0.35506089075E+01  0.34629878669E+01  0.82199682404E+01  0.96003638845E+01  0.51100000000E-03 0. -1.
        -11    1    4    4    0    0  0.13131807390E+02 -0.51190413432E+01 -0.93486101976E+00  0.14125258050E+02  0.51100000000E-03 0.  1.
         12    1    4    4    0    0  0.22577889825E+02  0.12221207678E+02 -0.77002605654E+01  0.26803228142E+02  0.00000000000E+00 0. -1.
</event>
<event>
 8    1  0.6016610E-012  0.9118800E+02  0.7816164E-02  0.1184000E+00
        -11   -1    0    0    0    0  0.00000000000E+00  0.00000000000E+00  0.45593999997E+02  0.45594000000E+02  0.51100000000E-03 0. -1.
         11   -1    0    0    0    0 -0.00000000000E+00 -0.00000000000E+00 -0.45593999997E+02  0.45594000000E+02  0.51100000000E-03 0.  1.
         23    2    1    2    0    0  0.00000000000E+00 -0.88817841970E-15  0.00000000000E+00  0.91188000000E+02  0.91188000000E+02 0.  0.
    9900012    2    3    3    0    0 -0.26405852880E+02 -0.59108657532E+01  0.30347293726E+02  0.50528860354E+02  0.30000001531E+02 0.  0.
        -12    1    3    3    0    0  0.26405852880E+02  0.59108657532E+01 -0.30347293726E+02  0.40659139646E+02  0.00000000000E+00 0.  1.
         11    1    4    4    0    0  0.21154797421E+01  0.15069613718E+01  0.22867751080E+01  0.34605675504E+01  0.51100000000E-03 0. -1.
        -11    1    4    4    0    0 -0.30846159032E+02 -0.72996912128E+01  0.30291091855E+02  0.43844284290E+02  0.51100000000E-03 0.  1.
        -12    1    4    4    0    0  0.23248264098E+01 -0.11813591211E+00 -0.22305732373E+01  0.32240085136E+01  0.00000000000E+00 0.  1.
</event>
<event>
 8    1  0.6016610E-012  0.9118800E+02  0.7816164E-02  0.1184000E+00
        -11   -1    0    0    0    0  0.00000000000E+00  0.00000000000E+00  0.45593999997E+02  0.45594000000E+02  0.51100000000E-03 0. -1.
         11   -1    0    0    0    0 -0.00000000000E+00 -0.00000000000E+00 -0.45593999997E+02  0.45594000000E+02  0.51100000000E-03 0.  1.
         23    2    1    2    0    0  0.11102230246E-15 -0.17763568394E-14  0.00000000000E+00  0.91188000000E+02  0.91188000000E+02 0.  0.
    9900012    2    3    3    0    0 -0.86720565791E+00 -0.13121977323E+02 -0.38473705468E+02  0.50528876215E+02  0.30000049744E+02 0.  0.
         12    1    3    3    0    0  0.86720565791E+00  0.13121977323E+02  0.38473705468E+02  0.40659123785E+02  0.00000000000E+00 0. -1.
         11    1    4    4    0    0 -0.12410466379E+01 -0.89119616687E+01 -0.46489819100E+01  0.10127995389E+02  0.51100000000E-03 0. -1.
        -11    1    4    4    0    0  0.10657702092E+01  0.18296002443E+01 -0.34242048623E+02  0.34307451048E+02  0.51100000000E-03 0.  1.
        -12    1    4    4    0    0 -0.69192922923E+00 -0.60396158983E+01  0.41732506569E+00  0.60934297787E+01  0.00000000000E+00 0.  1.
</event>
<event>
 8    1  0.6016610E-012  0.9118800E+02  0.7816164E-02  0.1184000E+00
        -11   -1    0    0    0    0  0.00000000000E+00  0.00000000000E+00  0.45593999997E+02  0.45594000000E+02  0.51100000000E-03 0. -1.
         11   -1    0    0    0    0 -0.00000000000E+00 -0.00000000000E+00 -0.45593999997E+02  0.45594000000E+02  0.51100000000E-03 0.  1.
         23    2    1    2    0    0  0.00000000000E+00 -0.88817841970E-15  0.00000000000E+00  0.91188000000E+02  0.91188000000E+02 0.  0.
    9900012    2    3    3    0    0 -0.16558357875E+02 -0.73142571257E+01  0.36407260173E+02  0.50528853844E+02  0.29999981744E+02 0.  0.
        -12    1    3    3    0    0  0.16558357875E+02  0.73142571257E+01 -0.36407260173E+02  0.40659146156E+02  0.00000000000E+00 0.  1.
         11    1    4    4    0    0 -0.16067053507E+02 -0.14291169975E+02  0.22143250089E+02  0.30866021325E+02  0.51100000000E-03 0. -1.
        -11    1    4    4    0    0  0.45307643790E+01  0.55748370217E+01  0.41821461857E+01  0.83124593627E+01  0.51100000000E-03 0.  1.
        -12    1    4    4    0    0 -0.50220687475E+01  0.14020758280E+01  0.10081863898E+02  0.11350373157E+02  0.00000000000E+00 0.  1.
</event>
<event>
 8    1  0.6016610E-012  0.9118800E+02  0.7816164E-02  0.1184000E+00
        -11   -1    0    0    0    0  0.00000000000E+00  0.00000000000E+00  0.45593999997E+02  0.45594000000E+02  0.51100000000E-03 0. -1.
         11   -1    0    0    0    0 -0.00000000000E+00 -0.00000000000E+00 -0.45593999997E+02  0.45594000000E+02  0.51100000000E-03 0.  1.
         23    2    1    2    0    0 -0.35527136788E-14 -0.35527136788E-14  0.00000000000E+00  0.91188000000E+02  0.91188000000E+02 0.  0.
    9900012    2    3    3    0    0 -0.31258436209E+02 -0.23726325414E+02 -0.10636610858E+02  0.50528857825E+02  0.29999993844E+02 0.  0.
         12    1    3    3    0    0  0.31258436209E+02  0.23726325414E+02  0.10636610858E+02  0.40659142175E+02  0.00000000000E+00 0. -1.
         11    1    4    4    0    0 -0.15879574475E+00  0.43832085913E+01  0.25043454072E+00  0.43932278980E+01  0.51100000000E-03 0. -1.
        -11    1    4    4    0    0 -0.12279947390E+02 -0.16858339487E+02 -0.12212538048E+02  0.24169129153E+02  0.51100000000E-03 0.  1.
        -12    1    4    4    0    0 -0.18819693074E+02 -0.11251194518E+02  0.13254926497E+01  0.21966500774E+02  0.00000000000E+00 0.  1.
</event>
<event>
 8    1  0.6016610E-012  0.9118800E+02  0.7816164E-02  0.1184000E+00
        -11   -1    0    0    0    0  0.00000000000E+00  0.00000000000E+00  0.45593999997E+02  0.45594000000E+02  0.51100000000E-03 0. -1.
         11   -1    0    0    0    0 -0.00000000000E+00 -0.00000000000E+00 -0.45593999997E+02  0.45594000000E+02  0.51100000000E-03 0.  1.
         23    2    1    2    0    0  0.00000000000E+00  0.00000000000E+00  0.35527136788E-14  0.91188000000E+02  0.91188000000E+02 0.  0.
    9900012    2    3    3    0    0  0.22316658523E+02 -0.24651634282E+02  0.23397212805E+02  0.50528857271E+02  0.29999992162E+02 0.  0.
        -12    1    3    3    0    0 -0.22316658523E+02  0.24651634282E+02 -0.23397212805E+02  0.40659142729E+02  0.00000000000E+00 0.  1.
         11    1    4    4    0    0  0.14344325144E+02 -0.10599592287E+02  0.10061820080E+02  0.20478067391E+02  0.51100000000E-03 0. -1.
        -11    1    4    4    0    0 -0.34492933011E+01 -0.11736101434E+02 -0.14219546986E+00  0.12233311937E+02  0.51100000000E-03 0.  1.
        -12    1    4    4    0    0  0.11421626680E+02 -0.23159405607E+01  0.13477588195E+02  0.17817477943E+02  0.00000000000E+00 0.  1.
</event>
<event>
 8    1  0.6016610E-012  0.9118800E+02  0.7816164E-02  0.1184000E+00
        -11   -1    0    0    0    0  0.00000000000E+00  0.00000000000E+00  0.45593999997E+02  0.45594000000E+02  0.51100000000E-03 0. -1.
         11   -1    0    0    0    0 -0.00000000000E+00 -0.00000000000E+00 -0.45593999997E+02  0.45594000000E+02  0.51100000000E-03 0.  1.
         23    2    1    2    0    0 -0.71054273576E-14  0.00000000000E+00  0.35527136788E-14  0.91188000000E+02  0.91188000000E+02 0.  0.
    9900012    2    3    3    0    0  0.36889859921E+02 -0.15438119619E+01  0.17027037313E+02  0.50528866708E+02  0.30000020847E+02 0.  0.
        -12    1    3    3    0    0 -0.36889859921E+02  0.15438119619E+01 -0.17027037313E+02  0.40659133292E+02  0.00000000000E+00 0.  1.
         11    1    4    4    0    0  0.15828949701E+02  0.23680881236E+00  0.98600937455E+01  0.18650286217E+02  0.51100000000E-03 0. -1.
        -11    1    4    4    0    0 -0.45134238344E+01 -0.17126823382E+01 -0.11925869982E+01  0.49725787586E+01  0.51100000000E-03 0.  1.
        -12    1    4    4    0    0  0.25574334054E+02 -0.67938436016E-01  0.83595305660E+01  0.26906001733E+02  0.00000000000E+00 0.  1.
</event>
<event>
 8    1  0.6016610E-012  0.9118800E+02  0.7816164E-02  0.1184000E+00
        -11   -1    0    0    0    0  0.00000000000E+00  0.00000000000E+00  0.45593999997E+02  0.45594000000E+02  0.51100000000E-03 0. -1.
         11   -1    0    0    0    0 -0.00000000000E+00 -0.00000000000E+00 -0.45593999997E+02  0.45594000000E+02  0.51100000000E-03 0.  1.
         23    2    1    2    0    0  0.00000000000E+00  0.00000000000E+00  0.00000000000E+00  0.91188000000E+02  0.91188000000E+02 0.  0.
    9900012    2    3    3    0    0  0.10228527028E+02 -0.19484870725E+02 -0.34188937797E+02  0.50528850722E+02  0.29999972255E+02 0.  0.
         12    1    3    3    0    0 -0.10228527028E+02  0.19484870725E+02  0.34188937797E+02  0.40659149278E+02  0.00000000000E+00 0. -1.
         11    1    4    4    0    0  0.37089519002E+01 -0.86335397710E+01 -0.21431816223E+02  0.23401219627E+02  0.51100000000E-03 0.  1.
        -11    1    4    4    0    0  0.27264477643E+01  0.53177076048E+01  0.32690242704E+00  0.59848472862E+01  0.51100000000E-03 0. -1.
         12    1    4    4    0    0  0.37931273635E+01 -0.16169038559E+02 -0.13084024001E+02  0.21142783809E+02  0.00000000000E+00 0. -1.
</event>
<event>
 8    1  0.6016610E-012  0.9118800E+02  0.7816164E-02  0.1184000E+00
        -11   -1    0    0    0    0  0.00000000000E+00  0.00000000000E+00  0.45593999997E+02  0.45594000000E+02  0.51100000000E-03 0.  1.
         11   -1    0    0    0    0 -0.00000000000E+00 -0.00000000000E+00 -0.45593999997E+02  0.45594000000E+02  0.51100000000E-03 0. -1.
         23    2    1    2    0    0  0.00000000000E+00  0.00000000000E+00  0.00000000000E+00  0.91188000000E+02  0.91188000000E+02 0.  0.
    9900012    2    3    3    0    0 -0.26299411965E+02  0.14519905570E+02 -0.27398468186E+02  0.50528895406E+02  0.30000108076E+02 0.  0.
         12    1    3    3    0    0  0.26299411965E+02 -0.14519905570E+02  0.27398468186E+02  0.40659104594E+02  0.00000000000E+00 0. -1.
         11    1    4    4    0    0 -0.22827674458E+00 -0.25334283587E+01  0.10066986236E+01  0.27356556620E+01  0.51100000000E-03 0. -1.
        -11    1    4    4    0    0 -0.11502656990E+02  0.19912315232E+02 -0.13077846914E+02  0.26454517495E+02  0.51100000000E-03 0.  1.
        -12    1    4    4    0    0 -0.14568478230E+02 -0.28589813038E+01 -0.15327319896E+02  0.21338722249E+02  0.00000000000E+00 0.  1.
</event>
<event>
 8    1  0.6016610E-012  0.9118800E+02  0.7816164E-02  0.1184000E+00
        -11   -1    0    0    0    0  0.00000000000E+00  0.00000000000E+00  0.45593999997E+02  0.45594000000E+02  0.51100000000E-03 0. -1.
         11   -1    0    0    0    0 -0.00000000000E+00 -0.00000000000E+00 -0.45593999997E+02  0.45594000000E+02  0.51100000000E-03 0.  1.
         23    2    1    2    0    0  0.00000000000E+00  0.00000000000E+00  0.17763568394E-14  0.91188000000E+02  0.91188000000E+02 0.  0.
    9900012    2    3    3    0    0  0.28379043590E+02 -0.27321591055E+02 -0.10066150099E+02  0.50528845672E+02  0.29999956906E+02 0.  0.
        -12    1    3    3    0    0 -0.28379043590E+02  0.27321591055E+02  0.10066150099E+02  0.40659154328E+02  0.00000000000E+00 0.  1.
         11    1    4    4    0    0 -0.35432976647E+01 -0.12251150395E+02  0.12245106414E+01  0.12811911291E+02  0.51100000000E-03 0. -1.
        -11    1    4    4    0    0  0.59274794522E+01 -0.58830670622E+01 -0.35959789346E+01  0.90926649270E+01  0.51100000000E-03 0.  1.
         12    1    4    4    0    0  0.25994861802E+02 -0.91873735973E+01 -0.76946818057E+01  0.28624269455E+02  0.00000000000E+00 0. -1.
</event>
<event>
 8    1  0.6016610E-012  0.9118800E+02  0.7816164E-02  0.1184000E+00
        -11   -1    0    0    0    0  0.00000000000E+00  0.00000000000E+00  0.45593999997E+02  0.45594000000E+02  0.51100000000E-03 0. -1.
         11   -1    0    0    0    0 -0.00000000000E+00 -0.00000000000E+00 -0.45593999997E+02  0.45594000000E+02  0.51100000000E-03 0.  1.
         23    2    1    2    0    0 -0.35527136788E-14  0.00000000000E+00  0.00000000000E+00  0.91188000000E+02  0.91188000000E+02 0.  0.
    9900012    2    3    3    0    0 -0.27606256000E+02 -0.10936653488E+02 -0.27774989051E+02  0.50528858634E+02  0.29999996302E+02 0.  0.
         12    1    3    3    0    0  0.27606256000E+02  0.10936653488E+02  0.27774989051E+02  0.40659141366E+02  0.00000000000E+00 0. -1.
         11    1    4    4    0    0  0.67323265799E+00 -0.23892108184E+01  0.31289368214E+01  0.39939725137E+01  0.51100000000E-03 0. -1.
        -11    1    4    4    0    0 -0.11955730835E+02 -0.12168472110E+02 -0.21168209349E+02  0.27186472750E+02  0.51100000000E-03 0.  1.
         12    1    4    4    0    0 -0.16323757824E+02  0.36210294409E+01 -0.97357165231E+01  0.19348413369E+02  0.00000000000E+00 0. -1.
</event>
<event>
 8    1  0.6016610E-012  0.9118800E+02  0.7816164E-02  0.1184000E+00
        -11   -1    0    0    0    0  0.00000000000E+00  0.00000000000E+00  0.45593999997E+02  0.45594000000E+02  0.51100000000E-03 0. -1.
         11   -1    0    0    0    0 -0.00000000000E+00 -0.00000000000E+00 -0.45593999997E+02  0.45594000000E+02  0.51100000000E-03 0.  1.
         23    2    1    2    0    0  0.71054273576E-14  0.35527136788E-14 -0.36082248300E-15  0.91188000000E+02  0.91188000000E+02 0.  0.
    9900012    2    3    3    0    0 -0.28769057164E+02 -0.28730873755E+02 -0.21110928504E+00  0.50528851903E+02  0.29999975845E+02 0.  0.
         12    1    3    3    0    0  0.28769057164E+02  0.28730873755E+02  0.21110928504E+00  0.40659148097E+02  0.00000000000E+00 0. -1.
         11    1    4    4    0    0  0.17569683145E+01 -0.15957475415E+02 -0.12250765269E+01  0.16100582972E+02  0.51100000000E-03 0. -1.
        -11    1    4    4    0    0 -0.22193277581E+01 -0.37265392765E+01 -0.15372769161E+01  0.46017096013E+01  0.51100000000E-03 0.  1.
         12    1    4    4    0    0 -0.28306697720E+02 -0.90468590641E+01  0.25512441579E+01  0.29826559330E+02  0.00000000000E+00 0. -1.
</event>
<event>
 8    1  0.6016610E-012  0.9118800E+02  0.7816164E-02  0.1184000E+00
        -11   -1    0    0    0    0  0.00000000000E+00  0.00000000000E+00  0.45593999997E+02  0.45594000000E+02  0.51100000000E-03 0. -1.
         11   -1    0    0    0    0 -0.00000000000E+00 -0.00000000000E+00 -0.45593999997E+02  0.45594000000E+02  0.51100000000E-03 0.  1.
         23    2    1    2    0    0 -0.13322676296E-14  0.00000000000E+00  0.00000000000E+00  0.91188000000E+02  0.91188000000E+02 0.  0.
    9900012    2    3    3    0    0 -0.22618838526E+01 -0.27045795670E+02 -0.30274985657E+02  0.50528856643E+02  0.29999990253E+02 0.  0.
         12    1    3    3    0    0  0.22618838526E+01  0.27045795670E+02  0.30274985657E+02  0.40659143357E+02  0.00000000000E+00 0. -1.
         11    1    4    4    0    0 -0.11177270523E+02 -0.16399564051E+02 -0.83988497297E+01  0.21550353928E+02  0.51100000000E-03 0. -1.
        -11    1    4    4    0    0  0.53077445102E+01 -0.46696286726E+01 -0.12192209258E+01  0.71738472002E+01  0.51100000000E-03 0.  1.
        -12    1    4    4    0    0  0.36076421602E+01 -0.59766029472E+01 -0.20656915001E+02  0.21804655515E+02  0.00000000000E+00 0.  1.
</event>
<event>
 8    1  0.6016610E-012  0.9118800E+02  0.7816164E-02  0.1184000E+00
        -11   -1    0    0    0    0  0.00000000000E+00  0.00000000000E+00  0.45593999997E+02  0.45594000000E+02  0.51100000000E-03 0. -1.
         11   -1    0    0    0    0 -0.00000000000E+00 -0.00000000000E+00 -0.45593999997E+02  0.45594000000E+02  0.51100000000E-03 0.  1.
         23    2    1    2    0    0  0.00000000000E+00  0.88817841970E-15  0.00000000000E+00  0.91188000000E+02  0.91188000000E+02 0.  0.
    9900012    2    3    3    0    0  0.11970416833E+02  0.52421121916E+01 -0.38501880633E+02  0.50528862876E+02  0.30000009198E+02 0.  0.
         12    1    3    3    0    0 -0.11970416833E+02 -0.52421121916E+01  0.38501880633E+02  0.40659137124E+02  0.00000000000E+00 0. -1.
         11    1    4    4    0    0  0.16974532742E+02 -0.33540753466E+01 -0.18461482998E+02  0.25302389966E+02  0.51100000000E-03 0. -1.
        -11    1    4    4    0    0  0.26188776060E+01  0.62852662270E+01 -0.12622026609E+02  0.14341500878E+02  0.51100000000E-03 0.  1.
         12    1    4    4    0    0 -0.76229935156E+01  0.23109213112E+01 -0.74183710260E+01  0.10884972031E+02  0.00000000000E+00 0. -1.
</event>
<event>
 8    1  0.6016610E-012  0.9118800E+02  0.7816164E-02  0.1184000E+00
        -11   -1    0    0    0    0  0.00000000000E+00  0.00000000000E+00  0.45593999997E+02  0.45594000000E+02  0.51100000000E-03 0. -1.
         11   -1    0    0    0    0 -0.00000000000E+00 -0.00000000000E+00 -0.45593999997E+02  0.45594000000E+02  0.51100000000E-03 0.  1.
         23    2    1    2    0    0  0.17763568394E-14 -0.17763568394E-14  0.00000000000E+00  0.91188000000E+02  0.91188000000E+02 0.  0.
    9900012    2    3    3    0    0 -0.15897929831E+02 -0.11481921295E+02  0.35617229421E+02  0.50528859316E+02  0.29999998378E+02 0.  0.
        -12    1    3    3    0    0  0.15897929831E+02  0.11481921295E+02 -0.35617229421E+02  0.40659140684E+02  0.00000000000E+00 0.  1.
         11    1    4    4    0    0 -0.22235797747E+02 -0.14380976893E+02  0.21067796876E+02  0.33839256246E+02  0.51100000000E-03 0. -1.
        -11    1    4    4    0    0  0.62875710885E+01  0.36560856335E+01  0.13912529878E+02  0.15699012715E+02  0.51100000000E-03 0.  1.
         12    1    4    4    0    0  0.50296827665E-01 -0.75703003555E+00  0.63690266715E+00  0.99059035581E+00  0.00000000000E+00 0. -1.
</event>
<event>
 8    1  0.6016610E-012  0.9118800E+02  0.7816164E-02  0.1184000E+00
        -11   -1    0    0    0    0  0.00000000000E+00  0.00000000000E+00  0.45593999997E+02  0.45594000000E+02  0.51100000000E-03 0. -1.
         11   -1    0    0    0    0 -0.00000000000E+00 -0.00000000000E+00 -0.45593999997E+02  0.45594000000E+02  0.51100000000E-03 0.  1.
         23    2    1    2    0    0  0.00000000000E+00  0.00000000000E+00 -0.71054273576E-14  0.91188000000E+02  0.91188000000E+02 0.  0.
    9900012    2    3    3    0    0  0.17128007465E+02 -0.10711428807E+02 -0.35285449405E+02  0.50528852364E+02  0.29999977245E+02 0.  0.
         12    1    3    3    0    0 -0.17128007465E+02  0.10711428807E+02  0.35285449405E+02  0.40659147636E+02  0.00000000000E+00 0. -1.
         11    1    4    4    0    0 -0.45524366573E+01  0.40032730003E+01 -0.93765256991E+00  0.61343350769E+01  0.51100000000E-03 0. -1.
        -11    1    4    4    0    0  0.20494083042E+02 -0.91873489086E+01 -0.27994242476E+02  0.35890004622E+02  0.51100000000E-03 0.  1.
         12    1    4    4    0    0  0.11863610805E+01 -0.55273528986E+01 -0.63535543590E+01  0.85045126652E+01  0.00000000000E+00 0. -1.
</event>
<event>
 8    1  0.6016610E-012  0.9118800E+02  0.7816164E-02  0.1184000E+00
        -11   -1    0    0    0    0  0.00000000000E+00  0.00000000000E+00  0.45593999997E+02  0.45594000000E+02  0.51100000000E-03 0. -1.
         11   -1    0    0    0    0 -0.00000000000E+00 -0.00000000000E+00 -0.45593999997E+02  0.45594000000E+02  0.51100000000E-03 0.  1.
         23    2    1    2    0    0  0.66613381478E-15  0.00000000000E+00 -0.35527136788E-14  0.91188000000E+02  0.91188000000E+02 0.  0.
    9900012    2    3    3    0    0  0.15105974686E+01 -0.25783890192E+02 -0.31401825538E+02  0.50528861479E+02  0.30000004953E+02 0.  0.
         12    1    3    3    0    0 -0.15105974686E+01  0.25783890192E+02  0.31401825538E+02  0.40659138521E+02  0.00000000000E+00 0. -1.
         11    1    4    4    0    0 -0.34218640311E+01 -0.67179163101E+01  0.34422974000E+01  0.82878805884E+01  0.51100000000E-03 0. -1.
        -11    1    4    4    0    0  0.80428888906E+01 -0.90156972139E+01 -0.11702663885E+02  0.16820321050E+02  0.51100000000E-03 0.  1.
         12    1    4    4    0    0 -0.31104273909E+01 -0.10050276668E+02 -0.23141459053E+02  0.25420659841E+02  0.00000000000E+00 0. -1.
</event>
<event>
 8    1  0.6016610E-012  0.9118800E+02  0.7816164E-02  0.1184000E+00
        -11   -1    0    0    0    0  0.00000000000E+00  0.00000000000E+00  0.45593999997E+02  0.45594000000E+02  0.51100000000E-03 0.  1.
         11   -1    0    0    0    0 -0.00000000000E+00 -0.00000000000E+00 -0.45593999997E+02  0.45594000000E+02  0.51100000000E-03 0. -1.
         23    2    1    2    0    0  0.00000000000E+00  0.00000000000E+00  0.17763568394E-14  0.91188000000E+02  0.91188000000E+02 0.  0.
    9900012    2    3    3    0    0  0.22830976990E+02  0.33432262733E+02  0.37677014732E+01  0.50528864789E+02  0.30000015011E+02 0.  0.
        -12    1    3    3    0    0 -0.22830976990E+02 -0.33432262733E+02 -0.37677014732E+01  0.40659135211E+02  0.00000000000E+00 0.  1.
         11    1    4    4    0    0  0.62630593757E+00 -0.34031326567E+00  0.18602830649E+00  0.73666752213E+00  0.51100000000E-03 0. -1.
        -11    1    4    4    0    0  0.58686748975E+01  0.24695890189E+02  0.13376702209E+02  0.28692586142E+02  0.51100000000E-03 0.  1.
        -12    1    4    4    0    0  0.16335996155E+02  0.90766858095E+01 -0.97950290421E+01  0.21099611124E+02  0.00000000000E+00 0.  1.
</event>
<event>
 8    1  0.6016610E-012  0.9118800E+02  0.7816164E-02  0.1184000E+00
        -11   -1    0    0    0    0  0.00000000000E+00  0.00000000000E+00  0.45593999997E+02  0.45594000000E+02  0.51100000000E-03 0. -1.
         11   -1    0    0    0    0 -0.00000000000E+00 -0.00000000000E+00 -0.45593999997E+02  0.45594000000E+02  0.51100000000E-03 0.  1.
         23    2    1    2    0    0  0.00000000000E+00  0.00000000000E+00  0.00000000000E+00  0.91188000000E+02  0.91188000000E+02 0.  0.
    9900012    2    3    3    0    0  0.13556144262E+02  0.19594767637E+02  0.32946039911E+02  0.50528861890E+02  0.30000006201E+02 0.  0.
        -12    1    3    3    0    0 -0.13556144262E+02 -0.19594767637E+02 -0.32946039911E+02  0.40659138110E+02  0.00000000000E+00 0.  1.
         11    1    4    4    0    0  0.94767696459E+01 -0.18110028453E+00  0.20735133711E+02  0.22798853710E+02  0.51100000000E-03 0. -1.
        -11    1    4    4    0    0 -0.47604121896E+01  0.23275572673E+01  0.19861276811E+01  0.56589531253E+01  0.51100000000E-03 0.  1.
         12    1    4    4    0    0  0.88397868059E+01  0.17448310654E+02  0.10224778519E+02  0.22071055054E+02  0.00000000000E+00 0. -1.
</event>
<event>
 8    1  0.6016610E-012  0.9118800E+02  0.7816164E-02  0.1184000E+00
        -11   -1    0    0    0    0  0.00000000000E+00  0.00000000000E+00  0.45593999997E+02  0.45594000000E+02  0.51100000000E-03 0. -1.
         11   -1    0    0    0    0 -0.00000000000E+00 -0.00000000000E+00 -0.45593999997E+02  0.45594000000E+02  0.51100000000E-03 0.  1.
         23    2    1    2    0    0 -0.17763568394E-14 -0.35527136788E-14  0.00000000000E+00  0.91188000000E+02  0.91188000000E+02 0.  0.
    9900012    2    3    3    0    0 -0.15442337803E+02 -0.26229065760E+02  0.26958035236E+02  0.50528863865E+02  0.30000012204E+02 0.  0.
        -12    1    3    3    0    0  0.15442337803E+02  0.26229065760E+02 -0.26958035236E+02  0.40659136135E+02  0.00000000000E+00 0.  1.
         11    1    4    4    0    0 -0.53509410012E+01 -0.67446761400E+00  0.10558602976E+02  0.11856288341E+02  0.51100000000E-03 0. -1.
        -11    1    4    4    0    0 -0.10133920026E+02 -0.20034649440E+02  0.11797791719E+01  0.22482779909E+02  0.51100000000E-03 0.  1.
        -12    1    4    4    0    0  0.42523223607E-01 -0.55199487053E+01  0.15219653088E+02  0.16189795615E+02  0.00000000000E+00 0.  1.
</event>
<event>
 8    1  0.6016610E-012  0.9118800E+02  0.7816164E-02  0.1184000E+00
        -11   -1    0    0    0    0  0.00000000000E+00  0.00000000000E+00  0.45593999997E+02  0.45594000000E+02  0.51100000000E-03 0. -1.
         11   -1    0    0    0    0 -0.00000000000E+00 -0.00000000000E+00 -0.45593999997E+02  0.45594000000E+02  0.51100000000E-03 0.  1.
         23    2    1    2    0    0  0.11102230246E-15  0.00000000000E+00  0.00000000000E+00  0.91188000000E+02  0.91188000000E+02 0.  0.
    9900012    2    3    3    0    0 -0.74684904267E+00 -0.17435752677E+02  0.36723322786E+02  0.50528859683E+02  0.29999999492E+02 0.  0.
        -12    1    3    3    0    0  0.74684904267E+00  0.17435752677E+02 -0.36723322786E+02  0.40659140317E+02  0.00000000000E+00 0.  1.
         11    1    4    4    0    0  0.34009565324E+01 -0.18157665739E+02  0.19538422860E+02  0.26888980988E+02  0.51100000000E-03 0. -1.
        -11    1    4    4    0    0  0.48171612668E+01  0.41657433636E+01  0.89769530409E+01  0.11006550168E+02  0.51100000000E-03 0.  1.
         12    1    4    4    0    0 -0.89649668418E+01 -0.34438303011E+01  0.82079468848E+01  0.12633328527E+02  0.00000000000E+00 0. -1.
</event>
<event>
 8    1  0.6016610E-012  0.9118800E+02  0.7816164E-02  0.1184000E+00
        -11   -1    0    0    0    0  0.00000000000E+00  0.00000000000E+00  0.45593999997E+02  0.45594000000E+02  0.51100000000E-03 0. -1.
         11   -1    0    0    0    0 -0.00000000000E+00 -0.00000000000E+00 -0.45593999997E+02  0.45594000000E+02  0.51100000000E-03 0.  1.
         23    2    1    2    0    0  0.00000000000E+00 -0.35527136788E-14 -0.35527136788E-14  0.91188000000E+02  0.91188000000E+02 0.  0.
    9900012    2    3    3    0    0  0.19302597723E+02  0.18327819577E+02 -0.30735410048E+02  0.50528872118E+02  0.30000037290E+02 0.  0.
         12    1    3    3    0    0 -0.19302597723E+02 -0.18327819577E+02  0.30735410048E+02  0.40659127882E+02  0.00000000000E+00 0. -1.
         11    1    4    4    0    0 -0.38052387259E+01 -0.53429508999E+00 -0.11324492060E+01  0.40059648613E+01  0.51100000000E-03 0. -1.
        -11    1    4    4    0    0  0.21183113244E+02  0.20778781059E+02 -0.31449568366E+02  0.43238378550E+02  0.51100000000E-03 0.  1.
        -12    1    4    4    0    0  0.19247232051E+01 -0.19166663919E+01  0.18466075242E+01  0.32845287063E+01  0.00000000000E+00 0.  1.
</event>
<event>
 8    1  0.6016610E-012  0.9118800E+02  0.7816164E-02  0.1184000E+00
        -11   -1    0    0    0    0  0.00000000000E+00  0.00000000000E+00  0.45593999997E+02  0.45594000000E+02  0.51100000000E-03 0. -1.
         11   -1    0    0    0    0 -0.00000000000E+00 -0.00000000000E+00 -0.45593999997E+02  0.45594000000E+02  0.51100000000E-03 0.  1.
         23    2    1    2    0    0  0.00000000000E+00  0.00000000000E+00  0.00000000000E+00  0.91188000000E+02  0.91188000000E+02 0.  0.
    9900012    2    3    3    0    0 -0.31705603592E+02 -0.18614299541E+02  0.17361690450E+02  0.50528859062E+02  0.29999997605E+02 0.  0.
        -12    1    3    3    0    0  0.31705603592E+02  0.18614299541E+02 -0.17361690450E+02  0.40659140938E+02  0.00000000000E+00 0.  1.
         11    1    4    4    0    0  0.52180273986E+01 -0.20420328443E+01  0.81980201955E+00  0.56630189547E+01  0.51100000000E-03 0. -1.
        -11    1    4    4    0    0 -0.18581690767E+02 -0.60001485381E+01  0.30543823760E+01  0.19763862634E+02  0.51100000000E-03 0.  1.
         12    1    4    4    0    0 -0.18341940223E+02 -0.10572118158E+02  0.13487506054E+02  0.25101977473E+02  0.00000000000E+00 0. -1.
</event>
<event>
 8    1  0.6016610E-012  0.9118800E+02  0.7816164E-02  0.1184000E+00
        -11   -1    0    0    0    0  0.00000000000E+00  0.00000000000E+00  0.45593999997E+02  0.45594000000E+02  0.51100000000E-03 0.  1.
         11   -1    0    0    0    0 -0.00000000000E+00 -0.00000000000E+00 -0.45593999997E+02  0.45594000000E+02  0.51100000000E-03 0. -1.
         23    2    1    2    0    0  0.35527136788E-14  0.00000000000E+00  0.33306690739E-15  0.91188000000E+02  0.91188000000E+02 0.  0.
    9900012    2    3    3    0    0  0.24473197427E+02 -0.32455006032E+02  0.94933169720E+00  0.50528855402E+02  0.29999986479E+02 0.  0.
        -12    1    3    3    0    0 -0.24473197427E+02  0.32455006032E+02 -0.94933169720E+00  0.40659144598E+02  0.00000000000E+00 0.  1.
         11    1    4    4    0    0  0.23686929817E+02 -0.79781252118E+01 -0.20287181600E+01  0.25076619064E+02  0.51100000000E-03 0. -1.
        -11    1    4    4    0    0  0.28581935238E+01 -0.19870742995E+02  0.34875022289E+01  0.20375926223E+02  0.51100000000E-03 0.  1.
         12    1    4    4    0    0 -0.20719259144E+01 -0.46061378244E+01 -0.50945237174E+00  0.50763101138E+01  0.00000000000E+00 0. -1.
</event>
<event>
 8    1  0.6016610E-012  0.9118800E+02  0.7816164E-02  0.1184000E+00
        -11   -1    0    0    0    0  0.00000000000E+00  0.00000000000E+00  0.45593999997E+02  0.45594000000E+02  0.51100000000E-03 0. -1.
         11   -1    0    0    0    0 -0.00000000000E+00 -0.00000000000E+00 -0.45593999997E+02  0.45594000000E+02  0.51100000000E-03 0.  1.
         23    2    1    2    0    0  0.00000000000E+00  0.00000000000E+00  0.35527136788E-14  0.91188000000E+02  0.91188000000E+02 0.  0.
    9900012    2    3    3    0    0 -0.57908184250E+01  0.32812456464E+02  0.23301827757E+02  0.50528855223E+02  0.29999985934E+02 0.  0.
        -12    1    3    3    0    0  0.57908184250E+01 -0.32812456464E+02 -0.23301827757E+02  0.40659144777E+02  0.00000000000E+00 0.  1.
         11    1    4    4    0    0  0.46735291122E+01  0.28680231441E+01  0.10410495021E+02  0.11766300946E+02  0.51100000000E-03 0. -1.
        -11    1    4    4    0    0 -0.89379359080E+00  0.22497519527E+02  0.22470771526E+01  0.22627121068E+02  0.51100000000E-03 0.  1.
        -12    1    4    4    0    0 -0.95705539465E+01  0.74469137926E+01  0.10644255584E+02  0.16135433208E+02  0.00000000000E+00 0.  1.
</event>
<event>
 8    1  0.6016610E-012  0.9118800E+02  0.7816164E-02  0.1184000E+00
        -11   -1    0    0    0    0  0.00000000000E+00  0.00000000000E+00  0.45593999997E+02  0.45594000000E+02  0.51100000000E-03 0. -1.
         11   -1    0    0    0    0 -0.00000000000E+00 -0.00000000000E+00 -0.45593999997E+02  0.45594000000E+02  0.51100000000E-03 0.  1.
         23    2    1    2    0    0  0.00000000000E+00 -0.35527136788E-14  0.00000000000E+00  0.91188000000E+02  0.91188000000E+02 0.  0.
    9900012    2    3    3    0    0 -0.42900402119E+01 -0.22793587780E+02 -0.33394802071E+02  0.50528869485E+02  0.30000029286E+02 0.  0.
         12    1    3    3    0    0  0.42900402119E+01  0.22793587780E+02  0.33394802071E+02  0.40659130515E+02  0.00000000000E+00 0. -1.
         11    1    4    4    0    0  0.90531550950E+01 -0.36869110079E+01 -0.13617495044E+01  0.98695132569E+01  0.51100000000E-03 0. -1.
        -11    1    4    4    0    0  0.12206106166E+00 -0.46573793936E+01 -0.10227397197E+02  0.11238582447E+02  0.51100000000E-03 0.  1.
         12    1    4    4    0    0 -0.13465256369E+02 -0.14449297379E+02 -0.21805655369E+02  0.29420773781E+02  0.00000000000E+00 0. -1.
</event>
<event>
 8    1  0.6016610E-012  0.9118800E+02  0.7816164E-02  0.1184000E+00
        -11   -1    0    0    0    0  0.00000000000E+00  0.00000000000E+00  0.45593999997E+02  0.45594000000E+02  0.51100000000E-03 0. -1.
         11   -1    0    0    0    0 -0.00000000000E+00 -0.00000000000E+00 -0.45593999997E+02  0.45594000000E+02  0.51100000000E-03 0.  1.
         23    2    1    2    0    0  0.00000000000E+00  0.35527136788E-14  0.71054273576E-14  0.91188000000E+02  0.91188000000E+02 0.  0.
    9900012    2    3    3    0    0  0.89292538069E+01 -0.20472556175E+02 -0.33975136303E+02  0.50528843384E+02  0.29999949951E+02 0.  0.
         12    1    3    3    0    0 -0.89292538069E+01  0.20472556175E+02  0.33975136303E+02  0.40659156616E+02  0.00000000000E+00 0. -1.
         11    1    4    4    0    0  0.64157590863E+01 -0.17952052115E+02 -0.13068861884E+02  0.23113487210E+02  0.51100000000E-03 0. -1.
        -11    1    4    4    0    0  0.89431890289E+01  0.78682097257E+00 -0.58572482211E+01  0.10719471733E+02  0.51100000000E-03 0.  1.
        -12    1    4    4    0    0 -0.64296943082E+01 -0.33073250325E+01 -0.15049026198E+02  0.16695884441E+02  0.00000000000E+00 0.  1.
</event>
<event>
 8    1  0.6016610E-012  0.9118800E+02  0.7816164E-02  0.1184000E+00
        -11   -1    0    0    0    0  0.00000000000E+00  0.00000000000E+00  0.45593999997E+02  0.45594000000E+02  0.51100000000E-03 0. -1.
         11   -1    0    0    0    0 -0.00000000000E+00 -0.00000000000E+00 -0.45593999997E+02  0.45594000000E+02  0.51100000000E-03 0.  1.
         23    2    1    2    0    0  0.71054273576E-14  0.00000000000E+00  0.00000000000E+00  0.91188000000E+02  0.91188000000E+02 0.  0.
    9900012    2    3    3    0    0 -0.29940354175E+02 -0.16358245527E+02  0.22116692721E+02  0.50528866933E+02  0.30000021529E+02 0.  0.
        -12    1    3    3    0    0  0.29940354175E+02  0.16358245527E+02 -0.22116692721E+02  0.40659133067E+02  0.00000000000E+00 0.  1.
         11    1    4    4    0    0 -0.11330559282E+02 -0.10797432087E+01  0.90404739147E+01  0.14535390875E+02  0.51100000000E-03 0. -1.
        -11    1    4    4    0    0 -0.10841109808E+02 -0.41818184616E+01 -0.56187513330E+01  0.12906883215E+02  0.51100000000E-03 0.  1.
        -12    1    4    4    0    0 -0.77686850854E+01 -0.11096683856E+02  0.18694970140E+02  0.23086592843E+02  0.00000000000E+00 0.  1.
</event>
<event>
 8    1  0.6016610E-012  0.9118800E+02  0.7816164E-02  0.1184000E+00
        -11   -1    0    0    0    0  0.00000000000E+00  0.00000000000E+00  0.45593999997E+02  0.45594000000E+02  0.51100000000E-03 0. -1.
         11   -1    0    0    0    0 -0.00000000000E+00 -0.00000000000E+00 -0.45593999997E+02  0.45594000000E+02  0.51100000000E-03 0.  1.
         23    2    1    2    0    0  0.00000000000E+00 -0.44408920985E-15  0.00000000000E+00  0.91188000000E+02  0.91188000000E+02 0.  0.
    9900012    2    3    3    0    0  0.27035875080E+02 -0.32497125120E+01 -0.30193823063E+02  0.50528854363E+02  0.29999983323E+02 0.  0.
         12    1    3    3    0    0 -0.27035875080E+02  0.32497125120E+01  0.30193823063E+02  0.40659145637E+02  0.00000000000E+00 0. -1.
         11    1    4    4    0    0 -0.23626015633E+01  0.20242005620E+01 -0.90980612170E+00  0.32414536095E+01  0.51100000000E-03 0. -1.
        -11    1    4    4    0    0  0.29904048954E+02 -0.10311855817E+02 -0.22481003400E+02  0.38806984273E+02  0.51100000000E-03 0.  1.
        -12    1    4    4    0    0 -0.50557231042E+00  0.50379427434E+01 -0.68030135414E+01  0.84804164810E+01  0.00000000000E+00 0.  1.
</event>
<event>
 8    1  0.6016610E-012  0.9118800E+02  0.7816164E-02  0.1184000E+00
        -11   -1    0    0    0    0  0.00000000000E+00  0.00000000000E+00  0.45593999997E+02  0.45594000000E+02  0.51100000000E-03 0. -1.
         11   -1    0    0    0    0 -0.00000000000E+00 -0.00000000000E+00 -0.45593999997E+02  0.45594000000E+02  0.51100000000E-03 0.  1.
         23    2    1    2    0    0  0.11379786002E-14  0.00000000000E+00  0.00000000000E+00  0.91188000000E+02  0.91188000000E+02 0.  0.
    9900012    2    3    3    0    0  0.16365071117E+00 -0.25505559605E+02  0.31663946850E+02  0.50528857333E+02  0.29999992349E+02 0.  0.
        -12    1    3    3    0    0 -0.16365071117E+00  0.25505559605E+02 -0.31663946850E+02  0.40659142667E+02  0.00000000000E+00 0.  1.
         11    1    4    4    0    0  0.84699922822E+01 -0.26147484545E+00  0.69542934421E+01  0.10962268738E+02  0.51100000000E-03 0. -1.
        -11    1    4    4    0    0 -0.81180432480E+01 -0.12867379606E+02  0.22237513592E+02  0.26943999242E+02  0.51100000000E-03 0.  1.
        -12    1    4    4    0    0 -0.18829832303E+00 -0.12376705153E+02  0.24721398154E+01  0.12622589353E+02  0.00000000000E+00 0.  1.
</event>
<event>
 8    1  0.6016610E-012  0.9118800E+02  0.7816164E-02  0.1184000E+00
        -11   -1    0    0    0    0  0.00000000000E+00  0.00000000000E+00  0.45593999997E+02  0.45594000000E+02  0.51100000000E-03 0.  1.
         11   -1    0    0    0    0 -0.00000000000E+00 -0.00000000000E+00 -0.45593999997E+02  0.45594000000E+02  0.51100000000E-03 0. -1.
         23    2    1    2    0    0  0.00000000000E+00 -0.71054273576E-14 -0.88817841970E-15  0.91188000000E+02  0.91188000000E+02 0.  0.
    9900012    2    3    3    0    0 -0.22890689338E+02 -0.33288998803E+02 -0.45852519285E+01  0.50528860377E+02  0.30000001601E+02 0.  0.
         12    1    3    3    0    0  0.22890689338E+02  0.33288998803E+02  0.45852519285E+01  0.40659139623E+02  0.00000000000E+00 0. -1.
         11    1    4    4    0    0 -0.37434791667E+01  0.16180205345E+01  0.44690102498E+01  0.60500974864E+01  0.51100000000E-03 0. -1.
        -11    1    4    4    0    0 -0.16324747232E+02 -0.35856607823E+02 -0.54022830525E+01  0.39766548244E+02  0.51100000000E-03 0.  1.
        -12    1    4    4    0    0 -0.28224629394E+01  0.94958848647E+00 -0.36519791257E+01  0.47122146463E+01  0.00000000000E+00 0.  1.
</event>
<event>
 8    1  0.6016610E-012  0.9118800E+02  0.7816164E-02  0.1184000E+00
        -11   -1    0    0    0    0  0.00000000000E+00  0.00000000000E+00  0.45593999997E+02  0.45594000000E+02  0.51100000000E-03 0. -1.
         11   -1    0    0    0    0 -0.00000000000E+00 -0.00000000000E+00 -0.45593999997E+02  0.45594000000E+02  0.51100000000E-03 0.  1.
         23    2    1    2    0    0 -0.35527136788E-14  0.00000000000E+00 -0.35527136788E-14  0.91188000000E+02  0.91188000000E+02 0.  0.
    9900012    2    3    3    0    0 -0.25957049091E+02 -0.20652897717E+02  0.23512841235E+02  0.50528876983E+02  0.30000052076E+02 0.  0.
        -12    1    3    3    0    0  0.25957049091E+02  0.20652897717E+02 -0.23512841235E+02  0.40659123017E+02  0.00000000000E+00 0.  1.
         11    1    4    4    0    0  0.19796527116E+01 -0.68172333272E+01 -0.62245542544E+00  0.71260891178E+01  0.51100000000E-03 0.  1.
        -11    1    4    4    0    0 -0.21919940256E+02 -0.78257126113E+01  0.70521020153E+01  0.24319903409E+02  0.51100000000E-03 0. -1.
        -12    1    4    4    0    0 -0.60167615461E+01 -0.60099517781E+01  0.17083194645E+02  0.19082884456E+02  0.00000000000E+00 0.  1.
</event>
<event>
 8    1  0.6016610E-012  0.9118800E+02  0.7816164E-02  0.1184000E+00
        -11   -1    0    0    0    0  0.00000000000E+00  0.00000000000E+00  0.45593999997E+02  0.45594000000E+02  0.51100000000E-03 0. -1.
         11   -1    0    0    0    0 -0.00000000000E+00 -0.00000000000E+00 -0.45593999997E+02  0.45594000000E+02  0.51100000000E-03 0.  1.
         23    2    1    2    0    0  0.00000000000E+00 -0.17763568394E-14 -0.88817841970E-15  0.91188000000E+02  0.91188000000E+02 0.  0.
    9900012    2    3    3    0    0 -0.38772824446E+02  0.12123721647E+02  0.16868288737E+01  0.50528905892E+02  0.30000139948E+02 0.  0.
        -12    1    3    3    0    0  0.38772824446E+02 -0.12123721647E+02 -0.16868288737E+01  0.40659094108E+02  0.00000000000E+00 0.  1.
         11    1    4    4    0    0 -0.10283232431E+02  0.10515516514E+01  0.55279460450E+01  0.11722150735E+02  0.51100000000E-03 0. -1.
        -11    1    4    4    0    0  0.37890500375E+00  0.42773886220E+01 -0.77825544404E+01  0.88886318579E+01  0.51100000000E-03 0.  1.
        -12    1    4    4    0    0 -0.28868497018E+02  0.67947813734E+01  0.39414372691E+01  0.29918123299E+02  0.00000000000E+00 0.  1.
</event>
<event>
 8    1  0.6016610E-012  0.9118800E+02  0.7816164E-02  0.1184000E+00
        -11   -1    0    0    0    0  0.00000000000E+00  0.00000000000E+00  0.45593999997E+02  0.45594000000E+02  0.51100000000E-03 0.  1.
         11   -1    0    0    0    0 -0.00000000000E+00 -0.00000000000E+00 -0.45593999997E+02  0.45594000000E+02  0.51100000000E-03 0. -1.
         23    2    1    2    0    0  0.00000000000E+00 -0.35527136788E-14  0.00000000000E+00  0.91188000000E+02  0.91188000000E+02 0.  0.
    9900012    2    3    3    0    0 -0.31566104652E+02 -0.22714660027E+02 -0.11865539615E+02  0.50528858674E+02  0.29999996425E+02 0.  0.
         12    1    3    3    0    0  0.31566104652E+02  0.22714660027E+02  0.11865539615E+02  0.40659141326E+02  0.00000000000E+00 0. -1.
         11    1    4    4    0    0 -0.52176055544E+01  0.51612187115E+01  0.40308741954E+01  0.83731435764E+01  0.51100000000E-03 0. -1.
        -11    1    4    4    0    0 -0.10525290230E+02 -0.12354716060E+02 -0.10541639582E+02  0.19353214428E+02  0.51100000000E-03 0.  1.
         12    1    4    4    0    0 -0.15823208867E+02 -0.15521162679E+02 -0.53547742282E+01  0.22802500669E+02  0.00000000000E+00 0. -1.
</event>
<event>
 8    1  0.6016610E-012  0.9118800E+02  0.7816164E-02  0.1184000E+00
        -11   -1    0    0    0    0  0.00000000000E+00  0.00000000000E+00  0.45593999997E+02  0.45594000000E+02  0.51100000000E-03 0. -1.
         11   -1    0    0    0    0 -0.00000000000E+00 -0.00000000000E+00 -0.45593999997E+02  0.45594000000E+02  0.51100000000E-03 0.  1.
         23    2    1    2    0    0  0.00000000000E+00 -0.35527136788E-14  0.00000000000E+00  0.91188000000E+02  0.91188000000E+02 0.  0.
    9900012    2    3    3    0    0 -0.15106477441E+02  0.18937570136E+02  0.32654594290E+02  0.50528932726E+02  0.30000221513E+02 0.  0.
        -12    1    3    3    0    0  0.15106477441E+02 -0.18937570136E+02 -0.32654594290E+02  0.40659067274E+02  0.00000000000E+00 0.  1.
         11    1    4    4    0    0 -0.36080908730E+01  0.11758580127E+02 -0.18859138499E+01  0.12443439944E+02  0.51100000000E-03 0. -1.
        -11    1    4    4    0    0 -0.93470384600E+01  0.29314930044E+01  0.29791521327E+02  0.31360732173E+02  0.51100000000E-03 0.  1.
         12    1    4    4    0    0 -0.21513481082E+01  0.42474970050E+01  0.47489868130E+01  0.67247606084E+01  0.00000000000E+00 0. -1.
</event>
<event>
 8    1  0.6016610E-012  0.9118800E+02  0.7816164E-02  0.1184000E+00
        -11   -1    0    0    0    0  0.00000000000E+00  0.00000000000E+00  0.45593999997E+02  0.45594000000E+02  0.51100000000E-03 0. -1.
         11   -1    0    0    0    0 -0.00000000000E+00 -0.00000000000E+00 -0.45593999997E+02  0.45594000000E+02  0.51100000000E-03 0.  1.
         23    2    1    2    0    0  0.00000000000E+00 -0.35527136788E-14  0.00000000000E+00  0.91188000000E+02  0.91188000000E+02 0.  0.
    9900012    2    3    3    0    0  0.26277285807E+01  0.19844362978E+02  0.35390131625E+02  0.50528866759E+02  0.30000021000E+02 0.  0.
        -12    1    3    3    0    0 -0.26277285807E+01 -0.19844362978E+02 -0.35390131625E+02  0.40659133241E+02  0.00000000000E+00 0.  1.
         11    1    4    4    0    0  0.44683812306E+01  0.22201135707E+02  0.28593135404E+02  0.36474981152E+02  0.51100000000E-03 0. -1.
        -11    1    4    4    0    0 -0.56921973772E+01  0.16981814455E+01  0.10451297632E+01  0.60313537192E+01  0.51100000000E-03 0.  1.
         12    1    4    4    0    0  0.38515447274E+01 -0.40549541748E+01  0.57518664576E+01  0.80225318879E+01  0.00000000000E+00 0. -1.
</event>
<event>
 8    1  0.6016610E-012  0.9118800E+02  0.7816164E-02  0.1184000E+00
        -11   -1    0    0    0    0  0.00000000000E+00  0.00000000000E+00  0.45593999997E+02  0.45594000000E+02  0.51100000000E-03 0. -1.
         11   -1    0    0    0    0 -0.00000000000E+00 -0.00000000000E+00 -0.45593999997E+02  0.45594000000E+02  0.51100000000E-03 0.  1.
         23    2    1    2    0    0  0.00000000000E+00  0.35527136788E-14  0.35527136788E-14  0.91188000000E+02  0.91188000000E+02 0.  0.
    9900012    2    3    3    0    0  0.14490522514E+02 -0.23369310914E+02 -0.29951058789E+02  0.50528857635E+02  0.29999993266E+02 0.  0.
         12    1    3    3    0    0 -0.14490522514E+02  0.23369310914E+02  0.29951058789E+02  0.40659142365E+02  0.00000000000E+00 0. -1.
         11    1    4    4    0    0  0.38051941019E+01  0.52228081364E+01 -0.78027066166E+01  0.10131113354E+02  0.51100000000E-03 0. -1.
        -11    1    4    4    0    0  0.62654565481E+01 -0.28431739224E+02 -0.17439464517E+02  0.33937511163E+02  0.51100000000E-03 0.  1.
         12    1    4    4    0    0  0.44198718641E+01 -0.16037982634E+00 -0.47088876557E+01  0.64602331179E+01  0.00000000000E+00 0. -1.
</event>
<event>
 8    1  0.6016610E-012  0.9118800E+02  0.7816164E-02  0.1184000E+00
        -11   -1    0    0    0    0  0.00000000000E+00  0.00000000000E+00  0.45593999997E+02  0.45594000000E+02  0.51100000000E-03 0. -1.
         11   -1    0    0    0    0 -0.00000000000E+00 -0.00000000000E+00 -0.45593999997E+02  0.45594000000E+02  0.51100000000E-03 0.  1.
         23    2    1    2    0    0  0.00000000000E+00  0.00000000000E+00  0.71054273576E-14  0.91188000000E+02  0.91188000000E+02 0.  0.
    9900012    2    3    3    0    0 -0.15699540977E+02 -0.17611470721E+02 -0.33113818552E+02  0.50528874740E+02  0.30000045259E+02 0.  0.
         12    1    3    3    0    0  0.15699540977E+02  0.17611470721E+02  0.33113818552E+02  0.40659125260E+02  0.00000000000E+00 0. -1.
         11    1    4    4    0    0 -0.12101579632E+02 -0.20020693952E+01 -0.36156753829E+00  0.12271399383E+02  0.51100000000E-03 0. -1.
        -11    1    4    4    0    0 -0.37149853583E+01 -0.10509052236E+02 -0.30868209267E+02  0.32819013372E+02  0.51100000000E-03 0.  1.
         12    1    4    4    0    0  0.11702401362E+00 -0.51003490899E+01 -0.18840417459E+01  0.54384619847E+01  0.00000000000E+00 0. -1.
</event>
<event>
 8    1  0.6016610E-012  0.9118800E+02  0.7816164E-02  0.1184000E+00
        -11   -1    0    0    0    0  0.00000000000E+00  0.00000000000E+00  0.45593999997E+02  0.45594000000E+02  0.51100000000E-03 0. -1.
         11   -1    0    0    0    0 -0.00000000000E+00 -0.00000000000E+00 -0.45593999997E+02  0.45594000000E+02  0.51100000000E-03 0.  1.
         23    2    1    2    0    0  0.00000000000E+00  0.00000000000E+00  0.00000000000E+00  0.91188000000E+02  0.91188000000E+02 0.  0.
    9900012    2    3    3    0    0 -0.13800737978E+01 -0.23798416428E+02  0.32937769145E+02  0.50528857555E+02  0.29999993024E+02 0.  0.
        -12    1    3    3    0    0  0.13800737978E+01  0.23798416428E+02 -0.32937769145E+02  0.40659142445E+02  0.00000000000E+00 0.  1.
         11    1    4    4    0    0 -0.85321383248E+00  0.23761966085E+01 -0.37465794622E+01  0.45178691984E+01  0.51100000000E-03 0.  1.
        -11    1    4    4    0    0  0.19036377633E+01 -0.10486742114E+02  0.21723105259E+02  0.24196877882E+02  0.51100000000E-03 0. -1.
         12    1    4    4    0    0 -0.24304977286E+01 -0.15687870922E+02  0.14961243348E+02  0.21814110474E+02  0.00000000000E+00 0. -1.
</event>
<event>
 8    1  0.6016610E-012  0.9118800E+02  0.7816164E-02  0.1184000E+00
        -11   -1    0    0    0    0  0.00000000000E+00  0.00000000000E+00  0.45593999997E+02  0.45594000000E+02  0.51100000000E-03 0. -1.
         11   -1    0    0    0    0 -0.00000000000E+00 -0.00000000000E+00 -0.45593999997E+02  0.45594000000E+02  0.51100000000E-03 0.  1.
         23    2    1    2    0    0 -0.35527136788E-14 -0.88817841970E-15  0.71054273576E-14  0.91188000000E+02  0.91188000000E+02 0.  0.
    9900012    2    3    3    0    0  0.20942527174E+02  0.42274626925E+01 -0.34593423360E+02  0.50528858039E+02  0.29999994496E+02 0.  0.
         12    1    3    3    0    0 -0.20942527174E+02 -0.42274626925E+01  0.34593423360E+02  0.40659141961E+02  0.00000000000E+00 0. -1.
         11    1    4    4    0    0 -0.25034795447E+01 -0.70158616677E+01 -0.24950088766E+01  0.78558764200E+01  0.51100000000E-03 0. -1.
        -11    1    4    4    0    0  0.15164850238E+02  0.81079148340E+01 -0.28129423377E+02  0.32969310358E+02  0.51100000000E-03 0.  1.
         12    1    4    4    0    0  0.82811564801E+01  0.31354095262E+01 -0.39689911061E+01  0.97036712612E+01  0.00000000000E+00 0. -1.
</event>
<event>
 8    1  0.6016610E-012  0.9118800E+02  0.7816164E-02  0.1184000E+00
        -11   -1    0    0    0    0  0.00000000000E+00  0.00000000000E+00  0.45593999997E+02  0.45594000000E+02  0.51100000000E-03 0. -1.
         11   -1    0    0    0    0 -0.00000000000E+00 -0.00000000000E+00 -0.45593999997E+02  0.45594000000E+02  0.51100000000E-03 0.  1.
         23    2    1    2    0    0  0.00000000000E+00  0.00000000000E+00 -0.35527136788E-14  0.91188000000E+02  0.91188000000E+02 0.  0.
    9900012    2    3    3    0    0 -0.33146613565E+02  0.10369799070E+02 -0.21140839362E+02  0.50528858193E+02  0.29999994964E+02 0.  0.
         12    1    3    3    0    0  0.33146613565E+02 -0.10369799070E+02  0.21140839362E+02  0.40659141807E+02  0.00000000000E+00 0. -1.
         11    1    4    4    0    0 -0.19160391863E+02 -0.66697431986E+01 -0.71287322803E+01  0.21504067403E+02  0.51100000000E-03 0. -1.
        -11    1    4    4    0    0 -0.10976857844E+02  0.11292233416E+02 -0.15787094070E+02  0.22298840398E+02  0.51100000000E-03 0.  1.
         12    1    4    4    0    0 -0.30093638572E+01  0.57473088527E+01  0.17749869883E+01  0.67259503925E+01  0.00000000000E+00 0. -1.
</event>
<event>
 8    1  0.6016610E-012  0.9118800E+02  0.7816164E-02  0.1184000E+00
        -11   -1    0    0    0    0  0.00000000000E+00  0.00000000000E+00  0.45593999997E+02  0.45594000000E+02  0.51100000000E-03 0. -1.
         11   -1    0    0    0    0 -0.00000000000E+00 -0.00000000000E+00 -0.45593999997E+02  0.45594000000E+02  0.51100000000E-03 0.  1.
         23    2    1    2    0    0  0.35527136788E-14  0.00000000000E+00  0.00000000000E+00  0.91188000000E+02  0.91188000000E+02 0.  0.
    9900012    2    3    3    0    0  0.20613956942E+02  0.30099224812E+02  0.17951552300E+02  0.50528969207E+02  0.30000332399E+02 0.  0.
        -12    1    3    3    0    0 -0.20613956942E+02 -0.30099224812E+02 -0.17951552300E+02  0.40659030793E+02  0.00000000000E+00 0.  1.
         11    1    4    4    0    0 -0.40627703902E+01  0.14101370368E+02  0.11559787358E+02  0.18681098295E+02  0.51100000000E-03 0. -1.
        -11    1    4    4    0    0  0.50250231095E+01 -0.10052363454E+01  0.19580556665E+01  0.54859219476E+01  0.51100000000E-03 0.  1.
         12    1    4    4    0    0  0.19651704222E+02  0.17003090789E+02  0.44337092756E+01  0.26361948964E+02  0.00000000000E+00 0. -1.
</event>
<event>
 8    1  0.6016610E-012  0.9118800E+02  0.7816164E-02  0.1184000E+00
        -11   -1    0    0    0    0  0.00000000000E+00  0.00000000000E+00  0.45593999997E+02  0.45594000000E+02  0.51100000000E-03 0. -1.
         11   -1    0    0    0    0 -0.00000000000E+00 -0.00000000000E+00 -0.45593999997E+02  0.45594000000E+02  0.51100000000E-03 0.  1.
         23    2    1    2    0    0  0.00000000000E+00  0.00000000000E+00  0.00000000000E+00  0.91188000000E+02  0.91188000000E+02 0.  0.
    9900012    2    3    3    0    0 -0.16490357692E+02 -0.16236003336E+02 -0.33430909982E+02  0.50528862732E+02  0.30000008760E+02 0.  0.
         12    1    3    3    0    0  0.16490357692E+02  0.16236003336E+02  0.33430909982E+02  0.40659137268E+02  0.00000000000E+00 0. -1.
         11    1    4    4    0    0 -0.46590058021E+01 -0.97890679779E+01 -0.42200659592E+01  0.11633621272E+02  0.51100000000E-03 0. -1.
        -11    1    4    4    0    0 -0.16183234322E+02 -0.31079624461E+01 -0.29060905595E+02  0.33407974167E+02  0.51100000000E-03 0.  1.
        -12    1    4    4    0    0  0.43518824319E+01 -0.33389729123E+01 -0.14993842809E+00  0.54872672928E+01  0.00000000000E+00 0.  1.
</event>
<event>
 8    1  0.6016610E-012  0.9118800E+02  0.7816164E-02  0.1184000E+00
        -11   -1    0    0    0    0  0.00000000000E+00  0.00000000000E+00  0.45593999997E+02  0.45594000000E+02  0.51100000000E-03 0. -1.
         11   -1    0    0    0    0 -0.00000000000E+00 -0.00000000000E+00 -0.45593999997E+02  0.45594000000E+02  0.51100000000E-03 0.  1.
         23    2    1    2    0    0  0.00000000000E+00  0.17763568394E-14  0.00000000000E+00  0.91188000000E+02  0.91188000000E+02 0.  0.
    9900012    2    3    3    0    0 -0.19802937508E+02 -0.10865598675E+02  0.33807513341E+02  0.50528861706E+02  0.30000005641E+02 0.  0.
        -12    1    3    3    0    0  0.19802937508E+02  0.10865598675E+02 -0.33807513341E+02  0.40659138294E+02  0.00000000000E+00 0.  1.
         11    1    4    4    0    0 -0.81435803569E+01 -0.15697749951E+02  0.29418039049E+02  0.34324310281E+02  0.51100000000E-03 0. -1.
        -11    1    4    4    0    0 -0.11131945351E+02  0.63134324880E+01  0.14611520690E+01  0.12880784243E+02  0.51100000000E-03 0.  1.
        -12    1    4    4    0    0 -0.52741180019E+00 -0.14812812126E+01  0.29283222231E+01  0.33237671820E+01  0.00000000000E+00 0.  1.
</event>
<event>
 8    1  0.6016610E-012  0.9118800E+02  0.7816164E-02  0.1184000E+00
        -11   -1    0    0    0    0  0.00000000000E+00  0.00000000000E+00  0.45593999997E+02  0.45594000000E+02  0.51100000000E-03 0. -1.
         11   -1    0    0    0    0 -0.00000000000E+00 -0.00000000000E+00 -0.45593999997E+02  0.45594000000E+02  0.51100000000E-03 0.  1.
         23    2    1    2    0    0 -0.88817841970E-15  0.00000000000E+00 -0.35527136788E-14  0.91188000000E+02  0.91188000000E+02 0.  0.
    9900012    2    3    3    0    0 -0.61300143960E+01  0.34595419041E+02  0.20463291280E+02  0.50528851151E+02  0.29999973559E+02 0.  0.
        -12    1    3    3    0    0  0.61300143960E+01 -0.34595419041E+02 -0.20463291280E+02  0.40659148849E+02  0.00000000000E+00 0.  1.
         11    1    4    4    0    0 -0.92056114242E+00 -0.30978486965E+01 -0.14132864607E+01  0.35272479704E+01  0.51100000000E-03 0.  1.
        -11    1    4    4    0    0 -0.56426300321E+01  0.32186589705E+02  0.24543232159E+02  0.40867910095E+02  0.51100000000E-03 0. -1.
         12    1    4    4    0    0  0.43317677854E+00  0.55066780327E+01 -0.26666544184E+01  0.61336930853E+01  0.00000000000E+00 0. -1.
</event>
<event>
 8    1  0.6016610E-012  0.9118800E+02  0.7816164E-02  0.1184000E+00
        -11   -1    0    0    0    0  0.00000000000E+00  0.00000000000E+00  0.45593999997E+02  0.45594000000E+02  0.51100000000E-03 0. -1.
         11   -1    0    0    0    0 -0.00000000000E+00 -0.00000000000E+00 -0.45593999997E+02  0.45594000000E+02  0.51100000000E-03 0.  1.
         23    2    1    2    0    0  0.17763568394E-14  0.00000000000E+00  0.00000000000E+00  0.91188000000E+02  0.91188000000E+02 0.  0.
    9900012    2    3    3    0    0  0.15750276044E+02 -0.17038085187E+02 -0.33388593066E+02  0.50528859708E+02  0.29999999569E+02 0.  0.
         12    1    3    3    0    0 -0.15750276044E+02  0.17038085187E+02  0.33388593066E+02  0.40659140292E+02  0.00000000000E+00 0. -1.
         11    1    4    4    0    0 -0.76795647883E+01 -0.26474450944E+00 -0.49509791346E+01  0.91410064897E+01  0.51100000000E-03 0. -1.
        -11    1    4    4    0    0  0.97515210717E+01 -0.26242755484E+01 -0.12462376027E+02  0.16040255667E+02  0.51100000000E-03 0.  1.
         12    1    4    4    0    0  0.13678319761E+02 -0.14149065130E+02 -0.15975237905E+02  0.25347597552E+02  0.00000000000E+00 0. -1.
</event>
<event>
 8    1  0.6016610E-012  0.9118800E+02  0.7816164E-02  0.1184000E+00
        -11   -1    0    0    0    0  0.00000000000E+00  0.00000000000E+00  0.45593999997E+02  0.45594000000E+02  0.51100000000E-03 0. -1.
         11   -1    0    0    0    0 -0.00000000000E+00 -0.00000000000E+00 -0.45593999997E+02  0.45594000000E+02  0.51100000000E-03 0.  1.
         23    2    1    2    0    0  0.00000000000E+00  0.44408920985E-15  0.00000000000E+00  0.91188000000E+02  0.91188000000E+02 0.  0.
    9900012    2    3    3    0    0 -0.30820206306E+02 -0.27681299286E+01  0.26374554960E+02  0.50528870529E+02  0.30000032459E+02 0.  0.
        -12    1    3    3    0    0  0.30820206306E+02  0.27681299286E+01 -0.26374554960E+02  0.40659129471E+02  0.00000000000E+00 0.  1.
         11    1    4    4    0    0 -0.95497655333E+01  0.15019382592E+01  0.81303455208E+01  0.12631562010E+02  0.51100000000E-03 0. -1.
        -11    1    4    4    0    0 -0.17767757614E+01 -0.61159084187E+01  0.17140394905E+02  0.18285360419E+02  0.51100000000E-03 0.  1.
        -12    1    4    4    0    0 -0.19493665011E+02  0.18458402310E+01  0.11038145341E+01  0.19611948099E+02  0.00000000000E+00 0.  1.
</event>
<event>
 8    1  0.6016610E-012  0.9118800E+02  0.7816164E-02  0.1184000E+00
        -11   -1    0    0    0    0  0.00000000000E+00  0.00000000000E+00  0.45593999997E+02  0.45594000000E+02  0.51100000000E-03 0. -1.
         11   -1    0    0    0    0 -0.00000000000E+00 -0.00000000000E+00 -0.45593999997E+02  0.45594000000E+02  0.51100000000E-03 0.  1.
         23    2    1    2    0    0  0.00000000000E+00  0.17763568394E-14  0.35527136788E-14  0.91188000000E+02  0.91188000000E+02 0.  0.
    9900012    2    3    3    0    0  0.27373124467E+02  0.14076057645E+02  0.26565814907E+02  0.50528857565E+02  0.29999993054E+02 0.  0.
        -12    1    3    3    0    0 -0.27373124467E+02 -0.14076057645E+02 -0.26565814907E+02  0.40659142435E+02  0.00000000000E+00 0.  1.
         11    1    4    4    0    0  0.27418926508E+02  0.78332117569E+01  0.74093442443E+01  0.29462775152E+02  0.51100000000E-03 0. -1.
        -11    1    4    4    0    0 -0.26388259677E+01  0.42205413412E+01  0.14754245645E+02  0.15571259952E+02  0.51100000000E-03 0.  1.
        -12    1    4    4    0    0  0.25930239263E+01  0.20223045471E+01  0.44022250178E+01  0.54948224604E+01  0.00000000000E+00 0.  1.
</event>
<event>
 8    1  0.6016610E-012  0.9118800E+02  0.7816164E-02  0.1184000E+00
        -11   -1    0    0    0    0  0.00000000000E+00  0.00000000000E+00  0.45593999997E+02  0.45594000000E+02  0.51100000000E-03 0. -1.
         11   -1    0    0    0    0 -0.00000000000E+00 -0.00000000000E+00 -0.45593999997E+02  0.45594000000E+02  0.51100000000E-03 0.  1.
         23    2    1    2    0    0  0.00000000000E+00  0.00000000000E+00  0.00000000000E+00  0.91188000000E+02  0.91188000000E+02 0.  0.
    9900012    2    3    3    0    0  0.12550371990E+02  0.16411491133E+02 -0.35018801569E+02  0.50528863984E+02  0.30000012565E+02 0.  0.
         12    1    3    3    0    0 -0.12550371990E+02 -0.16411491133E+02  0.35018801569E+02  0.40659136016E+02  0.00000000000E+00 0. -1.
         11    1    4    4    0    0  0.19980882137E+01  0.14804715858E+01  0.16255031929E+01  0.29709280566E+01  0.51100000000E-03 0. -1.
        -11    1    4    4    0    0  0.18004611882E+02  0.13418417831E+02 -0.24538735122E+02  0.33262133241E+02  0.51100000000E-03 0.  1.
        -12    1    4    4    0    0 -0.74523281057E+01  0.15126017159E+01 -0.12105569639E+02  0.14295802686E+02  0.00000000000E+00 0.  1.
</event>
<event>
 8    1  0.6016610E-012  0.9118800E+02  0.7816164E-02  0.1184000E+00
        -11   -1    0    0    0    0  0.00000000000E+00  0.00000000000E+00  0.45593999997E+02  0.45594000000E+02  0.51100000000E-03 0. -1.
         11   -1    0    0    0    0 -0.00000000000E+00 -0.00000000000E+00 -0.45593999997E+02  0.45594000000E+02  0.51100000000E-03 0.  1.
         23    2    1    2    0    0 -0.44408920985E-15  0.00000000000E+00  0.00000000000E+00  0.91188000000E+02  0.91188000000E+02 0.  0.
    9900012    2    3    3    0    0  0.39866747047E+01 -0.19507752829E+02  0.35450243626E+02  0.50528858730E+02  0.29999996596E+02 0.  0.
        -12    1    3    3    0    0 -0.39866747047E+01  0.19507752829E+02 -0.35450243626E+02  0.40659141270E+02  0.00000000000E+00 0.  1.
         11    1    4    4    0    0  0.46508024515E+01 -0.16744427752E+02  0.33162346730E+02  0.37439912728E+02  0.51100000000E-03 0. -1.
        -11    1    4    4    0    0  0.32860790995E+01  0.99788069344E+00 -0.36598664638E+01  0.50188349764E+01  0.51100000000E-03 0.  1.
        -12    1    4    4    0    0 -0.39502068463E+01 -0.37612057710E+01  0.59477633596E+01  0.80701110254E+01  0.00000000000E+00 0.  1.
</event>
<event>
 8    1  0.6016610E-012  0.9118800E+02  0.7816164E-02  0.1184000E+00
        -11   -1    0    0    0    0  0.00000000000E+00  0.00000000000E+00  0.45593999997E+02  0.45594000000E+02  0.51100000000E-03 0. -1.
         11   -1    0    0    0    0 -0.00000000000E+00 -0.00000000000E+00 -0.45593999997E+02  0.45594000000E+02  0.51100000000E-03 0.  1.
         23    2    1    2    0    0 -0.17763568394E-14  0.00000000000E+00 -0.71054273576E-14  0.91188000000E+02  0.91188000000E+02 0.  0.
    9900012    2    3    3    0    0  0.10126785002E+02  0.13409280136E+02  0.37024390691E+02  0.50528854973E+02  0.29999985177E+02 0.  0.
        -12    1    3    3    0    0 -0.10126785002E+02 -0.13409280136E+02 -0.37024390691E+02  0.40659145027E+02  0.00000000000E+00 0.  1.
         11    1    4    4    0    0  0.15374571477E+02  0.16109565022E+02  0.38031217506E+02  0.44071181497E+02  0.51100000000E-03 0. -1.
        -11    1    4    4    0    0 -0.30713023615E+01 -0.22050193951E+00 -0.47468114433E+00  0.31155804838E+01  0.51100000000E-03 0.  1.
         12    1    4    4    0    0 -0.21764841130E+01 -0.24797829459E+01 -0.53214567104E+00  0.33420929921E+01  0.00000000000E+00 0. -1.
</event>
<event>
 8    1  0.6016610E-012  0.9118800E+02  0.7816164E-02  0.1184000E+00
        -11   -1    0    0    0    0  0.00000000000E+00  0.00000000000E+00  0.45593999997E+02  0.45594000000E+02  0.51100000000E-03 0. -1.
         11   -1    0    0    0    0 -0.00000000000E+00 -0.00000000000E+00 -0.45593999997E+02  0.45594000000E+02  0.51100000000E-03 0.  1.
         23    2    1    2    0    0  0.35527136788E-14  0.00000000000E+00  0.00000000000E+00  0.91188000000E+02  0.91188000000E+02 0.  0.
    9900012    2    3    3    0    0 -0.21976076446E+02 -0.28917590984E+02 -0.18275444751E+02  0.50528845002E+02  0.29999954869E+02 0.  0.
         12    1    3    3    0    0  0.21976076446E+02  0.28917590984E+02  0.18275444751E+02  0.40659154998E+02  0.00000000000E+00 0. -1.
         11    1    4    4    0    0 -0.28548068040E+01  0.41324520435E+01 -0.13364796869E+01  0.51974282097E+01  0.51100000000E-03 0. -1.
        -11    1    4    4    0    0 -0.11584173365E+02 -0.31949312148E+02 -0.16289125604E+02  0.37686698350E+02  0.51100000000E-03 0.  1.
        -12    1    4    4    0    0 -0.75370962766E+01 -0.11007308794E+01 -0.64983945997E+00  0.76447184431E+01  0.00000000000E+00 0.  1.
</event>
<event>
 8    1  0.6016610E-012  0.9118800E+02  0.7816164E-02  0.1184000E+00
        -11   -1    0    0    0    0  0.00000000000E+00  0.00000000000E+00  0.45593999997E+02  0.45594000000E+02  0.51100000000E-03 0. -1.
         11   -1    0    0    0    0 -0.00000000000E+00 -0.00000000000E+00 -0.45593999997E+02  0.45594000000E+02  0.51100000000E-03 0.  1.
         23    2    1    2    0    0  0.00000000000E+00  0.00000000000E+00  0.00000000000E+00  0.91188000000E+02  0.91188000000E+02 0.  0.
    9900012    2    3    3    0    0  0.90740810502E+01  0.30264774051E+02  0.25590478415E+02  0.50528830299E+02  0.29999910177E+02 0.  0.
        -12    1    3    3    0    0 -0.90740810502E+01 -0.30264774051E+02 -0.25590478415E+02  0.40659169701E+02  0.00000000000E+00 0.  1.
         11    1    4    4    0    0  0.82230947059E+01  0.18631448785E+02  0.20810081919E+02  0.29117171568E+02  0.51100000000E-03 0. -1.
        -11    1    4    4    0    0  0.36380265950E+01  0.11532474969E+02 -0.35693559412E+01  0.12608470110E+02  0.51100000000E-03 0.  1.
         12    1    4    4    0    0 -0.27870402507E+01  0.10085029712E+00  0.83497524373E+01  0.88031886215E+01  0.00000000000E+00 0. -1.
</event>
<event>
 8    1  0.6016610E-012  0.9118800E+02  0.7816164E-02  0.1184000E+00
        -11   -1    0    0    0    0  0.00000000000E+00  0.00000000000E+00  0.45593999997E+02  0.45594000000E+02  0.51100000000E-03 0. -1.
         11   -1    0    0    0    0 -0.00000000000E+00 -0.00000000000E+00 -0.45593999997E+02  0.45594000000E+02  0.51100000000E-03 0.  1.
         23    2    1    2    0    0 -0.35527136788E-14  0.35527136788E-14  0.35527136788E-14  0.91188000000E+02  0.91188000000E+02 0.  0.
    9900012    2    3    3    0    0  0.23354477744E+02 -0.24595761535E+02 -0.22422780237E+02  0.50528878148E+02  0.30000055620E+02 0.  0.
         12    1    3    3    0    0 -0.23354477744E+02  0.24595761535E+02  0.22422780237E+02  0.40659121852E+02  0.00000000000E+00 0. -1.
         11    1    4    4    0    0  0.54828427149E+01  0.55452064521E+01 -0.34462202670E+01  0.85256854987E+01  0.51100000000E-03 0. -1.
        -11    1    4    4    0    0  0.12210352878E+02 -0.25350834356E+02 -0.19993248730E+02  0.34517930341E+02  0.51100000000E-03 0.  1.
         12    1    4    4    0    0  0.56612821508E+01 -0.47901336312E+01  0.10166887601E+01  0.74852623087E+01  0.00000000000E+00 0. -1.
</event>
<event>
 8    1  0.6016610E-012  0.9118800E+02  0.7816164E-02  0.1184000E+00
        -11   -1    0    0    0    0  0.00000000000E+00  0.00000000000E+00  0.45593999997E+02  0.45594000000E+02  0.51100000000E-03 0. -1.
         11   -1    0    0    0    0 -0.00000000000E+00 -0.00000000000E+00 -0.45593999997E+02  0.45594000000E+02  0.51100000000E-03 0.  1.
         23    2    1    2    0    0  0.00000000000E+00  0.00000000000E+00  0.44408920985E-15  0.91188000000E+02  0.91188000000E+02 0.  0.
    9900012    2    3    3    0    0 -0.39512309563E+02  0.92867072070E+01 -0.23874997212E+01  0.50528859667E+02  0.29999999443E+02 0.  0.
         12    1    3    3    0    0  0.39512309563E+02 -0.92867072070E+01  0.23874997212E+01  0.40659140333E+02  0.00000000000E+00 0. -1.
         11    1    4    4    0    0 -0.54787396016E+01  0.50240225996E+01  0.45850016377E+01  0.87338210986E+01  0.51100000000E-03 0. -1.
        -11    1    4    4    0    0 -0.14684138336E+02 -0.59447664679E+01 -0.11345500866E+02  0.19485496072E+02  0.51100000000E-03 0.  1.
        -12    1    4    4    0    0 -0.19349431625E+02  0.10207451075E+02  0.43729995072E+01  0.22309542496E+02  0.00000000000E+00 0.  1.
</event>
<event>
 8    1  0.6016610E-012  0.9118800E+02  0.7816164E-02  0.1184000E+00
        -11   -1    0    0    0    0  0.00000000000E+00  0.00000000000E+00  0.45593999997E+02  0.45594000000E+02  0.51100000000E-03 0. -1.
         11   -1    0    0    0    0 -0.00000000000E+00 -0.00000000000E+00 -0.45593999997E+02  0.45594000000E+02  0.51100000000E-03 0.  1.
         23    2    1    2    0    0 -0.71054273576E-14  0.17763568394E-14  0.00000000000E+00  0.91188000000E+02  0.91188000000E+02 0.  0.
    9900012    2    3    3    0    0  0.36662530965E+02 -0.15103705503E+02 -0.89945935426E+01  0.50528858227E+02  0.29999995067E+02 0.  0.
        -12    1    3    3    0    0 -0.36662530965E+02  0.15103705503E+02  0.89945935426E+01  0.40659141773E+02  0.00000000000E+00 0.  1.
         11    1    4    4    0    0  0.26839432209E+02 -0.79609891337E+00 -0.28223351691E+01  0.26999156855E+02  0.51100000000E-03 0. -1.
        -11    1    4    4    0    0  0.46844194293E+01 -0.14958672923E+02 -0.85220903926E+01  0.17841852648E+02  0.51100000000E-03 0.  1.
        -12    1    4    4    0    0  0.51386793268E+01  0.65106633269E+00  0.23498320191E+01  0.56878487243E+01  0.00000000000E+00 0.  1.
</event>
<event>
 8    1  0.6016610E-012  0.9118800E+02  0.7816164E-02  0.1184000E+00
        -11   -1    0    0    0    0  0.00000000000E+00  0.00000000000E+00  0.45593999997E+02  0.45594000000E+02  0.51100000000E-03 0.  1.
         11   -1    0    0    0    0 -0.00000000000E+00 -0.00000000000E+00 -0.45593999997E+02  0.45594000000E+02  0.51100000000E-03 0. -1.
         23    2    1    2    0    0  0.00000000000E+00 -0.35527136788E-14  0.00000000000E+00  0.91188000000E+02  0.91188000000E+02 0.  0.
    9900012    2    3    3    0    0  0.20454693418E+02  0.28928724314E+02  0.19947447559E+02  0.50528852968E+02  0.29999979081E+02 0.  0.
        -12    1    3    3    0    0 -0.20454693418E+02 -0.28928724314E+02 -0.19947447559E+02  0.40659147032E+02  0.00000000000E+00 0.  1.
         11    1    4    4    0    0  0.16092269635E+02  0.25652957080E+02  0.65239527878E+01  0.30977367693E+02  0.51100000000E-03 0. -1.
        -11    1    4    4    0    0 -0.42721318309E+01  0.20697341756E+00  0.15417679688E+01  0.45465368256E+01  0.51100000000E-03 0.  1.
        -12    1    4    4    0    0  0.86345556137E+01  0.30687938160E+01  0.11881726803E+02  0.15004948449E+02  0.00000000000E+00 0.  1.
</event>
<event>
 8    1  0.6016610E-012  0.9118800E+02  0.7816164E-02  0.1184000E+00
        -11   -1    0    0    0    0  0.00000000000E+00  0.00000000000E+00  0.45593999997E+02  0.45594000000E+02  0.51100000000E-03 0. -1.
         11   -1    0    0    0    0 -0.00000000000E+00 -0.00000000000E+00 -0.45593999997E+02  0.45594000000E+02  0.51100000000E-03 0.  1.
         23    2    1    2    0    0  0.00000000000E+00  0.00000000000E+00  0.00000000000E+00  0.91188000000E+02  0.91188000000E+02 0.  0.
    9900012    2    3    3    0    0 -0.12727212043E+02  0.25271740675E+01  0.38533069213E+02  0.50528856402E+02  0.29999989520E+02 0.  0.
        -12    1    3    3    0    0  0.12727212043E+02 -0.25271740675E+01 -0.38533069213E+02  0.40659143598E+02  0.00000000000E+00 0.  1.
         11    1    4    4    0    0 -0.76363969872E+01  0.58021395637E+01  0.34849548535E+02  0.36145129904E+02  0.51100000000E-03 0. -1.
        -11    1    4    4    0    0  0.21981380927E+01 -0.42418410888E+01  0.49982610229E+01  0.69143069364E+01  0.51100000000E-03 0.  1.
         12    1    4    4    0    0 -0.72889531481E+01  0.96687559255E+00 -0.13147403447E+01  0.74694195611E+01  0.00000000000E+00 0. -1.
</event>
<event>
 8    1  0.6016610E-012  0.9118800E+02  0.7816164E-02  0.1184000E+00
        -11   -1    0    0    0    0  0.00000000000E+00  0.00000000000E+00  0.45593999997E+02  0.45594000000E+02  0.51100000000E-03 0.  1.
         11   -1    0    0    0    0 -0.00000000000E+00 -0.00000000000E+00 -0.45593999997E+02  0.45594000000E+02  0.51100000000E-03 0. -1.
         23    2    1    2    0    0  0.00000000000E+00  0.00000000000E+00  0.00000000000E+00  0.91188000000E+02  0.91188000000E+02 0.  0.
    9900012    2    3    3    0    0 -0.81405697147E+01 -0.21958961355E+02 -0.33237050001E+02  0.50528851560E+02  0.29999974802E+02 0.  0.
         12    1    3    3    0    0  0.81405697147E+01  0.21958961355E+02  0.33237050001E+02  0.40659148440E+02  0.00000000000E+00 0. -1.
         11    1    4    4    0    0  0.59524103430E+01 -0.20108607679E+02 -0.15725537057E+02  0.26212207227E+02  0.51100000000E-03 0.  1.
        -11    1    4    4    0    0 -0.13200065471E+02 -0.37389593567E+01 -0.17488243612E+02  0.22227465227E+02  0.51100000000E-03 0. -1.
        -12    1    4    4    0    0 -0.89291458628E+00  0.18886056813E+01 -0.23269332494E-01  0.20891791067E+01  0.00000000000E+00 0.  1.
</event>
<event>
 8    1  0.6016610E-012  0.9118800E+02  0.7816164E-02  0.1184000E+00
        -11   -1    0    0    0    0  0.00000000000E+00  0.00000000000E+00  0.45593999997E+02  0.45594000000E+02  0.51100000000E-03 0. -1.
         11   -1    0    0    0    0 -0.00000000000E+00 -0.00000000000E+00 -0.45593999997E+02  0.45594000000E+02  0.51100000000E-03 0.  1.
         23    2    1    2    0    0 -0.88817841970E-15  0.17763568394E-14  0.00000000000E+00  0.91188000000E+02  0.91188000000E+02 0.  0.
    9900012    2    3    3    0    0 -0.26924266309E+01  0.10367137611E+02 -0.39222936756E+02  0.50528862391E+02  0.30000007723E+02 0.  0.
         12    1    3    3    0    0  0.26924266309E+01 -0.10367137611E+02  0.39222936756E+02  0.40659137609E+02  0.00000000000E+00 0. -1.
         11    1    4    4    0    0  0.38131334584E+01  0.13963389619E+01 -0.19895542574E+01  0.45219548507E+01  0.51100000000E-03 0. -1.
        -11    1    4    4    0    0 -0.15901684762E+02  0.53429449169E+01 -0.20659278326E+02  0.26612335859E+02  0.51100000000E-03 0.  1.
        -12    1    4    4    0    0  0.93961246730E+01  0.36278537320E+01 -0.16574104172E+02  0.19394571681E+02  0.00000000000E+00 0.  1.
</event>
<event>
 8    1  0.6016610E-012  0.9118800E+02  0.7816164E-02  0.1184000E+00
        -11   -1    0    0    0    0  0.00000000000E+00  0.00000000000E+00  0.45593999997E+02  0.45594000000E+02  0.51100000000E-03 0. -1.
         11   -1    0    0    0    0 -0.00000000000E+00 -0.00000000000E+00 -0.45593999997E+02  0.45594000000E+02  0.51100000000E-03 0.  1.
         23    2    1    2    0    0  0.00000000000E+00  0.00000000000E+00  0.00000000000E+00  0.91188000000E+02  0.91188000000E+02 0.  0.
    9900012    2    3    3    0    0 -0.85770543840E+01 -0.33913661566E+02  0.20723280325E+02  0.50528970865E+02  0.30000337441E+02 0.  0.
        -12    1    3    3    0    0  0.85770543840E+01  0.33913661566E+02 -0.20723280325E+02  0.40659029135E+02  0.00000000000E+00 0.  1.
         11    1    4    4    0    0  0.15434207704E+01 -0.17587893003E+02  0.18368333722E+02  0.25477672813E+02  0.51100000000E-03 0. -1.
        -11    1    4    4    0    0 -0.13062171781E+02 -0.16285465513E+02  0.45670984403E+01  0.21370425991E+02  0.51100000000E-03 0.  1.
        -12    1    4    4    0    0  0.29416966268E+01 -0.40303049819E-01 -0.22121518374E+01  0.36808720613E+01  0.00000000000E+00 0.  1.
</event>
<event>
 8    1  0.6016610E-012  0.9118800E+02  0.7816164E-02  0.1184000E+00
        -11   -1    0    0    0    0  0.00000000000E+00  0.00000000000E+00  0.45593999997E+02  0.45594000000E+02  0.51100000000E-03 0. -1.
         11   -1    0    0    0    0 -0.00000000000E+00 -0.00000000000E+00 -0.45593999997E+02  0.45594000000E+02  0.51100000000E-03 0.  1.
         23    2    1    2    0    0  0.35527136788E-14  0.17763568394E-14  0.35527136788E-14  0.91188000000E+02  0.91188000000E+02 0.  0.
    9900012    2    3    3    0    0  0.24779330341E+02  0.91045357077E+01 -0.30923425143E+02  0.50528855824E+02  0.29999987762E+02 0.  0.
         12    1    3    3    0    0 -0.24779330341E+02 -0.91045357077E+01  0.30923425143E+02  0.40659144176E+02  0.00000000000E+00 0. -1.
         11    1    4    4    0    0  0.68364481494E+01 -0.10143632299E+02 -0.58477250833E+01  0.13558251673E+02  0.51100000000E-03 0. -1.
        -11    1    4    4    0    0  0.14489416033E+02  0.11417882097E+02 -0.18947955251E+02  0.26444965816E+02  0.51100000000E-03 0.  1.
         12    1    4    4    0    0  0.34534661583E+01  0.78302859089E+01 -0.61277448084E+01  0.10525638335E+02  0.00000000000E+00 0. -1.
</event>
<event>
 8    1  0.6016610E-012  0.9118800E+02  0.7816164E-02  0.1184000E+00
        -11   -1    0    0    0    0  0.00000000000E+00  0.00000000000E+00  0.45593999997E+02  0.45594000000E+02  0.51100000000E-03 0. -1.
         11   -1    0    0    0    0 -0.00000000000E+00 -0.00000000000E+00 -0.45593999997E+02  0.45594000000E+02  0.51100000000E-03 0.  1.
         23    2    1    2    0    0  0.00000000000E+00  0.13322676296E-14  0.00000000000E+00  0.91188000000E+02  0.91188000000E+02 0.  0.
    9900012    2    3    3    0    0 -0.39525459823E+02 -0.20914503826E+01 -0.93020924860E+01  0.50528867403E+02  0.30000022958E+02 0.  0.
         12    1    3    3    0    0  0.39525459823E+02  0.20914503826E+01  0.93020924860E+01  0.40659132597E+02  0.00000000000E+00 0. -1.
         11    1    4    4    0    0 -0.97826166460E+01  0.93721911951E+01  0.17035068688E+01  0.13654284754E+02  0.51100000000E-03 0. -1.
        -11    1    4    4    0    0 -0.21336936017E+02 -0.12889478975E+02 -0.28748647339E+01  0.25093193387E+02  0.51100000000E-03 0.  1.
        -12    1    4    4    0    0 -0.84059071598E+01  0.14258373971E+01 -0.81307346208E+01  0.11781389262E+02  0.00000000000E+00 0.  1.
</event>
<event>
 8    1  0.6016610E-012  0.9118800E+02  0.7816164E-02  0.1184000E+00
        -11   -1    0    0    0    0  0.00000000000E+00  0.00000000000E+00  0.45593999997E+02  0.45594000000E+02  0.51100000000E-03 0. -1.
         11   -1    0    0    0    0 -0.00000000000E+00 -0.00000000000E+00 -0.45593999997E+02  0.45594000000E+02  0.51100000000E-03 0.  1.
         23    2    1    2    0    0  0.00000000000E+00  0.00000000000E+00  0.35527136788E-14  0.91188000000E+02  0.91188000000E+02 0.  0.
    9900012    2    3    3    0    0 -0.24780779035E+02  0.18968080821E+02  0.26063205434E+02  0.50528858628E+02  0.29999996286E+02 0.  0.
        -12    1    3    3    0    0  0.24780779035E+02 -0.18968080821E+02 -0.26063205434E+02  0.40659141372E+02  0.00000000000E+00 0.  1.
         11    1    4    4    0    0 -0.84870393622E+01 -0.12181677668E+01  0.15184461827E+02  0.17437937122E+02  0.51100000000E-03 0.  1.
        -11    1    4    4    0    0 -0.87452435763E+01  0.20234680278E+02  0.12541089887E+02  0.25361397970E+02  0.51100000000E-03 0. -1.
         12    1    4    4    0    0 -0.75484960961E+01 -0.48431690198E-01 -0.16623462800E+01  0.77295235362E+01  0.00000000000E+00 0. -1.
</event>
<event>
 8    1  0.6016610E-012  0.9118800E+02  0.7816164E-02  0.1184000E+00
        -11   -1    0    0    0    0  0.00000000000E+00  0.00000000000E+00  0.45593999997E+02  0.45594000000E+02  0.51100000000E-03 0. -1.
         11   -1    0    0    0    0 -0.00000000000E+00 -0.00000000000E+00 -0.45593999997E+02  0.45594000000E+02  0.51100000000E-03 0.  1.
         23    2    1    2    0    0  0.71054273576E-14  0.17763568394E-14  0.17763568394E-14  0.91188000000E+02  0.91188000000E+02 0.  0.
    9900012    2    3    3    0    0  0.38850118865E+02  0.97000017247E+01  0.70529051398E+01  0.50528865231E+02  0.30000016355E+02 0.  0.
        -12    1    3    3    0    0 -0.38850118865E+02 -0.97000017247E+01 -0.70529051398E+01  0.40659134769E+02  0.00000000000E+00 0.  1.
         11    1    4    4    0    0  0.25924006781E+02  0.81220179750E+01  0.11342453166E+02  0.29439302771E+02  0.51100000000E-03 0. -1.
        -11    1    4    4    0    0  0.14329509930E+02 -0.27555226016E+01 -0.65613977333E+01  0.15999365616E+02  0.51100000000E-03 0.  1.
         12    1    4    4    0    0 -0.14033978464E+01  0.43335063512E+01  0.22718497071E+01  0.50901968432E+01  0.00000000000E+00 0. -1.
</event>
<event>
 8    1  0.6016610E-012  0.9118800E+02  0.7816164E-02  0.1184000E+00
        -11   -1    0    0    0    0  0.00000000000E+00  0.00000000000E+00  0.45593999997E+02  0.45594000000E+02  0.51100000000E-03 0.  1.
         11   -1    0    0    0    0 -0.00000000000E+00 -0.00000000000E+00 -0.45593999997E+02  0.45594000000E+02  0.51100000000E-03 0. -1.
         23    2    1    2    0    0  0.00000000000E+00 -0.35527136788E-14  0.17763568394E-14  0.91188000000E+02  0.91188000000E+02 0.  0.
    9900012    2    3    3    0    0  0.33646089938E+02 -0.20233835452E+02  0.10568732047E+02  0.50528861270E+02  0.30000004316E+02 0.  0.
         12    1    3    3    0    0 -0.33646089938E+02  0.20233835452E+02 -0.10568732047E+02  0.40659138730E+02  0.00000000000E+00 0. -1.
         11    1    4    4    0    0  0.30950216213E+02 -0.24805053291E+02  0.37674941298E+01  0.39842195781E+02  0.51100000000E-03 0. -1.
        -11    1    4    4    0    0  0.37054775793E+01  0.20440451858E+01  0.11050190587E+01  0.43737572170E+01  0.51100000000E-03 0.  1.
         12    1    4    4    0    0 -0.10096038546E+01  0.25271726532E+01  0.56962188585E+01  0.63129082716E+01  0.00000000000E+00 0. -1.
</event>
<event>
 8    1  0.6195244E-012  0.9118800E+02  0.7816164E-02  0.1184000E+00
        -11   -1    0    0    0    0  0.00000000000E+00  0.00000000000E+00  0.45593999997E+02  0.45594000000E+02  0.51100000000E-03 0.  1.
         11   -1    0    0    0    0 -0.00000000000E+00 -0.00000000000E+00 -0.45593999997E+02  0.45594000000E+02  0.51100000000E-03 0. -1.
         23    2    1    2    0    0 -0.17763568394E-14  0.00000000000E+00  0.00000000000E+00  0.91188000000E+02  0.91188000000E+02 0.  0.
    9900012    2    3    3    0    0 -0.14697164970E+02 -0.34906476608E+02  0.14788403854E+02  0.50528860119E+02  0.30000000818E+02 0.  0.
        -12    1    3    3    0    0  0.14697164970E+02  0.34906476608E+02 -0.14788403854E+02  0.40659139881E+02  0.00000000000E+00 0.  1.
         11    1    4    4    0    0 -0.18946757848E+02 -0.29558430720E+02  0.99554692435E+01  0.36493723128E+02  0.51100000000E-03 0. -1.
        -11    1    4    4    0    0  0.33911972369E+01 -0.56487272343E+01 -0.21981129759E+01  0.69455049480E+01  0.51100000000E-03 0.  1.
         12    1    4    4    0    0  0.85839564126E+00  0.30068134683E+00  0.70310475860E+01  0.70896320431E+01  0.00000000000E+00 0. -1.
</event>
<event>
 8    1  0.6016610E-012  0.9118800E+02  0.7816164E-02  0.1184000E+00
        -11   -1    0    0    0    0  0.00000000000E+00  0.00000000000E+00  0.45593999997E+02  0.45594000000E+02  0.51100000000E-03 0. -1.
         11   -1    0    0    0    0 -0.00000000000E+00 -0.00000000000E+00 -0.45593999997E+02  0.45594000000E+02  0.51100000000E-03 0.  1.
         23    2    1    2    0    0  0.00000000000E+00  0.00000000000E+00  0.00000000000E+00  0.91188000000E+02  0.91188000000E+02 0.  0.
    9900012    2    3    3    0    0 -0.62227636677E+01 -0.38820073829E+02 -0.10365578122E+02  0.50528854294E+02  0.29999983113E+02 0.  0.
         12    1    3    3    0    0  0.62227636677E+01  0.38820073829E+02  0.10365578122E+02  0.40659145706E+02  0.00000000000E+00 0. -1.
         11    1    4    4    0    0 -0.43113723057E+01 -0.18433958217E+02  0.55301988476E+01  0.19722622702E+02  0.51100000000E-03 0. -1.
        -11    1    4    4    0    0  0.51961423927E+01 -0.15530483155E+02 -0.14900779474E+02  0.22141116322E+02  0.51100000000E-03 0.  1.
         12    1    4    4    0    0 -0.71075337547E+01 -0.48556324569E+01 -0.99499749622E+00  0.86651152704E+01  0.00000000000E+00 0. -1.
</event>
<event>
 8    1  0.6919896E-012  0.9118800E+02  0.7816164E-02  0.1184000E+00
        -11   -1    0    0    0    0  0.00000000000E+00  0.00000000000E+00  0.45593999997E+02  0.45594000000E+02  0.51100000000E-03 0. -1.
         11   -1    0    0    0    0 -0.00000000000E+00 -0.00000000000E+00 -0.45593999997E+02  0.45594000000E+02  0.51100000000E-03 0.  1.
         23    2    1    2    0    0  0.00000000000E+00 -0.35527136788E-14  0.00000000000E+00  0.91188000000E+02  0.91188000000E+02 0.  0.
    9900012    2    3    3    0    0 -0.56347173419E+00 -0.16762066395E+02  0.37038905133E+02  0.50528869860E+02  0.30000030427E+02 0.  0.
        -12    1    3    3    0    0  0.56347173419E+00  0.16762066395E+02 -0.37038905133E+02  0.40659130140E+02  0.00000000000E+00 0.  1.
         11    1    4    4    0    0  0.14545764227E+00  0.23054641698E+01  0.21914011289E+02  0.22035430879E+02  0.51100000000E-03 0. -1.
        -11    1    4    4    0    0 -0.73164394676E-01 -0.32592328850E+01 -0.30031121218E+01  0.44324524481E+01  0.51100000000E-03 0.  1.
         12    1    4    4    0    0 -0.63576498178E+00 -0.15808297680E+02  0.18128005966E+02  0.24060986534E+02  0.00000000000E+00 0. -1.
</event>
<event>
 8    1  0.6016610E-012  0.9118800E+02  0.7816164E-02  0.1184000E+00
        -11   -1    0    0    0    0  0.00000000000E+00  0.00000000000E+00  0.45593999997E+02  0.45594000000E+02  0.51100000000E-03 0. -1.
         11   -1    0    0    0    0 -0.00000000000E+00 -0.00000000000E+00 -0.45593999997E+02  0.45594000000E+02  0.51100000000E-03 0.  1.
         23    2    1    2    0    0  0.00000000000E+00 -0.35527136788E-14  0.00000000000E+00  0.91188000000E+02  0.91188000000E+02 0.  0.
    9900012    2    3    3    0    0  0.36013005260E+02 -0.16099078209E+02  0.98513690456E+01  0.50528851717E+02  0.29999975280E+02 0.  0.
        -12    1    3    3    0    0 -0.36013005260E+02  0.16099078209E+02 -0.98513690456E+01  0.40659148283E+02  0.00000000000E+00 0.  1.
         11    1    4    4    0    0  0.27918229699E+01 -0.11649587826E+02 -0.36523602533E+01  0.12523853548E+02  0.51100000000E-03 0. -1.
        -11    1    4    4    0    0  0.32090200234E+02 -0.29074634755E+01  0.95402890671E+01  0.33604336189E+02  0.51100000000E-03 0.  1.
        -12    1    4    4    0    0  0.11309820553E+01 -0.15420269070E+01  0.39634402318E+01  0.44006619800E+01  0.00000000000E+00 0.  1.
</event>
<event>
 8    1  0.6016610E-012  0.9118800E+02  0.7816164E-02  0.1184000E+00
        -11   -1    0    0    0    0  0.00000000000E+00  0.00000000000E+00  0.45593999997E+02  0.45594000000E+02  0.51100000000E-03 0.  1.
         11   -1    0    0    0    0 -0.00000000000E+00 -0.00000000000E+00 -0.45593999997E+02  0.45594000000E+02  0.51100000000E-03 0. -1.
         23    2    1    2    0    0  0.00000000000E+00  0.00000000000E+00  0.00000000000E+00  0.91188000000E+02  0.91188000000E+02 0.  0.
    9900012    2    3    3    0    0 -0.23409550946E+02  0.32802077287E+02 -0.54020763893E+01  0.50528858603E+02  0.29999996210E+02 0.  0.
        -12    1    3    3    0    0  0.23409550946E+02 -0.32802077287E+02  0.54020763893E+01  0.40659141397E+02  0.00000000000E+00 0.  1.
         11    1    4    4    0    0  0.13193302948E+01 -0.98773231610E+00  0.71005374970E+00  0.17945540236E+01  0.51100000000E-03 0. -1.
        -11    1    4    4    0    0 -0.15497843795E+02  0.35663474624E+02 -0.40841473180E+01  0.39099192372E+02  0.51100000000E-03 0.  1.
        -12    1    4    4    0    0 -0.92310374458E+01 -0.18736650211E+01 -0.20279828210E+01  0.96351122080E+01  0.00000000000E+00 0.  1.
</event>
<event>
 8    1  0.6016610E-012  0.9118800E+02  0.7816164E-02  0.1184000E+00
        -11   -1    0    0    0    0  0.00000000000E+00  0.00000000000E+00  0.45593999997E+02  0.45594000000E+02  0.51100000000E-03 0. -1.
         11   -1    0    0    0    0 -0.00000000000E+00 -0.00000000000E+00 -0.45593999997E+02  0.45594000000E+02  0.51100000000E-03 0.  1.
         23    2    1    2    0    0  0.00000000000E+00  0.35527136788E-14  0.00000000000E+00  0.91188000000E+02  0.91188000000E+02 0.  0.
    9900012    2    3    3    0    0 -0.66465436856E+01  0.17367547010E+02  0.36157395644E+02  0.50528862136E+02  0.30000006948E+02 0.  0.
        -12    1    3    3    0    0  0.66465436856E+01 -0.17367547010E+02 -0.36157395644E+02  0.40659137864E+02  0.00000000000E+00 0.  1.
         11    1    4    4    0    0 -0.19577906006E+01  0.20204932143E+02  0.30651285324E+02  0.36763752791E+02  0.51100000000E-03 0. -1.
        -11    1    4    4    0    0  0.28087785951E+01 -0.26954270676E+01 -0.79158953475E+00  0.39725531495E+01  0.51100000000E-03 0.  1.
         12    1    4    4    0    0 -0.74975316801E+01 -0.14195806579E+00  0.62976998543E+01  0.97925561954E+01  0.00000000000E+00 0. -1.
</event>
<event>
 8    1  0.6016610E-012  0.9118800E+02  0.7816164E-02  0.1184000E+00
        -11   -1    0    0    0    0  0.00000000000E+00  0.00000000000E+00  0.45593999997E+02  0.45594000000E+02  0.51100000000E-03 0. -1.
         11   -1    0    0    0    0 -0.00000000000E+00 -0.00000000000E+00 -0.45593999997E+02  0.45594000000E+02  0.51100000000E-03 0.  1.
         23    2    1    2    0    0  0.26645352591E-14  0.00000000000E+00 -0.71054273576E-14  0.91188000000E+02  0.91188000000E+02 0.  0.
    9900012    2    3    3    0    0 -0.61924014836E+01 -0.87063573197E+01 -0.39230330997E+02  0.50528863707E+02  0.30000011725E+02 0.  0.
         12    1    3    3    0    0  0.61924014836E+01  0.87063573197E+01  0.39230330997E+02  0.40659136293E+02  0.00000000000E+00 0. -1.
         11    1    4    4    0    0 -0.12083154158E+02 -0.21347460399E+01 -0.11383629315E+02  0.16737585600E+02  0.51100000000E-03 0. -1.
        -11    1    4    4    0    0  0.43609355533E+01 -0.77875825842E+01 -0.29752006478E+02  0.31061971785E+02  0.51100000000E-03 0.  1.
        -12    1    4    4    0    0  0.15298171211E+01  0.12159713044E+01  0.19053047965E+01  0.27293063230E+01  0.00000000000E+00 0.  1.
</event>
<event>
 8    1  0.6016610E-012  0.9118800E+02  0.7816164E-02  0.1184000E+00
        -11   -1    0    0    0    0  0.00000000000E+00  0.00000000000E+00  0.45593999997E+02  0.45594000000E+02  0.51100000000E-03 0. -1.
         11   -1    0    0    0    0 -0.00000000000E+00 -0.00000000000E+00 -0.45593999997E+02  0.45594000000E+02  0.51100000000E-03 0.  1.
         23    2    1    2    0    0  0.00000000000E+00  0.35527136788E-14  0.00000000000E+00  0.91188000000E+02  0.91188000000E+02 0.  0.
    9900012    2    3    3    0    0  0.16280003676E+02 -0.25491326302E+02 -0.27172027144E+02  0.50528864551E+02  0.30000014289E+02 0.  0.
         12    1    3    3    0    0 -0.16280003676E+02  0.25491326302E+02  0.27172027144E+02  0.40659135449E+02  0.00000000000E+00 0. -1.
         11    1    4    4    0    0 -0.51203921021E+01 -0.12325517373E+02 -0.11033257516E+02  0.17316742346E+02  0.51100000000E-03 0. -1.
        -11    1    4    4    0    0  0.93628909568E+01 -0.30872187688E+01  0.10714882589E+01  0.99167905163E+01  0.51100000000E-03 0.  1.
        -12    1    4    4    0    0  0.12037504821E+02 -0.10078590160E+02 -0.17210257887E+02  0.23295331688E+02  0.00000000000E+00 0.  1.
</event>
<event>
 8    1  0.6016610E-012  0.9118800E+02  0.7816164E-02  0.1184000E+00
        -11   -1    0    0    0    0  0.00000000000E+00  0.00000000000E+00  0.45593999997E+02  0.45594000000E+02  0.51100000000E-03 0. -1.
         11   -1    0    0    0    0 -0.00000000000E+00 -0.00000000000E+00 -0.45593999997E+02  0.45594000000E+02  0.51100000000E-03 0.  1.
         23    2    1    2    0    0  0.00000000000E+00  0.00000000000E+00  0.17763568394E-14  0.91188000000E+02  0.91188000000E+02 0.  0.
    9900012    2    3    3    0    0 -0.20229132831E+02  0.33137245066E+02 -0.12077737970E+02  0.50528848753E+02  0.29999966270E+02 0.  0.
         12    1    3    3    0    0  0.20229132831E+02 -0.33137245066E+02  0.12077737970E+02  0.40659151247E+02  0.00000000000E+00 0. -1.
         11    1    4    4    0    0  0.34362186057E+01  0.40351287280E+01  0.47384852224E+01  0.71093673855E+01  0.51100000000E-03 0. -1.
        -11    1    4    4    0    0 -0.51518733651E+01  0.15266162436E+02 -0.11236149225E+02  0.19643028390E+02  0.51100000000E-03 0.  1.
         12    1    4    4    0    0 -0.18513478072E+02  0.13835953902E+02 -0.55800739673E+01  0.23776452977E+02  0.00000000000E+00 0. -1.
</event>
<event>
 8    1  0.6016610E-012  0.9118800E+02  0.7816164E-02  0.1184000E+00
        -11   -1    0    0    0    0  0.00000000000E+00  0.00000000000E+00  0.45593999997E+02  0.45594000000E+02  0.51100000000E-03 0. -1.
         11   -1    0    0    0    0 -0.00000000000E+00 -0.00000000000E+00 -0.45593999997E+02  0.45594000000E+02  0.51100000000E-03 0.  1.
         23    2    1    2    0    0  0.00000000000E+00 -0.17763568394E-14 -0.35527136788E-14  0.91188000000E+02  0.91188000000E+02 0.  0.
    9900012    2    3    3    0    0  0.35000426319E+02 -0.12367185045E+02 -0.16588801194E+02  0.50528862854E+02  0.30000009130E+02 0.  0.
         12    1    3    3    0    0 -0.35000426319E+02  0.12367185045E+02  0.16588801194E+02  0.40659137146E+02  0.00000000000E+00 0. -1.
         11    1    4    4    0    0  0.48405188427E+01  0.24817189138E+01  0.42712107627E+01  0.69161255826E+01  0.51100000000E-03 0. -1.
        -11    1    4    4    0    0  0.17984348384E+02 -0.18253400736E+02 -0.13107071572E+02  0.28782264516E+02  0.51100000000E-03 0.  1.
         12    1    4    4    0    0  0.12175559092E+02  0.34044967776E+01 -0.77529403853E+01  0.14830472755E+02  0.00000000000E+00 0. -1.
</event>
<event>
 8    1  0.6016610E-012  0.9118800E+02  0.7816164E-02  0.1184000E+00
        -11   -1    0    0    0    0  0.00000000000E+00  0.00000000000E+00  0.45593999997E+02  0.45594000000E+02  0.51100000000E-03 0.  1.
         11   -1    0    0    0    0 -0.00000000000E+00 -0.00000000000E+00 -0.45593999997E+02  0.45594000000E+02  0.51100000000E-03 0. -1.
         23    2    1    2    0    0  0.00000000000E+00  0.00000000000E+00  0.00000000000E+00  0.91188000000E+02  0.91188000000E+02 0.  0.
    9900012    2    3    3    0    0  0.39846157370E+02  0.79118681237E+01  0.16888574732E+01  0.50528853994E+02  0.29999982202E+02 0.  0.
        -12    1    3    3    0    0 -0.39846157370E+02 -0.79118681237E+01 -0.16888574732E+01  0.40659146006E+02  0.00000000000E+00 0.  1.
         11    1    4    4    0    0  0.25324539167E+02  0.61338621101E+01 -0.39840444015E+01  0.26359612260E+02  0.51100000000E-03 0. -1.
        -11    1    4    4    0    0  0.17430850826E+01 -0.66718259591E+01 -0.17961431676E+01  0.71258499685E+01  0.51100000000E-03 0.  1.
         12    1    4    4    0    0  0.12778533120E+02  0.84498319726E+01  0.74690450422E+01  0.17043391766E+02  0.00000000000E+00 0. -1.
</event>
<event>
 8    1  0.6016610E-012  0.9118800E+02  0.7816164E-02  0.1184000E+00
        -11   -1    0    0    0    0  0.00000000000E+00  0.00000000000E+00  0.45593999997E+02  0.45594000000E+02  0.51100000000E-03 0. -1.
         11   -1    0    0    0    0 -0.00000000000E+00 -0.00000000000E+00 -0.45593999997E+02  0.45594000000E+02  0.51100000000E-03 0.  1.
         23    2    1    2    0    0  0.00000000000E+00  0.00000000000E+00  0.00000000000E+00  0.91188000000E+02  0.91188000000E+02 0.  0.
    9900012    2    3    3    0    0  0.10343271649E+02 -0.20887926204E+02  0.33314836991E+02  0.50528842443E+02  0.29999947090E+02 0.  0.
        -12    1    3    3    0    0 -0.10343271649E+02  0.20887926204E+02 -0.33314836991E+02  0.40659157557E+02  0.00000000000E+00 0.  1.
         11    1    4    4    0    0 -0.30443442256E+01 -0.82625550307E+01  0.68196507280E+01  0.11137570817E+02  0.51100000000E-03 0.  1.
        -11    1    4    4    0    0  0.11265799655E+02 -0.18200933512E+02  0.25582014720E+02  0.33356134368E+02  0.51100000000E-03 0. -1.
        -12    1    4    4    0    0  0.21218162200E+01  0.55755623382E+01  0.91317154281E+00  0.60351372582E+01  0.00000000000E+00 0.  1.
</event>
<event>
 8    1  0.6016610E-012  0.9118800E+02  0.7816164E-02  0.1184000E+00
        -11   -1    0    0    0    0  0.00000000000E+00  0.00000000000E+00  0.45593999997E+02  0.45594000000E+02  0.51100000000E-03 0. -1.
         11   -1    0    0    0    0 -0.00000000000E+00 -0.00000000000E+00 -0.45593999997E+02  0.45594000000E+02  0.51100000000E-03 0.  1.
         23    2    1    2    0    0  0.00000000000E+00  0.71054273576E-14  0.44408920985E-15  0.91188000000E+02  0.91188000000E+02 0.  0.
    9900012    2    3    3    0    0  0.46124536753E+01 -0.40340772771E+02 -0.21244464936E+01  0.50528856507E+02  0.29999989839E+02 0.  0.
        -12    1    3    3    0    0 -0.46124536753E+01  0.40340772771E+02  0.21244464936E+01  0.40659143493E+02  0.00000000000E+00 0.  1.
         11    1    4    4    0    0 -0.35571961838E+01 -0.30854350373E+02 -0.72732995917E+01  0.31898988524E+02  0.51100000000E-03 0. -1.
        -11    1    4    4    0    0  0.29557945930E+01 -0.39111603380E+01  0.88724307998E+01  0.10136761091E+02  0.51100000000E-03 0.  1.
         12    1    4    4    0    0  0.52138552662E+01 -0.55752620604E+01 -0.37235777017E+01  0.84931068920E+01  0.00000000000E+00 0. -1.
</event>
<event>
 8    1  0.6016610E-012  0.9118800E+02  0.7816164E-02  0.1184000E+00
        -11   -1    0    0    0    0  0.00000000000E+00  0.00000000000E+00  0.45593999997E+02  0.45594000000E+02  0.51100000000E-03 0. -1.
         11   -1    0    0    0    0 -0.00000000000E+00 -0.00000000000E+00 -0.45593999997E+02  0.45594000000E+02  0.51100000000E-03 0.  1.
         23    2    1    2    0    0 -0.17763568394E-14  0.00000000000E+00  0.35527136788E-14  0.91188000000E+02  0.91188000000E+02 0.  0.
    9900012    2    3    3    0    0  0.15729644937E+02  0.30434909801E+02 -0.21896578948E+02  0.50528860387E+02  0.30000001632E+02 0.  0.
         12    1    3    3    0    0 -0.15729644937E+02 -0.30434909801E+02  0.21896578948E+02  0.40659139613E+02  0.00000000000E+00 0. -1.
         11    1    4    4    0    0 -0.25841479005E+01 -0.29698310143E+00  0.26757777229E+01  0.37317296281E+01  0.51100000000E-03 0. -1.
        -11    1    4    4    0    0  0.19543510944E+02  0.17034299686E+02 -0.14102725508E+02  0.29512760847E+02  0.51100000000E-03 0.  1.
         12    1    4    4    0    0 -0.12297181066E+01  0.13697593217E+02 -0.10469631163E+02  0.17284369912E+02  0.00000000000E+00 0. -1.
</event>
<event>
 8    1  0.6016610E-012  0.9118800E+02  0.7816164E-02  0.1184000E+00
        -11   -1    0    0    0    0  0.00000000000E+00  0.00000000000E+00  0.45593999997E+02  0.45594000000E+02  0.51100000000E-03 0. -1.
         11   -1    0    0    0    0 -0.00000000000E+00 -0.00000000000E+00 -0.45593999997E+02  0.45594000000E+02  0.51100000000E-03 0.  1.
         23    2    1    2    0    0  0.00000000000E+00  0.00000000000E+00  0.00000000000E+00  0.91188000000E+02  0.91188000000E+02 0.  0.
    9900012    2    3    3    0    0 -0.14701777835E+02 -0.32217001068E+02 -0.19977192972E+02  0.50528859965E+02  0.30000000351E+02 0.  0.
         12    1    3    3    0    0  0.14701777835E+02  0.32217001068E+02  0.19977192972E+02  0.40659140035E+02  0.00000000000E+00 0. -1.
         11    1    4    4    0    0 -0.78571795829E+01 -0.48856499575E+01 -0.19708154849E+02  0.21771913428E+02  0.51100000000E-03 0. -1.
        -11    1    4    4    0    0 -0.58808152891E-01 -0.11693063907E+02 -0.57169588882E+00  0.11707178925E+02  0.51100000000E-03 0.  1.
         12    1    4    4    0    0 -0.67857900988E+01 -0.15638287204E+02  0.30265776566E+00  0.17049767613E+02  0.00000000000E+00 0. -1.
</event>
<event>
 8    1  0.6016610E-012  0.9118800E+02  0.7816164E-02  0.1184000E+00
        -11   -1    0    0    0    0  0.00000000000E+00  0.00000000000E+00  0.45593999997E+02  0.45594000000E+02  0.51100000000E-03 0. -1.
         11   -1    0    0    0    0 -0.00000000000E+00 -0.00000000000E+00 -0.45593999997E+02  0.45594000000E+02  0.51100000000E-03 0.  1.
         23    2    1    2    0    0  0.00000000000E+00 -0.35527136788E-14  0.00000000000E+00  0.91188000000E+02  0.91188000000E+02 0.  0.
    9900012    2    3    3    0    0 -0.24585490175E+02 -0.26480652063E+02  0.18641214369E+02  0.50528854240E+02  0.29999982947E+02 0.  0.
        -12    1    3    3    0    0  0.24585490175E+02  0.26480652063E+02 -0.18641214369E+02  0.40659145760E+02  0.00000000000E+00 0.  1.
         11    1    4    4    0    0  0.52785092741E+01 -0.20805840308E+01  0.12373750682E+00  0.56751036376E+01  0.51100000000E-03 0. -1.
        -11    1    4    4    0    0 -0.18318474778E+02 -0.69043889070E+01  0.11723763478E+02  0.22818495453E+02  0.51100000000E-03 0.  1.
         12    1    4    4    0    0 -0.11545524671E+02 -0.17495679125E+02  0.67937133839E+01  0.22035255150E+02  0.00000000000E+00 0. -1.
</event>
<event>
 8    1  0.6016610E-012  0.9118800E+02  0.7816164E-02  0.1184000E+00
        -11   -1    0    0    0    0  0.00000000000E+00  0.00000000000E+00  0.45593999997E+02  0.45594000000E+02  0.51100000000E-03 0. -1.
         11   -1    0    0    0    0 -0.00000000000E+00 -0.00000000000E+00 -0.45593999997E+02  0.45594000000E+02  0.51100000000E-03 0.  1.
         23    2    1    2    0    0  0.00000000000E+00  0.00000000000E+00  0.88817841970E-15  0.91188000000E+02  0.91188000000E+02 0.  0.
    9900012    2    3    3    0    0 -0.17206325311E+02 -0.36307882104E+02  0.62325866513E+01  0.50528867324E+02  0.30000022718E+02 0.  0.
        -12    1    3    3    0    0  0.17206325311E+02  0.36307882104E+02 -0.62325866513E+01  0.40659132676E+02  0.00000000000E+00 0.  1.
         11    1    4    4    0    0 -0.14293393820E+02 -0.38756354806E+02  0.63826541610E+01  0.41798258566E+02  0.51100000000E-03 0. -1.
        -11    1    4    4    0    0 -0.43808718640E+00  0.33399440666E+00 -0.38001697996E+01  0.38398910679E+01  0.51100000000E-03 0.  1.
         12    1    4    4    0    0 -0.24748443048E+01  0.21144782957E+01  0.36501022899E+01  0.48907176899E+01  0.00000000000E+00 0. -1.
</event>
<event>
 8    1  0.6016610E-012  0.9118800E+02  0.7816164E-02  0.1184000E+00
        -11   -1    0    0    0    0  0.00000000000E+00  0.00000000000E+00  0.45593999997E+02  0.45594000000E+02  0.51100000000E-03 0. -1.
         11   -1    0    0    0    0 -0.00000000000E+00 -0.00000000000E+00 -0.45593999997E+02  0.45594000000E+02  0.51100000000E-03 0.  1.
         23    2    1    2    0    0 -0.35527136788E-14  0.00000000000E+00  0.00000000000E+00  0.91188000000E+02  0.91188000000E+02 0.  0.
    9900012    2    3    3    0    0  0.21639413577E+02  0.32443571505E+01 -0.34269158779E+02  0.50528864290E+02  0.30000013495E+02 0.  0.
         12    1    3    3    0    0 -0.21639413577E+02 -0.32443571505E+01  0.34269158779E+02  0.40659135710E+02  0.00000000000E+00 0. -1.
         11    1    4    4    0    0  0.22770215167E+02  0.71763478469E+01 -0.14178800252E+02  0.27767265693E+02  0.51100000000E-03 0. -1.
        -11    1    4    4    0    0 -0.19149367074E+00 -0.62657474680E+01 -0.68542535371E+01  0.92885441793E+01  0.51100000000E-03 0.  1.
         12    1    4    4    0    0 -0.93930791938E+00  0.23337567716E+01 -0.13236104990E+02  0.13473054418E+02  0.00000000000E+00 0. -1.
</event>
<event>
 8    1  0.6016610E-012  0.9118800E+02  0.7816164E-02  0.1184000E+00
        -11   -1    0    0    0    0  0.00000000000E+00  0.00000000000E+00  0.45593999997E+02  0.45594000000E+02  0.51100000000E-03 0. -1.
         11   -1    0    0    0    0 -0.00000000000E+00 -0.00000000000E+00 -0.45593999997E+02  0.45594000000E+02  0.51100000000E-03 0.  1.
         23    2    1    2    0    0  0.44408920985E-15  0.00000000000E+00  0.00000000000E+00  0.91188000000E+02  0.91188000000E+02 0.  0.
    9900012    2    3    3    0    0 -0.32761153413E+01 -0.27063062770E+01 -0.40436475128E+02  0.50528861468E+02  0.30000004918E+02 0.  0.
         12    1    3    3    0    0  0.32761153413E+01  0.27063062770E+01  0.40436475128E+02  0.40659138532E+02  0.00000000000E+00 0. -1.
         11    1    4    4    0    0  0.14274094051E+01  0.10154694922E+01 -0.63870891257E+01  0.66229588297E+01  0.51100000000E-03 0. -1.
        -11    1    4    4    0    0  0.90544633324E+01 -0.81326764205E+01 -0.95765403524E+01  0.15486570226E+02  0.51100000000E-03 0.  1.
        -12    1    4    4    0    0 -0.13757988079E+02  0.44109006513E+01 -0.24472845650E+02  0.28419332412E+02  0.00000000000E+00 0.  1.
</event>
<event>
 8    1  0.6016610E-012  0.9118800E+02  0.7816164E-02  0.1184000E+00
        -11   -1    0    0    0    0  0.00000000000E+00  0.00000000000E+00  0.45593999997E+02  0.45594000000E+02  0.51100000000E-03 0. -1.
         11   -1    0    0    0    0 -0.00000000000E+00 -0.00000000000E+00 -0.45593999997E+02  0.45594000000E+02  0.51100000000E-03 0.  1.
         23    2    1    2    0    0  0.00000000000E+00  0.00000000000E+00  0.00000000000E+00  0.91188000000E+02  0.91188000000E+02 0.  0.
    9900012    2    3    3    0    0  0.24811081097E+02  0.22048355797E+02  0.23482883063E+02  0.50528861599E+02  0.30000005317E+02 0.  0.
        -12    1    3    3    0    0 -0.24811081097E+02 -0.22048355797E+02 -0.23482883063E+02  0.40659138401E+02  0.00000000000E+00 0.  1.
         11    1    4    4    0    0 -0.16084988332E+01  0.17357764946E+02  0.79185392026E+01  0.19146345233E+02  0.51100000000E-03 0. -1.
        -11    1    4    4    0    0  0.16385165958E+02  0.11827278793E+01  0.11248845749E+02  0.19910023597E+02  0.51100000000E-03 0.  1.
         12    1    4    4    0    0  0.10034413972E+02  0.35078629723E+01  0.43154981116E+01  0.11472492770E+02  0.00000000000E+00 0. -1.
</event>
<event>
 8    1  0.6016610E-012  0.9118800E+02  0.7816164E-02  0.1184000E+00
        -11   -1    0    0    0    0  0.00000000000E+00  0.00000000000E+00  0.45593999997E+02  0.45594000000E+02  0.51100000000E-03 0. -1.
         11   -1    0    0    0    0 -0.00000000000E+00 -0.00000000000E+00 -0.45593999997E+02  0.45594000000E+02  0.51100000000E-03 0.  1.
         23    2    1    2    0    0 -0.35527136788E-14  0.00000000000E+00  0.44408920985E-15  0.91188000000E+02  0.91188000000E+02 0.  0.
    9900012    2    3    3    0    0 -0.16298974110E+02 -0.37130984890E+02 -0.29664787703E+01  0.50528848604E+02  0.29999965818E+02 0.  0.
         12    1    3    3    0    0  0.16298974110E+02  0.37130984890E+02  0.29664787703E+01  0.40659151396E+02  0.00000000000E+00 0. -1.
         11    1    4    4    0    0  0.43911418423E+01 -0.25304411984E+02  0.15863636573E+01  0.25731535952E+02  0.51100000000E-03 0. -1.
        -11    1    4    4    0    0 -0.13025082235E+02 -0.75567776592E+01 -0.33520964478E+00  0.15062205071E+02  0.51100000000E-03 0.  1.
         12    1    4    4    0    0 -0.76650337172E+01 -0.42697952466E+01 -0.42176327828E+01  0.97351075815E+01  0.00000000000E+00 0. -1.
</event>
<event>
 8    1  0.6016610E-012  0.9118800E+02  0.7816164E-02  0.1184000E+00
        -11   -1    0    0    0    0  0.00000000000E+00  0.00000000000E+00  0.45593999997E+02  0.45594000000E+02  0.51100000000E-03 0. -1.
         11   -1    0    0    0    0 -0.00000000000E+00 -0.00000000000E+00 -0.45593999997E+02  0.45594000000E+02  0.51100000000E-03 0.  1.
         23    2    1    2    0    0  0.00000000000E+00  0.00000000000E+00 -0.71054273576E-14  0.91188000000E+02  0.91188000000E+02 0.  0.
    9900012    2    3    3    0    0 -0.10095208440E+02  0.34826113647E+01  0.39231665384E+02  0.50528863460E+02  0.30000010973E+02 0.  0.
        -12    1    3    3    0    0  0.10095208440E+02 -0.34826113647E+01 -0.39231665384E+02  0.40659136540E+02  0.00000000000E+00 0.  1.
         11    1    4    4    0    0 -0.17755842579E+01  0.34392455962E+01  0.27507868978E+02  0.27778840251E+02  0.51100000000E-03 0. -1.
        -11    1    4    4    0    0 -0.12850675674E+02 -0.31895238019E+01  0.53307236685E+01  0.14273385809E+02  0.51100000000E-03 0.  1.
         12    1    4    4    0    0  0.45310514910E+01  0.32328895704E+01  0.63930727380E+01  0.84766374007E+01  0.00000000000E+00 0. -1.
</event>
<event>
 8    1  0.6016610E-012  0.9118800E+02  0.7816164E-02  0.1184000E+00
        -11   -1    0    0    0    0  0.00000000000E+00  0.00000000000E+00  0.45593999997E+02  0.45594000000E+02  0.51100000000E-03 0. -1.
         11   -1    0    0    0    0 -0.00000000000E+00 -0.00000000000E+00 -0.45593999997E+02  0.45594000000E+02  0.51100000000E-03 0.  1.
         23    2    1    2    0    0  0.00000000000E+00  0.00000000000E+00  0.35527136788E-14  0.91188000000E+02  0.91188000000E+02 0.  0.
    9900012    2    3    3    0    0 -0.59140463960E+01  0.26844810878E+02  0.29959064997E+02  0.50528863372E+02  0.30000010705E+02 0.  0.
        -12    1    3    3    0    0  0.59140463960E+01 -0.26844810878E+02 -0.29959064997E+02  0.40659136628E+02  0.00000000000E+00 0.  1.
         11    1    4    4    0    0 -0.60741589953E+01  0.14594034735E+02  0.26972921300E+02  0.31263712849E+02  0.51100000000E-03 0. -1.
        -11    1    4    4    0    0  0.21357084306E+01 -0.22971584514E+01 -0.20463778608E+01  0.37451101535E+01  0.51100000000E-03 0.  1.
         12    1    4    4    0    0 -0.19755958313E+01  0.14547934594E+02  0.50325215576E+01  0.15520040370E+02  0.00000000000E+00 0. -1.
</event>
<event>
 8    1  0.6016610E-012  0.9118800E+02  0.7816164E-02  0.1184000E+00
        -11   -1    0    0    0    0  0.00000000000E+00  0.00000000000E+00  0.45593999997E+02  0.45594000000E+02  0.51100000000E-03 0. -1.
         11   -1    0    0    0    0 -0.00000000000E+00 -0.00000000000E+00 -0.45593999997E+02  0.45594000000E+02  0.51100000000E-03 0.  1.
         23    2    1    2    0    0  0.00000000000E+00  0.22204460493E-15  0.00000000000E+00  0.91188000000E+02  0.91188000000E+02 0.  0.
    9900012    2    3    3    0    0 -0.19520614754E+02  0.18641861717E+01  0.35617916596E+02  0.50528861137E+02  0.30000003913E+02 0.  0.
        -12    1    3    3    0    0  0.19520614754E+02 -0.18641861717E+01 -0.35617916596E+02  0.40659138863E+02  0.00000000000E+00 0.  1.
         11    1    4    4    0    0 -0.25795566648E+02  0.95299426001E-01  0.20873469350E+02  0.33183159338E+02  0.51100000000E-03 0. -1.
        -11    1    4    4    0    0  0.53115740948E+00  0.31405260414E+01  0.43584082951E+01  0.53982177743E+01  0.51100000000E-03 0.  1.
         12    1    4    4    0    0  0.57437944849E+01 -0.13716392957E+01  0.10386038951E+02  0.11947484025E+02  0.00000000000E+00 0. -1.
</event>
<event>
 8    1  0.6016610E-012  0.9118800E+02  0.7816164E-02  0.1184000E+00
        -11   -1    0    0    0    0  0.00000000000E+00  0.00000000000E+00  0.45593999997E+02  0.45594000000E+02  0.51100000000E-03 0. -1.
         11   -1    0    0    0    0 -0.00000000000E+00 -0.00000000000E+00 -0.45593999997E+02  0.45594000000E+02  0.51100000000E-03 0.  1.
         23    2    1    2    0    0  0.44408920985E-15  0.71054273576E-14  0.00000000000E+00  0.91188000000E+02  0.91188000000E+02 0.  0.
    9900012    2    3    3    0    0 -0.16484803316E+01 -0.33548736544E+02 -0.22911283076E+02  0.50528903806E+02  0.30000133609E+02 0.  0.
         12    1    3    3    0    0  0.16484803316E+01  0.33548736544E+02  0.22911283076E+02  0.40659096194E+02  0.00000000000E+00 0. -1.
         11    1    4    4    0    0 -0.87969853822E+00 -0.29753734888E+02 -0.82327955754E+01  0.30884260272E+02  0.51100000000E-03 0. -1.
        -11    1    4    4    0    0  0.11731921845E+01 -0.73778532042E+01 -0.13454726443E+02  0.15389566652E+02  0.51100000000E-03 0.  1.
         12    1    4    4    0    0 -0.19419739780E+01  0.35828515486E+01 -0.12237610581E+01  0.42550768827E+01  0.00000000000E+00 0. -1.
</event>
<event>
 8    1  0.6016610E-012  0.9118800E+02  0.7816164E-02  0.1184000E+00
        -11   -1    0    0    0    0  0.00000000000E+00  0.00000000000E+00  0.45593999997E+02  0.45594000000E+02  0.51100000000E-03 0. -1.
         11   -1    0    0    0    0 -0.00000000000E+00 -0.00000000000E+00 -0.45593999997E+02  0.45594000000E+02  0.51100000000E-03 0.  1.
         23    2    1    2    0    0  0.00000000000E+00 -0.17763568394E-14  0.00000000000E+00  0.91188000000E+02  0.91188000000E+02 0.  0.
    9900012    2    3    3    0    0  0.15594505345E+02 -0.29310783931E+01 -0.37435091676E+02  0.50528857039E+02  0.29999991455E+02 0.  0.
         12    1    3    3    0    0 -0.15594505345E+02  0.29310783931E+01  0.37435091676E+02  0.40659142961E+02  0.00000000000E+00 0. -1.
         11    1    4    4    0    0  0.17981487018E+01  0.34392836492E+01 -0.21748349173E+01  0.44488108469E+01  0.51100000000E-03 0. -1.
        -11    1    4    4    0    0 -0.30960175372E+00 -0.10596020996E+02 -0.36553216766E+01  0.11213067868E+02  0.51100000000E-03 0.  1.
        -12    1    4    4    0    0  0.14105958397E+02  0.42256589533E+01 -0.31604935082E+02  0.34866978324E+02  0.00000000000E+00 0.  1.
</event>
<event>
 8    1  0.6016610E-012  0.9118800E+02  0.7816164E-02  0.1184000E+00
        -11   -1    0    0    0    0  0.00000000000E+00  0.00000000000E+00  0.45593999997E+02  0.45594000000E+02  0.51100000000E-03 0. -1.
         11   -1    0    0    0    0 -0.00000000000E+00 -0.00000000000E+00 -0.45593999997E+02  0.45594000000E+02  0.51100000000E-03 0.  1.
         23    2    1    2    0    0  0.17763568394E-14  0.17763568394E-14 -0.71054273576E-14  0.91188000000E+02  0.91188000000E+02 0.  0.
    9900012    2    3    3    0    0 -0.11448250758E+02 -0.15817207070E+02  0.35663978859E+02  0.50528857450E+02  0.29999992704E+02 0.  0.
        -12    1    3    3    0    0  0.11448250758E+02  0.15817207070E+02 -0.35663978859E+02  0.40659142550E+02  0.00000000000E+00 0.  1.
         11    1    4    4    0    0 -0.10658164072E+02 -0.12907525104E+01  0.14695738872E+01  0.10836150197E+02  0.51100000000E-03 0. -1.
        -11    1    4    4    0    0  0.34122326562E+01 -0.13755224720E+02  0.17811163428E+02  0.22761526348E+02  0.51100000000E-03 0.  1.
         12    1    4    4    0    0 -0.42023193425E+01 -0.77122983941E+00  0.16383241544E+02  0.16931180904E+02  0.00000000000E+00 0. -1.
</event>
<event>
 8    1  0.6016610E-012  0.9118800E+02  0.7816164E-02  0.1184000E+00
        -11   -1    0    0    0    0  0.00000000000E+00  0.00000000000E+00  0.45593999997E+02  0.45594000000E+02  0.51100000000E-03 0. -1.
         11   -1    0    0    0    0 -0.00000000000E+00 -0.00000000000E+00 -0.45593999997E+02  0.45594000000E+02  0.51100000000E-03 0.  1.
         23    2    1    2    0    0  0.35527136788E-14  0.17763568394E-14  0.00000000000E+00  0.91188000000E+02  0.91188000000E+02 0.  0.
    9900012    2    3    3    0    0 -0.21176516603E+02 -0.14110774293E+02 -0.31711299045E+02  0.50528864573E+02  0.30000014356E+02 0.  0.
         12    1    3    3    0    0  0.21176516603E+02  0.14110774293E+02  0.31711299045E+02  0.40659135427E+02  0.00000000000E+00 0. -1.
         11    1    4    4    0    0 -0.13191212625E+01 -0.80951379709E+01 -0.51582668352E-01  0.82020729517E+01  0.51100000000E-03 0. -1.
        -11    1    4    4    0    0 -0.20573866434E+02 -0.23620012437E+01 -0.15833248063E+02  0.26068271412E+02  0.51100000000E-03 0.  1.
         12    1    4    4    0    0  0.71647109367E+00 -0.36536350781E+01 -0.15826468313E+02  0.16258520209E+02  0.00000000000E+00 0. -1.
</event>
<event>
 8    1  0.6016610E-012  0.9118800E+02  0.7816164E-02  0.1184000E+00
        -11   -1    0    0    0    0  0.00000000000E+00  0.00000000000E+00  0.45593999997E+02  0.45594000000E+02  0.51100000000E-03 0. -1.
         11   -1    0    0    0    0 -0.00000000000E+00 -0.00000000000E+00 -0.45593999997E+02  0.45594000000E+02  0.51100000000E-03 0.  1.
         23    2    1    2    0    0  0.00000000000E+00  0.35527136788E-14  0.35527136788E-14  0.91188000000E+02  0.91188000000E+02 0.  0.
    9900012    2    3    3    0    0  0.73831320915E+01 -0.24336962903E+02  0.31723282510E+02  0.50528867495E+02  0.30000023237E+02 0.  0.
        -12    1    3    3    0    0 -0.73831320915E+01  0.24336962903E+02 -0.31723282510E+02  0.40659132505E+02  0.00000000000E+00 0.  1.
         11    1    4    4    0    0  0.85816312291E+01 -0.14366900823E+01  0.19851469986E+02  0.21674624190E+02  0.51100000000E-03 0. -1.
        -11    1    4    4    0    0 -0.69196712864E+01 -0.14378246080E+02  0.82994134512E+01  0.17985996635E+02  0.51100000000E-03 0.  1.
         12    1    4    4    0    0  0.57211721488E+01 -0.85220267411E+01  0.35723990735E+01  0.10868246670E+02  0.00000000000E+00 0. -1.
</event>
<event>
 8    1  0.6016610E-012  0.9118800E+02  0.7816164E-02  0.1184000E+00
        -11   -1    0    0    0    0  0.00000000000E+00  0.00000000000E+00  0.45593999997E+02  0.45594000000E+02  0.51100000000E-03 0. -1.
         11   -1    0    0    0    0 -0.00000000000E+00 -0.00000000000E+00 -0.45593999997E+02  0.45594000000E+02  0.51100000000E-03 0.  1.
         23    2    1    2    0    0  0.00000000000E+00  0.00000000000E+00  0.00000000000E+00  0.91188000000E+02  0.91188000000E+02 0.  0.
    9900012    2    3    3    0    0  0.16836161931E+02  0.17992265744E+02  0.32341728133E+02  0.50528863834E+02  0.30000012109E+02 0.  0.
        -12    1    3    3    0    0 -0.16836161931E+02 -0.17992265744E+02 -0.32341728133E+02  0.40659136166E+02  0.00000000000E+00 0.  1.
         11    1    4    4    0    0  0.17759907044E+02  0.21935294872E+02  0.32882122089E+02  0.43333652196E+02  0.51100000000E-03 0. -1.
        -11    1    4    4    0    0 -0.27778656602E+01 -0.44351807462E+01 -0.13787343812E+00  0.52351098578E+01  0.51100000000E-03 0.  1.
         12    1    4    4    0    0  0.18541205474E+01  0.49215161830E+00 -0.40252051795E+00  0.19601017798E+01  0.00000000000E+00 0. -1.
</event>
<event>
 8    1  0.6016610E-012  0.9118800E+02  0.7816164E-02  0.1184000E+00
        -11   -1    0    0    0    0  0.00000000000E+00  0.00000000000E+00  0.45593999997E+02  0.45594000000E+02  0.51100000000E-03 0.  1.
         11   -1    0    0    0    0 -0.00000000000E+00 -0.00000000000E+00 -0.45593999997E+02  0.45594000000E+02  0.51100000000E-03 0. -1.
         23    2    1    2    0    0  0.00000000000E+00 -0.35527136788E-14 -0.35527136788E-14  0.91188000000E+02  0.91188000000E+02 0.  0.
    9900012    2    3    3    0    0  0.28215069259E+02 -0.18109306989E+02 -0.23002826885E+02  0.50528841406E+02  0.29999943936E+02 0.  0.
         12    1    3    3    0    0 -0.28215069259E+02  0.18109306989E+02  0.23002826885E+02  0.40659158594E+02  0.00000000000E+00 0. -1.
         11    1    4    4    0    0  0.51797747172E+01  0.19013758836E+01 -0.16559332944E+02  0.17454420763E+02  0.51100000000E-03 0. -1.
        -11    1    4    4    0    0  0.20715622708E+02 -0.13809922414E+02 -0.17483904273E+01  0.24958121937E+02  0.51100000000E-03 0.  1.
        -12    1    4    4    0    0  0.23196718338E+01 -0.62007604580E+01 -0.46951035145E+01  0.81162987060E+01  0.00000000000E+00 0.  1.
</event>
<event>
 8    1  0.6016610E-012  0.9118800E+02  0.7816164E-02  0.1184000E+00
        -11   -1    0    0    0    0  0.00000000000E+00  0.00000000000E+00  0.45593999997E+02  0.45594000000E+02  0.51100000000E-03 0. -1.
         11   -1    0    0    0    0 -0.00000000000E+00 -0.00000000000E+00 -0.45593999997E+02  0.45594000000E+02  0.51100000000E-03 0.  1.
         23    2    1    2    0    0  0.17763568394E-14  0.00000000000E+00  0.00000000000E+00  0.91188000000E+02  0.91188000000E+02 0.  0.
    9900012    2    3    3    0    0 -0.11080704587E+02 -0.56319276482E+01  0.38712595666E+02  0.50528859744E+02  0.29999999678E+02 0.  0.
        -12    1    3    3    0    0  0.11080704587E+02  0.56319276482E+01 -0.38712595666E+02  0.40659140256E+02  0.00000000000E+00 0.  1.
         11    1    4    4    0    0 -0.19050198430E+02  0.77466924242E-01  0.31632713046E+02  0.36926204737E+02  0.51100000000E-03 0. -1.
        -11    1    4    4    0    0  0.48057156238E+01 -0.13381130383E+01  0.64735039617E+01  0.81726191006E+01  0.51100000000E-03 0.  1.
         12    1    4    4    0    0  0.31637782193E+01 -0.43712815342E+01  0.60637865780E+00  0.54300359067E+01  0.00000000000E+00 0. -1.
</event>
<event>
 8    1  0.6016610E-012  0.9118800E+02  0.7816164E-02  0.1184000E+00
        -11   -1    0    0    0    0  0.00000000000E+00  0.00000000000E+00  0.45593999997E+02  0.45594000000E+02  0.51100000000E-03 0. -1.
         11   -1    0    0    0    0 -0.00000000000E+00 -0.00000000000E+00 -0.45593999997E+02  0.45594000000E+02  0.51100000000E-03 0.  1.
         23    2    1    2    0    0  0.00000000000E+00  0.00000000000E+00 -0.35527136788E-14  0.91188000000E+02  0.91188000000E+02 0.  0.
    9900012    2    3    3    0    0  0.19857924018E+02  0.20154011186E+02 -0.29200065150E+02  0.50528866734E+02  0.30000020923E+02 0.  0.
         12    1    3    3    0    0 -0.19857924018E+02 -0.20154011186E+02  0.29200065150E+02  0.40659133266E+02  0.00000000000E+00 0. -1.
         11    1    4    4    0    0 -0.87485482547E+00 -0.26498114253E+01 -0.79793675351E+01  0.84532347700E+01  0.51100000000E-03 0. -1.
        -11    1    4    4    0    0  0.10961203604E+02  0.16512695196E+02 -0.24115737882E+01  0.19965790129E+02  0.51100000000E-03 0.  1.
        -12    1    4    4    0    0  0.97715752397E+01  0.62911274158E+01 -0.18809123827E+02  0.22109841835E+02  0.00000000000E+00 0.  1.
</event>
<event>
 8    1  0.6016610E-012  0.9118800E+02  0.7816164E-02  0.1184000E+00
        -11   -1    0    0    0    0  0.00000000000E+00  0.00000000000E+00  0.45593999997E+02  0.45594000000E+02  0.51100000000E-03 0. -1.
         11   -1    0    0    0    0 -0.00000000000E+00 -0.00000000000E+00 -0.45593999997E+02  0.45594000000E+02  0.51100000000E-03 0.  1.
         23    2    1    2    0    0 -0.17763568394E-14  0.00000000000E+00  0.35527136788E-14  0.91188000000E+02  0.91188000000E+02 0.  0.
    9900012    2    3    3    0    0 -0.94649721051E+01  0.36520243446E+02 -0.15160864972E+02  0.50528859514E+02  0.29999998979E+02 0.  0.
         12    1    3    3    0    0  0.94649721051E+01 -0.36520243446E+02  0.15160864972E+02  0.40659140486E+02  0.00000000000E+00 0. -1.
         11    1    4    4    0    0  0.71219033650E+01  0.10180016187E+02  0.27358626740E+01  0.12721602963E+02  0.51100000000E-03 0. -1.
        -11    1    4    4    0    0 -0.11634645045E+02  0.16809607407E+02 -0.17737536584E+02  0.27065625262E+02  0.51100000000E-03 0.  1.
         12    1    4    4    0    0 -0.49522304252E+01  0.95306198530E+01 -0.15919106204E+00  0.10741631290E+02  0.00000000000E+00 0. -1.
</event>
<event>
 8    1  0.6016610E-012  0.9118800E+02  0.7816164E-02  0.1184000E+00
        -11   -1    0    0    0    0  0.00000000000E+00  0.00000000000E+00  0.45593999997E+02  0.45594000000E+02  0.51100000000E-03 0. -1.
         11   -1    0    0    0    0 -0.00000000000E+00 -0.00000000000E+00 -0.45593999997E+02  0.45594000000E+02  0.51100000000E-03 0.  1.
         23    2    1    2    0    0 -0.11102230246E-15  0.00000000000E+00  0.00000000000E+00  0.91188000000E+02  0.91188000000E+02 0.  0.
    9900012    2    3    3    0    0 -0.46129719806E+00 -0.93219018663E+01  0.39573413745E+02  0.50528859270E+02  0.29999998237E+02 0.  0.
        -12    1    3    3    0    0  0.46129719806E+00  0.93219018663E+01 -0.39573413745E+02  0.40659140730E+02  0.00000000000E+00 0.  1.
         11    1    4    4    0    0  0.10715032957E+02 -0.83668640652E+01  0.28519951391E+02  0.31594366162E+02  0.51100000000E-03 0. -1.
        -11    1    4    4    0    0 -0.12255115024E+02  0.18255705726E+01  0.88590074316E+01  0.15231630415E+02  0.51100000000E-03 0.  1.
        -12    1    4    4    0    0  0.10787848690E+01 -0.27806083736E+01  0.21944549214E+01  0.37028626930E+01  0.00000000000E+00 0.  1.
</event>
<event>
 8    1  0.6016610E-012  0.9118800E+02  0.7816164E-02  0.1184000E+00
        -11   -1    0    0    0    0  0.00000000000E+00  0.00000000000E+00  0.45593999997E+02  0.45594000000E+02  0.51100000000E-03 0. -1.
         11   -1    0    0    0    0 -0.00000000000E+00 -0.00000000000E+00 -0.45593999997E+02  0.45594000000E+02  0.51100000000E-03 0.  1.
         23    2    1    2    0    0  0.00000000000E+00  0.00000000000E+00  0.00000000000E+00  0.91188000000E+02  0.91188000000E+02 0.  0.
    9900012    2    3    3    0    0  0.17450071393E+02  0.22579352432E+02  0.28962620706E+02  0.50528861470E+02  0.30000004923E+02 0.  0.
        -12    1    3    3    0    0 -0.17450071393E+02 -0.22579352432E+02 -0.28962620706E+02  0.40659138530E+02  0.00000000000E+00 0.  1.
         11    1    4    4    0    0  0.36442372406E+01  0.58512566069E+01  0.24333789540E+02  0.25291322278E+02  0.51100000000E-03 0. -1.
        -11    1    4    4    0    0 -0.14031216597E+01  0.46927525641E+01 -0.10884735603E+01  0.50175145214E+01  0.51100000000E-03 0.  1.
         12    1    4    4    0    0  0.15208955812E+02  0.12035343261E+02  0.57173047259E+01  0.20220024670E+02  0.00000000000E+00 0. -1.
</event>
<event>
 8    1  0.6016610E-012  0.9118800E+02  0.7816164E-02  0.1184000E+00
        -11   -1    0    0    0    0  0.00000000000E+00  0.00000000000E+00  0.45593999997E+02  0.45594000000E+02  0.51100000000E-03 0.  1.
         11   -1    0    0    0    0 -0.00000000000E+00 -0.00000000000E+00 -0.45593999997E+02  0.45594000000E+02  0.51100000000E-03 0. -1.
         23    2    1    2    0    0  0.00000000000E+00  0.00000000000E+00  0.00000000000E+00  0.91188000000E+02  0.91188000000E+02 0.  0.
    9900012    2    3    3    0    0  0.18298837899E+02  0.26120013648E+02 -0.25220249342E+02  0.50528885914E+02  0.30000079223E+02 0.  0.
         12    1    3    3    0    0 -0.18298837899E+02 -0.26120013648E+02  0.25220249342E+02  0.40659114086E+02  0.00000000000E+00 0. -1.
         11    1    4    4    0    0  0.14392873420E+02  0.14081354947E+00 -0.25185203051E+01  0.14612240709E+02  0.51100000000E-03 0.  1.
        -11    1    4    4    0    0  0.62663440564E+01  0.22467331890E+02 -0.20896320880E+02  0.31316198631E+02  0.51100000000E-03 0. -1.
        -12    1    4    4    0    0 -0.23603795781E+01  0.35118682088E+01 -0.18054081567E+01  0.46004465740E+01  0.00000000000E+00 0.  1.
</event>
<event>
 8    1  0.6016610E-012  0.9118800E+02  0.7816164E-02  0.1184000E+00
        -11   -1    0    0    0    0  0.00000000000E+00  0.00000000000E+00  0.45593999997E+02  0.45594000000E+02  0.51100000000E-03 0. -1.
         11   -1    0    0    0    0 -0.00000000000E+00 -0.00000000000E+00 -0.45593999997E+02  0.45594000000E+02  0.51100000000E-03 0.  1.
         23    2    1    2    0    0  0.00000000000E+00 -0.11102230246E-15  0.71054273576E-14  0.91188000000E+02  0.91188000000E+02 0.  0.
    9900012    2    3    3    0    0 -0.19203461723E+02  0.76884423849E+00  0.35830175263E+02  0.50528861753E+02  0.30000005784E+02 0.  0.
        -12    1    3    3    0    0  0.19203461723E+02 -0.76884423849E+00 -0.35830175263E+02  0.40659138247E+02  0.00000000000E+00 0.  1.
         11    1    4    4    0    0 -0.17891370001E+02 -0.32151504355E+01  0.37403413330E+02  0.41586700300E+02  0.51100000000E-03 0. -1.
        -11    1    4    4    0    0  0.22577502813E+01  0.46417111181E+01 -0.11441256520E+01  0.52869596372E+01  0.51100000000E-03 0.  1.
         12    1    4    4    0    0 -0.35698420032E+01 -0.65771644406E+00 -0.42911241512E+00  0.36552018157E+01  0.00000000000E+00 0. -1.
</event>
<event>
 8    1  0.6016610E-012  0.9118800E+02  0.7816164E-02  0.1184000E+00
        -11   -1    0    0    0    0  0.00000000000E+00  0.00000000000E+00  0.45593999997E+02  0.45594000000E+02  0.51100000000E-03 0. -1.
         11   -1    0    0    0    0 -0.00000000000E+00 -0.00000000000E+00 -0.45593999997E+02  0.45594000000E+02  0.51100000000E-03 0.  1.
         23    2    1    2    0    0  0.00000000000E+00 -0.35527136788E-14 -0.71054273576E-14  0.91188000000E+02  0.91188000000E+02 0.  0.
    9900012    2    3    3    0    0 -0.12647251246E+02  0.19084956783E+02  0.33600253621E+02  0.50528861016E+02  0.30000003545E+02 0.  0.
        -12    1    3    3    0    0  0.12647251246E+02 -0.19084956783E+02 -0.33600253621E+02  0.40659138984E+02  0.00000000000E+00 0.  1.
         11    1    4    4    0    0 -0.14134370776E+02  0.44882609492E+01  0.21844226398E+02  0.26402559549E+02  0.51100000000E-03 0. -1.
        -11    1    4    4    0    0  0.54454148303E+01  0.79345923614E+01  0.13106612237E+02  0.16260183984E+02  0.51100000000E-03 0.  1.
         12    1    4    4    0    0 -0.39582953012E+01  0.66621034725E+01 -0.13505850137E+01  0.78661174825E+01  0.00000000000E+00 0. -1.
</event>
<event>
 8    1  0.6016610E-012  0.9118800E+02  0.7816164E-02  0.1184000E+00
        -11   -1    0    0    0    0  0.00000000000E+00  0.00000000000E+00  0.45593999997E+02  0.45594000000E+02  0.51100000000E-03 0. -1.
         11   -1    0    0    0    0 -0.00000000000E+00 -0.00000000000E+00 -0.45593999997E+02  0.45594000000E+02  0.51100000000E-03 0.  1.
         23    2    1    2    0    0  0.88817841970E-15  0.00000000000E+00  0.00000000000E+00  0.91188000000E+02  0.91188000000E+02 0.  0.
    9900012    2    3    3    0    0  0.49853120215E+01 -0.25232631521E+02  0.31490115509E+02  0.50528850917E+02  0.29999972846E+02 0.  0.
        -12    1    3    3    0    0 -0.49853120215E+01  0.25232631521E+02 -0.31490115509E+02  0.40659149083E+02  0.00000000000E+00 0.  1.
         11    1    4    4    0    0  0.58261964551E+01 -0.14930191628E+02  0.52289973330E+01  0.16858161245E+02  0.51100000000E-03 0. -1.
        -11    1    4    4    0    0  0.20956418339E+00 -0.10550308172E+01  0.24089898474E+02  0.24113900886E+02  0.51100000000E-03 0.  1.
        -12    1    4    4    0    0 -0.10504486169E+01 -0.92474090754E+01  0.21712197017E+01  0.95567887859E+01  0.00000000000E+00 0.  1.
</event>
<event>
 8    1  0.6016610E-012  0.9118800E+02  0.7816164E-02  0.1184000E+00
        -11   -1    0    0    0    0  0.00000000000E+00  0.00000000000E+00  0.45593999997E+02  0.45594000000E+02  0.51100000000E-03 0. -1.
         11   -1    0    0    0    0 -0.00000000000E+00 -0.00000000000E+00 -0.45593999997E+02  0.45594000000E+02  0.51100000000E-03 0.  1.
         23    2    1    2    0    0  0.35527136788E-14 -0.66613381478E-15  0.00000000000E+00  0.91188000000E+02  0.91188000000E+02 0.  0.
    9900012    2    3    3    0    0 -0.22824720941E+02  0.11289540743E+01 -0.33629196323E+02  0.50528864881E+02  0.30000015292E+02 0.  0.
         12    1    3    3    0    0  0.22824720941E+02 -0.11289540743E+01  0.33629196323E+02  0.40659135119E+02  0.00000000000E+00 0. -1.
         11    1    4    4    0    0  0.63872649489E+01 -0.23987220285E+01 -0.67401315395E+01  0.95906409759E+01  0.51100000000E-03 0. -1.
        -11    1    4    4    0    0 -0.12334893171E+02  0.57592979025E+01 -0.94798958989E+01  0.16588777182E+02  0.51100000000E-03 0.  1.
         12    1    4    4    0    0 -0.16877092719E+02 -0.22316217996E+01 -0.17409168884E+02  0.24349446723E+02  0.00000000000E+00 0. -1.
</event>
<event>
 8    1  0.6016610E-012  0.9118800E+02  0.7816164E-02  0.1184000E+00
        -11   -1    0    0    0    0  0.00000000000E+00  0.00000000000E+00  0.45593999997E+02  0.45594000000E+02  0.51100000000E-03 0. -1.
         11   -1    0    0    0    0 -0.00000000000E+00 -0.00000000000E+00 -0.45593999997E+02  0.45594000000E+02  0.51100000000E-03 0.  1.
         23    2    1    2    0    0 -0.71054273576E-14 -0.17763568394E-14  0.00000000000E+00  0.91188000000E+02  0.91188000000E+02 0.  0.
    9900012    2    3    3    0    0  0.37624551368E+02  0.10083711128E+02  0.11656753784E+02  0.50528831237E+02  0.29999913026E+02 0.  0.
        -12    1    3    3    0    0 -0.37624551368E+02 -0.10083711128E+02 -0.11656753784E+02  0.40659168763E+02  0.00000000000E+00 0.  1.
         11    1    4    4    0    0  0.25355227469E+01 -0.64583375667E+00 -0.18096253268E+00  0.26227322663E+01  0.51100000000E-03 0. -1.
        -11    1    4    4    0    0  0.43339382688E+01 -0.69663963583E+01 -0.39067536075E+01  0.90871570444E+01  0.51100000000E-03 0.  1.
        -12    1    4    4    0    0  0.30755090352E+02  0.17695941243E+02  0.15744469924E+02  0.38818941926E+02  0.00000000000E+00 0.  1.
</event>
<event>
 8    1  0.6016610E-012  0.9118800E+02  0.7816164E-02  0.1184000E+00
        -11   -1    0    0    0    0  0.00000000000E+00  0.00000000000E+00  0.45593999997E+02  0.45594000000E+02  0.51100000000E-03 0. -1.
         11   -1    0    0    0    0 -0.00000000000E+00 -0.00000000000E+00 -0.45593999997E+02  0.45594000000E+02  0.51100000000E-03 0.  1.
         23    2    1    2    0    0  0.00000000000E+00  0.00000000000E+00  0.61062266354E-15  0.91188000000E+02  0.91188000000E+02 0.  0.
    9900012    2    3    3    0    0 -0.17360421641E+02  0.36763611972E+02  0.46725565940E+00  0.50528859175E+02  0.29999997949E+02 0.  0.
        -12    1    3    3    0    0  0.17360421641E+02 -0.36763611972E+02 -0.46725565940E+00  0.40659140825E+02  0.00000000000E+00 0.  1.
         11    1    4    4    0    0 -0.18989014866E+02  0.25446022074E+02  0.10315298039E+02  0.33383949719E+02  0.51100000000E-03 0. -1.
        -11    1    4    4    0    0  0.10960839634E+01 -0.15296995688E+00 -0.42090540171E+01  0.43521185465E+01  0.51100000000E-03 0.  1.
         12    1    4    4    0    0  0.53250926217E+00  0.11470559855E+02 -0.56389883622E+01  0.12792790909E+02  0.00000000000E+00 0. -1.
</event>
<event>
 8    1  0.6016610E-012  0.9118800E+02  0.7816164E-02  0.1184000E+00
        -11   -1    0    0    0    0  0.00000000000E+00  0.00000000000E+00  0.45593999997E+02  0.45594000000E+02  0.51100000000E-03 0. -1.
         11   -1    0    0    0    0 -0.00000000000E+00 -0.00000000000E+00 -0.45593999997E+02  0.45594000000E+02  0.51100000000E-03 0.  1.
         23    2    1    2    0    0  0.00000000000E+00  0.00000000000E+00  0.00000000000E+00  0.91188000000E+02  0.91188000000E+02 0.  0.
    9900012    2    3    3    0    0  0.12499465873E+02 -0.32386325334E+02 -0.21167318126E+02  0.50528854997E+02  0.29999985249E+02 0.  0.
         12    1    3    3    0    0 -0.12499465873E+02  0.32386325334E+02  0.21167318126E+02  0.40659145003E+02  0.00000000000E+00 0. -1.
         11    1    4    4    0    0  0.32826431891E+01 -0.87354969674E+01  0.20641758518E+00  0.93341985224E+01  0.51100000000E-03 0. -1.
        -11    1    4    4    0    0  0.10263990507E+02 -0.25711561258E+02 -0.97622586870E+01  0.29355333049E+02  0.51100000000E-03 0.  1.
        -12    1    4    4    0    0 -0.10471678232E+01  0.20607328920E+01 -0.11611477024E+02  0.11839323426E+02  0.00000000000E+00 0.  1.
</event>
<event>
 8    1  0.6827600E-012  0.9118800E+02  0.7816164E-02  0.1184000E+00
        -11   -1    0    0    0    0  0.00000000000E+00  0.00000000000E+00  0.45593999997E+02  0.45594000000E+02  0.51100000000E-03 0. -1.
         11   -1    0    0    0    0 -0.00000000000E+00 -0.00000000000E+00 -0.45593999997E+02  0.45594000000E+02  0.51100000000E-03 0.  1.
         23    2    1    2    0    0  0.17763568394E-14  0.35527136788E-14  0.00000000000E+00  0.91188000000E+02  0.91188000000E+02 0.  0.
    9900012    2    3    3    0    0 -0.11432064390E+02 -0.25376815593E+02  0.29639346760E+02  0.50528859057E+02  0.29999997589E+02 0.  0.
        -12    1    3    3    0    0  0.11432064390E+02  0.25376815593E+02 -0.29639346760E+02  0.40659140943E+02  0.00000000000E+00 0.  1.
         11    1    4    4    0    0 -0.10394025713E+02 -0.26539278961E+02  0.14742160645E+02  0.32088945122E+02  0.51100000000E-03 0. -1.
        -11    1    4    4    0    0 -0.16717334813E+01  0.18290476846E+01 -0.88479649131E+00  0.26311543773E+01  0.51100000000E-03 0.  1.
         12    1    4    4    0    0  0.63369480409E+00 -0.66658431663E+00  0.15781982607E+02  0.15808759558E+02  0.00000000000E+00 0. -1.
</event>
<event>
 8    1  0.6016610E-012  0.9118800E+02  0.7816164E-02  0.1184000E+00
        -11   -1    0    0    0    0  0.00000000000E+00  0.00000000000E+00  0.45593999997E+02  0.45594000000E+02  0.51100000000E-03 0. -1.
         11   -1    0    0    0    0 -0.00000000000E+00 -0.00000000000E+00 -0.45593999997E+02  0.45594000000E+02  0.51100000000E-03 0.  1.
         23    2    1    2    0    0  0.00000000000E+00  0.17763568394E-14  0.00000000000E+00  0.91188000000E+02  0.91188000000E+02 0.  0.
    9900012    2    3    3    0    0  0.12293082107E+02  0.14015512594E+02  0.36133235386E+02  0.50528866212E+02  0.30000019338E+02 0.  0.
        -12    1    3    3    0    0 -0.12293082107E+02 -0.14015512594E+02 -0.36133235386E+02  0.40659133788E+02  0.00000000000E+00 0.  1.
         11    1    4    4    0    0  0.37165243155E+01 -0.53847923858E+01  0.25892286584E+02  0.26706161215E+02  0.51100000000E-03 0. -1.
        -11    1    4    4    0    0  0.72249450883E+01  0.12239901223E+02  0.64404147576E+01  0.15604292870E+02  0.51100000000E-03 0.  1.
         12    1    4    4    0    0  0.13516127029E+01  0.71604037573E+01  0.38005340443E+01  0.82184121269E+01  0.00000000000E+00 0. -1.
</event>
<event>
 8    1  0.6016610E-012  0.9118800E+02  0.7816164E-02  0.1184000E+00
        -11   -1    0    0    0    0  0.00000000000E+00  0.00000000000E+00  0.45593999997E+02  0.45594000000E+02  0.51100000000E-03 0. -1.
         11   -1    0    0    0    0 -0.00000000000E+00 -0.00000000000E+00 -0.45593999997E+02  0.45594000000E+02  0.51100000000E-03 0.  1.
         23    2    1    2    0    0  0.00000000000E+00 -0.17763568394E-14  0.00000000000E+00  0.91188000000E+02  0.91188000000E+02 0.  0.
    9900012    2    3    3    0    0  0.16893292963E+02  0.15250866713E+02 -0.33692636717E+02  0.50528855253E+02  0.29999986026E+02 0.  0.
         12    1    3    3    0    0 -0.16893292963E+02 -0.15250866713E+02  0.33692636717E+02  0.40659144747E+02  0.00000000000E+00 0. -1.
         11    1    4    4    0    0  0.39754065479E+01  0.12498482691E+01 -0.78411898666E+01  0.88797655770E+01  0.51100000000E-03 0.  1.
        -11    1    4    4    0    0 -0.43213921396E+00 -0.27636367791E+01  0.40125386090E+01  0.48913085056E+01  0.51100000000E-03 0. -1.
        -12    1    4    4    0    0  0.13350025629E+02  0.16764655223E+02 -0.29863985459E+02  0.36757781170E+02  0.00000000000E+00 0.  1.
</event>
<event>
 8    1  0.6016610E-012  0.9118800E+02  0.7816164E-02  0.1184000E+00
        -11   -1    0    0    0    0  0.00000000000E+00  0.00000000000E+00  0.45593999997E+02  0.45594000000E+02  0.51100000000E-03 0. -1.
         11   -1    0    0    0    0 -0.00000000000E+00 -0.00000000000E+00 -0.45593999997E+02  0.45594000000E+02  0.51100000000E-03 0.  1.
         23    2    1    2    0    0 -0.35527136788E-14  0.00000000000E+00  0.00000000000E+00  0.91188000000E+02  0.91188000000E+02 0.  0.
    9900012    2    3    3    0    0  0.28918518116E+02 -0.24380111300E+01 -0.28476996291E+02  0.50528881637E+02  0.30000066224E+02 0.  0.
         12    1    3    3    0    0 -0.28918518116E+02  0.24380111300E+01  0.28476996291E+02  0.40659118363E+02  0.00000000000E+00 0. -1.
         11    1    4    4    0    0 -0.53571913190E+01 -0.47412405658E+00 -0.62896249612E+01  0.82754863822E+01  0.51100000000E-03 0. -1.
        -11    1    4    4    0    0  0.10025124828E+02 -0.30315137938E+01 -0.12001368762E+02  0.15928780748E+02  0.51100000000E-03 0.  1.
         12    1    4    4    0    0  0.24250584607E+02  0.10676267204E+01 -0.10186002568E+02  0.26324614506E+02  0.00000000000E+00 0. -1.
</event>
<event>
 8    1  0.6016610E-012  0.9118800E+02  0.7816164E-02  0.1184000E+00
        -11   -1    0    0    0    0  0.00000000000E+00  0.00000000000E+00  0.45593999997E+02  0.45594000000E+02  0.51100000000E-03 0. -1.
         11   -1    0    0    0    0 -0.00000000000E+00 -0.00000000000E+00 -0.45593999997E+02  0.45594000000E+02  0.51100000000E-03 0.  1.
         23    2    1    2    0    0  0.00000000000E+00  0.35527136788E-14 -0.88817841970E-15  0.91188000000E+02  0.91188000000E+02 0.  0.
    9900012    2    3    3    0    0  0.33889661692E+02  0.21972734970E+02 -0.46753976398E+01  0.50528811681E+02  0.29999853585E+02 0.  0.
         12    1    3    3    0    0 -0.33889661692E+02 -0.21972734970E+02  0.46753976398E+01  0.40659188319E+02  0.00000000000E+00 0. -1.
         11    1    4    4    0    0  0.12576953636E+02  0.23094906969E+02 -0.22225132190E+01  0.26391173827E+02  0.51100000000E-03 0. -1.
        -11    1    4    4    0    0  0.17585726116E+02  0.18358877495E+01 -0.54644829188E+01  0.18506453488E+02  0.51100000000E-03 0.  1.
         12    1    4    4    0    0  0.37269819397E+01 -0.29580597486E+01  0.30115984980E+01  0.56311843664E+01  0.00000000000E+00 0. -1.
</event>
<event>
 8    1  0.6016610E-012  0.9118800E+02  0.7816164E-02  0.1184000E+00
        -11   -1    0    0    0    0  0.00000000000E+00  0.00000000000E+00  0.45593999997E+02  0.45594000000E+02  0.51100000000E-03 0. -1.
         11   -1    0    0    0    0 -0.00000000000E+00 -0.00000000000E+00 -0.45593999997E+02  0.45594000000E+02  0.51100000000E-03 0.  1.
         23    2    1    2    0    0  0.00000000000E+00  0.17763568394E-14  0.00000000000E+00  0.91188000000E+02  0.91188000000E+02 0.  0.
    9900012    2    3    3    0    0  0.25507544605E+02  0.98202445394E+01 -0.30101400246E+02  0.50528851812E+02  0.29999975568E+02 0.  0.
         12    1    3    3    0    0 -0.25507544605E+02 -0.98202445394E+01  0.30101400246E+02  0.40659148188E+02  0.00000000000E+00 0. -1.
         11    1    4    4    0    0  0.17578879125E+02  0.11496703120E+02 -0.88906283269E+01  0.22808648496E+02  0.51100000000E-03 0. -1.
        -11    1    4    4    0    0  0.35154384141E+00  0.28519700648E+01 -0.18152037102E+02  0.18378078451E+02  0.51100000000E-03 0.  1.
        -12    1    4    4    0    0  0.75771216382E+01 -0.45284286450E+01 -0.30587348173E+01  0.93421248651E+01  0.00000000000E+00 0.  1.
</event>
<event>
 8    1  0.6016610E-012  0.9118800E+02  0.7816164E-02  0.1184000E+00
        -11   -1    0    0    0    0  0.00000000000E+00  0.00000000000E+00  0.45593999997E+02  0.45594000000E+02  0.51100000000E-03 0. -1.
         11   -1    0    0    0    0 -0.00000000000E+00 -0.00000000000E+00 -0.45593999997E+02  0.45594000000E+02  0.51100000000E-03 0.  1.
         23    2    1    2    0    0  0.00000000000E+00  0.00000000000E+00  0.35527136788E-14  0.91188000000E+02  0.91188000000E+02 0.  0.
    9900012    2    3    3    0    0  0.89564488583E+01 -0.28972308110E+02  0.27084187759E+02  0.50528857855E+02  0.29999993937E+02 0.  0.
        -12    1    3    3    0    0 -0.89564488583E+01  0.28972308110E+02 -0.27084187759E+02  0.40659142145E+02  0.00000000000E+00 0.  1.
         11    1    4    4    0    0 -0.10179572208E+02 -0.12020395300E+02  0.14652455550E+02  0.21512973932E+02  0.51100000000E-03 0. -1.
        -11    1    4    4    0    0  0.10296086720E+02 -0.61161511168E+01  0.37203013604E+01  0.12540229212E+02  0.51100000000E-03 0.  1.
         12    1    4    4    0    0  0.88399343465E+01 -0.10835761694E+02  0.87114308486E+01  0.16475654711E+02  0.00000000000E+00 0. -1.
</event>
<event>
 8    1  0.6016610E-012  0.9118800E+02  0.7816164E-02  0.1184000E+00
        -11   -1    0    0    0    0  0.00000000000E+00  0.00000000000E+00  0.45593999997E+02  0.45594000000E+02  0.51100000000E-03 0. -1.
         11   -1    0    0    0    0 -0.00000000000E+00 -0.00000000000E+00 -0.45593999997E+02  0.45594000000E+02  0.51100000000E-03 0.  1.
         23    2    1    2    0    0  0.00000000000E+00 -0.35527136788E-14  0.00000000000E+00  0.91188000000E+02  0.91188000000E+02 0.  0.
    9900012    2    3    3    0    0 -0.13232298831E+02  0.20879668835E+02 -0.32281759380E+02  0.50528852300E+02  0.29999977051E+02 0.  0.
         12    1    3    3    0    0  0.13232298831E+02 -0.20879668835E+02  0.32281759380E+02  0.40659147700E+02  0.00000000000E+00 0. -1.
         11    1    4    4    0    0 -0.88210997790E+01  0.11545090176E+02 -0.21270956829E+01  0.14684190301E+02  0.51100000000E-03 0. -1.
        -11    1    4    4    0    0 -0.47137559500E+01  0.66968273675E+01 -0.31721631772E+02  0.32761698895E+02  0.51100000000E-03 0.  1.
         12    1    4    4    0    0  0.30255689779E+00  0.26377512920E+01  0.15669680750E+01  0.30829631044E+01  0.00000000000E+00 0. -1.
</event>
<event>
 8    1  0.6016610E-012  0.9118800E+02  0.7816164E-02  0.1184000E+00
        -11   -1    0    0    0    0  0.00000000000E+00  0.00000000000E+00  0.45593999997E+02  0.45594000000E+02  0.51100000000E-03 0. -1.
         11   -1    0    0    0    0 -0.00000000000E+00 -0.00000000000E+00 -0.45593999997E+02  0.45594000000E+02  0.51100000000E-03 0.  1.
         23    2    1    2    0    0 -0.35527136788E-14 -0.35527136788E-14  0.00000000000E+00  0.91188000000E+02  0.91188000000E+02 0.  0.
    9900012    2    3    3    0    0  0.22324315358E+02 -0.20057097542E+02 -0.27431802168E+02  0.50528856032E+02  0.29999988395E+02 0.  0.
         12    1    3    3    0    0 -0.22324315358E+02  0.20057097542E+02  0.27431802168E+02  0.40659143968E+02  0.00000000000E+00 0. -1.
         11    1    4    4    0    0 -0.16839430616E+01  0.28299165461E+01  0.92153734930E-01  0.32943261017E+01  0.51100000000E-03 0. -1.
        -11    1    4    4    0    0  0.18532411767E+02 -0.24083399217E+02 -0.15824797444E+02  0.34261999623E+02  0.51100000000E-03 0.  1.
        -12    1    4    4    0    0  0.54758466530E+01  0.11963851286E+01 -0.11699158459E+02  0.12972530308E+02  0.00000000000E+00 0.  1.
</event>
<event>
 8    1  0.6016610E-012  0.9118800E+02  0.7816164E-02  0.1184000E+00
        -11   -1    0    0    0    0  0.00000000000E+00  0.00000000000E+00  0.45593999997E+02  0.45594000000E+02  0.51100000000E-03 0. -1.
         11   -1    0    0    0    0 -0.00000000000E+00 -0.00000000000E+00 -0.45593999997E+02  0.45594000000E+02  0.51100000000E-03 0.  1.
         23    2    1    2    0    0 -0.17763568394E-14  0.00000000000E+00  0.00000000000E+00  0.91188000000E+02  0.91188000000E+02 0.  0.
    9900012    2    3    3    0    0  0.10962054780E+02  0.31599802689E+02 -0.23118205381E+02  0.50528860868E+02  0.30000003093E+02 0.  0.
         12    1    3    3    0    0 -0.10962054780E+02 -0.31599802689E+02  0.23118205381E+02  0.40659139132E+02  0.00000000000E+00 0. -1.
         11    1    4    4    0    0 -0.11339307866E+01 -0.12685036936E+01 -0.60133381348E+01  0.62494108870E+01  0.51100000000E-03 0. -1.
        -11    1    4    4    0    0  0.14180546292E+02  0.18851161539E+02 -0.21663405513E+01  0.23688546096E+02  0.51100000000E-03 0.  1.
        -12    1    4    4    0    0 -0.20845607254E+01  0.14017144843E+02 -0.14938526695E+02  0.20590903885E+02  0.00000000000E+00 0.  1.
</event>
<event>
 8    1  0.6016610E-012  0.9118800E+02  0.7816164E-02  0.1184000E+00
        -11   -1    0    0    0    0  0.00000000000E+00  0.00000000000E+00  0.45593999997E+02  0.45594000000E+02  0.51100000000E-03 0. -1.
         11   -1    0    0    0    0 -0.00000000000E+00 -0.00000000000E+00 -0.45593999997E+02  0.45594000000E+02  0.51100000000E-03 0.  1.
         23    2    1    2    0    0  0.88817841970E-15  0.00000000000E+00  0.00000000000E+00  0.91188000000E+02  0.91188000000E+02 0.  0.
    9900012    2    3    3    0    0  0.54825232387E+01 -0.17115061643E+02 -0.36471664340E+02  0.50528859627E+02  0.29999999323E+02 0.  0.
         12    1    3    3    0    0 -0.54825232387E+01  0.17115061643E+02  0.36471664340E+02  0.40659140373E+02  0.00000000000E+00 0. -1.
         11    1    4    4    0    0  0.12475764623E+02 -0.17389375402E+02 -0.31030733937E+02  0.37695378082E+02  0.51100000000E-03 0.  1.
        -11    1    4    4    0    0  0.99041683773E-01  0.35130255372E+01 -0.31175235803E+01  0.46978836953E+01  0.51100000000E-03 0. -1.
         12    1    4    4    0    0 -0.70922830684E+01 -0.32387117792E+01 -0.23234068226E+01  0.81355978499E+01  0.00000000000E+00 0. -1.
</event>
<event>
 8    1  0.6016610E-012  0.9118800E+02  0.7816164E-02  0.1184000E+00
        -11   -1    0    0    0    0  0.00000000000E+00  0.00000000000E+00  0.45593999997E+02  0.45594000000E+02  0.51100000000E-03 0.  1.
         11   -1    0    0    0    0 -0.00000000000E+00 -0.00000000000E+00 -0.45593999997E+02  0.45594000000E+02  0.51100000000E-03 0. -1.
         23    2    1    2    0    0  0.00000000000E+00  0.00000000000E+00 -0.88817841970E-15  0.91188000000E+02  0.91188000000E+02 0.  0.
    9900012    2    3    3    0    0 -0.34120417313E+02 -0.21305742728E+02 -0.59184724083E+01  0.50528857530E+02  0.29999992948E+02 0.  0.
        -12    1    3    3    0    0  0.34120417313E+02  0.21305742728E+02  0.59184724083E+01  0.40659142470E+02  0.00000000000E+00 0.  1.
         11    1    4    4    0    0 -0.53437902624E+01  0.29687608777E+01  0.55352180912E+01  0.82467129874E+01  0.51100000000E-03 0.  1.
        -11    1    4    4    0    0 -0.29015884803E+02 -0.20598682919E+02 -0.66033379430E+01  0.36191592686E+02  0.51100000000E-03 0. -1.
        -12    1    4    4    0    0  0.23925775311E+00 -0.36758206864E+01 -0.48503525565E+01  0.60905518562E+01  0.00000000000E+00 0.  1.
</event>
<event>
 8    1  0.6016610E-012  0.9118800E+02  0.7816164E-02  0.1184000E+00
        -11   -1    0    0    0    0  0.00000000000E+00  0.00000000000E+00  0.45593999997E+02  0.45594000000E+02  0.51100000000E-03 0. -1.
         11   -1    0    0    0    0 -0.00000000000E+00 -0.00000000000E+00 -0.45593999997E+02  0.45594000000E+02  0.51100000000E-03 0.  1.
         23    2    1    2    0    0  0.00000000000E+00  0.00000000000E+00  0.00000000000E+00  0.91188000000E+02  0.91188000000E+02 0.  0.
    9900012    2    3    3    0    0  0.68750221116E+01  0.96775883443E+01  0.38887599844E+02  0.50528842767E+02  0.29999948076E+02 0.  0.
        -12    1    3    3    0    0 -0.68750221116E+01 -0.96775883443E+01 -0.38887599844E+02  0.40659157233E+02  0.00000000000E+00 0.  1.
         11    1    4    4    0    0  0.14778745965E+02  0.10445063984E+02  0.28796756068E+02  0.34011231296E+02  0.51100000000E-03 0. -1.
        -11    1    4    4    0    0 -0.72750010698E+01  0.76413012166E+00  0.11260094702E+01  0.74011778114E+01  0.51100000000E-03 0.  1.
         12    1    4    4    0    0 -0.62872278380E+00 -0.15316057616E+01  0.89648343059E+01  0.91164336602E+01  0.00000000000E+00 0. -1.
</event>
<event>
 8    1  0.6016610E-012  0.9118800E+02  0.7816164E-02  0.1184000E+00
        -11   -1    0    0    0    0  0.00000000000E+00  0.00000000000E+00  0.45593999997E+02  0.45594000000E+02  0.51100000000E-03 0. -1.
         11   -1    0    0    0    0 -0.00000000000E+00 -0.00000000000E+00 -0.45593999997E+02  0.45594000000E+02  0.51100000000E-03 0.  1.
         23    2    1    2    0    0  0.00000000000E+00 -0.77715611724E-15  0.00000000000E+00  0.91188000000E+02  0.91188000000E+02 0.  0.
    9900012    2    3    3    0    0  0.24076452776E+02 -0.59641058554E+00 -0.32758726596E+02  0.50528862626E+02  0.30000008437E+02 0.  0.
         12    1    3    3    0    0 -0.24076452776E+02  0.59641058554E+00  0.32758726596E+02  0.40659137374E+02  0.00000000000E+00 0. -1.
         11    1    4    4    0    0  0.11717233457E+02 -0.81357516718E+01 -0.17006759986E+02  0.22197159742E+02  0.51100000000E-03 0. -1.
        -11    1    4    4    0    0  0.13859152789E+02  0.12283841229E+02 -0.13177769269E+02  0.22729330710E+02  0.51100000000E-03 0.  1.
         12    1    4    4    0    0 -0.14999334695E+01 -0.47445001428E+01 -0.25741973410E+01  0.56023721733E+01  0.00000000000E+00 0. -1.
</event>
<event>
 8    1  0.6016610E-012  0.9118800E+02  0.7816164E-02  0.1184000E+00
        -11   -1    0    0    0    0  0.00000000000E+00  0.00000000000E+00  0.45593999997E+02  0.45594000000E+02  0.51100000000E-03 0. -1.
         11   -1    0    0    0    0 -0.00000000000E+00 -0.00000000000E+00 -0.45593999997E+02  0.45594000000E+02  0.51100000000E-03 0.  1.
         23    2    1    2    0    0  0.44408920985E-15 -0.71054273576E-14  0.00000000000E+00  0.91188000000E+02  0.91188000000E+02 0.  0.
    9900012    2    3    3    0    0 -0.37570206124E+01  0.32087150805E+02 -0.24687347620E+02  0.50528861013E+02  0.30000003535E+02 0.  0.
         12    1    3    3    0    0  0.37570206124E+01 -0.32087150805E+02  0.24687347620E+02  0.40659138987E+02  0.00000000000E+00 0. -1.
         11    1    4    4    0    0  0.53997488595E+01  0.59603983323E+01  0.40155404183E+01  0.89893381924E+01  0.51100000000E-03 0. -1.
        -11    1    4    4    0    0 -0.10475712364E+02  0.12531102162E+02 -0.14623818668E+02  0.21923164544E+02  0.51100000000E-03 0.  1.
         12    1    4    4    0    0  0.13189428918E+01  0.13595650310E+02 -0.14079069370E+02  0.19616358277E+02  0.00000000000E+00 0. -1.
</event>
<event>
 8    1  0.6016610E-012  0.9118800E+02  0.7816164E-02  0.1184000E+00
        -11   -1    0    0    0    0  0.00000000000E+00  0.00000000000E+00  0.45593999997E+02  0.45594000000E+02  0.51100000000E-03 0. -1.
         11   -1    0    0    0    0 -0.00000000000E+00 -0.00000000000E+00 -0.45593999997E+02  0.45594000000E+02  0.51100000000E-03 0.  1.
         23    2    1    2    0    0  0.00000000000E+00  0.00000000000E+00  0.00000000000E+00  0.91188000000E+02  0.91188000000E+02 0.  0.
    9900012    2    3    3    0    0  0.30500699836E+02 -0.13524555908E+02 -0.23237030319E+02  0.50528857350E+02  0.29999992401E+02 0.  0.
         12    1    3    3    0    0 -0.30500699836E+02  0.13524555908E+02  0.23237030319E+02  0.40659142650E+02  0.00000000000E+00 0. -1.
         11    1    4    4    0    0  0.17923358799E+02 -0.16324040904E+02 -0.14311303996E+02  0.28151989706E+02  0.51100000000E-03 0. -1.
        -11    1    4    4    0    0  0.14730132283E+02  0.33687638369E+01 -0.11488465476E+02  0.18981838850E+02  0.51100000000E-03 0.  1.
         12    1    4    4    0    0 -0.21527912463E+01 -0.56927884123E+00  0.25627391527E+01  0.33950287943E+01  0.00000000000E+00 0. -1.
</event>
<event>
 8    1  0.6016610E-012  0.9118800E+02  0.7816164E-02  0.1184000E+00
        -11   -1    0    0    0    0  0.00000000000E+00  0.00000000000E+00  0.45593999997E+02  0.45594000000E+02  0.51100000000E-03 0.  1.
         11   -1    0    0    0    0 -0.00000000000E+00 -0.00000000000E+00 -0.45593999997E+02  0.45594000000E+02  0.51100000000E-03 0. -1.
         23    2    1    2    0    0 -0.26645352591E-14 -0.71054273576E-14 -0.35527136788E-14  0.91188000000E+02  0.91188000000E+02 0.  0.
    9900012    2    3    3    0    0 -0.51248948473E+01 -0.36497266611E+02 -0.17171170029E+02  0.50528879284E+02  0.30000059072E+02 0.  0.
         12    1    3    3    0    0  0.51248948473E+01  0.36497266611E+02  0.17171170029E+02  0.40659120716E+02  0.00000000000E+00 0. -1.
         11    1    4    4    0    0  0.70099958030E+01 -0.60235880958E+01 -0.93585072217E+01  0.13153148383E+02  0.51100000000E-03 0. -1.
        -11    1    4    4    0    0 -0.13202707647E+02 -0.11473382070E+02 -0.30065473665E+01  0.17747938265E+02  0.51100000000E-03 0.  1.
         12    1    4    4    0    0  0.10678169964E+01 -0.19000296445E+02 -0.48061154408E+01  0.19627792636E+02  0.00000000000E+00 0. -1.
</event>
<event>
 8    1  0.6016610E-012  0.9118800E+02  0.7816164E-02  0.1184000E+00
        -11   -1    0    0    0    0  0.00000000000E+00  0.00000000000E+00  0.45593999997E+02  0.45594000000E+02  0.51100000000E-03 0. -1.
         11   -1    0    0    0    0 -0.00000000000E+00 -0.00000000000E+00 -0.45593999997E+02  0.45594000000E+02  0.51100000000E-03 0.  1.
         23    2    1    2    0    0  0.00000000000E+00  0.44408920985E-15  0.00000000000E+00  0.91188000000E+02  0.91188000000E+02 0.  0.
    9900012    2    3    3    0    0 -0.16538935399E+02  0.21128056873E+01  0.37083233130E+02  0.50528849599E+02  0.29999968840E+02 0.  0.
        -12    1    3    3    0    0  0.16538935399E+02 -0.21128056873E+01 -0.37083233130E+02  0.40659150401E+02  0.00000000000E+00 0.  1.
         11    1    4    4    0    0 -0.17585447800E+02 -0.47046362375E+01  0.13774258650E+02  0.22827872833E+02  0.51100000000E-03 0. -1.
        -11    1    4    4    0    0  0.65773715073E+01  0.27225844884E+01  0.69287606151E+01  0.99338817269E+01  0.51100000000E-03 0.  1.
        -12    1    4    4    0    0 -0.55308591062E+01  0.40948574364E+01  0.16380213864E+02  0.17767095039E+02  0.00000000000E+00 0.  1.
</event>
<event>
 8    1  0.6016610E-012  0.9118800E+02  0.7816164E-02  0.1184000E+00
        -11   -1    0    0    0    0  0.00000000000E+00  0.00000000000E+00  0.45593999997E+02  0.45594000000E+02  0.51100000000E-03 0. -1.
         11   -1    0    0    0    0 -0.00000000000E+00 -0.00000000000E+00 -0.45593999997E+02  0.45594000000E+02  0.51100000000E-03 0.  1.
         23    2    1    2    0    0  0.00000000000E+00  0.00000000000E+00  0.00000000000E+00  0.91188000000E+02  0.91188000000E+02 0.  0.
    9900012    2    3    3    0    0  0.17047167537E+02 -0.14851039665E+02  0.33793576187E+02  0.50528867057E+02  0.30000021907E+02 0.  0.
        -12    1    3    3    0    0 -0.17047167537E+02  0.14851039665E+02 -0.33793576187E+02  0.40659132943E+02  0.00000000000E+00 0.  1.
         11    1    4    4    0    0  0.95637513087E+01 -0.13843756647E+02  0.21221912242E+02  0.27082918909E+02  0.51100000000E-03 0. -1.
        -11    1    4    4    0    0 -0.20725350459E+01  0.15562430375E+01  0.13276435599E+02  0.13527048325E+02  0.51100000000E-03 0.  1.
        -12    1    4    4    0    0  0.95559512746E+01 -0.25635260557E+01 -0.70477165450E+00  0.99188998224E+01  0.00000000000E+00 0.  1.
</event>
<event>
 8    1  0.6016610E-012  0.9118800E+02  0.7816164E-02  0.1184000E+00
        -11   -1    0    0    0    0  0.00000000000E+00  0.00000000000E+00  0.45593999997E+02  0.45594000000E+02  0.51100000000E-03 0. -1.
         11   -1    0    0    0    0 -0.00000000000E+00 -0.00000000000E+00 -0.45593999997E+02  0.45594000000E+02  0.51100000000E-03 0.  1.
         23    2    1    2    0    0 -0.88817841970E-15  0.35527136788E-14 -0.71054273576E-14  0.91188000000E+02  0.91188000000E+02 0.  0.
    9900012    2    3    3    0    0  0.22887898802E+01  0.20492976143E+02 -0.35042334257E+02  0.50528858094E+02  0.29999994664E+02 0.  0.
         12    1    3    3    0    0 -0.22887898802E+01 -0.20492976143E+02  0.35042334257E+02  0.40659141906E+02  0.00000000000E+00 0. -1.
         11    1    4    4    0    0 -0.80239933524E+01  0.88652713154E+00 -0.27453011466E+01  0.85268445700E+01  0.51100000000E-03 0. -1.
        -11    1    4    4    0    0  0.12688917179E+02  0.11052822551E+02 -0.14924020947E+02  0.22492218810E+02  0.51100000000E-03 0.  1.
         12    1    4    4    0    0 -0.23761339464E+01  0.85536264601E+01 -0.17373012164E+02  0.19509794714E+02  0.00000000000E+00 0. -1.
</event>
<event>
 8    1  0.6016610E-012  0.9118800E+02  0.7816164E-02  0.1184000E+00
        -11   -1    0    0    0    0  0.00000000000E+00  0.00000000000E+00  0.45593999997E+02  0.45594000000E+02  0.51100000000E-03 0. -1.
         11   -1    0    0    0    0 -0.00000000000E+00 -0.00000000000E+00 -0.45593999997E+02  0.45594000000E+02  0.51100000000E-03 0.  1.
         23    2    1    2    0    0  0.00000000000E+00  0.35527136788E-14  0.00000000000E+00  0.91188000000E+02  0.91188000000E+02 0.  0.
    9900012    2    3    3    0    0 -0.29773286029E+02  0.24615720327E+02  0.12680033156E+02  0.50528862170E+02  0.30000007052E+02 0.  0.
        -12    1    3    3    0    0  0.29773286029E+02 -0.24615720327E+02 -0.12680033156E+02  0.40659137830E+02  0.00000000000E+00 0.  1.
         11    1    4    4    0    0 -0.87748573845E+01  0.61091931532E+01  0.66437198597E+01  0.12588064861E+02  0.51100000000E-03 0. -1.
        -11    1    4    4    0    0  0.42129603515E+01 -0.15509844841E+01 -0.17131244788E+01  0.48051413647E+01  0.51100000000E-03 0.  1.
        -12    1    4    4    0    0 -0.25211388996E+02  0.20057511658E+02  0.77494377752E+01  0.33135655945E+02  0.00000000000E+00 0.  1.
</event>
<event>
 8    1  0.6016610E-012  0.9118800E+02  0.7816164E-02  0.1184000E+00
        -11   -1    0    0    0    0  0.00000000000E+00  0.00000000000E+00  0.45593999997E+02  0.45594000000E+02  0.51100000000E-03 0. -1.
         11   -1    0    0    0    0 -0.00000000000E+00 -0.00000000000E+00 -0.45593999997E+02  0.45594000000E+02  0.51100000000E-03 0.  1.
         23    2    1    2    0    0  0.00000000000E+00  0.00000000000E+00  0.00000000000E+00  0.91188000000E+02  0.91188000000E+02 0.  0.
    9900012    2    3    3    0    0 -0.21968138226E+02  0.24150388861E+02  0.24234811325E+02  0.50528850240E+02  0.29999970789E+02 0.  0.
        -12    1    3    3    0    0  0.21968138226E+02 -0.24150388861E+02 -0.24234811325E+02  0.40659149760E+02  0.00000000000E+00 0.  1.
         11    1    4    4    0    0  0.10973232791E+01 -0.37841096161E+01  0.37998180965E+01  0.54737758260E+01  0.51100000000E-03 0. -1.
        -11    1    4    4    0    0 -0.23130982979E+02  0.21905316485E+02  0.10703960225E+02  0.33607440079E+02  0.51100000000E-03 0.  1.
        -12    1    4    4    0    0  0.65521474090E-01  0.60291819925E+01  0.97310330032E+01  0.11447634335E+02  0.00000000000E+00 0.  1.
</event>
<event>
 8    1  0.6016610E-012  0.9118800E+02  0.7816164E-02  0.1184000E+00
        -11   -1    0    0    0    0  0.00000000000E+00  0.00000000000E+00  0.45593999997E+02  0.45594000000E+02  0.51100000000E-03 0.  1.
         11   -1    0    0    0    0 -0.00000000000E+00 -0.00000000000E+00 -0.45593999997E+02  0.45594000000E+02  0.51100000000E-03 0. -1.
         23    2    1    2    0    0 -0.35527136788E-14 -0.35527136788E-14 -0.17763568394E-14  0.91188000000E+02  0.91188000000E+02 0.  0.
    9900012    2    3    3    0    0  0.24857652176E+02  0.31693800527E+02  0.55469430816E+01  0.50528825868E+02  0.29999896707E+02 0.  0.
        -12    1    3    3    0    0 -0.24857652176E+02 -0.31693800527E+02 -0.55469430816E+01  0.40659174132E+02  0.00000000000E+00 0.  1.
         11    1    4    4    0    0  0.23083964970E+02  0.16072935550E+02 -0.37176589863E+01  0.28373045034E+02  0.51100000000E-03 0. -1.
        -11    1    4    4    0    0 -0.51363970164E+01  0.48215559486E+01  0.16196629000E+01  0.72286433199E+01  0.51100000000E-03 0.  1.
         12    1    4    4    0    0  0.69100842224E+01  0.10799309029E+02  0.76449391679E+01  0.14927137513E+02  0.00000000000E+00 0. -1.
</event>
<event>
 8    1  0.6016610E-012  0.9118800E+02  0.7816164E-02  0.1184000E+00
        -11   -1    0    0    0    0  0.00000000000E+00  0.00000000000E+00  0.45593999997E+02  0.45594000000E+02  0.51100000000E-03 0. -1.
         11   -1    0    0    0    0 -0.00000000000E+00 -0.00000000000E+00 -0.45593999997E+02  0.45594000000E+02  0.51100000000E-03 0.  1.
         23    2    1    2    0    0  0.00000000000E+00  0.00000000000E+00  0.00000000000E+00  0.91188000000E+02  0.91188000000E+02 0.  0.
    9900012    2    3    3    0    0 -0.17430554956E+02 -0.13643218829E+02 -0.34105776652E+02  0.50528859981E+02  0.30000000398E+02 0.  0.
         12    1    3    3    0    0  0.17430554956E+02  0.13643218829E+02  0.34105776652E+02  0.40659140019E+02  0.00000000000E+00 0. -1.
         11    1    4    4    0    0 -0.33320794757E+01  0.67248039209E+01 -0.11138530740E+01  0.75872531484E+01  0.51100000000E-03 0. -1.
        -11    1    4    4    0    0 -0.80013466561E+01 -0.28747056289E+01 -0.14219799300E+02  0.16567684605E+02  0.51100000000E-03 0.  1.
         12    1    4    4    0    0 -0.60971288241E+01 -0.17493317121E+02 -0.18772124277E+02  0.26373922228E+02  0.00000000000E+00 0. -1.
</event>
<event>
 8    1  0.6016610E-012  0.9118800E+02  0.7816164E-02  0.1184000E+00
        -11   -1    0    0    0    0  0.00000000000E+00  0.00000000000E+00  0.45593999997E+02  0.45594000000E+02  0.51100000000E-03 0.  1.
         11   -1    0    0    0    0 -0.00000000000E+00 -0.00000000000E+00 -0.45593999997E+02  0.45594000000E+02  0.51100000000E-03 0. -1.
         23    2    1    2    0    0  0.00000000000E+00  0.35527136788E-14  0.00000000000E+00  0.91188000000E+02  0.91188000000E+02 0.  0.
    9900012    2    3    3    0    0  0.27572968888E+02 -0.28723543171E+02 -0.82374063424E+01  0.50528863157E+02  0.30000010052E+02 0.  0.
         12    1    3    3    0    0 -0.27572968888E+02  0.28723543171E+02  0.82374063424E+01  0.40659136843E+02  0.00000000000E+00 0. -1.
         11    1    4    4    0    0  0.25755222489E+02 -0.18350944654E+02  0.42885374473E-02  0.31624178627E+02  0.51100000000E-03 0. -1.
        -11    1    4    4    0    0  0.98262765797E+00 -0.13619757596E+02 -0.68080266634E+01  0.15258197187E+02  0.51100000000E-03 0.  1.
         12    1    4    4    0    0  0.83511874041E+00  0.32471590784E+01 -0.14336682164E+01  0.36464873434E+01  0.00000000000E+00 0. -1.
</event>
<event>
 8    1  0.6016610E-012  0.9118800E+02  0.7816164E-02  0.1184000E+00
        -11   -1    0    0    0    0  0.00000000000E+00  0.00000000000E+00  0.45593999997E+02  0.45594000000E+02  0.51100000000E-03 0. -1.
         11   -1    0    0    0    0 -0.00000000000E+00 -0.00000000000E+00 -0.45593999997E+02  0.45594000000E+02  0.51100000000E-03 0.  1.
         23    2    1    2    0    0 -0.17763568394E-14  0.35527136788E-14  0.00000000000E+00  0.91188000000E+02  0.91188000000E+02 0.  0.
    9900012    2    3    3    0    0  0.10342023792E+02  0.20204327192E+02  0.33734157944E+02  0.50528859508E+02  0.29999998961E+02 0.  0.
        -12    1    3    3    0    0 -0.10342023792E+02 -0.20204327192E+02 -0.33734157944E+02  0.40659140492E+02  0.00000000000E+00 0.  1.
         11    1    4    4    0    0  0.77419749669E+01  0.44580745712E+01  0.21621847396E+02  0.23394804773E+02  0.51100000000E-03 0. -1.
        -11    1    4    4    0    0 -0.33362415817E+01  0.62749909337E+01 -0.35086982167E+01  0.79257165321E+01  0.51100000000E-03 0.  1.
        -12    1    4    4    0    0  0.59362904064E+01  0.94712616866E+01  0.15621008764E+02  0.19208338204E+02  0.00000000000E+00 0.  1.
</event>
<event>
 8    1  0.6016610E-012  0.9118800E+02  0.7816164E-02  0.1184000E+00
        -11   -1    0    0    0    0  0.00000000000E+00  0.00000000000E+00  0.45593999997E+02  0.45594000000E+02  0.51100000000E-03 0. -1.
         11   -1    0    0    0    0 -0.00000000000E+00 -0.00000000000E+00 -0.45593999997E+02  0.45594000000E+02  0.51100000000E-03 0.  1.
         23    2    1    2    0    0 -0.17763568394E-14  0.17763568394E-14  0.00000000000E+00  0.91188000000E+02  0.91188000000E+02 0.  0.
    9900012    2    3    3    0    0  0.14707862063E+02 -0.13761556001E+02  0.35319466856E+02  0.50528851349E+02  0.29999974160E+02 0.  0.
        -12    1    3    3    0    0 -0.14707862063E+02  0.13761556001E+02 -0.35319466856E+02  0.40659148651E+02  0.00000000000E+00 0.  1.
         11    1    4    4    0    0 -0.13200412764E+00 -0.12113771825E+02  0.83676414390E+01  0.14723393509E+02  0.51100000000E-03 0. -1.
        -11    1    4    4    0    0  0.15912709514E+02  0.30336083223E+01  0.12165625874E+02  0.20258814296E+02  0.51100000000E-03 0.  1.
         12    1    4    4    0    0 -0.10728433236E+01 -0.46813924986E+01  0.14786199544E+02  0.15546643543E+02  0.00000000000E+00 0. -1.
</event>
<event>
 8    1  0.6016610E-012  0.9118800E+02  0.7816164E-02  0.1184000E+00
        -11   -1    0    0    0    0  0.00000000000E+00  0.00000000000E+00  0.45593999997E+02  0.45594000000E+02  0.51100000000E-03 0. -1.
         11   -1    0    0    0    0 -0.00000000000E+00 -0.00000000000E+00 -0.45593999997E+02  0.45594000000E+02  0.51100000000E-03 0.  1.
         23    2    1    2    0    0  0.35527136788E-14  0.00000000000E+00  0.35527136788E-14  0.91188000000E+02  0.91188000000E+02 0.  0.
    9900012    2    3    3    0    0  0.17855922563E+02  0.21060759415E+02 -0.29845872914E+02  0.50528859728E+02  0.29999999628E+02 0.  0.
         12    1    3    3    0    0 -0.17855922563E+02 -0.21060759415E+02  0.29845872914E+02  0.40659140272E+02  0.00000000000E+00 0. -1.
         11    1    4    4    0    0 -0.62545129162E+01 -0.18867850514E+01 -0.41466144766E+01  0.77377840192E+01  0.51100000000E-03 0. -1.
        -11    1    4    4    0    0  0.65733994359E+01  0.93846035014E+01 -0.12642782650E+02  0.17062248282E+02  0.51100000000E-03 0.  1.
         12    1    4    4    0    0  0.17537036043E+02  0.13562940965E+02 -0.13056475787E+02  0.25728827427E+02  0.00000000000E+00 0. -1.
</event>
<event>
 8    1  0.6016610E-012  0.9118800E+02  0.7816164E-02  0.1184000E+00
        -11   -1    0    0    0    0  0.00000000000E+00  0.00000000000E+00  0.45593999997E+02  0.45594000000E+02  0.51100000000E-03 0.  1.
         11   -1    0    0    0    0 -0.00000000000E+00 -0.00000000000E+00 -0.45593999997E+02  0.45594000000E+02  0.51100000000E-03 0. -1.
         23    2    1    2    0    0 -0.35527136788E-14  0.00000000000E+00  0.35527136788E-14  0.91188000000E+02  0.91188000000E+02 0.  0.
    9900012    2    3    3    0    0  0.31536747044E+02  0.14488993021E+02 -0.21181774269E+02  0.50528869487E+02  0.30000029293E+02 0.  0.
        -12    1    3    3    0    0 -0.31536747044E+02 -0.14488993021E+02  0.21181774269E+02  0.40659130513E+02  0.00000000000E+00 0.  1.
         11    1    4    4    0    0  0.76957207870E+01  0.12425446821E+02 -0.43265399040E+01  0.15242532432E+02  0.51100000000E-03 0.  1.
        -11    1    4    4    0    0  0.74770680195E+01 -0.19162890075E+01 -0.16752352704E+02  0.18445054381E+02  0.51100000000E-03 0. -1.
         12    1    4    4    0    0  0.16363958238E+02  0.39798352077E+01 -0.10288166098E+00  0.16841282674E+02  0.00000000000E+00 0. -1.
</event>
<event>
 8    1  0.6016610E-012  0.9118800E+02  0.7816164E-02  0.1184000E+00
        -11   -1    0    0    0    0  0.00000000000E+00  0.00000000000E+00  0.45593999997E+02  0.45594000000E+02  0.51100000000E-03 0. -1.
         11   -1    0    0    0    0 -0.00000000000E+00 -0.00000000000E+00 -0.45593999997E+02  0.45594000000E+02  0.51100000000E-03 0.  1.
         23    2    1    2    0    0  0.00000000000E+00 -0.14432899320E-14  0.71054273576E-14  0.91188000000E+02  0.91188000000E+02 0.  0.
    9900012    2    3    3    0    0 -0.51367059697E+01  0.69592551170E+00  0.40327362226E+02  0.50528853371E+02  0.29999980305E+02 0.  0.
        -12    1    3    3    0    0  0.51367059697E+01 -0.69592551170E+00 -0.40327362226E+02  0.40659146629E+02  0.00000000000E+00 0.  1.
         11    1    4    4    0    0  0.48692971659E+01 -0.11847268058E+02  0.21114670983E+02  0.24696095771E+02  0.51100000000E-03 0. -1.
        -11    1    4    4    0    0 -0.57515760905E+01  0.10249565926E+02  0.10010221568E+02  0.15438224163E+02  0.51100000000E-03 0.  1.
         12    1    4    4    0    0 -0.42544270452E+01  0.22936276438E+01  0.92024696754E+01  0.10394533437E+02  0.00000000000E+00 0. -1.
</event>
<event>
 8    1  0.6016610E-012  0.9118800E+02  0.7816164E-02  0.1184000E+00
        -11   -1    0    0    0    0  0.00000000000E+00  0.00000000000E+00  0.45593999997E+02  0.45594000000E+02  0.51100000000E-03 0. -1.
         11   -1    0    0    0    0 -0.00000000000E+00 -0.00000000000E+00 -0.45593999997E+02  0.45594000000E+02  0.51100000000E-03 0.  1.
         23    2    1    2    0    0  0.35527136788E-14 -0.17763568394E-14  0.00000000000E+00  0.91188000000E+02  0.91188000000E+02 0.  0.
    9900012    2    3    3    0    0 -0.26847583298E+02  0.13718169527E+02 -0.27279739694E+02  0.50528866931E+02  0.30000021523E+02 0.  0.
         12    1    3    3    0    0  0.26847583298E+02 -0.13718169527E+02  0.27279739694E+02  0.40659133069E+02  0.00000000000E+00 0. -1.
         11    1    4    4    0    0 -0.30356265280E+00 -0.58223797504E+00 -0.83709039131E+01  0.83966174098E+01  0.51100000000E-03 0. -1.
        -11    1    4    4    0    0 -0.28298299959E+02  0.16862617488E+02 -0.20337894308E+02  0.38713971564E+02  0.51100000000E-03 0.  1.
         12    1    4    4    0    0  0.17542793130E+01 -0.25622099861E+01  0.14290585266E+01  0.34182779573E+01  0.00000000000E+00 0. -1.
</event>
<event>
 8    1  0.6016610E-012  0.9118800E+02  0.7816164E-02  0.1184000E+00
        -11   -1    0    0    0    0  0.00000000000E+00  0.00000000000E+00  0.45593999997E+02  0.45594000000E+02  0.51100000000E-03 0. -1.
         11   -1    0    0    0    0 -0.00000000000E+00 -0.00000000000E+00 -0.45593999997E+02  0.45594000000E+02  0.51100000000E-03 0.  1.
         23    2    1    2    0    0 -0.88817841970E-15  0.00000000000E+00  0.44408920985E-15  0.91188000000E+02  0.91188000000E+02 0.  0.
    9900012    2    3    3    0    0  0.57238942508E+01 -0.40166376736E+02  0.26580375671E+01  0.50528856512E+02  0.29999989853E+02 0.  0.
        -12    1    3    3    0    0 -0.57238942508E+01  0.40166376736E+02 -0.26580375671E+01  0.40659143488E+02  0.00000000000E+00 0.  1.
         11    1    4    4    0    0  0.11967600353E+02 -0.29623971216E+02  0.20623383797E+01  0.32016501506E+02  0.51100000000E-03 0. -1.
        -11    1    4    4    0    0 -0.54960956080E+01  0.16520000168E+01 -0.18949608086E+01  0.60437610571E+01  0.51100000000E-03 0.  1.
         12    1    4    4    0    0 -0.74761049465E+00 -0.12194405537E+02  0.24906599960E+01  0.12468593949E+02  0.00000000000E+00 0. -1.
</event>
<event>
 8    1  0.6016610E-012  0.9118800E+02  0.7816164E-02  0.1184000E+00
        -11   -1    0    0    0    0  0.00000000000E+00  0.00000000000E+00  0.45593999997E+02  0.45594000000E+02  0.51100000000E-03 0. -1.
         11   -1    0    0    0    0 -0.00000000000E+00 -0.00000000000E+00 -0.45593999997E+02  0.45594000000E+02  0.51100000000E-03 0.  1.
         23    2    1    2    0    0  0.17763568394E-14 -0.13322676296E-14  0.71054273576E-14  0.91188000000E+02  0.91188000000E+02 0.  0.
    9900012    2    3    3    0    0 -0.85860493117E+01  0.33164764898E+01 -0.39603615609E+02  0.50528860457E+02  0.30000001845E+02 0.  0.
         12    1    3    3    0    0  0.85860493117E+01 -0.33164764898E+01  0.39603615609E+02  0.40659139543E+02  0.00000000000E+00 0. -1.
         11    1    4    4    0    0 -0.57722615167E+01  0.73754758338E+01 -0.35472146848E+02  0.36687734313E+02  0.51100000000E-03 0.  1.
        -11    1    4    4    0    0  0.22310916297E+01 -0.31384262632E+01  0.31224708881E+01  0.49575512077E+01  0.51100000000E-03 0. -1.
         12    1    4    4    0    0 -0.50448794246E+01 -0.92057308083E+00 -0.72539396491E+01  0.88835749357E+01  0.00000000000E+00 0. -1.
</event>
<event>
 8    1  0.6016610E-012  0.9118800E+02  0.7816164E-02  0.1184000E+00
        -11   -1    0    0    0    0  0.00000000000E+00  0.00000000000E+00  0.45593999997E+02  0.45594000000E+02  0.51100000000E-03 0. -1.
         11   -1    0    0    0    0 -0.00000000000E+00 -0.00000000000E+00 -0.45593999997E+02  0.45594000000E+02  0.51100000000E-03 0.  1.
         23    2    1    2    0    0  0.00000000000E+00  0.88817841970E-15  0.71054273576E-14  0.91188000000E+02  0.91188000000E+02 0.  0.
    9900012    2    3    3    0    0 -0.15746574630E+02  0.61109196270E+01  0.36984696527E+02  0.50528859226E+02  0.29999998104E+02 0.  0.
        -12    1    3    3    0    0  0.15746574630E+02 -0.61109196270E+01 -0.36984696527E+02  0.40659140774E+02  0.00000000000E+00 0.  1.
         11    1    4    4    0    0 -0.63960385846E+01  0.20478762029E+01  0.12214204613E+02  0.13938791235E+02  0.51100000000E-03 0. -1.
        -11    1    4    4    0    0 -0.11112995811E+02  0.31672463069E+01 -0.18438829233E+00  0.11556994608E+02  0.51100000000E-03 0.  1.
        -12    1    4    4    0    0  0.17624597652E+01  0.89579711724E+00  0.24954880207E+02  0.25033073384E+02  0.00000000000E+00 0.  1.
</event>
<event>
 8    1  0.6016610E-012  0.9118800E+02  0.7816164E-02  0.1184000E+00
        -11   -1    0    0    0    0  0.00000000000E+00  0.00000000000E+00  0.45593999997E+02  0.45594000000E+02  0.51100000000E-03 0. -1.
         11   -1    0    0    0    0 -0.00000000000E+00 -0.00000000000E+00 -0.45593999997E+02  0.45594000000E+02  0.51100000000E-03 0.  1.
         23    2    1    2    0    0  0.00000000000E+00  0.13322676296E-14 -0.35527136788E-14  0.91188000000E+02  0.91188000000E+02 0.  0.
    9900012    2    3    3    0    0 -0.29285873191E+02 -0.24247530348E+01 -0.28100251186E+02  0.50528856962E+02  0.29999991223E+02 0.  0.
         12    1    3    3    0    0  0.29285873191E+02  0.24247530348E+01  0.28100251186E+02  0.40659143038E+02  0.00000000000E+00 0. -1.
         11    1    4    4    0    0  0.27972844238E+01 -0.74642114061E+01 -0.45666289037E+01  0.91865854302E+01  0.51100000000E-03 0. -1.
        -11    1    4    4    0    0 -0.28606814412E+02  0.74236077591E+01 -0.18913892259E+02  0.35088389869E+02  0.51100000000E-03 0.  1.
        -12    1    4    4    0    0 -0.34763432029E+01 -0.23841493879E+01 -0.46197300231E+01  0.62538816629E+01  0.00000000000E+00 0.  1.
</event>
<event>
 8    1  0.6016610E-012  0.9118800E+02  0.7816164E-02  0.1184000E+00
        -11   -1    0    0    0    0  0.00000000000E+00  0.00000000000E+00  0.45593999997E+02  0.45594000000E+02  0.51100000000E-03 0. -1.
         11   -1    0    0    0    0 -0.00000000000E+00 -0.00000000000E+00 -0.45593999997E+02  0.45594000000E+02  0.51100000000E-03 0.  1.
         23    2    1    2    0    0 -0.88817841970E-15 -0.88817841970E-15  0.00000000000E+00  0.91188000000E+02  0.91188000000E+02 0.  0.
    9900012    2    3    3    0    0  0.68858823108E+01  0.21894602545E+01  0.40011956014E+02  0.50528859140E+02  0.29999997843E+02 0.  0.
        -12    1    3    3    0    0 -0.68858823108E+01 -0.21894602545E+01 -0.40011956014E+02  0.40659140860E+02  0.00000000000E+00 0.  1.
         11    1    4    4    0    0  0.10202433780E+02 -0.39578803213E+01  0.26225296454E+02  0.28416907749E+02  0.51100000000E-03 0. -1.
        -11    1    4    4    0    0 -0.64021553437E+01  0.98847819792E+01  0.67699472517E+01  0.13584133902E+02  0.51100000000E-03 0.  1.
        -12    1    4    4    0    0  0.30856038744E+01 -0.37374414034E+01  0.70167123083E+01  0.85278174893E+01  0.00000000000E+00 0.  1.
</event>
<event>
 8    1  0.6016610E-012  0.9118800E+02  0.7816164E-02  0.1184000E+00
        -11   -1    0    0    0    0  0.00000000000E+00  0.00000000000E+00  0.45593999997E+02  0.45594000000E+02  0.51100000000E-03 0. -1.
         11   -1    0    0    0    0 -0.00000000000E+00 -0.00000000000E+00 -0.45593999997E+02  0.45594000000E+02  0.51100000000E-03 0.  1.
         23    2    1    2    0    0 -0.17763568394E-14  0.00000000000E+00  0.00000000000E+00  0.91188000000E+02  0.91188000000E+02 0.  0.
    9900012    2    3    3    0    0 -0.13258585571E+02  0.22667932964E+02  0.31040948488E+02  0.50528858848E+02  0.29999996954E+02 0.  0.
        -12    1    3    3    0    0  0.13258585571E+02 -0.22667932964E+02 -0.31040948488E+02  0.40659141152E+02  0.00000000000E+00 0.  1.
         11    1    4    4    0    0 -0.12859224058E+02  0.19928459197E+02  0.31297314144E+02  0.39268626182E+02  0.51100000000E-03 0. -1.
        -11    1    4    4    0    0 -0.41334165394E+01 -0.17319539699E+01  0.21335183708E+01  0.49635368179E+01  0.51100000000E-03 0.  1.
         12    1    4    4    0    0  0.37340550265E+01  0.44714277363E+01 -0.23898840265E+01  0.62966958480E+01  0.00000000000E+00 0. -1.
</event>
<event>
 8    1  0.6016610E-012  0.9118800E+02  0.7816164E-02  0.1184000E+00
        -11   -1    0    0    0    0  0.00000000000E+00  0.00000000000E+00  0.45593999997E+02  0.45594000000E+02  0.51100000000E-03 0. -1.
         11   -1    0    0    0    0 -0.00000000000E+00 -0.00000000000E+00 -0.45593999997E+02  0.45594000000E+02  0.51100000000E-03 0.  1.
         23    2    1    2    0    0  0.17763568394E-14  0.00000000000E+00  0.00000000000E+00  0.91188000000E+02  0.91188000000E+02 0.  0.
    9900012    2    3    3    0    0 -0.15331110587E+02  0.82084929907E+01  0.36752458933E+02  0.50528861462E+02  0.30000004900E+02 0.  0.
        -12    1    3    3    0    0  0.15331110587E+02 -0.82084929907E+01 -0.36752458933E+02  0.40659138538E+02  0.00000000000E+00 0.  1.
         11    1    4    4    0    0  0.44810099023E+01 -0.27514692611E+01  0.17505080839E+01  0.55420494091E+01  0.51100000000E-03 0.  1.
        -11    1    4    4    0    0 -0.16680401259E+02  0.67952633898E+01  0.35443412776E+02  0.39757350266E+02  0.51100000000E-03 0. -1.
         12    1    4    4    0    0 -0.31317192296E+01  0.41646988620E+01 -0.44146192697E+00  0.52294617866E+01  0.00000000000E+00 0. -1.
</event>
<event>
 8    1  0.6016610E-012  0.9118800E+02  0.7816164E-02  0.1184000E+00
        -11   -1    0    0    0    0  0.00000000000E+00  0.00000000000E+00  0.45593999997E+02  0.45594000000E+02  0.51100000000E-03 0. -1.
         11   -1    0    0    0    0 -0.00000000000E+00 -0.00000000000E+00 -0.45593999997E+02  0.45594000000E+02  0.51100000000E-03 0.  1.
         23    2    1    2    0    0 -0.66613381478E-15  0.71054273576E-14  0.00000000000E+00  0.91188000000E+02  0.91188000000E+02 0.  0.
    9900012    2    3    3    0    0 -0.90563223650E+00  0.35294956411E+02  0.20164611105E+02  0.50528860083E+02  0.30000000708E+02 0.  0.
        -12    1    3    3    0    0  0.90563223650E+00 -0.35294956411E+02 -0.20164611105E+02  0.40659139917E+02  0.00000000000E+00 0.  1.
         11    1    4    4    0    0  0.92339700468E+01  0.31541994966E+02  0.18603601686E+02  0.37765826421E+02  0.51100000000E-03 0. -1.
        -11    1    4    4    0    0 -0.85121736847E+01 -0.61887098905E-01  0.84547722248E+00  0.85542833041E+01  0.51100000000E-03 0.  1.
        -12    1    4    4    0    0 -0.16274285986E+01  0.38148485433E+01  0.71553219612E+00  0.42087503580E+01  0.00000000000E+00 0.  1.
</event>
<event>
 8    1  0.6016610E-012  0.9118800E+02  0.7816164E-02  0.1184000E+00
        -11   -1    0    0    0    0  0.00000000000E+00  0.00000000000E+00  0.45593999997E+02  0.45594000000E+02  0.51100000000E-03 0. -1.
         11   -1    0    0    0    0 -0.00000000000E+00 -0.00000000000E+00 -0.45593999997E+02  0.45594000000E+02  0.51100000000E-03 0.  1.
         23    2    1    2    0    0 -0.71054273576E-14 -0.16653345369E-15  0.00000000000E+00  0.91188000000E+02  0.91188000000E+02 0.  0.
    9900012    2    3    3    0    0 -0.35183888343E+02  0.28053375772E+00 -0.20376003959E+02  0.50528852992E+02  0.29999979154E+02 0.  0.
         12    1    3    3    0    0  0.35183888343E+02 -0.28053375772E+00  0.20376003959E+02  0.40659147008E+02  0.00000000000E+00 0. -1.
         11    1    4    4    0    0 -0.24312217642E+01 -0.10911603362E+02 -0.80683935729E+01  0.13786692943E+02  0.51100000000E-03 0. -1.
        -11    1    4    4    0    0 -0.28065422571E+02  0.93695692491E+01 -0.10666785664E+02  0.31452139651E+02  0.51100000000E-03 0.  1.
         12    1    4    4    0    0 -0.46872440077E+01  0.18225678709E+01 -0.16408247225E+01  0.52900203971E+01  0.00000000000E+00 0. -1.
</event>
<event>
 8    1  0.6016610E-012  0.9118800E+02  0.7816164E-02  0.1184000E+00
        -11   -1    0    0    0    0  0.00000000000E+00  0.00000000000E+00  0.45593999997E+02  0.45594000000E+02  0.51100000000E-03 0. -1.
         11   -1    0    0    0    0 -0.00000000000E+00 -0.00000000000E+00 -0.45593999997E+02  0.45594000000E+02  0.51100000000E-03 0.  1.
         23    2    1    2    0    0  0.00000000000E+00  0.00000000000E+00 -0.35527136788E-14  0.91188000000E+02  0.91188000000E+02 0.  0.
    9900012    2    3    3    0    0  0.15620537438E+02  0.22610756450E+02  0.29965278730E+02  0.50528862940E+02  0.30000009393E+02 0.  0.
        -12    1    3    3    0    0 -0.15620537438E+02 -0.22610756450E+02 -0.29965278730E+02  0.40659137060E+02  0.00000000000E+00 0.  1.
         11    1    4    4    0    0  0.15446372775E+01  0.13578681843E+02 -0.44520851932E+00  0.13673504152E+02  0.51100000000E-03 0. -1.
        -11    1    4    4    0    0  0.57233949857E+01 -0.21804488057E+01  0.14097823770E+02  0.15370759333E+02  0.51100000000E-03 0.  1.
         12    1    4    4    0    0  0.83525051743E+01  0.11212523413E+02  0.16312663479E+02  0.21484599455E+02  0.00000000000E+00 0. -1.
</event>
<event>
 8    1  0.6016610E-012  0.9118800E+02  0.7816164E-02  0.1184000E+00
        -11   -1    0    0    0    0  0.00000000000E+00  0.00000000000E+00  0.45593999997E+02  0.45594000000E+02  0.51100000000E-03 0. -1.
         11   -1    0    0    0    0 -0.00000000000E+00 -0.00000000000E+00 -0.45593999997E+02  0.45594000000E+02  0.51100000000E-03 0.  1.
         23    2    1    2    0    0 -0.17763568394E-14  0.35527136788E-14  0.00000000000E+00  0.91188000000E+02  0.91188000000E+02 0.  0.
    9900012    2    3    3    0    0 -0.13303633296E+02  0.25572772754E+02 -0.28674246089E+02  0.50528858912E+02  0.29999997150E+02 0.  0.
         12    1    3    3    0    0  0.13303633296E+02 -0.25572772754E+02  0.28674246089E+02  0.40659141088E+02  0.00000000000E+00 0. -1.
         11    1    4    4    0    0  0.76908734756E+01  0.11154483105E+02 -0.87464199973E+01  0.16126744593E+02  0.51100000000E-03 0. -1.
        -11    1    4    4    0    0 -0.21627024940E+02  0.10515521709E+02 -0.16445129077E+02  0.29133257202E+02  0.51100000000E-03 0.  1.
        -12    1    4    4    0    0  0.63251816795E+00  0.39027679400E+01 -0.34826970144E+01  0.52688571171E+01  0.00000000000E+00 0.  1.
</event>
<event>
 8    1  0.6016610E-012  0.9118800E+02  0.7816164E-02  0.1184000E+00
        -11   -1    0    0    0    0  0.00000000000E+00  0.00000000000E+00  0.45593999997E+02  0.45594000000E+02  0.51100000000E-03 0. -1.
         11   -1    0    0    0    0 -0.00000000000E+00 -0.00000000000E+00 -0.45593999997E+02  0.45594000000E+02  0.51100000000E-03 0.  1.
         23    2    1    2    0    0 -0.88817841970E-15  0.35527136788E-14  0.35527136788E-14  0.91188000000E+02  0.91188000000E+02 0.  0.
    9900012    2    3    3    0    0  0.68881042914E+01 -0.28527726044E+02 -0.28140517821E+02  0.50528857397E+02  0.29999992543E+02 0.  0.
         12    1    3    3    0    0 -0.68881042914E+01  0.28527726044E+02  0.28140517821E+02  0.40659142603E+02  0.00000000000E+00 0. -1.
         11    1    4    4    0    0 -0.43107553403E+00 -0.14970446421E+02 -0.25468313132E+02  0.29545474547E+02  0.51100000000E-03 0. -1.
        -11    1    4    4    0    0 -0.16728645779E+01 -0.10783527585E+02  0.82677956632E+00  0.10943788548E+02  0.51100000000E-03 0.  1.
         12    1    4    4    0    0  0.89920444033E+01 -0.27737520386E+01 -0.34989842556E+01  0.10039594302E+02  0.00000000000E+00 0. -1.
</event>
<event>
 8    1  0.6016610E-012  0.9118800E+02  0.7816164E-02  0.1184000E+00
        -11   -1    0    0    0    0  0.00000000000E+00  0.00000000000E+00  0.45593999997E+02  0.45594000000E+02  0.51100000000E-03 0. -1.
         11   -1    0    0    0    0 -0.00000000000E+00 -0.00000000000E+00 -0.45593999997E+02  0.45594000000E+02  0.51100000000E-03 0.  1.
         23    2    1    2    0    0  0.00000000000E+00 -0.35527136788E-14  0.00000000000E+00  0.91188000000E+02  0.91188000000E+02 0.  0.
    9900012    2    3    3    0    0 -0.22650844640E+02  0.29291028661E+02 -0.16797036051E+02  0.50528861507E+02  0.30000005036E+02 0.  0.
         12    1    3    3    0    0  0.22650844640E+02 -0.29291028661E+02  0.16797036051E+02  0.40659138493E+02  0.00000000000E+00 0. -1.
         11    1    4    4    0    0 -0.15586198740E+02  0.72589698661E+01  0.36153617156E+01  0.17569663494E+02  0.51100000000E-03 0. -1.
        -11    1    4    4    0    0  0.65950643851E-01  0.63118637509E+01 -0.12430378788E+02  0.13941244226E+02  0.51100000000E-03 0.  1.
        -12    1    4    4    0    0 -0.71305965432E+01  0.15720195044E+02 -0.79820189789E+01  0.19017953788E+02  0.00000000000E+00 0.  1.
</event>
<event>
 8    1  0.6016610E-012  0.9118800E+02  0.7816164E-02  0.1184000E+00
        -11   -1    0    0    0    0  0.00000000000E+00  0.00000000000E+00  0.45593999997E+02  0.45594000000E+02  0.51100000000E-03 0.  1.
         11   -1    0    0    0    0 -0.00000000000E+00 -0.00000000000E+00 -0.45593999997E+02  0.45594000000E+02  0.51100000000E-03 0. -1.
         23    2    1    2    0    0 -0.35527136788E-14  0.00000000000E+00  0.00000000000E+00  0.91188000000E+02  0.91188000000E+02 0.  0.
    9900012    2    3    3    0    0  0.29860811147E+02 -0.23371599901E+02  0.14671881852E+02  0.50528882432E+02  0.30000068641E+02 0.  0.
        -12    1    3    3    0    0 -0.29860811147E+02  0.23371599901E+02 -0.14671881852E+02  0.40659117568E+02  0.00000000000E+00 0.  1.
         11    1    4    4    0    0  0.11278228498E+02 -0.90219627596E+01 -0.52694233091E+01  0.15374038909E+02  0.51100000000E-03 0. -1.
        -11    1    4    4    0    0  0.18222714325E+02 -0.17715512260E+02  0.18684941248E+02  0.31544155112E+02  0.51100000000E-03 0.  1.
        -12    1    4    4    0    0  0.35986832430E+00  0.33658751188E+01  0.12563639128E+01  0.36106884119E+01  0.00000000000E+00 0.  1.
</event>
<event>
 8    1  0.6016610E-012  0.9118800E+02  0.7816164E-02  0.1184000E+00
        -11   -1    0    0    0    0  0.00000000000E+00  0.00000000000E+00  0.45593999997E+02  0.45594000000E+02  0.51100000000E-03 0. -1.
         11   -1    0    0    0    0 -0.00000000000E+00 -0.00000000000E+00 -0.45593999997E+02  0.45594000000E+02  0.51100000000E-03 0.  1.
         23    2    1    2    0    0 -0.17763568394E-14 -0.22204460493E-15 -0.71054273576E-14  0.91188000000E+02  0.91188000000E+02 0.  0.
    9900012    2    3    3    0    0 -0.15791307399E+02 -0.14559951057E+01 -0.37439043685E+02  0.50528839862E+02  0.29999939244E+02 0.  0.
         12    1    3    3    0    0  0.15791307399E+02  0.14559951057E+01  0.37439043685E+02  0.40659160138E+02  0.00000000000E+00 0. -1.
         11    1    4    4    0    0  0.39707711486E+01 -0.25934734785E+01  0.18743823253E+01  0.50996507293E+01  0.51100000000E-03 0. -1.
        -11    1    4    4    0    0 -0.38242191620E+01  0.50690562648E+01 -0.10996537959E+02  0.12698182191E+02  0.51100000000E-03 0.  1.
         12    1    4    4    0    0 -0.15937859385E+02 -0.39315778920E+01 -0.28316888051E+02  0.32731006941E+02  0.00000000000E+00 0. -1.
</event>
<event>
 8    1  0.6016610E-012  0.9118800E+02  0.7816164E-02  0.1184000E+00
        -11   -1    0    0    0    0  0.00000000000E+00  0.00000000000E+00  0.45593999997E+02  0.45594000000E+02  0.51100000000E-03 0. -1.
         11   -1    0    0    0    0 -0.00000000000E+00 -0.00000000000E+00 -0.45593999997E+02  0.45594000000E+02  0.51100000000E-03 0.  1.
         23    2    1    2    0    0  0.00000000000E+00  0.00000000000E+00  0.00000000000E+00  0.91188000000E+02  0.91188000000E+02 0.  0.
    9900012    2    3    3    0    0  0.30851582273E+02  0.11575404311E+02  0.23819210355E+02  0.50528869467E+02  0.30000029232E+02 0.  0.
        -12    1    3    3    0    0 -0.30851582273E+02 -0.11575404311E+02 -0.23819210355E+02  0.40659130533E+02  0.00000000000E+00 0.  1.
         11    1    4    4    0    0  0.21216821558E+02  0.13793833533E+02  0.13997506304E+02  0.28919777723E+02  0.51100000000E-03 0. -1.
        -11    1    4    4    0    0  0.30912001774E+01 -0.78878710292E+01  0.97957159853E+01  0.12951064815E+02  0.51100000000E-03 0.  1.
        -12    1    4    4    0    0  0.65435605379E+01  0.56694418081E+01  0.25988065390E-01  0.86580269293E+01  0.00000000000E+00 0.  1.
</event>
<event>
 8    1  0.6016610E-012  0.9118800E+02  0.7816164E-02  0.1184000E+00
        -11   -1    0    0    0    0  0.00000000000E+00  0.00000000000E+00  0.45593999997E+02  0.45594000000E+02  0.51100000000E-03 0. -1.
         11   -1    0    0    0    0 -0.00000000000E+00 -0.00000000000E+00 -0.45593999997E+02  0.45594000000E+02  0.51100000000E-03 0.  1.
         23    2    1    2    0    0  0.00000000000E+00  0.00000000000E+00  0.00000000000E+00  0.91188000000E+02  0.91188000000E+02 0.  0.
    9900012    2    3    3    0    0 -0.52035212093E+01 -0.62438390633E+01 -0.39838466776E+02  0.50528860876E+02  0.30000003118E+02 0.  0.
         12    1    3    3    0    0  0.52035212093E+01  0.62438390633E+01  0.39838466776E+02  0.40659139124E+02  0.00000000000E+00 0. -1.
         11    1    4    4    0    0  0.60701735558E+01 -0.66660751500E+01 -0.32986630567E+02  0.34196510952E+02  0.51100000000E-03 0. -1.
        -11    1    4    4    0    0  0.14399035337E+00  0.11868384124E+01 -0.44919054478E+01  0.46482828499E+01  0.51100000000E-03 0.  1.
         12    1    4    4    0    0 -0.11417685119E+02 -0.76460232563E+00 -0.23599307620E+01  0.11684067074E+02  0.00000000000E+00 0. -1.
</event>
<event>
 8    1  0.6016610E-012  0.9118800E+02  0.7816164E-02  0.1184000E+00
        -11   -1    0    0    0    0  0.00000000000E+00  0.00000000000E+00  0.45593999997E+02  0.45594000000E+02  0.51100000000E-03 0. -1.
         11   -1    0    0    0    0 -0.00000000000E+00 -0.00000000000E+00 -0.45593999997E+02  0.45594000000E+02  0.51100000000E-03 0.  1.
         23    2    1    2    0    0  0.00000000000E+00  0.00000000000E+00  0.00000000000E+00  0.91188000000E+02  0.91188000000E+02 0.  0.
    9900012    2    3    3    0    0 -0.18386787016E+02 -0.21321186845E+02 -0.29334240234E+02  0.50528873161E+02  0.30000040459E+02 0.  0.
         12    1    3    3    0    0  0.18386787016E+02  0.21321186845E+02  0.29334240234E+02  0.40659126839E+02  0.00000000000E+00 0. -1.
         11    1    4    4    0    0 -0.16612461686E+02 -0.92237771446E+01 -0.28113237395E+02  0.33932374882E+02  0.51100000000E-03 0. -1.
        -11    1    4    4    0    0 -0.10196900679E+01 -0.16635664084E+01 -0.50835026671E+01  0.54451097930E+01  0.51100000000E-03 0.  1.
         12    1    4    4    0    0 -0.75463526215E+00 -0.10433843292E+02  0.38624998283E+01  0.11151388485E+02  0.00000000000E+00 0. -1.
</event>
<event>
 8    1  0.6016610E-012  0.9118800E+02  0.7816164E-02  0.1184000E+00
        -11   -1    0    0    0    0  0.00000000000E+00  0.00000000000E+00  0.45593999997E+02  0.45594000000E+02  0.51100000000E-03 0.  1.
         11   -1    0    0    0    0 -0.00000000000E+00 -0.00000000000E+00 -0.45593999997E+02  0.45594000000E+02  0.51100000000E-03 0. -1.
         23    2    1    2    0    0 -0.71054273576E-14  0.00000000000E+00 -0.35527136788E-14  0.91188000000E+02  0.91188000000E+02 0.  0.
    9900012    2    3    3    0    0 -0.37197250440E+02 -0.77355721720E+01 -0.14480706024E+02  0.50528863707E+02  0.30000011725E+02 0.  0.
         12    1    3    3    0    0  0.37197250440E+02  0.77355721720E+01  0.14480706024E+02  0.40659136293E+02  0.00000000000E+00 0. -1.
         11    1    4    4    0    0 -0.63695411436E+01  0.39942840769E+01  0.10038144686E+01  0.75850513127E+01  0.51100000000E-03 0. -1.
        -11    1    4    4    0    0 -0.18090079597E+02 -0.12987780514E+02  0.73561917069E+00  0.22281709053E+02  0.51100000000E-03 0.  1.
        -12    1    4    4    0    0 -0.12737629699E+02  0.12579242649E+01 -0.16220139663E+02  0.20662103342E+02  0.00000000000E+00 0.  1.
</event>
<event>
 8    1  0.6016610E-012  0.9118800E+02  0.7816164E-02  0.1184000E+00
        -11   -1    0    0    0    0  0.00000000000E+00  0.00000000000E+00  0.45593999997E+02  0.45594000000E+02  0.51100000000E-03 0. -1.
         11   -1    0    0    0    0 -0.00000000000E+00 -0.00000000000E+00 -0.45593999997E+02  0.45594000000E+02  0.51100000000E-03 0.  1.
         23    2    1    2    0    0  0.00000000000E+00  0.00000000000E+00  0.00000000000E+00  0.91188000000E+02  0.91188000000E+02 0.  0.
    9900012    2    3    3    0    0  0.11957693763E+02 -0.14887745843E+02 -0.35896157847E+02  0.50528861242E+02  0.30000004230E+02 0.  0.
         12    1    3    3    0    0 -0.11957693763E+02  0.14887745843E+02  0.35896157847E+02  0.40659138758E+02  0.00000000000E+00 0. -1.
         11    1    4    4    0    0  0.52777413783E+01  0.37311154770E+01 -0.90989489847E+01  0.11160943045E+02  0.51100000000E-03 0. -1.
        -11    1    4    4    0    0 -0.39604480682E+01 -0.17523317240E+02 -0.14641558054E+02  0.23176000917E+02  0.51100000000E-03 0.  1.
        -12    1    4    4    0    0  0.10640400453E+02 -0.10955440797E+01 -0.12155650808E+02  0.16191917280E+02  0.00000000000E+00 0.  1.
</event>
<event>
 8    1  0.6016610E-012  0.9118800E+02  0.7816164E-02  0.1184000E+00
        -11   -1    0    0    0    0  0.00000000000E+00  0.00000000000E+00  0.45593999997E+02  0.45594000000E+02  0.51100000000E-03 0. -1.
         11   -1    0    0    0    0 -0.00000000000E+00 -0.00000000000E+00 -0.45593999997E+02  0.45594000000E+02  0.51100000000E-03 0.  1.
         23    2    1    2    0    0  0.88817841970E-15  0.13322676296E-14  0.00000000000E+00  0.91188000000E+02  0.91188000000E+02 0.  0.
    9900012    2    3    3    0    0  0.56691906877E+01  0.20074690406E+01 -0.40211888876E+02  0.50528860043E+02  0.30000000588E+02 0.  0.
         12    1    3    3    0    0 -0.56691906877E+01 -0.20074690406E+01  0.40211888876E+02  0.40659139957E+02  0.00000000000E+00 0. -1.
         11    1    4    4    0    0 -0.85935205910E+01  0.10629594540E+00 -0.19685364663E+02  0.21479606075E+02  0.51100000000E-03 0. -1.
        -11    1    4    4    0    0  0.11608638206E+02  0.70284307359E+01 -0.93816529513E+01  0.16497718993E+02  0.51100000000E-03 0.  1.
        -12    1    4    4    0    0  0.26540730731E+01 -0.51272576407E+01 -0.11144871263E+02  0.12551534976E+02  0.00000000000E+00 0.  1.
</event>
<event>
 8    1  0.7188236E-012  0.9118800E+02  0.7816164E-02  0.1184000E+00
        -11   -1    0    0    0    0  0.00000000000E+00  0.00000000000E+00  0.45593999997E+02  0.45594000000E+02  0.51100000000E-03 0. -1.
         11   -1    0    0    0    0 -0.00000000000E+00 -0.00000000000E+00 -0.45593999997E+02  0.45594000000E+02  0.51100000000E-03 0.  1.
         23    2    1    2    0    0  0.88817841970E-15 -0.35527136788E-14  0.00000000000E+00  0.91188000000E+02  0.91188000000E+02 0.  0.
    9900012    2    3    3    0    0  0.18697404389E+01 -0.12552958997E+02  0.38627624088E+02  0.50528855253E+02  0.29999986026E+02 0.  0.
        -12    1    3    3    0    0 -0.18697404389E+01  0.12552958997E+02 -0.38627624088E+02  0.40659144747E+02  0.00000000000E+00 0.  1.
         11    1    4    4    0    0 -0.20950089962E+01 -0.13765081047E+02  0.33054949958E+02  0.35867760397E+02  0.51100000000E-03 0. -1.
        -11    1    4    4    0    0 -0.23252368026E+01  0.29818093875E+01 -0.23032609821E+01  0.44275190371E+01  0.51100000000E-03 0.  1.
        -12    1    4    4    0    0  0.62899862376E+01 -0.17696873374E+01  0.78759351124E+01  0.10233575819E+02  0.00000000000E+00 0.  1.
</event>
<event>
 8    1  0.6016610E-012  0.9118800E+02  0.7816164E-02  0.1184000E+00
        -11   -1    0    0    0    0  0.00000000000E+00  0.00000000000E+00  0.45593999997E+02  0.45594000000E+02  0.51100000000E-03 0.  1.
         11   -1    0    0    0    0 -0.00000000000E+00 -0.00000000000E+00 -0.45593999997E+02  0.45594000000E+02  0.51100000000E-03 0. -1.
         23    2    1    2    0    0  0.17763568394E-14 -0.71054273576E-14  0.00000000000E+00  0.91188000000E+02  0.91188000000E+02 0.  0.
    9900012    2    3    3    0    0 -0.11512011779E+02 -0.31490307375E+02  0.23000064132E+02  0.50528821162E+02  0.29999882403E+02 0.  0.
        -12    1    3    3    0    0  0.11512011779E+02  0.31490307375E+02 -0.23000064132E+02  0.40659178838E+02  0.00000000000E+00 0.  1.
         11    1    4    4    0    0 -0.21457381384E+02 -0.22502905961E+02  0.13468260423E+02  0.33885011902E+02  0.51100000000E-03 0. -1.
        -11    1    4    4    0    0  0.58992201653E+01 -0.69225407177E+01  0.65943249198E+01  0.11234210696E+02  0.51100000000E-03 0.  1.
         12    1    4    4    0    0  0.40461494399E+01 -0.20648606962E+01  0.29374787887E+01  0.54095985636E+01  0.00000000000E+00 0. -1.
</event>
<event>
 8    1  0.6016610E-012  0.9118800E+02  0.7816164E-02  0.1184000E+00
        -11   -1    0    0    0    0  0.00000000000E+00  0.00000000000E+00  0.45593999997E+02  0.45594000000E+02  0.51100000000E-03 0. -1.
         11   -1    0    0    0    0 -0.00000000000E+00 -0.00000000000E+00 -0.45593999997E+02  0.45594000000E+02  0.51100000000E-03 0.  1.
         23    2    1    2    0    0  0.00000000000E+00 -0.71054273576E-14 -0.17763568394E-14  0.91188000000E+02  0.91188000000E+02 0.  0.
    9900012    2    3    3    0    0 -0.49493052795E+01 -0.37203621107E+02 -0.15638435533E+02  0.50528859427E+02  0.29999998714E+02 0.  0.
         12    1    3    3    0    0  0.49493052795E+01  0.37203621107E+02  0.15638435533E+02  0.40659140573E+02  0.00000000000E+00 0. -1.
         11    1    4    4    0    0 -0.73700089985E+01 -0.10718706980E+02  0.25000468435E+01  0.13246053995E+02  0.51100000000E-03 0. -1.
        -11    1    4    4    0    0 -0.48945214176E+01 -0.99553170984E+01 -0.15431693626E+02  0.19005311017E+02  0.51100000000E-03 0.  1.
        -12    1    4    4    0    0  0.73152251366E+01 -0.16529597029E+02 -0.27067887506E+01  0.18277494415E+02  0.00000000000E+00 0.  1.
</event>
<event>
 8    1  0.6016610E-012  0.9118800E+02  0.7816164E-02  0.1184000E+00
        -11   -1    0    0    0    0  0.00000000000E+00  0.00000000000E+00  0.45593999997E+02  0.45594000000E+02  0.51100000000E-03 0.  1.
         11   -1    0    0    0    0 -0.00000000000E+00 -0.00000000000E+00 -0.45593999997E+02  0.45594000000E+02  0.51100000000E-03 0. -1.
         23    2    1    2    0    0  0.00000000000E+00  0.00000000000E+00  0.00000000000E+00  0.91188000000E+02  0.91188000000E+02 0.  0.
    9900012    2    3    3    0    0  0.26840073013E+02 -0.29142613783E+02  0.91369314874E+01  0.50528868499E+02  0.30000026288E+02 0.  0.
        -12    1    3    3    0    0 -0.26840073013E+02  0.29142613783E+02 -0.91369314874E+01  0.40659131501E+02  0.00000000000E+00 0.  1.
         11    1    4    4    0    0  0.13408957309E+02 -0.27472223849E+02  0.39597657352E+01  0.30825362354E+02  0.51100000000E-03 0.  1.
        -11    1    4    4    0    0  0.95823171319E+01  0.29044914007E+01 -0.21557775354E+01  0.10242277528E+02  0.51100000000E-03 0. -1.
        -12    1    4    4    0    0  0.38487985724E+01 -0.45748813343E+01  0.73329432876E+01  0.94612286164E+01  0.00000000000E+00 0.  1.
</event>
<event>
 8    1  0.6016610E-012  0.9118800E+02  0.7816164E-02  0.1184000E+00
        -11   -1    0    0    0    0  0.00000000000E+00  0.00000000000E+00  0.45593999997E+02  0.45594000000E+02  0.51100000000E-03 0. -1.
         11   -1    0    0    0    0 -0.00000000000E+00 -0.00000000000E+00 -0.45593999997E+02  0.45594000000E+02  0.51100000000E-03 0.  1.
         23    2    1    2    0    0  0.00000000000E+00  0.17763568394E-14  0.00000000000E+00  0.91188000000E+02  0.91188000000E+02 0.  0.
    9900012    2    3    3    0    0 -0.24675680186E+02 -0.14099207166E+02 -0.29077299714E+02  0.50528853501E+02  0.29999980703E+02 0.  0.
         12    1    3    3    0    0  0.24675680186E+02  0.14099207166E+02  0.29077299714E+02  0.40659146499E+02  0.00000000000E+00 0. -1.
         11    1    4    4    0    0 -0.56980563078E+01 -0.71578076536E+00 -0.10982887312E+02  0.12393708152E+02  0.51100000000E-03 0. -1.
        -11    1    4    4    0    0 -0.10050854177E+02 -0.18490961379E+02 -0.52693192950E+01  0.21695645842E+02  0.51100000000E-03 0.  1.
        -12    1    4    4    0    0 -0.89267697018E+01  0.51075349784E+01 -0.12825093107E+02  0.16439499508E+02  0.00000000000E+00 0.  1.
</event>
<event>
 8    1  0.6016610E-012  0.9118800E+02  0.7816164E-02  0.1184000E+00
        -11   -1    0    0    0    0  0.00000000000E+00  0.00000000000E+00  0.45593999997E+02  0.45594000000E+02  0.51100000000E-03 0. -1.
         11   -1    0    0    0    0 -0.00000000000E+00 -0.00000000000E+00 -0.45593999997E+02  0.45594000000E+02  0.51100000000E-03 0.  1.
         23    2    1    2    0    0  0.00000000000E+00  0.00000000000E+00  0.17763568394E-14  0.91188000000E+02  0.91188000000E+02 0.  0.
    9900012    2    3    3    0    0  0.24575770447E+02 -0.30755670797E+02  0.10162955076E+02  0.50528862834E+02  0.30000009071E+02 0.  0.
        -12    1    3    3    0    0 -0.24575770447E+02  0.30755670797E+02 -0.10162955076E+02  0.40659137166E+02  0.00000000000E+00 0.  1.
         11    1    4    4    0    0  0.19087706738E+02 -0.28321299481E+02  0.50931775722E+01  0.34530812485E+02  0.51100000000E-03 0. -1.
        -11    1    4    4    0    0  0.18342454418E+01 -0.50314563959E+00  0.96460783642E+01  0.98318075624E+01  0.51100000000E-03 0.  1.
         12    1    4    4    0    0  0.36538182667E+01 -0.19312256758E+01 -0.45763008607E+01  0.61662427867E+01  0.00000000000E+00 0. -1.
</event>
<event>
 8    1  0.6016610E-012  0.9118800E+02  0.7816164E-02  0.1184000E+00
        -11   -1    0    0    0    0  0.00000000000E+00  0.00000000000E+00  0.45593999997E+02  0.45594000000E+02  0.51100000000E-03 0. -1.
         11   -1    0    0    0    0 -0.00000000000E+00 -0.00000000000E+00 -0.45593999997E+02  0.45594000000E+02  0.51100000000E-03 0.  1.
         23    2    1    2    0    0 -0.41633363423E-16  0.00000000000E+00  0.00000000000E+00  0.91188000000E+02  0.91188000000E+02 0.  0.
    9900012    2    3    3    0    0 -0.72885997929E-01  0.21864429402E+02  0.34279850203E+02  0.50528847090E+02  0.29999961214E+02 0.  0.
        -12    1    3    3    0    0  0.72885997929E-01 -0.21864429402E+02 -0.34279850203E+02  0.40659152910E+02  0.00000000000E+00 0.  1.
         11    1    4    4    0    0  0.10071754367E+01 -0.56320510317E+01  0.32495898071E+00  0.57306194939E+01  0.51100000000E-03 0. -1.
        -11    1    4    4    0    0 -0.65864060263E+00  0.18628210012E+02  0.15213407312E+02  0.24060169949E+02  0.51100000000E-03 0.  1.
         12    1    4    4    0    0 -0.42142083195E+00  0.88682704218E+01  0.18741483910E+02  0.20738057646E+02  0.00000000000E+00 0. -1.
</event>
<event>
 8    1  0.6016610E-012  0.9118800E+02  0.7816164E-02  0.1184000E+00
        -11   -1    0    0    0    0  0.00000000000E+00  0.00000000000E+00  0.45593999997E+02  0.45594000000E+02  0.51100000000E-03 0. -1.
         11   -1    0    0    0    0 -0.00000000000E+00 -0.00000000000E+00 -0.45593999997E+02  0.45594000000E+02  0.51100000000E-03 0.  1.
         23    2    1    2    0    0  0.00000000000E+00 -0.26645352591E-14 -0.71054273576E-14  0.91188000000E+02  0.91188000000E+02 0.  0.
    9900012    2    3    3    0    0 -0.17448065642E+02  0.58229745471E+01  0.36260488280E+02  0.50528867723E+02  0.30000023931E+02 0.  0.
        -12    1    3    3    0    0  0.17448065642E+02 -0.58229745471E+01 -0.36260488280E+02  0.40659132277E+02  0.00000000000E+00 0.  1.
         11    1    4    4    0    0  0.16999284280E+01 -0.93467037492E+01  0.84474330982E+01  0.12712582501E+02  0.51100000000E-03 0. -1.
        -11    1    4    4    0    0 -0.13164583884E+02  0.93441589239E+01  0.12664888104E+02  0.20518746691E+02  0.51100000000E-03 0.  1.
         12    1    4    4    0    0 -0.59834101864E+01  0.58255193724E+01  0.15148167077E+02  0.17297538531E+02  0.00000000000E+00 0. -1.
</event>
<event>
 8    1  0.6016610E-012  0.9118800E+02  0.7816164E-02  0.1184000E+00
        -11   -1    0    0    0    0  0.00000000000E+00  0.00000000000E+00  0.45593999997E+02  0.45594000000E+02  0.51100000000E-03 0. -1.
         11   -1    0    0    0    0 -0.00000000000E+00 -0.00000000000E+00 -0.45593999997E+02  0.45594000000E+02  0.51100000000E-03 0.  1.
         23    2    1    2    0    0  0.35527136788E-14  0.00000000000E+00  0.00000000000E+00  0.91188000000E+02  0.91188000000E+02 0.  0.
    9900012    2    3    3    0    0 -0.25302578504E+02 -0.24397951662E+02 -0.20437337656E+02  0.50528864560E+02  0.30000014317E+02 0.  0.
         12    1    3    3    0    0  0.25302578504E+02  0.24397951662E+02  0.20437337656E+02  0.40659135440E+02  0.00000000000E+00 0. -1.
         11    1    4    4    0    0 -0.64856601173E+01 -0.67198890643E+00  0.46313090462E+01  0.79977734395E+01  0.51100000000E-03 0. -1.
        -11    1    4    4    0    0 -0.12277487202E+02 -0.14628581982E+02 -0.24829485458E+02  0.31324677990E+02  0.51100000000E-03 0.  1.
         12    1    4    4    0    0 -0.65394311849E+01 -0.90973807737E+01 -0.23916124423E+00  0.11206413131E+02  0.00000000000E+00 0. -1.
</event>
<event>
 8    1  0.6016610E-012  0.9118800E+02  0.7816164E-02  0.1184000E+00
        -11   -1    0    0    0    0  0.00000000000E+00  0.00000000000E+00  0.45593999997E+02  0.45594000000E+02  0.51100000000E-03 0. -1.
         11   -1    0    0    0    0 -0.00000000000E+00 -0.00000000000E+00 -0.45593999997E+02  0.45594000000E+02  0.51100000000E-03 0.  1.
         23    2    1    2    0    0  0.00000000000E+00 -0.71054273576E-14  0.00000000000E+00  0.91188000000E+02  0.91188000000E+02 0.  0.
    9900012    2    3    3    0    0  0.12446512128E+02  0.38502072001E+02  0.39799815704E+01  0.50528862456E+02  0.30000007922E+02 0.  0.
        -12    1    3    3    0    0 -0.12446512128E+02 -0.38502072001E+02 -0.39799815704E+01  0.40659137544E+02  0.00000000000E+00 0.  1.
         11    1    4    4    0    0  0.72165479293E+01  0.37963529922E+02 -0.13648812465E+01  0.38667441980E+02  0.51100000000E-03 0.  1.
        -11    1    4    4    0    0  0.13914748273E+01  0.85118426946E+00  0.73435084815E+01  0.75224885467E+01  0.51100000000E-03 0. -1.
        -12    1    4    4    0    0  0.38384893718E+01 -0.31264219122E+00 -0.19986456646E+01  0.43389319296E+01  0.00000000000E+00 0.  1.
</event>
<event>
 8    1  0.6016610E-012  0.9118800E+02  0.7816164E-02  0.1184000E+00
        -11   -1    0    0    0    0  0.00000000000E+00  0.00000000000E+00  0.45593999997E+02  0.45594000000E+02  0.51100000000E-03 0. -1.
         11   -1    0    0    0    0 -0.00000000000E+00 -0.00000000000E+00 -0.45593999997E+02  0.45594000000E+02  0.51100000000E-03 0.  1.
         23    2    1    2    0    0  0.00000000000E+00  0.00000000000E+00  0.00000000000E+00  0.91188000000E+02  0.91188000000E+02 0.  0.
    9900012    2    3    3    0    0  0.49522766796E+01  0.35939810027E+02 -0.18356767321E+02  0.50528857172E+02  0.29999991859E+02 0.  0.
         12    1    3    3    0    0 -0.49522766796E+01 -0.35939810027E+02  0.18356767321E+02  0.40659142828E+02  0.00000000000E+00 0. -1.
         11    1    4    4    0    0 -0.34575762676E+01  0.19912315369E+02  0.30016210755E+01  0.20431956988E+02  0.51100000000E-03 0.  1.
        -11    1    4    4    0    0  0.31147434278E+01  0.14412784268E+01 -0.10788958059E+02  0.11321683902E+02  0.51100000000E-03 0. -1.
         12    1    4    4    0    0  0.52951095194E+01  0.14586216231E+02 -0.10569430338E+02  0.18775216281E+02  0.00000000000E+00 0. -1.
</event>
<event>
 8    1  0.6016610E-012  0.9118800E+02  0.7816164E-02  0.1184000E+00
        -11   -1    0    0    0    0  0.00000000000E+00  0.00000000000E+00  0.45593999997E+02  0.45594000000E+02  0.51100000000E-03 0. -1.
         11   -1    0    0    0    0 -0.00000000000E+00 -0.00000000000E+00 -0.45593999997E+02  0.45594000000E+02  0.51100000000E-03 0.  1.
         23    2    1    2    0    0 -0.17763568394E-14 -0.35527136788E-14 -0.35527136788E-14  0.91188000000E+02  0.91188000000E+02 0.  0.
    9900012    2    3    3    0    0 -0.14933088875E+02  0.26024548216E+02 -0.27438859688E+02  0.50528864813E+02  0.30000015086E+02 0.  0.
         12    1    3    3    0    0  0.14933088875E+02 -0.26024548216E+02  0.27438859688E+02  0.40659135187E+02  0.00000000000E+00 0. -1.
         11    1    4    4    0    0 -0.11439049085E+02  0.16442688416E+02 -0.17958300984E+01  0.20110665138E+02  0.51100000000E-03 0. -1.
        -11    1    4    4    0    0 -0.54745954762E+01  0.22423463613E+01 -0.20252599147E+02  0.21098983039E+02  0.51100000000E-03 0.  1.
         12    1    4    4    0    0  0.19805556856E+01  0.73395134385E+01 -0.53904304423E+01  0.93192166350E+01  0.00000000000E+00 0. -1.
</event>
<event>
 8    1  0.6016610E-012  0.9118800E+02  0.7816164E-02  0.1184000E+00
        -11   -1    0    0    0    0  0.00000000000E+00  0.00000000000E+00  0.45593999997E+02  0.45594000000E+02  0.51100000000E-03 0. -1.
         11   -1    0    0    0    0 -0.00000000000E+00 -0.00000000000E+00 -0.45593999997E+02  0.45594000000E+02  0.51100000000E-03 0.  1.
         23    2    1    2    0    0  0.00000000000E+00  0.00000000000E+00  0.71054273576E-14  0.91188000000E+02  0.91188000000E+02 0.  0.
    9900012    2    3    3    0    0 -0.20760446008E+02 -0.92939158318E+01  0.33701511546E+02  0.50528869778E+02  0.30000030176E+02 0.  0.
        -12    1    3    3    0    0  0.20760446008E+02  0.92939158318E+01 -0.33701511546E+02  0.40659130222E+02  0.00000000000E+00 0.  1.
         11    1    4    4    0    0  0.90815522770E+00  0.24176930784E+01  0.21052278732E+02  0.21210101975E+02  0.51100000000E-03 0. -1.
        -11    1    4    4    0    0 -0.11601720573E+02 -0.10583950352E+02  0.45524815349E+01  0.16350688477E+02  0.51100000000E-03 0.  1.
        -12    1    4    4    0    0 -0.10066880663E+02 -0.11276585583E+01  0.80967512797E+01  0.12968079325E+02  0.00000000000E+00 0.  1.
</event>
<event>
 8    1  0.6016610E-012  0.9118800E+02  0.7816164E-02  0.1184000E+00
        -11   -1    0    0    0    0  0.00000000000E+00  0.00000000000E+00  0.45593999997E+02  0.45594000000E+02  0.51100000000E-03 0. -1.
         11   -1    0    0    0    0 -0.00000000000E+00 -0.00000000000E+00 -0.45593999997E+02  0.45594000000E+02  0.51100000000E-03 0.  1.
         23    2    1    2    0    0  0.35527136788E-14  0.00000000000E+00  0.00000000000E+00  0.91188000000E+02  0.91188000000E+02 0.  0.
    9900012    2    3    3    0    0 -0.19728491407E+02 -0.11287903757E+02 -0.33712542547E+02  0.50528859952E+02  0.30000000310E+02 0.  0.
         12    1    3    3    0    0  0.19728491407E+02  0.11287903757E+02  0.33712542547E+02  0.40659140048E+02  0.00000000000E+00 0. -1.
         11    1    4    4    0    0 -0.16271082653E+01 -0.49932306906E+01 -0.10810175788E+02  0.12018308320E+02  0.51100000000E-03 0. -1.
        -11    1    4    4    0    0 -0.42324816411E+01  0.90238310445E+01 -0.10164835218E+02  0.14236126679E+02  0.51100000000E-03 0.  1.
        -12    1    4    4    0    0 -0.13868901501E+02 -0.15318504111E+02 -0.12737531541E+02  0.24274424953E+02  0.00000000000E+00 0.  1.
</event>
<event>
 8    1  0.6016610E-012  0.9118800E+02  0.7816164E-02  0.1184000E+00
        -11   -1    0    0    0    0  0.00000000000E+00  0.00000000000E+00  0.45593999997E+02  0.45594000000E+02  0.51100000000E-03 0. -1.
         11   -1    0    0    0    0 -0.00000000000E+00 -0.00000000000E+00 -0.45593999997E+02  0.45594000000E+02  0.51100000000E-03 0.  1.
         23    2    1    2    0    0  0.00000000000E+00  0.17763568394E-14  0.00000000000E+00  0.91188000000E+02  0.91188000000E+02 0.  0.
    9900012    2    3    3    0    0 -0.13348375276E+02  0.89432466816E+01  0.37349857953E+02  0.50528773829E+02  0.29999738530E+02 0.  0.
        -12    1    3    3    0    0  0.13348375276E+02 -0.89432466816E+01 -0.37349857953E+02  0.40659226171E+02  0.00000000000E+00 0.  1.
         11    1    4    4    0    0 -0.36357933864E+01 -0.56731838016E+01 -0.14322351568E+01  0.68887811549E+01  0.51100000000E-03 0. -1.
        -11    1    4    4    0    0 -0.63471256224E+01  0.50716377548E+01  0.26542106455E+02  0.27757718359E+02  0.51100000000E-03 0.  1.
        -12    1    4    4    0    0 -0.33654562675E+01  0.95447927284E+01  0.12239986655E+02  0.15882274315E+02  0.00000000000E+00 0.  1.
</event>
<event>
 8    1  0.6016610E-012  0.9118800E+02  0.7816164E-02  0.1184000E+00
        -11   -1    0    0    0    0  0.00000000000E+00  0.00000000000E+00  0.45593999997E+02  0.45594000000E+02  0.51100000000E-03 0.  1.
         11   -1    0    0    0    0 -0.00000000000E+00 -0.00000000000E+00 -0.45593999997E+02  0.45594000000E+02  0.51100000000E-03 0. -1.
         23    2    1    2    0    0  0.00000000000E+00 -0.35527136788E-14 -0.35527136788E-14  0.91188000000E+02  0.91188000000E+02 0.  0.
    9900012    2    3    3    0    0 -0.71581406139E+01 -0.26594295609E+02  0.29911028738E+02  0.50528866018E+02  0.30000018748E+02 0.  0.
        -12    1    3    3    0    0  0.71581406139E+01  0.26594295609E+02 -0.29911028738E+02  0.40659133982E+02  0.00000000000E+00 0.  1.
         11    1    4    4    0    0  0.28274780664E+01  0.28319231077E+01  0.11139762425E+02  0.11836753265E+02  0.51100000000E-03 0.  1.
        -11    1    4    4    0    0 -0.12357586934E+02 -0.24085923599E+02  0.11626515838E+02  0.29462137418E+02  0.51100000000E-03 0. -1.
         12    1    4    4    0    0  0.23719682534E+01 -0.53402951181E+01  0.71447504748E+01  0.92299753353E+01  0.00000000000E+00 0. -1.
</event>
<event>
 8    1  0.6016610E-012  0.9118800E+02  0.7816164E-02  0.1184000E+00
        -11   -1    0    0    0    0  0.00000000000E+00  0.00000000000E+00  0.45593999997E+02  0.45594000000E+02  0.51100000000E-03 0. -1.
         11   -1    0    0    0    0 -0.00000000000E+00 -0.00000000000E+00 -0.45593999997E+02  0.45594000000E+02  0.51100000000E-03 0.  1.
         23    2    1    2    0    0  0.35527136788E-14  0.22204460493E-14 -0.35527136788E-14  0.91188000000E+02  0.91188000000E+02 0.  0.
    9900012    2    3    3    0    0 -0.29084747717E+02 -0.81097014332E+00  0.28400440775E+02  0.50528865005E+02  0.30000015669E+02 0.  0.
        -12    1    3    3    0    0  0.29084747717E+02  0.81097014332E+00 -0.28400440775E+02  0.40659134995E+02  0.00000000000E+00 0.  1.
         11    1    4    4    0    0 -0.97799857889E+01 -0.19463732826E+01  0.49088040577E+00  0.99838597156E+01  0.51100000000E-03 0. -1.
        -11    1    4    4    0    0  0.10055814687E+01 -0.72960287247E+01  0.59603457771E+01  0.94746478186E+01  0.51100000000E-03 0.  1.
        -12    1    4    4    0    0 -0.20310343397E+02  0.84314318640E+01  0.21949214592E+02  0.31070357471E+02  0.00000000000E+00 0.  1.
</event>
<event>
 8    1  0.6016610E-012  0.9118800E+02  0.7816164E-02  0.1184000E+00
        -11   -1    0    0    0    0  0.00000000000E+00  0.00000000000E+00  0.45593999997E+02  0.45594000000E+02  0.51100000000E-03 0. -1.
         11   -1    0    0    0    0 -0.00000000000E+00 -0.00000000000E+00 -0.45593999997E+02  0.45594000000E+02  0.51100000000E-03 0.  1.
         23    2    1    2    0    0  0.13183898417E-15  0.35527136788E-14  0.00000000000E+00  0.91188000000E+02  0.91188000000E+02 0.  0.
    9900012    2    3    3    0    0 -0.50013355702E-01 -0.23294164334E+02  0.33324846518E+02  0.50528856025E+02  0.29999988372E+02 0.  0.
        -12    1    3    3    0    0  0.50013355702E-01  0.23294164334E+02 -0.33324846518E+02  0.40659143975E+02  0.00000000000E+00 0.  1.
         11    1    4    4    0    0 -0.31018460222E+01  0.43729717113E+01  0.31253875792E+01  0.62058341998E+01  0.51100000000E-03 0. -1.
        -11    1    4    4    0    0  0.43343695841E+00 -0.13460480661E+02  0.34188364541E+01  0.13894633863E+02  0.51100000000E-03 0.  1.
         12    1    4    4    0    0  0.26183957081E+01 -0.14206655385E+02  0.26780622485E+02  0.30428387962E+02  0.00000000000E+00 0. -1.
</event>
<event>
 8    1  0.6016610E-012  0.9118800E+02  0.7816164E-02  0.1184000E+00
        -11   -1    0    0    0    0  0.00000000000E+00  0.00000000000E+00  0.45593999997E+02  0.45594000000E+02  0.51100000000E-03 0.  1.
         11   -1    0    0    0    0 -0.00000000000E+00 -0.00000000000E+00 -0.45593999997E+02  0.45594000000E+02  0.51100000000E-03 0. -1.
         23    2    1    2    0    0 -0.17763568394E-14  0.00000000000E+00  0.00000000000E+00  0.91188000000E+02  0.91188000000E+02 0.  0.
    9900012    2    3    3    0    0 -0.31620410561E+01  0.33942268510E+02  0.22160536152E+02  0.50528862555E+02  0.30000008223E+02 0.  0.
         12    1    3    3    0    0  0.31620410561E+01 -0.33942268510E+02 -0.22160536152E+02  0.40659137445E+02  0.00000000000E+00 0. -1.
         11    1    4    4    0    0 -0.37649958775E+01  0.14511219876E+01  0.33164186915E+00  0.40485720410E+01  0.51100000000E-03 0. -1.
        -11    1    4    4    0    0  0.69124890705E+01  0.22448207500E+02  0.24898303282E+02  0.34229081666E+02  0.51100000000E-03 0.  1.
        -12    1    4    4    0    0 -0.63095342490E+01  0.10042939022E+02 -0.30694089993E+01  0.12251208848E+02  0.00000000000E+00 0.  1.
</event>
<event>
 8    1  0.6016610E-012  0.9118800E+02  0.7816164E-02  0.1184000E+00
        -11   -1    0    0    0    0  0.00000000000E+00  0.00000000000E+00  0.45593999997E+02  0.45594000000E+02  0.51100000000E-03 0. -1.
         11   -1    0    0    0    0 -0.00000000000E+00 -0.00000000000E+00 -0.45593999997E+02  0.45594000000E+02  0.51100000000E-03 0.  1.
         23    2    1    2    0    0  0.00000000000E+00  0.00000000000E+00  0.00000000000E+00  0.91188000000E+02  0.91188000000E+02 0.  0.
    9900012    2    3    3    0    0  0.10636065716E+02 -0.21477348166E+02  0.32844524436E+02  0.50528866172E+02  0.30000019218E+02 0.  0.
        -12    1    3    3    0    0 -0.10636065716E+02  0.21477348166E+02 -0.32844524436E+02  0.40659133828E+02  0.00000000000E+00 0.  1.
         11    1    4    4    0    0  0.20932254925E+01 -0.19310115521E+02  0.16174255161E+02  0.25275851809E+02  0.51100000000E-03 0. -1.
        -11    1    4    4    0    0  0.10530191415E+02 -0.41229949162E+01  0.35691256487E+01  0.11858443257E+02  0.51100000000E-03 0.  1.
         12    1    4    4    0    0 -0.19873511916E+01  0.19557622708E+01  0.13101143627E+02  0.13394571107E+02  0.00000000000E+00 0. -1.
</event>
<event>
 8    1  0.6016610E-012  0.9118800E+02  0.7816164E-02  0.1184000E+00
        -11   -1    0    0    0    0  0.00000000000E+00  0.00000000000E+00  0.45593999997E+02  0.45594000000E+02  0.51100000000E-03 0. -1.
         11   -1    0    0    0    0 -0.00000000000E+00 -0.00000000000E+00 -0.45593999997E+02  0.45594000000E+02  0.51100000000E-03 0.  1.
         23    2    1    2    0    0  0.00000000000E+00 -0.17763568394E-14  0.00000000000E+00  0.91188000000E+02  0.91188000000E+02 0.  0.
    9900012    2    3    3    0    0  0.12997836196E+02  0.15255693806E+02 -0.35376338937E+02  0.50528864546E+02  0.30000014274E+02 0.  0.
         12    1    3    3    0    0 -0.12997836196E+02 -0.15255693806E+02  0.35376338937E+02  0.40659135454E+02  0.00000000000E+00 0. -1.
         11    1    4    4    0    0  0.17564419112E+02  0.12379694437E+02 -0.20218558926E+02  0.29505182230E+02  0.51100000000E-03 0. -1.
        -11    1    4    4    0    0 -0.25913741322E+00  0.56385071282E+01 -0.14862222177E+02  0.15897973554E+02  0.51100000000E-03 0.  1.
         12    1    4    4    0    0 -0.43074455024E+01 -0.27625077598E+01 -0.29555783359E+00  0.51257087620E+01  0.00000000000E+00 0. -1.
</event>
<event>
 8    1  0.6016610E-012  0.9118800E+02  0.7816164E-02  0.1184000E+00
        -11   -1    0    0    0    0  0.00000000000E+00  0.00000000000E+00  0.45593999997E+02  0.45594000000E+02  0.51100000000E-03 0. -1.
         11   -1    0    0    0    0 -0.00000000000E+00 -0.00000000000E+00 -0.45593999997E+02  0.45594000000E+02  0.51100000000E-03 0.  1.
         23    2    1    2    0    0  0.00000000000E+00  0.00000000000E+00  0.35527136788E-14  0.91188000000E+02  0.91188000000E+02 0.  0.
    9900012    2    3    3    0    0  0.18599204851E+02 -0.29660933258E+02 -0.20675248132E+02  0.50528840292E+02  0.29999940552E+02 0.  0.
         12    1    3    3    0    0 -0.18599204851E+02  0.29660933258E+02  0.20675248132E+02  0.40659159708E+02  0.00000000000E+00 0. -1.
         11    1    4    4    0    0 -0.16670881219E+00 -0.27510071186E+01  0.17582346034E+01  0.32691315630E+01  0.51100000000E-03 0. -1.
        -11    1    4    4    0    0  0.50755977187E+01 -0.25282319644E+02 -0.21264357172E+02  0.33423498694E+02  0.51100000000E-03 0.  1.
        -12    1    4    4    0    0  0.13690315944E+02 -0.16276064963E+01 -0.11691255636E+01  0.13836210035E+02  0.00000000000E+00 0.  1.
</event>
<event>
 8    1  0.6016610E-012  0.9118800E+02  0.7816164E-02  0.1184000E+00
        -11   -1    0    0    0    0  0.00000000000E+00  0.00000000000E+00  0.45593999997E+02  0.45594000000E+02  0.51100000000E-03 0.  1.
         11   -1    0    0    0    0 -0.00000000000E+00 -0.00000000000E+00 -0.45593999997E+02  0.45594000000E+02  0.51100000000E-03 0. -1.
         23    2    1    2    0    0  0.00000000000E+00  0.71054273576E-14  0.17763568394E-14  0.91188000000E+02  0.91188000000E+02 0.  0.
    9900012    2    3    3    0    0 -0.23067814236E+01  0.38774517942E+02 -0.12015843065E+02  0.50528868594E+02  0.30000026578E+02 0.  0.
         12    1    3    3    0    0  0.23067814236E+01 -0.38774517942E+02  0.12015843065E+02  0.40659131406E+02  0.00000000000E+00 0. -1.
         11    1    4    4    0    0  0.23508094139E+01  0.71087476312E+01 -0.88117685886E+01  0.11563211652E+02  0.51100000000E-03 0. -1.
        -11    1    4    4    0    0 -0.32068546610E+01  0.31798295601E+01  0.72883774466E+01  0.85741284638E+01  0.51100000000E-03 0.  1.
        -12    1    4    4    0    0 -0.14507361765E+01  0.28485940750E+02 -0.10492451923E+02  0.30391528478E+02  0.00000000000E+00 0.  1.
</event>
<event>
 8    1  0.6016610E-012  0.9118800E+02  0.7816164E-02  0.1184000E+00
        -11   -1    0    0    0    0  0.00000000000E+00  0.00000000000E+00  0.45593999997E+02  0.45594000000E+02  0.51100000000E-03 0. -1.
         11   -1    0    0    0    0 -0.00000000000E+00 -0.00000000000E+00 -0.45593999997E+02  0.45594000000E+02  0.51100000000E-03 0.  1.
         23    2    1    2    0    0 -0.17763568394E-14 -0.17763568394E-14 -0.71054273576E-14  0.91188000000E+02  0.91188000000E+02 0.  0.
    9900012    2    3    3    0    0  0.15963017397E+02 -0.13389034298E+02  0.34915343884E+02  0.50528863236E+02  0.30000010291E+02 0.  0.
        -12    1    3    3    0    0 -0.15963017397E+02  0.13389034298E+02 -0.34915343884E+02  0.40659136764E+02  0.00000000000E+00 0.  1.
         11    1    4    4    0    0  0.89604217614E+01 -0.28962342283E+01  0.29554529022E+02  0.31018502814E+02  0.51100000000E-03 0. -1.
        -11    1    4    4    0    0  0.82585162868E+01 -0.10485343698E+02 -0.65661598371E+00  0.13363258156E+02  0.51100000000E-03 0.  1.
        -12    1    4    4    0    0 -0.12559206510E+01 -0.74563717488E-02  0.60174308458E+01  0.61471022655E+01  0.00000000000E+00 0.  1.
</event>
<event>
 8    1  0.6016610E-012  0.9118800E+02  0.7816164E-02  0.1184000E+00
        -11   -1    0    0    0    0  0.00000000000E+00  0.00000000000E+00  0.45593999997E+02  0.45594000000E+02  0.51100000000E-03 0. -1.
         11   -1    0    0    0    0 -0.00000000000E+00 -0.00000000000E+00 -0.45593999997E+02  0.45594000000E+02  0.51100000000E-03 0.  1.
         23    2    1    2    0    0  0.00000000000E+00  0.00000000000E+00 -0.71054273576E-14  0.91188000000E+02  0.91188000000E+02 0.  0.
    9900012    2    3    3    0    0 -0.45447892180E+01  0.32997298915E+01 -0.40269375968E+02  0.50528856289E+02  0.29999989177E+02 0.  0.
         12    1    3    3    0    0  0.45447892180E+01 -0.32997298915E+01  0.40269375968E+02  0.40659143711E+02  0.00000000000E+00 0. -1.
         11    1    4    4    0    0 -0.15225499780E+02  0.22291086076E+01 -0.19188193074E+02  0.24596168857E+02  0.51100000000E-03 0. -1.
        -11    1    4    4    0    0  0.25871060500E+01  0.91377535684E+00 -0.16303646016E+02  0.16532905879E+02  0.51100000000E-03 0.  1.
         12    1    4    4    0    0  0.80936045115E+01  0.15684592702E+00 -0.47775368779E+01  0.93997815535E+01  0.00000000000E+00 0. -1.
</event>
<event>
 8    1  0.6016610E-012  0.9118800E+02  0.7816164E-02  0.1184000E+00
        -11   -1    0    0    0    0  0.00000000000E+00  0.00000000000E+00  0.45593999997E+02  0.45594000000E+02  0.51100000000E-03 0. -1.
         11   -1    0    0    0    0 -0.00000000000E+00 -0.00000000000E+00 -0.45593999997E+02  0.45594000000E+02  0.51100000000E-03 0.  1.
         23    2    1    2    0    0 -0.88817841970E-15  0.00000000000E+00  0.00000000000E+00  0.91188000000E+02  0.91188000000E+02 0.  0.
    9900012    2    3    3    0    0  0.64465700535E+01 -0.33579424995E+02  0.22000677021E+02  0.50528857881E+02  0.29999994016E+02 0.  0.
        -12    1    3    3    0    0 -0.64465700535E+01  0.33579424995E+02 -0.22000677021E+02  0.40659142119E+02  0.00000000000E+00 0.  1.
         11    1    4    4    0    0 -0.52736828106E+01 -0.21956381906E+02  0.53042003745E+01  0.23195451680E+02  0.51100000000E-03 0. -1.
        -11    1    4    4    0    0  0.13086177637E+02 -0.10166520469E+02  0.79826468466E+01  0.18393717257E+02  0.51100000000E-03 0.  1.
        -12    1    4    4    0    0 -0.13659247729E+01 -0.14565226196E+01  0.87138298002E+01  0.89396889439E+01  0.00000000000E+00 0.  1.
</event>
<event>
 8    1  0.6016610E-012  0.9118800E+02  0.7816164E-02  0.1184000E+00
        -11   -1    0    0    0    0  0.00000000000E+00  0.00000000000E+00  0.45593999997E+02  0.45594000000E+02  0.51100000000E-03 0. -1.
         11   -1    0    0    0    0 -0.00000000000E+00 -0.00000000000E+00 -0.45593999997E+02  0.45594000000E+02  0.51100000000E-03 0.  1.
         23    2    1    2    0    0  0.22620794127E-14  0.00000000000E+00  0.71054273576E-14  0.91188000000E+02  0.91188000000E+02 0.  0.
    9900012    2    3    3    0    0 -0.70844562638E-01  0.97607154036E+01  0.39470082175E+02  0.50528880838E+02  0.30000063796E+02 0.  0.
        -12    1    3    3    0    0  0.70844562638E-01 -0.97607154036E+01 -0.39470082175E+02  0.40659119162E+02  0.00000000000E+00 0.  1.
         11    1    4    4    0    0  0.10205600543E+02  0.61996488090E+01  0.27913916812E+02  0.30360775350E+02  0.51100000000E-03 0. -1.
        -11    1    4    4    0    0 -0.12893126630E+02  0.43641039810E+01  0.84198661743E+01  0.16005382360E+02  0.51100000000E-03 0.  1.
        -12    1    4    4    0    0  0.26166815238E+01 -0.80303738644E+00  0.31362991885E+01  0.41627231281E+01  0.00000000000E+00 0.  1.
</event>
<event>
 8    1  0.6016610E-012  0.9118800E+02  0.7816164E-02  0.1184000E+00
        -11   -1    0    0    0    0  0.00000000000E+00  0.00000000000E+00  0.45593999997E+02  0.45594000000E+02  0.51100000000E-03 0.  1.
         11   -1    0    0    0    0 -0.00000000000E+00 -0.00000000000E+00 -0.45593999997E+02  0.45594000000E+02  0.51100000000E-03 0. -1.
         23    2    1    2    0    0  0.00000000000E+00  0.00000000000E+00  0.17763568394E-14  0.91188000000E+02  0.91188000000E+02 0.  0.
    9900012    2    3    3    0    0 -0.21727312798E+02  0.32501766459E+02  0.11167891548E+02  0.50528895903E+02  0.30000109586E+02 0.  0.
        -12    1    3    3    0    0  0.21727312798E+02 -0.32501766459E+02 -0.11167891548E+02  0.40659104097E+02  0.00000000000E+00 0.  1.
         11    1    4    4    0    0 -0.26584085423E+02  0.15047342035E+02  0.56662085065E+01  0.31068344326E+02  0.51100000000E-03 0. -1.
        -11    1    4    4    0    0  0.60033134608E+00  0.53998047586E+01  0.36447772375E+01  0.65423765199E+01  0.51100000000E-03 0.  1.
         12    1    4    4    0    0  0.42564412784E+01  0.12054619665E+02  0.18569058036E+01  0.12918175056E+02  0.00000000000E+00 0. -1.
</event>
<event>
 8    1  0.6016610E-012  0.9118800E+02  0.7816164E-02  0.1184000E+00
        -11   -1    0    0    0    0  0.00000000000E+00  0.00000000000E+00  0.45593999997E+02  0.45594000000E+02  0.51100000000E-03 0. -1.
         11   -1    0    0    0    0 -0.00000000000E+00 -0.00000000000E+00 -0.45593999997E+02  0.45594000000E+02  0.51100000000E-03 0.  1.
         23    2    1    2    0    0  0.22204460493E-15  0.00000000000E+00  0.00000000000E+00  0.91188000000E+02  0.91188000000E+02 0.  0.
    9900012    2    3    3    0    0 -0.10230671784E+01 -0.36854084355E+02  0.17143477288E+02  0.50528818827E+02  0.29999875307E+02 0.  0.
        -12    1    3    3    0    0  0.10230671784E+01  0.36854084355E+02 -0.17143477288E+02  0.40659181173E+02  0.00000000000E+00 0.  1.
         11    1    4    4    0    0 -0.32734341983E+01  0.12018014452E+01  0.30072946132E+01  0.46047279307E+01  0.51100000000E-03 0. -1.
        -11    1    4    4    0    0 -0.61290598257E+00 -0.32920420818E+02  0.26649895687E+01  0.33033799815E+02  0.51100000000E-03 0.  1.
        -12    1    4    4    0    0  0.28632730025E+01 -0.51354649824E+01  0.11471193106E+02  0.12890291081E+02  0.00000000000E+00 0.  1.
</event>
<event>
 8    1  0.6016610E-012  0.9118800E+02  0.7816164E-02  0.1184000E+00
        -11   -1    0    0    0    0  0.00000000000E+00  0.00000000000E+00  0.45593999997E+02  0.45594000000E+02  0.51100000000E-03 0.  1.
         11   -1    0    0    0    0 -0.00000000000E+00 -0.00000000000E+00 -0.45593999997E+02  0.45594000000E+02  0.51100000000E-03 0. -1.
         23    2    1    2    0    0  0.00000000000E+00  0.00000000000E+00 -0.17763568394E-14  0.91188000000E+02  0.91188000000E+02 0.  0.
    9900012    2    3    3    0    0  0.33022993762E+02  0.20247425091E+02 -0.12356711923E+02  0.50528872250E+02  0.30000037692E+02 0.  0.
         12    1    3    3    0    0 -0.33022993762E+02 -0.20247425091E+02  0.12356711923E+02  0.40659127750E+02  0.00000000000E+00 0. -1.
         11    1    4    4    0    0  0.18367452801E+02  0.19059260235E+01 -0.10320404629E+02  0.21154352469E+02  0.51100000000E-03 0.  1.
        -11    1    4    4    0    0  0.12131895320E+02  0.14930526326E+02  0.61136962330E+01  0.20186153232E+02  0.51100000000E-03 0. -1.
        -12    1    4    4    0    0  0.25236456415E+01  0.34109727415E+01 -0.81500035263E+01  0.91883665494E+01  0.00000000000E+00 0.  1.
</event>
<event>
 8    1  0.6016610E-012  0.9118800E+02  0.7816164E-02  0.1184000E+00
        -11   -1    0    0    0    0  0.00000000000E+00  0.00000000000E+00  0.45593999997E+02  0.45594000000E+02  0.51100000000E-03 0. -1.
         11   -1    0    0    0    0 -0.00000000000E+00 -0.00000000000E+00 -0.45593999997E+02  0.45594000000E+02  0.51100000000E-03 0.  1.
         23    2    1    2    0    0  0.88817841970E-15  0.35527136788E-14 -0.71054273576E-14  0.91188000000E+02  0.91188000000E+02 0.  0.
    9900012    2    3    3    0    0 -0.76913966060E+01  0.30443835925E+02  0.25829847275E+02  0.50528859111E+02  0.29999997754E+02 0.  0.
        -12    1    3    3    0    0  0.76913966060E+01 -0.30443835925E+02 -0.25829847275E+02  0.40659140889E+02  0.00000000000E+00 0.  1.
         11    1    4    4    0    0 -0.84500903458E+01  0.23622278472E+02  0.58654903082E+01  0.25764705391E+02  0.51100000000E-03 0. -1.
        -11    1    4    4    0    0 -0.42157019851E+01  0.49442287673E+01  0.17930692251E+02  0.19071635121E+02  0.51100000000E-03 0.  1.
        -12    1    4    4    0    0  0.49743957248E+01  0.18773286854E+01  0.20336647152E+01  0.56925185985E+01  0.00000000000E+00 0.  1.
</event>
<event>
 8    1  0.6016610E-012  0.9118800E+02  0.7816164E-02  0.1184000E+00
        -11   -1    0    0    0    0  0.00000000000E+00  0.00000000000E+00  0.45593999997E+02  0.45594000000E+02  0.51100000000E-03 0. -1.
         11   -1    0    0    0    0 -0.00000000000E+00 -0.00000000000E+00 -0.45593999997E+02  0.45594000000E+02  0.51100000000E-03 0.  1.
         23    2    1    2    0    0  0.17763568394E-14  0.00000000000E+00  0.00000000000E+00  0.91188000000E+02  0.91188000000E+02 0.  0.
    9900012    2    3    3    0    0 -0.96360572850E+01 -0.20542743449E+02 -0.33738831657E+02  0.50528847648E+02  0.29999962910E+02 0.  0.
         12    1    3    3    0    0  0.96360572850E+01  0.20542743449E+02  0.33738831657E+02  0.40659152352E+02  0.00000000000E+00 0. -1.
         11    1    4    4    0    0 -0.64715309959E+01 -0.22980220939E+02 -0.21670506233E+02  0.32242551209E+02  0.51100000000E-03 0. -1.
        -11    1    4    4    0    0 -0.81073690132E+01  0.44006360065E+00 -0.90564800974E+01  0.12163178873E+02  0.51100000000E-03 0.  1.
         12    1    4    4    0    0  0.49428427241E+01  0.19974138895E+01 -0.30118453276E+01  0.61231175653E+01  0.00000000000E+00 0. -1.
</event>
<event>
 8    1  0.6016610E-012  0.9118800E+02  0.7816164E-02  0.1184000E+00
        -11   -1    0    0    0    0  0.00000000000E+00  0.00000000000E+00  0.45593999997E+02  0.45594000000E+02  0.51100000000E-03 0.  1.
         11   -1    0    0    0    0 -0.00000000000E+00 -0.00000000000E+00 -0.45593999997E+02  0.45594000000E+02  0.51100000000E-03 0. -1.
         23    2    1    2    0    0  0.00000000000E+00 -0.35527136788E-14  0.00000000000E+00  0.91188000000E+02  0.91188000000E+02 0.  0.
    9900012    2    3    3    0    0 -0.36585113864E+02 -0.15307166098E+02  0.89658260946E+01  0.50528856774E+02  0.29999990649E+02 0.  0.
        -12    1    3    3    0    0  0.36585113864E+02  0.15307166098E+02 -0.89658260946E+01  0.40659143226E+02  0.00000000000E+00 0.  1.
         11    1    4    4    0    0 -0.16777781702E+02 -0.10160897337E+02  0.15194540319E+02  0.24811526541E+02  0.51100000000E-03 0.  1.
        -11    1    4    4    0    0 -0.11383814126E+02 -0.49645193356E+01 -0.10507242359E+02  0.16267753949E+02  0.51100000000E-03 0. -1.
         12    1    4    4    0    0 -0.84235180351E+01 -0.18174942476E+00  0.42785281339E+01  0.94495762833E+01  0.00000000000E+00 0. -1.
</event>
<event>
 8    1  0.6016610E-012  0.9118800E+02  0.7816164E-02  0.1184000E+00
        -11   -1    0    0    0    0  0.00000000000E+00  0.00000000000E+00  0.45593999997E+02  0.45594000000E+02  0.51100000000E-03 0. -1.
         11   -1    0    0    0    0 -0.00000000000E+00 -0.00000000000E+00 -0.45593999997E+02  0.45594000000E+02  0.51100000000E-03 0.  1.
         23    2    1    2    0    0  0.37470027081E-15  0.88817841970E-15 -0.71054273576E-14  0.91188000000E+02  0.91188000000E+02 0.  0.
    9900012    2    3    3    0    0  0.39527628401E-01  0.68684630534E+01 -0.40074697948E+02  0.50528944886E+02  0.30000258474E+02 0.  0.
         12    1    3    3    0    0 -0.39527628401E-01 -0.68684630534E+01  0.40074697948E+02  0.40659055114E+02  0.00000000000E+00 0. -1.
         11    1    4    4    0    0 -0.34968846456E+01  0.12159532104E+02 -0.29324761742E+02  0.31937815747E+02  0.51100000000E-03 0.  1.
        -11    1    4    4    0    0 -0.31992256916E+01 -0.32391262682E+00  0.16631962694E+01  0.36202467468E+01  0.51100000000E-03 0. -1.
         12    1    4    4    0    0  0.67356379657E+01 -0.49671564240E+01 -0.12413132476E+02  0.14970882392E+02  0.00000000000E+00 0. -1.
</event>
<event>
 8    1  0.6016610E-012  0.9118800E+02  0.7816164E-02  0.1184000E+00
        -11   -1    0    0    0    0  0.00000000000E+00  0.00000000000E+00  0.45593999997E+02  0.45594000000E+02  0.51100000000E-03 0. -1.
         11   -1    0    0    0    0 -0.00000000000E+00 -0.00000000000E+00 -0.45593999997E+02  0.45594000000E+02  0.51100000000E-03 0.  1.
         23    2    1    2    0    0 -0.17763568394E-14 -0.17763568394E-14  0.71054273576E-14  0.91188000000E+02  0.91188000000E+02 0.  0.
    9900012    2    3    3    0    0 -0.11477232493E+02  0.12035546604E+02 -0.37102353687E+02  0.50528857156E+02  0.29999991810E+02 0.  0.
         12    1    3    3    0    0  0.11477232493E+02 -0.12035546604E+02  0.37102353687E+02  0.40659142844E+02  0.00000000000E+00 0. -1.
         11    1    4    4    0    0  0.82422016021E+00 -0.97035289766E+00 -0.11919311447E+02  0.11987114301E+02  0.51100000000E-03 0. -1.
        -11    1    4    4    0    0 -0.11022288178E+02  0.16709422078E+02 -0.91008335262E+01  0.21989106258E+02  0.51100000000E-03 0.  1.
        -12    1    4    4    0    0 -0.12791644744E+01 -0.37035225769E+01 -0.16082208713E+02  0.16552636597E+02  0.00000000000E+00 0.  1.
</event>
<event>
 8    1  0.6016610E-012  0.9118800E+02  0.7816164E-02  0.1184000E+00
        -11   -1    0    0    0    0  0.00000000000E+00  0.00000000000E+00  0.45593999997E+02  0.45594000000E+02  0.51100000000E-03 0. -1.
         11   -1    0    0    0    0 -0.00000000000E+00 -0.00000000000E+00 -0.45593999997E+02  0.45594000000E+02  0.51100000000E-03 0.  1.
         23    2    1    2    0    0 -0.35527136788E-14 -0.88817841970E-15  0.00000000000E+00  0.91188000000E+02  0.91188000000E+02 0.  0.
    9900012    2    3    3    0    0  0.24513307243E+02  0.77233091562E+01  0.31505731231E+02  0.50528894787E+02  0.30000106195E+02 0.  0.
        -12    1    3    3    0    0 -0.24513307243E+02 -0.77233091562E+01 -0.31505731231E+02  0.40659105213E+02  0.00000000000E+00 0.  1.
         11    1    4    4    0    0  0.71066844098E+01  0.87694387607E+01  0.23129999006E+02  0.25737227390E+02  0.51100000000E-03 0. -1.
        -11    1    4    4    0    0  0.13696375853E+02 -0.31198969015E+01 -0.14148004156E+01  0.14118290572E+02  0.51100000000E-03 0.  1.
        -12    1    4    4    0    0  0.37102469797E+01  0.20737672970E+01  0.97905326410E+01  0.10673376825E+02  0.00000000000E+00 0.  1.
</event>
<event>
 8    1  0.6016610E-012  0.9118800E+02  0.7816164E-02  0.1184000E+00
        -11   -1    0    0    0    0  0.00000000000E+00  0.00000000000E+00  0.45593999997E+02  0.45594000000E+02  0.51100000000E-03 0. -1.
         11   -1    0    0    0    0 -0.00000000000E+00 -0.00000000000E+00 -0.45593999997E+02  0.45594000000E+02  0.51100000000E-03 0.  1.
         23    2    1    2    0    0  0.35527136788E-14  0.35527136788E-14  0.71054273576E-14  0.91188000000E+02  0.91188000000E+02 0.  0.
    9900012    2    3    3    0    0  0.17087562950E+02  0.18285094893E+02  0.32044314131E+02  0.50528836568E+02  0.29999929233E+02 0.  0.
        -12    1    3    3    0    0 -0.17087562950E+02 -0.18285094893E+02 -0.32044314131E+02  0.40659163432E+02  0.00000000000E+00 0.  1.
         11    1    4    4    0    0  0.73143327520E+01 -0.41479029337E+01  0.10320839412E+01  0.84717034814E+01  0.51100000000E-03 0.  1.
        -11    1    4    4    0    0  0.11680295539E+02  0.15599184209E+02  0.28510181355E+02  0.34533958548E+02  0.51100000000E-03 0. -1.
         12    1    4    4    0    0 -0.19070653404E+01  0.68338136170E+01  0.25020488350E+01  0.75231745385E+01  0.00000000000E+00 0. -1.
</event>
<event>
 8    1  0.6016610E-012  0.9118800E+02  0.7816164E-02  0.1184000E+00
        -11   -1    0    0    0    0  0.00000000000E+00  0.00000000000E+00  0.45593999997E+02  0.45594000000E+02  0.51100000000E-03 0. -1.
         11   -1    0    0    0    0 -0.00000000000E+00 -0.00000000000E+00 -0.45593999997E+02  0.45594000000E+02  0.51100000000E-03 0.  1.
         23    2    1    2    0    0  0.35527136788E-14  0.00000000000E+00  0.00000000000E+00  0.91188000000E+02  0.91188000000E+02 0.  0.
    9900012    2    3    3    0    0 -0.31592680675E+02 -0.25544679229E+02 -0.15932830473E+01  0.50528847770E+02  0.29999963282E+02 0.  0.
        -12    1    3    3    0    0  0.31592680675E+02  0.25544679229E+02  0.15932830473E+01  0.40659152230E+02  0.00000000000E+00 0.  1.
         11    1    4    4    0    0 -0.31021601917E+02 -0.15263114610E+02  0.21092703125E+01  0.34637428810E+02  0.51100000000E-03 0. -1.
        -11    1    4    4    0    0  0.12463402927E+01 -0.12475860615E+02 -0.35822921072E+01  0.13039680947E+02  0.51100000000E-03 0.  1.
         12    1    4    4    0    0 -0.18174190513E+01  0.21942959955E+01 -0.12026125264E+00  0.28517380127E+01  0.00000000000E+00 0. -1.
</event>
<event>
 8    1  0.6016610E-012  0.9118800E+02  0.7816164E-02  0.1184000E+00
        -11   -1    0    0    0    0  0.00000000000E+00  0.00000000000E+00  0.45593999997E+02  0.45594000000E+02  0.51100000000E-03 0. -1.
         11   -1    0    0    0    0 -0.00000000000E+00 -0.00000000000E+00 -0.45593999997E+02  0.45594000000E+02  0.51100000000E-03 0.  1.
         23    2    1    2    0    0  0.00000000000E+00  0.00000000000E+00 -0.35527136788E-14  0.91188000000E+02  0.91188000000E+02 0.  0.
    9900012    2    3    3    0    0 -0.18332011819E+02  0.27777370836E+02  0.23356392742E+02  0.50528855029E+02  0.29999985345E+02 0.  0.
        -12    1    3    3    0    0  0.18332011819E+02 -0.27777370836E+02 -0.23356392742E+02  0.40659144971E+02  0.00000000000E+00 0.  1.
         11    1    4    4    0    0  0.49023476942E+01  0.43980582058E+01  0.67263374113E+01  0.94137954157E+01  0.51100000000E-03 0. -1.
        -11    1    4    4    0    0 -0.10423003958E+02  0.12749945094E+02 -0.14581667968E+01  0.16532584858E+02  0.51100000000E-03 0.  1.
         12    1    4    4    0    0 -0.12811355555E+02  0.10629367537E+02  0.18088222127E+02  0.24582474755E+02  0.00000000000E+00 0. -1.
</event>
<event>
 8    1  0.6016610E-012  0.9118800E+02  0.7816164E-02  0.1184000E+00
        -11   -1    0    0    0    0  0.00000000000E+00  0.00000000000E+00  0.45593999997E+02  0.45594000000E+02  0.51100000000E-03 0. -1.
         11   -1    0    0    0    0 -0.00000000000E+00 -0.00000000000E+00 -0.45593999997E+02  0.45594000000E+02  0.51100000000E-03 0.  1.
         23    2    1    2    0    0  0.00000000000E+00  0.00000000000E+00  0.00000000000E+00  0.91188000000E+02  0.91188000000E+02 0.  0.
    9900012    2    3    3    0    0  0.62296251110E+01  0.28429414208E+02 -0.28392351995E+02  0.50528862367E+02  0.30000007652E+02 0.  0.
         12    1    3    3    0    0 -0.62296251110E+01 -0.28429414208E+02  0.28392351995E+02  0.40659137633E+02  0.00000000000E+00 0. -1.
         11    1    4    4    0    0  0.94782485913E+01  0.18420825815E+01 -0.73245120844E+01  0.12119362282E+02  0.51100000000E-03 0. -1.
        -11    1    4    4    0    0 -0.42700175702E+01  0.25093656510E+02 -0.23986531265E+02  0.34975396059E+02  0.51100000000E-03 0.  1.
        -12    1    4    4    0    0  0.10213940900E+01  0.14936751160E+01  0.29186913542E+01  0.34341040259E+01  0.00000000000E+00 0.  1.
</event>
<event>
 8    1  0.6016610E-012  0.9118800E+02  0.7816164E-02  0.1184000E+00
        -11   -1    0    0    0    0  0.00000000000E+00  0.00000000000E+00  0.45593999997E+02  0.45594000000E+02  0.51100000000E-03 0. -1.
         11   -1    0    0    0    0 -0.00000000000E+00 -0.00000000000E+00 -0.45593999997E+02  0.45594000000E+02  0.51100000000E-03 0.  1.
         23    2    1    2    0    0  0.17763568394E-14  0.00000000000E+00 -0.71054273576E-14  0.91188000000E+02  0.91188000000E+02 0.  0.
    9900012    2    3    3    0    0 -0.95342082025E+01 -0.15667639622E+01 -0.39494436004E+02  0.50528851575E+02  0.29999974848E+02 0.  0.
         12    1    3    3    0    0  0.95342082025E+01  0.15667639622E+01  0.39494436004E+02  0.40659148425E+02  0.00000000000E+00 0. -1.
         11    1    4    4    0    0 -0.14121307460E+01 -0.51355152850E+00 -0.11090173895E-01  0.15026548736E+01  0.51100000000E-03 0. -1.
        -11    1    4    4    0    0 -0.13791057767E+02  0.71234623734E-02 -0.59828513915E+01  0.15032891808E+02  0.51100000000E-03 0.  1.
        -12    1    4    4    0    0  0.56689803103E+01 -0.10603358961E+01 -0.33500494439E+02  0.33993304894E+02  0.00000000000E+00 0.  1.
</event>
<event>
 8    1  0.6016610E-012  0.9118800E+02  0.7816164E-02  0.1184000E+00
        -11   -1    0    0    0    0  0.00000000000E+00  0.00000000000E+00  0.45593999997E+02  0.45594000000E+02  0.51100000000E-03 0.  1.
         11   -1    0    0    0    0 -0.00000000000E+00 -0.00000000000E+00 -0.45593999997E+02  0.45594000000E+02  0.51100000000E-03 0. -1.
         23    2    1    2    0    0  0.71054273576E-14  0.00000000000E+00 -0.35527136788E-14  0.91188000000E+02  0.91188000000E+02 0.  0.
    9900012    2    3    3    0    0  0.37068363791E+02  0.19710556514E+01 -0.16589672219E+02  0.50528857377E+02  0.29999992484E+02 0.  0.
         12    1    3    3    0    0 -0.37068363791E+02 -0.19710556514E+01  0.16589672219E+02  0.40659142623E+02  0.00000000000E+00 0. -1.
         11    1    4    4    0    0 -0.30434038436E+01 -0.19274379276E+01 -0.35989285052E+01  0.50921125839E+01  0.51100000000E-03 0. -1.
        -11    1    4    4    0    0  0.37453005417E+02 -0.14678937272E+01 -0.12071424082E+02  0.39377679038E+02  0.51100000000E-03 0.  1.
        -12    1    4    4    0    0  0.26587622172E+01  0.53663873062E+01 -0.91931963209E+00  0.60590657558E+01  0.00000000000E+00 0.  1.
</event>
<event>
 8    1  0.6016610E-012  0.9118800E+02  0.7816164E-02  0.1184000E+00
        -11   -1    0    0    0    0  0.00000000000E+00  0.00000000000E+00  0.45593999997E+02  0.45594000000E+02  0.51100000000E-03 0. -1.
         11   -1    0    0    0    0 -0.00000000000E+00 -0.00000000000E+00 -0.45593999997E+02  0.45594000000E+02  0.51100000000E-03 0.  1.
         23    2    1    2    0    0  0.00000000000E+00 -0.88817841970E-15  0.00000000000E+00  0.91188000000E+02  0.91188000000E+02 0.  0.
    9900012    2    3    3    0    0  0.24074166742E+02  0.63891240290E+01  0.32136880247E+02  0.50528862255E+02  0.30000007310E+02 0.  0.
        -12    1    3    3    0    0 -0.24074166742E+02 -0.63891240290E+01 -0.32136880247E+02  0.40659137745E+02  0.00000000000E+00 0.  1.
         11    1    4    4    0    0 -0.43137756734E+00  0.26645027863E+01  0.14307763183E+02  0.14560142488E+02  0.51100000000E-03 0. -1.
        -11    1    4    4    0    0  0.15889388457E+02 -0.28559986193E+01  0.12934753949E+01  0.16195754769E+02  0.51100000000E-03 0.  1.
         12    1    4    4    0    0  0.86161558519E+01  0.65806198620E+01  0.16535641669E+02  0.19772964999E+02  0.00000000000E+00 0. -1.
</event>
<event>
 8    1  0.6016610E-012  0.9118800E+02  0.7816164E-02  0.1184000E+00
        -11   -1    0    0    0    0  0.00000000000E+00  0.00000000000E+00  0.45593999997E+02  0.45594000000E+02  0.51100000000E-03 0.  1.
         11   -1    0    0    0    0 -0.00000000000E+00 -0.00000000000E+00 -0.45593999997E+02  0.45594000000E+02  0.51100000000E-03 0. -1.
         23    2    1    2    0    0  0.35527136788E-14  0.17763568394E-14  0.00000000000E+00  0.91188000000E+02  0.91188000000E+02 0.  0.
    9900012    2    3    3    0    0 -0.29511596339E+02  0.13638022283E+02  0.24417938531E+02  0.50528859670E+02  0.29999999453E+02 0.  0.
         12    1    3    3    0    0  0.29511596339E+02 -0.13638022283E+02 -0.24417938531E+02  0.40659140330E+02  0.00000000000E+00 0. -1.
         11    1    4    4    0    0  0.38044556651E+01  0.57719975973E+01 -0.14459666750E+01  0.70626240914E+01  0.51100000000E-03 0. -1.
        -11    1    4    4    0    0 -0.81275748299E+01  0.46909161620E+01  0.88926804432E+01  0.12928338361E+02  0.51100000000E-03 0.  1.
         12    1    4    4    0    0 -0.25188477174E+02  0.31751085236E+01  0.16971224763E+02  0.30537897217E+02  0.00000000000E+00 0. -1.
</event>
<event>
 8    1  0.6016610E-012  0.9118800E+02  0.7816164E-02  0.1184000E+00
        -11   -1    0    0    0    0  0.00000000000E+00  0.00000000000E+00  0.45593999997E+02  0.45594000000E+02  0.51100000000E-03 0. -1.
         11   -1    0    0    0    0 -0.00000000000E+00 -0.00000000000E+00 -0.45593999997E+02  0.45594000000E+02  0.51100000000E-03 0.  1.
         23    2    1    2    0    0 -0.88817841970E-15 -0.35527136788E-14  0.35527136788E-14  0.91188000000E+02  0.91188000000E+02 0.  0.
    9900012    2    3    3    0    0 -0.78885248115E+01 -0.28702545137E+02  0.27696578799E+02  0.50528863287E+02  0.30000010448E+02 0.  0.
        -12    1    3    3    0    0  0.78885248115E+01  0.28702545137E+02 -0.27696578799E+02  0.40659136713E+02  0.00000000000E+00 0.  1.
         11    1    4    4    0    0 -0.59170656526E+01 -0.57244050522E+01 -0.42630750648E+01  0.92711535641E+01  0.51100000000E-03 0. -1.
        -11    1    4    4    0    0 -0.15603744492E+01 -0.20018019606E+02  0.32517985492E+02  0.38217473204E+02  0.51100000000E-03 0.  1.
        -12    1    4    4    0    0 -0.41108470959E+00 -0.29601204787E+01 -0.55833162813E+00  0.30402365194E+01  0.00000000000E+00 0.  1.
</event>
<event>
 8    1  0.6016610E-012  0.9118800E+02  0.7816164E-02  0.1184000E+00
        -11   -1    0    0    0    0  0.00000000000E+00  0.00000000000E+00  0.45593999997E+02  0.45594000000E+02  0.51100000000E-03 0. -1.
         11   -1    0    0    0    0 -0.00000000000E+00 -0.00000000000E+00 -0.45593999997E+02  0.45594000000E+02  0.51100000000E-03 0.  1.
         23    2    1    2    0    0  0.00000000000E+00  0.35527136788E-14  0.35527136788E-14  0.91188000000E+02  0.91188000000E+02 0.  0.
    9900012    2    3    3    0    0 -0.21446452393E+02 -0.16670287059E+02 -0.30254233721E+02  0.50528838069E+02  0.29999933796E+02 0.  0.
         12    1    3    3    0    0  0.21446452393E+02  0.16670287059E+02  0.30254233721E+02  0.40659161931E+02  0.00000000000E+00 0. -1.
         11    1    4    4    0    0  0.72865030551E-02  0.33777943119E+01 -0.90951069662E+01  0.97020883574E+01  0.51100000000E-03 0. -1.
        -11    1    4    4    0    0 -0.67094297313E+01 -0.16547333381E+02 -0.17985468472E+02  0.25343791463E+02  0.51100000000E-03 0.  1.
        -12    1    4    4    0    0 -0.14744309165E+02 -0.35007479896E+01 -0.31736582830E+01  0.15482958249E+02  0.00000000000E+00 0.  1.
</event>
<event>
 8    1  0.6016610E-012  0.9118800E+02  0.7816164E-02  0.1184000E+00
        -11   -1    0    0    0    0  0.00000000000E+00  0.00000000000E+00  0.45593999997E+02  0.45594000000E+02  0.51100000000E-03 0. -1.
         11   -1    0    0    0    0 -0.00000000000E+00 -0.00000000000E+00 -0.45593999997E+02  0.45594000000E+02  0.51100000000E-03 0.  1.
         23    2    1    2    0    0 -0.35527136788E-14 -0.88817841970E-15  0.00000000000E+00  0.91188000000E+02  0.91188000000E+02 0.  0.
    9900012    2    3    3    0    0 -0.29337751819E+02 -0.63191791772E+01  0.27432277776E+02  0.50528861160E+02  0.30000003981E+02 0.  0.
        -12    1    3    3    0    0  0.29337751819E+02  0.63191791772E+01 -0.27432277776E+02  0.40659138840E+02  0.00000000000E+00 0.  1.
         11    1    4    4    0    0 -0.25592537624E+02 -0.44873627258E+01  0.19620034868E+02  0.32558565305E+02  0.51100000000E-03 0. -1.
        -11    1    4    4    0    0  0.36558879079E+00 -0.81038828972E+01  0.64149607314E+01  0.10342064331E+02  0.51100000000E-03 0.  1.
         12    1    4    4    0    0 -0.41108029866E+01  0.62720664458E+01  0.13972821758E+01  0.76282315234E+01  0.00000000000E+00 0. -1.
</event>
<event>
 8    1  0.6016610E-012  0.9118800E+02  0.7816164E-02  0.1184000E+00
        -11   -1    0    0    0    0  0.00000000000E+00  0.00000000000E+00  0.45593999997E+02  0.45594000000E+02  0.51100000000E-03 0. -1.
         11   -1    0    0    0    0 -0.00000000000E+00 -0.00000000000E+00 -0.45593999997E+02  0.45594000000E+02  0.51100000000E-03 0.  1.
         23    2    1    2    0    0  0.88817841970E-15  0.00000000000E+00  0.00000000000E+00  0.91188000000E+02  0.91188000000E+02 0.  0.
    9900012    2    3    3    0    0 -0.74609335928E+01  0.24707529882E+02 -0.31417158888E+02  0.50528862828E+02  0.30000009053E+02 0.  0.
         12    1    3    3    0    0  0.74609335928E+01 -0.24707529882E+02  0.31417158888E+02  0.40659137172E+02  0.00000000000E+00 0. -1.
         11    1    4    4    0    0  0.96520027258E+01  0.91775664627E+01 -0.48549181673E+01  0.14176004849E+02  0.51100000000E-03 0. -1.
        -11    1    4    4    0    0 -0.12930815833E+02  0.73642172993E+01 -0.20595264130E+02  0.25408711092E+02  0.51100000000E-03 0.  1.
         12    1    4    4    0    0 -0.41821204857E+01  0.81657461201E+01 -0.59669765911E+01  0.10944146887E+02  0.00000000000E+00 0. -1.
</event>
<event>
 8    1  0.1050085E-011  0.9118800E+02  0.7816164E-02  0.1184000E+00
        -11   -1    0    0    0    0  0.00000000000E+00  0.00000000000E+00  0.45593999997E+02  0.45594000000E+02  0.51100000000E-03 0. -1.
         11   -1    0    0    0    0 -0.00000000000E+00 -0.00000000000E+00 -0.45593999997E+02  0.45594000000E+02  0.51100000000E-03 0.  1.
         23    2    1    2    0    0  0.00000000000E+00 -0.35527136788E-14  0.00000000000E+00  0.91188000000E+02  0.91188000000E+02 0.  0.
    9900012    2    3    3    0    0 -0.34847583800E+01 -0.27489149776E+02  0.29755172463E+02  0.50528841319E+02  0.29999943672E+02 0.  0.
        -12    1    3    3    0    0  0.34847583800E+01  0.27489149776E+02 -0.29755172463E+02  0.40659158681E+02  0.00000000000E+00 0.  1.
         11    1    4    4    0    0  0.39593810995E+01 -0.12553712531E+02  0.14213801506E+02  0.19372778596E+02  0.51100000000E-03 0. -1.
        -11    1    4    4    0    0 -0.13863414122E+01  0.55036253063E+01  0.36102163811E+01  0.67264772803E+01  0.51100000000E-03 0.  1.
        -12    1    4    4    0    0 -0.60577980673E+01 -0.20439062551E+02  0.11931154576E+02  0.24429585442E+02  0.00000000000E+00 0.  1.
</event>
<event>
 8    1  0.6016610E-012  0.9118800E+02  0.7816164E-02  0.1184000E+00
        -11   -1    0    0    0    0  0.00000000000E+00  0.00000000000E+00  0.45593999997E+02  0.45594000000E+02  0.51100000000E-03 0. -1.
         11   -1    0    0    0    0 -0.00000000000E+00 -0.00000000000E+00 -0.45593999997E+02  0.45594000000E+02  0.51100000000E-03 0.  1.
         23    2    1    2    0    0  0.00000000000E+00  0.35527136788E-14  0.00000000000E+00  0.91188000000E+02  0.91188000000E+02 0.  0.
    9900012    2    3    3    0    0 -0.11113466712E+02 -0.16111477275E+02  0.35638150870E+02  0.50528848019E+02  0.29999964040E+02 0.  0.
        -12    1    3    3    0    0  0.11113466712E+02  0.16111477275E+02 -0.35638150870E+02  0.40659151981E+02  0.00000000000E+00 0.  1.
         11    1    4    4    0    0 -0.18198222850E+02 -0.18249078022E+00  0.19635532014E+02  0.26772424909E+02  0.51100000000E-03 0. -1.
        -11    1    4    4    0    0  0.54204933404E+01 -0.12686745869E+02  0.13715356435E+02  0.19453695567E+02  0.51100000000E-03 0.  1.
         12    1    4    4    0    0  0.16642627976E+01 -0.32422406252E+01  0.22872624220E+01  0.43027275440E+01  0.00000000000E+00 0. -1.
</event>
<event>
 8    1  0.6016610E-012  0.9118800E+02  0.7816164E-02  0.1184000E+00
        -11   -1    0    0    0    0  0.00000000000E+00  0.00000000000E+00  0.45593999997E+02  0.45594000000E+02  0.51100000000E-03 0. -1.
         11   -1    0    0    0    0 -0.00000000000E+00 -0.00000000000E+00 -0.45593999997E+02  0.45594000000E+02  0.51100000000E-03 0.  1.
         23    2    1    2    0    0  0.17763568394E-14  0.00000000000E+00 -0.17763568394E-14  0.91188000000E+02  0.91188000000E+02 0.  0.
    9900012    2    3    3    0    0 -0.11551086736E+02 -0.36051150670E+02  0.14834183209E+02  0.50528855139E+02  0.29999985679E+02 0.  0.
        -12    1    3    3    0    0  0.11551086736E+02  0.36051150670E+02 -0.14834183209E+02  0.40659144861E+02  0.00000000000E+00 0.  1.
         11    1    4    4    0    0  0.76290188443E+01 -0.13021386336E+02  0.56735132316E+01  0.16122877637E+02  0.51100000000E-03 0.  1.
        -11    1    4    4    0    0 -0.18344811380E+02 -0.15325070581E+02  0.22272396720E+01  0.24007300759E+02  0.51100000000E-03 0. -1.
         12    1    4    4    0    0 -0.83529419980E+00 -0.77046937526E+01  0.69334303050E+01  0.10398676744E+02  0.00000000000E+00 0. -1.
</event>
<event>
 8    1  0.6016610E-012  0.9118800E+02  0.7816164E-02  0.1184000E+00
        -11   -1    0    0    0    0  0.00000000000E+00  0.00000000000E+00  0.45593999997E+02  0.45594000000E+02  0.51100000000E-03 0. -1.
         11   -1    0    0    0    0 -0.00000000000E+00 -0.00000000000E+00 -0.45593999997E+02  0.45594000000E+02  0.51100000000E-03 0.  1.
         23    2    1    2    0    0  0.00000000000E+00  0.00000000000E+00  0.00000000000E+00  0.91188000000E+02  0.91188000000E+02 0.  0.
    9900012    2    3    3    0    0 -0.16068207107E+02 -0.26133316915E+02  0.26683860071E+02  0.50528856860E+02  0.29999990910E+02 0.  0.
        -12    1    3    3    0    0  0.16068207107E+02  0.26133316915E+02 -0.26683860071E+02  0.40659143140E+02  0.00000000000E+00 0.  1.
         11    1    4    4    0    0  0.16378607112E+01 -0.21783263058E+02  0.97460363815E+01  0.23920250053E+02  0.51100000000E-03 0. -1.
        -11    1    4    4    0    0 -0.93907052762E+01 -0.19717172883E+01  0.27315166480E+01  0.99766827206E+01  0.51100000000E-03 0.  1.
         12    1    4    4    0    0 -0.83153625422E+01 -0.23783365680E+01  0.14206307042E+02  0.16631924086E+02  0.00000000000E+00 0. -1.
</event>
<event>
 8    1  0.6016610E-012  0.9118800E+02  0.7816164E-02  0.1184000E+00
        -11   -1    0    0    0    0  0.00000000000E+00  0.00000000000E+00  0.45593999997E+02  0.45594000000E+02  0.51100000000E-03 0. -1.
         11   -1    0    0    0    0 -0.00000000000E+00 -0.00000000000E+00 -0.45593999997E+02  0.45594000000E+02  0.51100000000E-03 0.  1.
         23    2    1    2    0    0  0.00000000000E+00  0.00000000000E+00  0.00000000000E+00  0.91188000000E+02  0.91188000000E+02 0.  0.
    9900012    2    3    3    0    0  0.12093437055E+02  0.51687281113E+01 -0.38473345938E+02  0.50528864277E+02  0.30000013456E+02 0.  0.
         12    1    3    3    0    0 -0.12093437055E+02 -0.51687281113E+01  0.38473345938E+02  0.40659135723E+02  0.00000000000E+00 0. -1.
         11    1    4    4    0    0 -0.36392555376E+01  0.10511084180E+02 -0.13382008404E+02  0.17401299397E+02  0.51100000000E-03 0. -1.
        -11    1    4    4    0    0  0.16395468004E+02 -0.57634315313E+01 -0.14859229285E+02  0.22865371401E+02  0.51100000000E-03 0.  1.
        -12    1    4    4    0    0 -0.66277541159E+00  0.42107546290E+00 -0.10232108249E+02  0.10262193479E+02  0.00000000000E+00 0.  1.
</event>
<event>
 8    1  0.6016610E-012  0.9118800E+02  0.7816164E-02  0.1184000E+00
        -11   -1    0    0    0    0  0.00000000000E+00  0.00000000000E+00  0.45593999997E+02  0.45594000000E+02  0.51100000000E-03 0. -1.
         11   -1    0    0    0    0 -0.00000000000E+00 -0.00000000000E+00 -0.45593999997E+02  0.45594000000E+02  0.51100000000E-03 0.  1.
         23    2    1    2    0    0  0.44408920985E-15  0.00000000000E+00  0.00000000000E+00  0.91188000000E+02  0.91188000000E+02 0.  0.
    9900012    2    3    3    0    0  0.31984895560E+01  0.12418553035E+02 -0.38583867019E+02  0.50528860941E+02  0.30000003316E+02 0.  0.
         12    1    3    3    0    0 -0.31984895560E+01 -0.12418553035E+02  0.38583867019E+02  0.40659139059E+02  0.00000000000E+00 0. -1.
         11    1    4    4    0    0 -0.76779663531E+01  0.10743714377E+02 -0.54265729139E+01  0.14276773437E+02  0.51100000000E-03 0.  1.
        -11    1    4    4    0    0  0.62062946975E+01 -0.39091855239E+01 -0.15270731854E+02  0.16940929046E+02  0.51100000000E-03 0. -1.
         12    1    4    4    0    0  0.46701612116E+01  0.55840241819E+01 -0.17886562251E+02  0.19311158457E+02  0.00000000000E+00 0. -1.
</event>
<event>
 8    1  0.6016610E-012  0.9118800E+02  0.7816164E-02  0.1184000E+00
        -11   -1    0    0    0    0  0.00000000000E+00  0.00000000000E+00  0.45593999997E+02  0.45594000000E+02  0.51100000000E-03 0. -1.
         11   -1    0    0    0    0 -0.00000000000E+00 -0.00000000000E+00 -0.45593999997E+02  0.45594000000E+02  0.51100000000E-03 0.  1.
         23    2    1    2    0    0  0.35527136788E-14 -0.17763568394E-14  0.00000000000E+00  0.91188000000E+02  0.91188000000E+02 0.  0.
    9900012    2    3    3    0    0 -0.20785472231E+02  0.14428204458E+02  0.31826969589E+02  0.50528869008E+02  0.30000027837E+02 0.  0.
        -12    1    3    3    0    0  0.20785472231E+02 -0.14428204458E+02 -0.31826969589E+02  0.40659130992E+02  0.00000000000E+00 0.  1.
         11    1    4    4    0    0 -0.26077846234E+02  0.12039900329E+02  0.23724827592E+02  0.37254271013E+02  0.51100000000E-03 0. -1.
        -11    1    4    4    0    0  0.67847943311E+01 -0.55952427502E+00  0.36325620330E+01  0.77163468503E+01  0.51100000000E-03 0.  1.
        -12    1    4    4    0    0 -0.14924203282E+01  0.29478284047E+01  0.44695799640E+01  0.55582511453E+01  0.00000000000E+00 0.  1.
</event>
<event>
 8    1  0.6016610E-012  0.9118800E+02  0.7816164E-02  0.1184000E+00
        -11   -1    0    0    0    0  0.00000000000E+00  0.00000000000E+00  0.45593999997E+02  0.45594000000E+02  0.51100000000E-03 0. -1.
         11   -1    0    0    0    0 -0.00000000000E+00 -0.00000000000E+00 -0.45593999997E+02  0.45594000000E+02  0.51100000000E-03 0.  1.
         23    2    1    2    0    0  0.00000000000E+00  0.00000000000E+00  0.00000000000E+00  0.91188000000E+02  0.91188000000E+02 0.  0.
    9900012    2    3    3    0    0  0.18499934140E+02  0.60284661222E+01  0.35701197956E+02  0.50528862005E+02  0.30000006551E+02 0.  0.
        -12    1    3    3    0    0 -0.18499934140E+02 -0.60284661222E+01 -0.35701197956E+02  0.40659137995E+02  0.00000000000E+00 0.  1.
         11    1    4    4    0    0  0.52528389367E+01 -0.44450371671E+01  0.25785372203E+02  0.26687751726E+02  0.51100000000E-03 0. -1.
        -11    1    4    4    0    0  0.36414690335E+01 -0.57875023024E+00 -0.26539095546E+01  0.45429599091E+01  0.51100000000E-03 0.  1.
         12    1    4    4    0    0  0.96056261697E+01  0.11052253519E+02  0.12569735308E+02  0.19298150370E+02  0.00000000000E+00 0. -1.
</event>
<event>
 8    1  0.6016610E-012  0.9118800E+02  0.7816164E-02  0.1184000E+00
        -11   -1    0    0    0    0  0.00000000000E+00  0.00000000000E+00  0.45593999997E+02  0.45594000000E+02  0.51100000000E-03 0. -1.
         11   -1    0    0    0    0 -0.00000000000E+00 -0.00000000000E+00 -0.45593999997E+02  0.45594000000E+02  0.51100000000E-03 0.  1.
         23    2    1    2    0    0  0.44408920985E-15 -0.35527136788E-14 -0.71054273576E-14  0.91188000000E+02  0.91188000000E+02 0.  0.
    9900012    2    3    3    0    0 -0.20315365148E+01 -0.24188253649E+02 -0.32618512197E+02  0.50528854742E+02  0.29999984473E+02 0.  0.
         12    1    3    3    0    0  0.20315365148E+01  0.24188253649E+02  0.32618512197E+02  0.40659145258E+02  0.00000000000E+00 0. -1.
         11    1    4    4    0    0 -0.82645741857E+01 -0.10677061361E+02 -0.16629043934E+02  0.21420269097E+02  0.51100000000E-03 0. -1.
        -11    1    4    4    0    0  0.22661753719E+01 -0.70215948102E+01  0.35156095982E+01  0.81729955098E+01  0.51100000000E-03 0.  1.
        -12    1    4    4    0    0  0.39668622990E+01 -0.64895974781E+01 -0.19505077861E+02  0.20935590135E+02  0.00000000000E+00 0.  1.
</event>
<event>
 8    1  0.6016610E-012  0.9118800E+02  0.7816164E-02  0.1184000E+00
        -11   -1    0    0    0    0  0.00000000000E+00  0.00000000000E+00  0.45593999997E+02  0.45594000000E+02  0.51100000000E-03 0. -1.
         11   -1    0    0    0    0 -0.00000000000E+00 -0.00000000000E+00 -0.45593999997E+02  0.45594000000E+02  0.51100000000E-03 0.  1.
         23    2    1    2    0    0  0.00000000000E+00 -0.18179902028E-14  0.00000000000E+00  0.91188000000E+02  0.91188000000E+02 0.  0.
    9900012    2    3    3    0    0  0.37737248169E+02 -0.93282534660E-01 -0.15134652914E+02  0.50528851954E+02  0.29999976000E+02 0.  0.
         12    1    3    3    0    0 -0.37737248169E+02  0.93282534660E-01  0.15134652914E+02  0.40659148046E+02  0.00000000000E+00 0. -1.
         11    1    4    4    0    0  0.19601936863E+02  0.12045406423E+02  0.12389022039E+01  0.23040456237E+02  0.51100000000E-03 0. -1.
        -11    1    4    4    0    0  0.77733633500E+01 -0.71412545313E+01 -0.84201815306E+01  0.13502672007E+02  0.51100000000E-03 0.  1.
         12    1    4    4    0    0  0.10361947956E+02 -0.49974344262E+01 -0.79533735869E+01  0.13985723710E+02  0.00000000000E+00 0. -1.
</event>
<event>
 8    1  0.6016610E-012  0.9118800E+02  0.7816164E-02  0.1184000E+00
        -11   -1    0    0    0    0  0.00000000000E+00  0.00000000000E+00  0.45593999997E+02  0.45594000000E+02  0.51100000000E-03 0. -1.
         11   -1    0    0    0    0 -0.00000000000E+00 -0.00000000000E+00 -0.45593999997E+02  0.45594000000E+02  0.51100000000E-03 0.  1.
         23    2    1    2    0    0  0.44408920985E-15 -0.10658141036E-13  0.00000000000E+00  0.91188000000E+02  0.91188000000E+02 0.  0.
    9900012    2    3    3    0    0 -0.29630090426E+01  0.31359357732E+02  0.25709482582E+02  0.50528853002E+02  0.29999979185E+02 0.  0.
        -12    1    3    3    0    0  0.29630090426E+01 -0.31359357732E+02 -0.25709482582E+02  0.40659146998E+02  0.00000000000E+00 0.  1.
         11    1    4    4    0    0 -0.28160674124E+01  0.22851388801E+02  0.81507228123E+01  0.24424383071E+02  0.51100000000E-03 0. -1.
        -11    1    4    4    0    0  0.49211338780E+01 -0.32600755568E+01  0.27205931334E+01  0.64997906535E+01  0.51100000000E-03 0.  1.
        -12    1    4    4    0    0 -0.50680755082E+01  0.11768044488E+02  0.14838166636E+02  0.19604679277E+02  0.00000000000E+00 0.  1.
</event>
<event>
 8    1  0.6016610E-012  0.9118800E+02  0.7816164E-02  0.1184000E+00
        -11   -1    0    0    0    0  0.00000000000E+00  0.00000000000E+00  0.45593999997E+02  0.45594000000E+02  0.51100000000E-03 0. -1.
         11   -1    0    0    0    0 -0.00000000000E+00 -0.00000000000E+00 -0.45593999997E+02  0.45594000000E+02  0.51100000000E-03 0.  1.
         23    2    1    2    0    0 -0.35527136788E-14  0.00000000000E+00  0.44408920985E-15  0.91188000000E+02  0.91188000000E+02 0.  0.
    9900012    2    3    3    0    0  0.29740939884E+02  0.27721891027E+02 -0.37351418568E+00  0.50528852688E+02  0.29999978230E+02 0.  0.
         12    1    3    3    0    0 -0.29740939884E+02 -0.27721891027E+02  0.37351418568E+00  0.40659147312E+02  0.00000000000E+00 0. -1.
         11    1    4    4    0    0  0.19041229866E+02  0.11188087284E+02  0.11112654730E+02  0.24723123332E+02  0.51100000000E-03 0. -1.
        -11    1    4    4    0    0  0.13294545683E+02  0.13496117208E+02 -0.10619119591E+02  0.21717638586E+02  0.51100000000E-03 0.  1.
        -12    1    4    4    0    0 -0.25948356646E+01  0.30376865350E+01 -0.86704932526E+00  0.40880907700E+01  0.00000000000E+00 0.  1.
</event>
<event>
 8    1  0.6016610E-012  0.9118800E+02  0.7816164E-02  0.1184000E+00
        -11   -1    0    0    0    0  0.00000000000E+00  0.00000000000E+00  0.45593999997E+02  0.45594000000E+02  0.51100000000E-03 0. -1.
         11   -1    0    0    0    0 -0.00000000000E+00 -0.00000000000E+00 -0.45593999997E+02  0.45594000000E+02  0.51100000000E-03 0.  1.
         23    2    1    2    0    0  0.00000000000E+00  0.00000000000E+00 -0.71054273576E-14  0.91188000000E+02  0.91188000000E+02 0.  0.
    9900012    2    3    3    0    0  0.10607874351E+02 -0.13686649863E+02 -0.36787414785E+02  0.50528864873E+02  0.30000015267E+02 0.  0.
         12    1    3    3    0    0 -0.10607874351E+02  0.13686649863E+02  0.36787414785E+02  0.40659135127E+02  0.00000000000E+00 0. -1.
         11    1    4    4    0    0  0.93627807489E+01 -0.97561633596E+01 -0.63833952002E+01  0.14952997071E+02  0.51100000000E-03 0.  1.
        -11    1    4    4    0    0 -0.52276081186E+01  0.37345841483E+01 -0.46326885439E+01  0.79206570945E+01  0.51100000000E-03 0. -1.
         12    1    4    4    0    0  0.64727017207E+01 -0.76650706514E+01 -0.25771331041E+02  0.27655210708E+02  0.00000000000E+00 0. -1.
</event>
<event>
 8    1  0.6016610E-012  0.9118800E+02  0.7816164E-02  0.1184000E+00
        -11   -1    0    0    0    0  0.00000000000E+00  0.00000000000E+00  0.45593999997E+02  0.45594000000E+02  0.51100000000E-03 0. -1.
         11   -1    0    0    0    0 -0.00000000000E+00 -0.00000000000E+00 -0.45593999997E+02  0.45594000000E+02  0.51100000000E-03 0.  1.
         23    2    1    2    0    0 -0.17763568394E-14  0.00000000000E+00  0.00000000000E+00  0.91188000000E+02  0.91188000000E+02 0.  0.
    9900012    2    3    3    0    0  0.13077855136E+02  0.11510993925E+02  0.36737348989E+02  0.50528854819E+02  0.29999984708E+02 0.  0.
        -12    1    3    3    0    0 -0.13077855136E+02 -0.11510993925E+02 -0.36737348989E+02  0.40659145181E+02  0.00000000000E+00 0.  1.
         11    1    4    4    0    0 -0.49484133357E+01  0.29832130943E+01  0.73825133065E+01  0.93748524196E+01  0.51100000000E-03 0. -1.
        -11    1    4    4    0    0  0.15057920347E+02 -0.10719539092E+01  0.69904177955E+01  0.16635984839E+02  0.51100000000E-03 0.  1.
        -12    1    4    4    0    0  0.29683481253E+01  0.95997347396E+01  0.22364417887E+02  0.24518017560E+02  0.00000000000E+00 0.  1.
</event>
<event>
 8    1  0.6016610E-012  0.9118800E+02  0.7816164E-02  0.1184000E+00
        -11   -1    0    0    0    0  0.00000000000E+00  0.00000000000E+00  0.45593999997E+02  0.45594000000E+02  0.51100000000E-03 0. -1.
         11   -1    0    0    0    0 -0.00000000000E+00 -0.00000000000E+00 -0.45593999997E+02  0.45594000000E+02  0.51100000000E-03 0.  1.
         23    2    1    2    0    0  0.00000000000E+00  0.00000000000E+00 -0.44408920985E-15  0.91188000000E+02  0.91188000000E+02 0.  0.
    9900012    2    3    3    0    0  0.40136166812E+02  0.58236321531E+01 -0.28878310496E+01  0.50528854092E+02  0.29999982497E+02 0.  0.
        -12    1    3    3    0    0 -0.40136166812E+02 -0.58236321531E+01  0.28878310496E+01  0.40659145908E+02  0.00000000000E+00 0.  1.
         11    1    4    4    0    0  0.22753086131E+02  0.12153045828E+02  0.33667818549E+01  0.26014124466E+02  0.51100000000E-03 0. -1.
        -11    1    4    4    0    0  0.15819014965E+02 -0.56514169194E+01 -0.10589006870E+02  0.19857160281E+02  0.51100000000E-03 0.  1.
        -12    1    4    4    0    0  0.15640657154E+01 -0.67799675530E+00  0.43343939650E+01  0.46575693453E+01  0.00000000000E+00 0.  1.
</event>
<event>
 8    1  0.6016610E-012  0.9118800E+02  0.7816164E-02  0.1184000E+00
        -11   -1    0    0    0    0  0.00000000000E+00  0.00000000000E+00  0.45593999997E+02  0.45594000000E+02  0.51100000000E-03 0. -1.
         11   -1    0    0    0    0 -0.00000000000E+00 -0.00000000000E+00 -0.45593999997E+02  0.45594000000E+02  0.51100000000E-03 0.  1.
         23    2    1    2    0    0  0.00000000000E+00  0.00000000000E+00  0.00000000000E+00  0.91188000000E+02  0.91188000000E+02 0.  0.
    9900012    2    3    3    0    0 -0.15271789492E+02  0.14174742668E+02  0.34914417435E+02  0.50528838316E+02  0.29999934546E+02 0.  0.
        -12    1    3    3    0    0  0.15271789492E+02 -0.14174742668E+02 -0.34914417435E+02  0.40659161684E+02  0.00000000000E+00 0.  1.
         11    1    4    4    0    0 -0.49635666371E+00 -0.27518805715E+01  0.25091384433E+02  0.25246718394E+02  0.51100000000E-03 0. -1.
        -11    1    4    4    0    0 -0.34483983332E+01  0.80721185985E+01  0.23913710614E+01  0.90977582704E+01  0.51100000000E-03 0.  1.
         12    1    4    4    0    0 -0.11327034495E+02  0.88545046406E+01  0.74316619405E+01  0.16184361652E+02  0.00000000000E+00 0. -1.
</event>
<event>
 8    1  0.6016610E-012  0.9118800E+02  0.7816164E-02  0.1184000E+00
        -11   -1    0    0    0    0  0.00000000000E+00  0.00000000000E+00  0.45593999997E+02  0.45594000000E+02  0.51100000000E-03 0. -1.
         11   -1    0    0    0    0 -0.00000000000E+00 -0.00000000000E+00 -0.45593999997E+02  0.45594000000E+02  0.51100000000E-03 0.  1.
         23    2    1    2    0    0  0.88817841970E-15  0.35527136788E-14 -0.71054273576E-14  0.91188000000E+02  0.91188000000E+02 0.  0.
    9900012    2    3    3    0    0 -0.35268967132E+01 -0.18223677906E+02  0.36174912935E+02  0.50528858805E+02  0.29999996823E+02 0.  0.
        -12    1    3    3    0    0  0.35268967132E+01  0.18223677906E+02 -0.36174912935E+02  0.40659141195E+02  0.00000000000E+00 0.  1.
         11    1    4    4    0    0  0.28918459725E+01  0.58239712960E+01  0.60157854074E+01  0.88583908874E+01  0.51100000000E-03 0. -1.
        -11    1    4    4    0    0 -0.45974480071E+01 -0.15588920044E+02  0.84876585530E+01  0.18335520289E+02  0.51100000000E-03 0.  1.
         12    1    4    4    0    0 -0.18212946786E+01 -0.84587291584E+01  0.21671468975E+02  0.23334947628E+02  0.00000000000E+00 0. -1.
</event>
<event>
 8    1  0.6016610E-012  0.9118800E+02  0.7816164E-02  0.1184000E+00
        -11   -1    0    0    0    0  0.00000000000E+00  0.00000000000E+00  0.45593999997E+02  0.45594000000E+02  0.51100000000E-03 0.  1.
         11   -1    0    0    0    0 -0.00000000000E+00 -0.00000000000E+00 -0.45593999997E+02  0.45594000000E+02  0.51100000000E-03 0. -1.
         23    2    1    2    0    0  0.17763568394E-14  0.00000000000E+00  0.00000000000E+00  0.91188000000E+02  0.91188000000E+02 0.  0.
    9900012    2    3    3    0    0 -0.70391688139E+01  0.29498716062E+02 -0.27082084703E+02  0.50528887138E+02  0.30000082944E+02 0.  0.
         12    1    3    3    0    0  0.70391688139E+01 -0.29498716062E+02  0.27082084703E+02  0.40659112862E+02  0.00000000000E+00 0. -1.
         11    1    4    4    0    0 -0.47237738442E+01  0.39032937116E+01 -0.62339350301E+01  0.87413778863E+01  0.51100000000E-03 0. -1.
        -11    1    4    4    0    0  0.88183865677E+01  0.19238010317E+02 -0.19703927202E+02  0.28915562074E+02  0.51100000000E-03 0.  1.
        -12    1    4    4    0    0 -0.11133781537E+02  0.63574120331E+01 -0.11442224708E+01  0.12871947178E+02  0.00000000000E+00 0.  1.
</event>
<event>
 8    1  0.6016610E-012  0.9118800E+02  0.7816164E-02  0.1184000E+00
        -11   -1    0    0    0    0  0.00000000000E+00  0.00000000000E+00  0.45593999997E+02  0.45594000000E+02  0.51100000000E-03 0. -1.
         11   -1    0    0    0    0 -0.00000000000E+00 -0.00000000000E+00 -0.45593999997E+02  0.45594000000E+02  0.51100000000E-03 0.  1.
         23    2    1    2    0    0  0.17763568394E-14 -0.44408920985E-15  0.00000000000E+00  0.91188000000E+02  0.91188000000E+02 0.  0.
    9900012    2    3    3    0    0 -0.13360764309E+02  0.22613571306E+01 -0.38334589465E+02  0.50528874229E+02  0.30000043708E+02 0.  0.
         12    1    3    3    0    0  0.13360764309E+02 -0.22613571306E+01  0.38334589465E+02  0.40659125771E+02  0.00000000000E+00 0. -1.
         11    1    4    4    0    0 -0.14015218250E+02  0.79996491492E+01 -0.16125360776E+02  0.22813329207E+02  0.51100000000E-03 0. -1.
        -11    1    4    4    0    0  0.60331355856E+01 -0.26572093626E+01 -0.20122851187E+02  0.21175188942E+02  0.51100000000E-03 0.  1.
        -12    1    4    4    0    0 -0.53786816447E+01 -0.30810826559E+01 -0.20863775017E+01  0.65403560796E+01  0.00000000000E+00 0.  1.
</event>
<event>
 8    1  0.6016610E-012  0.9118800E+02  0.7816164E-02  0.1184000E+00
        -11   -1    0    0    0    0  0.00000000000E+00  0.00000000000E+00  0.45593999997E+02  0.45594000000E+02  0.51100000000E-03 0. -1.
         11   -1    0    0    0    0 -0.00000000000E+00 -0.00000000000E+00 -0.45593999997E+02  0.45594000000E+02  0.51100000000E-03 0.  1.
         23    2    1    2    0    0  0.00000000000E+00  0.00000000000E+00  0.00000000000E+00  0.91188000000E+02  0.91188000000E+02 0.  0.
    9900012    2    3    3    0    0 -0.22576645509E+02 -0.10487908547E+02 -0.32147545416E+02  0.50528858046E+02  0.29999994517E+02 0.  0.
         12    1    3    3    0    0  0.22576645509E+02  0.10487908547E+02  0.32147545416E+02  0.40659141954E+02  0.00000000000E+00 0. -1.
         11    1    4    4    0    0 -0.40749064563E+01 -0.17279881071E+02 -0.93757637482E+01  0.20077452492E+02  0.51100000000E-03 0. -1.
        -11    1    4    4    0    0 -0.10952061070E+02  0.44813306892E+01 -0.16812842208E+02  0.20559708894E+02  0.51100000000E-03 0.  1.
         12    1    4    4    0    0 -0.75496779822E+01  0.23106418345E+01 -0.59589394597E+01  0.98916966596E+01  0.00000000000E+00 0. -1.
</event>
<event>
 8    1  0.6016610E-012  0.9118800E+02  0.7816164E-02  0.1184000E+00
        -11   -1    0    0    0    0  0.00000000000E+00  0.00000000000E+00  0.45593999997E+02  0.45594000000E+02  0.51100000000E-03 0. -1.
         11   -1    0    0    0    0 -0.00000000000E+00 -0.00000000000E+00 -0.45593999997E+02  0.45594000000E+02  0.51100000000E-03 0.  1.
         23    2    1    2    0    0  0.35527136788E-14 -0.26645352591E-14  0.00000000000E+00  0.91188000000E+02  0.91188000000E+02 0.  0.
    9900012    2    3    3    0    0  0.24228508945E+02  0.44566079398E+01 -0.32346269437E+02  0.50528890977E+02  0.30000094614E+02 0.  0.
         12    1    3    3    0    0 -0.24228508945E+02 -0.44566079398E+01  0.32346269437E+02  0.40659109023E+02  0.00000000000E+00 0. -1.
         11    1    4    4    0    0  0.81649583819E+01 -0.80765968939E+01 -0.72468763927E+01  0.13579955098E+02  0.51100000000E-03 0. -1.
        -11    1    4    4    0    0 -0.76371542877E+00  0.46329759062E+01 -0.15156943972E+02  0.15867598364E+02  0.51100000000E-03 0.  1.
         12    1    4    4    0    0  0.16827265992E+02  0.79002289274E+01 -0.99424490726E+01  0.21081337515E+02  0.00000000000E+00 0. -1.
</event>
<event>
 8    1  0.6016610E-012  0.9118800E+02  0.7816164E-02  0.1184000E+00
        -11   -1    0    0    0    0  0.00000000000E+00  0.00000000000E+00  0.45593999997E+02  0.45594000000E+02  0.51100000000E-03 0. -1.
         11   -1    0    0    0    0 -0.00000000000E+00 -0.00000000000E+00 -0.45593999997E+02  0.45594000000E+02  0.51100000000E-03 0.  1.
         23    2    1    2    0    0  0.17763568394E-14  0.00000000000E+00  0.17763568394E-14  0.91188000000E+02  0.91188000000E+02 0.  0.
    9900012    2    3    3    0    0  0.35493958851E+01 -0.37839107001E+02  0.14448860267E+02  0.50528858435E+02  0.29999995699E+02 0.  0.
        -12    1    3    3    0    0 -0.35493958851E+01  0.37839107001E+02 -0.14448860267E+02  0.40659141565E+02  0.00000000000E+00 0.  1.
         11    1    4    4    0    0 -0.11162819741E+02 -0.17103161439E+02  0.14016315495E+02  0.24770623247E+02  0.51100000000E-03 0. -1.
        -11    1    4    4    0    0  0.65722133978E+01 -0.88757463342E+01  0.22128354196E+01  0.11263636304E+02  0.51100000000E-03 0.  1.
         12    1    4    4    0    0  0.81400022279E+01 -0.11860199229E+02 -0.17802906477E+01  0.14494598884E+02  0.00000000000E+00 0. -1.
</event>
<event>
 8    1  0.6016610E-012  0.9118800E+02  0.7816164E-02  0.1184000E+00
        -11   -1    0    0    0    0  0.00000000000E+00  0.00000000000E+00  0.45593999997E+02  0.45594000000E+02  0.51100000000E-03 0. -1.
         11   -1    0    0    0    0 -0.00000000000E+00 -0.00000000000E+00 -0.45593999997E+02  0.45594000000E+02  0.51100000000E-03 0.  1.
         23    2    1    2    0    0  0.17763568394E-14 -0.88817841970E-15  0.00000000000E+00  0.91188000000E+02  0.91188000000E+02 0.  0.
    9900012    2    3    3    0    0  0.13946603684E+02 -0.77414238970E+01  0.37399569488E+02  0.50528865772E+02  0.30000018001E+02 0.  0.
        -12    1    3    3    0    0 -0.13946603684E+02  0.77414238970E+01 -0.37399569488E+02  0.40659134228E+02  0.00000000000E+00 0.  1.
         11    1    4    4    0    0  0.14081542956E+02  0.90139026112E+01  0.14807289054E+02  0.22333743566E+02  0.51100000000E-03 0. -1.
        -11    1    4    4    0    0  0.69600832879E+00 -0.63834294913E+01  0.76651725613E+01  0.99993734964E+01  0.51100000000E-03 0.  1.
         12    1    4    4    0    0 -0.83094760121E+00 -0.10371897017E+02  0.14927107873E+02  0.18195748710E+02  0.00000000000E+00 0. -1.
</event>
<event>
 8    1  0.6016610E-012  0.9118800E+02  0.7816164E-02  0.1184000E+00
        -11   -1    0    0    0    0  0.00000000000E+00  0.00000000000E+00  0.45593999997E+02  0.45594000000E+02  0.51100000000E-03 0.  1.
         11   -1    0    0    0    0 -0.00000000000E+00 -0.00000000000E+00 -0.45593999997E+02  0.45594000000E+02  0.51100000000E-03 0. -1.
         23    2    1    2    0    0  0.35527136788E-14  0.00000000000E+00 -0.44408920985E-15  0.91188000000E+02  0.91188000000E+02 0.  0.
    9900012    2    3    3    0    0 -0.30440896996E+02 -0.26934700792E+02  0.10189755907E+01  0.50528872760E+02  0.30000039241E+02 0.  0.
        -12    1    3    3    0    0  0.30440896996E+02  0.26934700792E+02 -0.10189755907E+01  0.40659127240E+02  0.00000000000E+00 0.  1.
         11    1    4    4    0    0 -0.11818013488E+02  0.19961669767E-01 -0.17410040615E+01  0.11945582308E+02  0.51100000000E-03 0. -1.
        -11    1    4    4    0    0 -0.20897325390E+02 -0.25069105895E+02 -0.23066905935E+01  0.32718176914E+02  0.51100000000E-03 0.  1.
        -12    1    4    4    0    0  0.22744418817E+01 -0.18855565676E+01  0.50666702458E+01  0.58651135387E+01  0.00000000000E+00 0.  1.
</event>
<event>
 8    1  0.6016610E-012  0.9118800E+02  0.7816164E-02  0.1184000E+00
        -11   -1    0    0    0    0  0.00000000000E+00  0.00000000000E+00  0.45593999997E+02  0.45594000000E+02  0.51100000000E-03 0. -1.
         11   -1    0    0    0    0 -0.00000000000E+00 -0.00000000000E+00 -0.45593999997E+02  0.45594000000E+02  0.51100000000E-03 0.  1.
         23    2    1    2    0    0  0.00000000000E+00  0.00000000000E+00  0.35527136788E-14  0.91188000000E+02  0.91188000000E+02 0.  0.
    9900012    2    3    3    0    0 -0.32114879293E+02  0.93756348315E+01 -0.23106220332E+02  0.50528863038E+02  0.30000009690E+02 0.  0.
         12    1    3    3    0    0  0.32114879293E+02 -0.93756348315E+01  0.23106220332E+02  0.40659136962E+02  0.00000000000E+00 0. -1.
         11    1    4    4    0    0 -0.79449091832E+01 -0.71421258181E+01 -0.17094889676E+01  0.10819144879E+02  0.51100000000E-03 0. -1.
        -11    1    4    4    0    0 -0.24367896915E+02  0.16612466952E+02 -0.23429113774E+02  0.37665525760E+02  0.51100000000E-03 0.  1.
        -12    1    4    4    0    0  0.19792680493E+00 -0.94706302639E-01  0.20323824097E+01  0.20441923987E+01  0.00000000000E+00 0.  1.
</event>
<event>
 8    1  0.6016610E-012  0.9118800E+02  0.7816164E-02  0.1184000E+00
        -11   -1    0    0    0    0  0.00000000000E+00  0.00000000000E+00  0.45593999997E+02  0.45594000000E+02  0.51100000000E-03 0. -1.
         11   -1    0    0    0    0 -0.00000000000E+00 -0.00000000000E+00 -0.45593999997E+02  0.45594000000E+02  0.51100000000E-03 0.  1.
         23    2    1    2    0    0 -0.11102230246E-14  0.00000000000E+00  0.00000000000E+00  0.91188000000E+02  0.91188000000E+02 0.  0.
    9900012    2    3    3    0    0  0.18062798893E+01 -0.12490121208E+02 -0.38651010064E+02  0.50528851536E+02  0.29999974730E+02 0.  0.
         12    1    3    3    0    0 -0.18062798893E+01  0.12490121208E+02  0.38651010064E+02  0.40659148464E+02  0.00000000000E+00 0. -1.
         11    1    4    4    0    0  0.15535143160E+02 -0.67568986607E+01 -0.18878286538E+02  0.25365055793E+02  0.51100000000E-03 0. -1.
        -11    1    4    4    0    0 -0.82829028785E+01 -0.36075254973E+01 -0.82117415999E+01  0.12208743616E+02  0.51100000000E-03 0.  1.
         12    1    4    4    0    0 -0.54459603919E+01 -0.21256970498E+01 -0.11560981926E+02  0.12955052128E+02  0.00000000000E+00 0. -1.
</event>
<event>
 8    1  0.6016610E-012  0.9118800E+02  0.7816164E-02  0.1184000E+00
        -11   -1    0    0    0    0  0.00000000000E+00  0.00000000000E+00  0.45593999997E+02  0.45594000000E+02  0.51100000000E-03 0. -1.
         11   -1    0    0    0    0 -0.00000000000E+00 -0.00000000000E+00 -0.45593999997E+02  0.45594000000E+02  0.51100000000E-03 0.  1.
         23    2    1    2    0    0  0.00000000000E+00  0.35527136788E-14  0.00000000000E+00  0.91188000000E+02  0.91188000000E+02 0.  0.
    9900012    2    3    3    0    0 -0.21570997640E+02  0.20421369617E+02 -0.27763706608E+02  0.50528884407E+02  0.30000074643E+02 0.  0.
         12    1    3    3    0    0  0.21570997640E+02 -0.20421369617E+02  0.27763706608E+02  0.40659115593E+02  0.00000000000E+00 0. -1.
         11    1    4    4    0    0 -0.15612533105E+02 -0.94862414485E-01 -0.20909393292E+02  0.26095266179E+02  0.51100000000E-03 0. -1.
        -11    1    4    4    0    0 -0.60992422075E+00  0.10961986712E+02 -0.77634353718E+01  0.13446489849E+02  0.51100000000E-03 0.  1.
         12    1    4    4    0    0 -0.53485403138E+01  0.95542453195E+01  0.90912205579E+00  0.10987128379E+02  0.00000000000E+00 0. -1.
</event>
<event>
 8    1  0.6016610E-012  0.9118800E+02  0.7816164E-02  0.1184000E+00
        -11   -1    0    0    0    0  0.00000000000E+00  0.00000000000E+00  0.45593999997E+02  0.45594000000E+02  0.51100000000E-03 0. -1.
         11   -1    0    0    0    0 -0.00000000000E+00 -0.00000000000E+00 -0.45593999997E+02  0.45594000000E+02  0.51100000000E-03 0.  1.
         23    2    1    2    0    0 -0.35527136788E-14 -0.35527136788E-14 -0.35527136788E-14  0.91188000000E+02  0.91188000000E+02 0.  0.
    9900012    2    3    3    0    0  0.21072922138E+02 -0.18497190582E+02 -0.29444040352E+02  0.50528860571E+02  0.30000002192E+02 0.  0.
         12    1    3    3    0    0 -0.21072922138E+02  0.18497190582E+02  0.29444040352E+02  0.40659139429E+02  0.00000000000E+00 0. -1.
         11    1    4    4    0    0 -0.20549535210E+01 -0.17022866556E+01 -0.11955892048E+01  0.29240464496E+01  0.51100000000E-03 0. -1.
        -11    1    4    4    0    0  0.22486612147E+01 -0.44938162984E+01 -0.22016829300E+02  0.22582994374E+02  0.51100000000E-03 0.  1.
        -12    1    4    4    0    0  0.20879214445E+02 -0.12301087628E+02 -0.62316218468E+01  0.25021819748E+02  0.00000000000E+00 0.  1.
</event>
<event>
 8    1  0.6016610E-012  0.9118800E+02  0.7816164E-02  0.1184000E+00
        -11   -1    0    0    0    0  0.00000000000E+00  0.00000000000E+00  0.45593999997E+02  0.45594000000E+02  0.51100000000E-03 0. -1.
         11   -1    0    0    0    0 -0.00000000000E+00 -0.00000000000E+00 -0.45593999997E+02  0.45594000000E+02  0.51100000000E-03 0.  1.
         23    2    1    2    0    0 -0.17763568394E-14  0.00000000000E+00 -0.71054273576E-14  0.91188000000E+02  0.91188000000E+02 0.  0.
    9900012    2    3    3    0    0  0.12180161707E+02  0.10864285702E+02  0.37239446285E+02  0.50528863233E+02  0.30000010283E+02 0.  0.
        -12    1    3    3    0    0 -0.12180161707E+02 -0.10864285702E+02 -0.37239446285E+02  0.40659136767E+02  0.00000000000E+00 0.  1.
         11    1    4    4    0    0  0.63065240832E+01  0.19602531278E+02  0.13740472313E+02  0.24755445021E+02  0.51100000000E-03 0. -1.
        -11    1    4    4    0    0  0.48405635517E+01 -0.64101182164E+01  0.18224993436E+02  0.19916602548E+02  0.51100000000E-03 0.  1.
         12    1    4    4    0    0  0.10330740720E+01 -0.23281273591E+01  0.52739805356E+01  0.58568156645E+01  0.00000000000E+00 0. -1.
</event>
<event>
 8    1  0.6016610E-012  0.9118800E+02  0.7816164E-02  0.1184000E+00
        -11   -1    0    0    0    0  0.00000000000E+00  0.00000000000E+00  0.45593999997E+02  0.45594000000E+02  0.51100000000E-03 0. -1.
         11   -1    0    0    0    0 -0.00000000000E+00 -0.00000000000E+00 -0.45593999997E+02  0.45594000000E+02  0.51100000000E-03 0.  1.
         23    2    1    2    0    0  0.00000000000E+00  0.88817841970E-15  0.00000000000E+00  0.91188000000E+02  0.91188000000E+02 0.  0.
    9900012    2    3    3    0    0 -0.36894402271E+02  0.47798245289E+01  0.16404974671E+02  0.50528845613E+02  0.29999956726E+02 0.  0.
        -12    1    3    3    0    0  0.36894402271E+02 -0.47798245289E+01 -0.16404974671E+02  0.40659154387E+02  0.00000000000E+00 0.  1.
         11    1    4    4    0    0 -0.67132128874E+01  0.41109287128E+01  0.40502760674E+01  0.88527791476E+01  0.51100000000E-03 0. -1.
        -11    1    4    4    0    0 -0.19611705834E+02 -0.12187979326E+02  0.59692658588E+01  0.23849485967E+02  0.51100000000E-03 0.  1.
        -12    1    4    4    0    0 -0.10569483550E+02  0.12856875142E+02  0.63854327451E+01  0.17826580498E+02  0.00000000000E+00 0.  1.
</event>
<event>
 8    1  0.6016610E-012  0.9118800E+02  0.7816164E-02  0.1184000E+00
        -11   -1    0    0    0    0  0.00000000000E+00  0.00000000000E+00  0.45593999997E+02  0.45594000000E+02  0.51100000000E-03 0. -1.
         11   -1    0    0    0    0 -0.00000000000E+00 -0.00000000000E+00 -0.45593999997E+02  0.45594000000E+02  0.51100000000E-03 0.  1.
         23    2    1    2    0    0 -0.35527136788E-14 -0.35527136788E-14  0.00000000000E+00  0.91188000000E+02  0.91188000000E+02 0.  0.
    9900012    2    3    3    0    0 -0.22374590091E+02 -0.19865147604E+02 -0.27530331202E+02  0.50528861948E+02  0.30000006376E+02 0.  0.
         12    1    3    3    0    0  0.22374590091E+02  0.19865147604E+02  0.27530331202E+02  0.40659138052E+02  0.00000000000E+00 0. -1.
         11    1    4    4    0    0 -0.19964349379E+02 -0.33048606599E+01 -0.15093159475E+02  0.25244817553E+02  0.51100000000E-03 0. -1.
        -11    1    4    4    0    0 -0.33947359080E+01 -0.18417615691E+02 -0.79821598828E+01  0.20357988021E+02  0.51100000000E-03 0.  1.
        -12    1    4    4    0    0  0.98449519592E+00  0.18573287462E+01 -0.44550118445E+01  0.49260563737E+01  0.00000000000E+00 0.  1.
</event>
<event>
 8    1  0.6016610E-012  0.9118800E+02  0.7816164E-02  0.1184000E+00
        -11   -1    0    0    0    0  0.00000000000E+00  0.00000000000E+00  0.45593999997E+02  0.45594000000E+02  0.51100000000E-03 0. -1.
         11   -1    0    0    0    0 -0.00000000000E+00 -0.00000000000E+00 -0.45593999997E+02  0.45594000000E+02  0.51100000000E-03 0.  1.
         23    2    1    2    0    0  0.88817841970E-15  0.88817841970E-15  0.00000000000E+00  0.91188000000E+02  0.91188000000E+02 0.  0.
    9900012    2    3    3    0    0 -0.54641324739E+01 -0.56616963084E+01  0.39890505255E+02  0.50528880995E+02  0.30000064272E+02 0.  0.
        -12    1    3    3    0    0  0.54641324739E+01  0.56616963084E+01 -0.39890505255E+02  0.40659119005E+02  0.00000000000E+00 0.  1.
         11    1    4    4    0    0 -0.11715227521E+02 -0.86602287820E+01  0.29821675997E+02  0.33190035824E+02  0.51100000000E-03 0. -1.
        -11    1    4    4    0    0  0.32171089718E+01 -0.31491798355E+01 -0.71700207000E+00  0.45586419033E+01  0.51100000000E-03 0.  1.
         12    1    4    4    0    0  0.30339860755E+01  0.61477123091E+01  0.10785831327E+02  0.12780203268E+02  0.00000000000E+00 0. -1.
</event>
<event>
 8    1  0.6016610E-012  0.9118800E+02  0.7816164E-02  0.1184000E+00
        -11   -1    0    0    0    0  0.00000000000E+00  0.00000000000E+00  0.45593999997E+02  0.45594000000E+02  0.51100000000E-03 0. -1.
         11   -1    0    0    0    0 -0.00000000000E+00 -0.00000000000E+00 -0.45593999997E+02  0.45594000000E+02  0.51100000000E-03 0.  1.
         23    2    1    2    0    0  0.17763568394E-14 -0.71054273576E-14  0.00000000000E+00  0.91188000000E+02  0.91188000000E+02 0.  0.
    9900012    2    3    3    0    0  0.81819129219E+01  0.37074420899E+02 -0.14550235058E+02  0.50528859278E+02  0.29999998260E+02 0.  0.
         12    1    3    3    0    0 -0.81819129219E+01 -0.37074420899E+02  0.14550235058E+02  0.40659140722E+02  0.00000000000E+00 0. -1.
         11    1    4    4    0    0  0.78670316757E+01  0.16432899475E+02 -0.12015718235E+01  0.18258536295E+02  0.51100000000E-03 0. -1.
        -11    1    4    4    0    0 -0.43623075189E+01  0.47681131059E+00  0.34736354212E+01  0.55967150379E+01  0.51100000000E-03 0.  1.
        -12    1    4    4    0    0  0.46771887650E+01  0.20164710114E+02 -0.16822298656E+02  0.26673607945E+02  0.00000000000E+00 0.  1.
</event>
<event>
 8    1  0.6016610E-012  0.9118800E+02  0.7816164E-02  0.1184000E+00
        -11   -1    0    0    0    0  0.00000000000E+00  0.00000000000E+00  0.45593999997E+02  0.45594000000E+02  0.51100000000E-03 0. -1.
         11   -1    0    0    0    0 -0.00000000000E+00 -0.00000000000E+00 -0.45593999997E+02  0.45594000000E+02  0.51100000000E-03 0.  1.
         23    2    1    2    0    0 -0.17763568394E-14  0.13322676296E-14  0.00000000000E+00  0.91188000000E+02  0.91188000000E+02 0.  0.
    9900012    2    3    3    0    0  0.12994562444E+02 -0.13539698447E+01 -0.38502961516E+02  0.50528807522E+02  0.29999840945E+02 0.  0.
         12    1    3    3    0    0 -0.12994562444E+02  0.13539698447E+01  0.38502961516E+02  0.40659192478E+02  0.00000000000E+00 0. -1.
         11    1    4    4    0    0  0.94519150586E+01 -0.38801946933E+01 -0.12448437569E+01  0.10292922101E+02  0.51100000000E-03 0. -1.
        -11    1    4    4    0    0  0.34972680170E+01  0.68418592685E+01 -0.33920802399E+02  0.34780206404E+02  0.51100000000E-03 0.  1.
         12    1    4    4    0    0  0.45379368554E-01 -0.43156344199E+01 -0.33373153593E+01  0.54556790174E+01  0.00000000000E+00 0. -1.
</event>
<event>
 8    1  0.6016610E-012  0.9118800E+02  0.7816164E-02  0.1184000E+00
        -11   -1    0    0    0    0  0.00000000000E+00  0.00000000000E+00  0.45593999997E+02  0.45594000000E+02  0.51100000000E-03 0. -1.
         11   -1    0    0    0    0 -0.00000000000E+00 -0.00000000000E+00 -0.45593999997E+02  0.45594000000E+02  0.51100000000E-03 0.  1.
         23    2    1    2    0    0  0.00000000000E+00  0.00000000000E+00 -0.35527136788E-14  0.91188000000E+02  0.91188000000E+02 0.  0.
    9900012    2    3    3    0    0 -0.24178870551E+02 -0.19894923199E+02 -0.25937241187E+02  0.50528853052E+02  0.29999979336E+02 0.  0.
         12    1    3    3    0    0  0.24178870551E+02  0.19894923199E+02  0.25937241187E+02  0.40659146948E+02  0.00000000000E+00 0. -1.
         11    1    4    4    0    0 -0.13353036944E+02 -0.15507231782E+02 -0.10695608757E+01  0.20491993409E+02  0.51100000000E-03 0. -1.
        -11    1    4    4    0    0 -0.12498583027E+02 -0.38514011100E+00 -0.18167882322E+02  0.22055268280E+02  0.51100000000E-03 0.  1.
         12    1    4    4    0    0  0.16727494199E+01 -0.40025513061E+01 -0.66997979889E+01  0.79815913621E+01  0.00000000000E+00 0. -1.
</event>
<event>
 8    1  0.6016610E-012  0.9118800E+02  0.7816164E-02  0.1184000E+00
        -11   -1    0    0    0    0  0.00000000000E+00  0.00000000000E+00  0.45593999997E+02  0.45594000000E+02  0.51100000000E-03 0.  1.
         11   -1    0    0    0    0 -0.00000000000E+00 -0.00000000000E+00 -0.45593999997E+02  0.45594000000E+02  0.51100000000E-03 0. -1.
         23    2    1    2    0    0  0.35527136788E-14 -0.35527136788E-14 -0.88817841970E-15  0.91188000000E+02  0.91188000000E+02 0.  0.
    9900012    2    3    3    0    0  0.26905467920E+02 -0.30308726269E+02  0.32616095940E+01  0.50528915048E+02  0.30000167778E+02 0.  0.
        -12    1    3    3    0    0 -0.26905467920E+02  0.30308726269E+02 -0.32616095940E+01  0.40659084952E+02  0.00000000000E+00 0.  1.
         11    1    4    4    0    0  0.15869305575E+02 -0.60670841403E+01  0.41435681311E+01  0.17487524882E+02  0.51100000000E-03 0. -1.
        -11    1    4    4    0    0  0.13075035487E+02 -0.23800570179E+02 -0.57389791475E+01  0.27755352200E+02  0.51100000000E-03 0.  1.
        -12    1    4    4    0    0 -0.20388731424E+01 -0.44107194912E+00  0.48570206104E+01  0.52860379648E+01  0.00000000000E+00 0.  1.
</event>
<event>
 8    1  0.6016610E-012  0.9118800E+02  0.7816164E-02  0.1184000E+00
        -11   -1    0    0    0    0  0.00000000000E+00  0.00000000000E+00  0.45593999997E+02  0.45594000000E+02  0.51100000000E-03 0. -1.
         11   -1    0    0    0    0 -0.00000000000E+00 -0.00000000000E+00 -0.45593999997E+02  0.45594000000E+02  0.51100000000E-03 0.  1.
         23    2    1    2    0    0  0.71054273576E-14  0.00000000000E+00  0.10200174039E-14  0.91188000000E+02  0.91188000000E+02 0.  0.
    9900012    2    3    3    0    0 -0.35752207425E+02  0.19363462227E+02 -0.42226781735E-01  0.50528858491E+02  0.29999995868E+02 0.  0.
        -12    1    3    3    0    0  0.35752207425E+02 -0.19363462227E+02  0.42226781735E-01  0.40659141509E+02  0.00000000000E+00 0.  1.
         11    1    4    4    0    0 -0.10814681233E+02  0.43214066959E+01  0.10778787885E+02  0.15868653205E+02  0.51100000000E-03 0. -1.
        -11    1    4    4    0    0 -0.30487551946E+01  0.78110135216E+01 -0.77249898681E+01  0.11400978431E+02  0.51100000000E-03 0.  1.
         12    1    4    4    0    0 -0.21888770997E+02  0.72310420097E+01 -0.30960247986E+01  0.23259226855E+02  0.00000000000E+00 0. -1.
</event>
<event>
 8    1  0.6016610E-012  0.9118800E+02  0.7816164E-02  0.1184000E+00
        -11   -1    0    0    0    0  0.00000000000E+00  0.00000000000E+00  0.45593999997E+02  0.45594000000E+02  0.51100000000E-03 0. -1.
         11   -1    0    0    0    0 -0.00000000000E+00 -0.00000000000E+00 -0.45593999997E+02  0.45594000000E+02  0.51100000000E-03 0.  1.
         23    2    1    2    0    0  0.00000000000E+00 -0.13322676296E-14  0.00000000000E+00  0.91188000000E+02  0.91188000000E+02 0.  0.
    9900012    2    3    3    0    0 -0.18580390826E+02  0.26759664258E+01 -0.36066230711E+02  0.50528871662E+02  0.30000035903E+02 0.  0.
         12    1    3    3    0    0  0.18580390826E+02 -0.26759664258E+01  0.36066230711E+02  0.40659128338E+02  0.00000000000E+00 0. -1.
         11    1    4    4    0    0  0.12233471927E+01 -0.18997617480E+01 -0.14767188744E+02  0.14939060771E+02  0.51100000000E-03 0. -1.
        -11    1    4    4    0    0 -0.14778220625E+02 -0.43941122102E+01 -0.47968072471E+01  0.16146621535E+02  0.51100000000E-03 0.  1.
        -12    1    4    4    0    0 -0.50255173932E+01  0.89698403840E+01 -0.16502234719E+02  0.19443189356E+02  0.00000000000E+00 0.  1.
</event>
<event>
 8    1  0.6016610E-012  0.9118800E+02  0.7816164E-02  0.1184000E+00
        -11   -1    0    0    0    0  0.00000000000E+00  0.00000000000E+00  0.45593999997E+02  0.45594000000E+02  0.51100000000E-03 0.  1.
         11   -1    0    0    0    0 -0.00000000000E+00 -0.00000000000E+00 -0.45593999997E+02  0.45594000000E+02  0.51100000000E-03 0. -1.
         23    2    1    2    0    0 -0.13322676296E-14  0.00000000000E+00 -0.35527136788E-14  0.91188000000E+02  0.91188000000E+02 0.  0.
    9900012    2    3    3    0    0 -0.23591834425E+01  0.26850411064E+02  0.30441021161E+02  0.50528854778E+02  0.29999984583E+02 0.  0.
        -12    1    3    3    0    0  0.23591834425E+01 -0.26850411064E+02 -0.30441021161E+02  0.40659145222E+02  0.00000000000E+00 0.  1.
         11    1    4    4    0    0 -0.66780763612E+00  0.26171542727E+01 -0.30530322916E+01  0.40763304528E+01  0.51100000000E-03 0. -1.
        -11    1    4    4    0    0 -0.64533196220E+01  0.25530352378E+02  0.31677145466E+02  0.41193273381E+02  0.51100000000E-03 0.  1.
        -12    1    4    4    0    0  0.47619438156E+01 -0.12970955867E+01  0.18169079873E+01  0.52592509446E+01  0.00000000000E+00 0.  1.
</event>
<event>
 8    1  0.6016610E-012  0.9118800E+02  0.7816164E-02  0.1184000E+00
        -11   -1    0    0    0    0  0.00000000000E+00  0.00000000000E+00  0.45593999997E+02  0.45594000000E+02  0.51100000000E-03 0.  1.
         11   -1    0    0    0    0 -0.00000000000E+00 -0.00000000000E+00 -0.45593999997E+02  0.45594000000E+02  0.51100000000E-03 0. -1.
         23    2    1    2    0    0 -0.71054273576E-14 -0.35527136788E-14 -0.88817841970E-15  0.91188000000E+02  0.91188000000E+02 0.  0.
    9900012    2    3    3    0    0 -0.33784815374E+02 -0.22121591673E+02 -0.47314855388E+01  0.50528861748E+02  0.30000005768E+02 0.  0.
        -12    1    3    3    0    0  0.33784815374E+02  0.22121591673E+02  0.47314855388E+01  0.40659138252E+02  0.00000000000E+00 0.  1.
         11    1    4    4    0    0 -0.15600015230E+02 -0.11449161274E+02 -0.56566478485E+01  0.20160392710E+02  0.51100000000E-03 0. -1.
        -11    1    4    4    0    0  0.48473792197E+01 -0.26714981660E+01 -0.18335658487E+01  0.58306047485E+01  0.51100000000E-03 0.  1.
        -12    1    4    4    0    0 -0.23032179364E+02 -0.80009322329E+01  0.27587281584E+01  0.24537864290E+02  0.00000000000E+00 0.  1.
</event>
<event>
 8    1  0.6016610E-012  0.9118800E+02  0.7816164E-02  0.1184000E+00
        -11   -1    0    0    0    0  0.00000000000E+00  0.00000000000E+00  0.45593999997E+02  0.45594000000E+02  0.51100000000E-03 0. -1.
         11   -1    0    0    0    0 -0.00000000000E+00 -0.00000000000E+00 -0.45593999997E+02  0.45594000000E+02  0.51100000000E-03 0.  1.
         23    2    1    2    0    0  0.17763568394E-14 -0.35527136788E-14 -0.71054273576E-14  0.91188000000E+02  0.91188000000E+02 0.  0.
    9900012    2    3    3    0    0  0.10698118349E+02  0.22257807236E+02  0.32300248103E+02  0.50528859002E+02  0.29999997423E+02 0.  0.
        -12    1    3    3    0    0 -0.10698118349E+02 -0.22257807236E+02 -0.32300248103E+02  0.40659140998E+02  0.00000000000E+00 0.  1.
         11    1    4    4    0    0 -0.57403616196E+01  0.17986732466E+02  0.12329313125E+02  0.22549639880E+02  0.51100000000E-03 0. -1.
        -11    1    4    4    0    0  0.16188499723E+02  0.16784479136E+01  0.19381622168E+02  0.25308733449E+02  0.51100000000E-03 0.  1.
        -12    1    4    4    0    0  0.24998024538E+00  0.25926268567E+01  0.58931280989E+00  0.26704856728E+01  0.00000000000E+00 0.  1.
</event>
<event>
 8    1  0.6016610E-012  0.9118800E+02  0.7816164E-02  0.1184000E+00
        -11   -1    0    0    0    0  0.00000000000E+00  0.00000000000E+00  0.45593999997E+02  0.45594000000E+02  0.51100000000E-03 0. -1.
         11   -1    0    0    0    0 -0.00000000000E+00 -0.00000000000E+00 -0.45593999997E+02  0.45594000000E+02  0.51100000000E-03 0.  1.
         23    2    1    2    0    0 -0.71054273576E-14  0.35527136788E-14  0.35527136788E-14  0.91188000000E+02  0.91188000000E+02 0.  0.
    9900012    2    3    3    0    0 -0.19720379509E+02  0.25537297430E+02  0.24741045215E+02  0.50528852857E+02  0.29999978745E+02 0.  0.
        -12    1    3    3    0    0  0.19720379509E+02 -0.25537297430E+02 -0.24741045215E+02  0.40659147143E+02  0.00000000000E+00 0.  1.
         11    1    4    4    0    0 -0.14633992274E+02  0.12564035620E+02  0.23326071935E+02  0.30267381009E+02  0.51100000000E-03 0. -1.
        -11    1    4    4    0    0  0.45637810412E+01  0.82959943765E+01  0.21813021265E+00  0.94709662199E+01  0.51100000000E-03 0.  1.
        -12    1    4    4    0    0 -0.96501682754E+01  0.46772674341E+01  0.11968430677E+01  0.10790505629E+02  0.00000000000E+00 0.  1.
</event>
<event>
 8    1  0.6016610E-012  0.9118800E+02  0.7816164E-02  0.1184000E+00
        -11   -1    0    0    0    0  0.00000000000E+00  0.00000000000E+00  0.45593999997E+02  0.45594000000E+02  0.51100000000E-03 0. -1.
         11   -1    0    0    0    0 -0.00000000000E+00 -0.00000000000E+00 -0.45593999997E+02  0.45594000000E+02  0.51100000000E-03 0.  1.
         23    2    1    2    0    0 -0.18735013541E-15  0.00000000000E+00 -0.71054273576E-14  0.91188000000E+02  0.91188000000E+02 0.  0.
    9900012    2    3    3    0    0 -0.47980625196E-01 -0.10302026829E+02  0.39332319431E+02  0.50528863133E+02  0.30000009978E+02 0.  0.
        -12    1    3    3    0    0  0.47980625196E-01  0.10302026829E+02 -0.39332319431E+02  0.40659136867E+02  0.00000000000E+00 0.  1.
         11    1    4    4    0    0  0.32123733225E+01 -0.62792642173E+01 -0.65758452961E+00  0.70838491760E+01  0.51100000000E-03 0. -1.
        -11    1    4    4    0    0 -0.95188347144E+01 -0.32221698794E+01  0.18565543310E+02  0.21110897464E+02  0.51100000000E-03 0.  1.
         12    1    4    4    0    0  0.62584807667E+01 -0.80059273266E+00  0.21424360651E+02  0.22334116493E+02  0.00000000000E+00 0. -1.
</event>
<event>
 8    1  0.6016610E-012  0.9118800E+02  0.7816164E-02  0.1184000E+00
        -11   -1    0    0    0    0  0.00000000000E+00  0.00000000000E+00  0.45593999997E+02  0.45594000000E+02  0.51100000000E-03 0.  1.
         11   -1    0    0    0    0 -0.00000000000E+00 -0.00000000000E+00 -0.45593999997E+02  0.45594000000E+02  0.51100000000E-03 0. -1.
         23    2    1    2    0    0  0.00000000000E+00  0.00000000000E+00  0.17763568394E-14  0.91188000000E+02  0.91188000000E+02 0.  0.
    9900012    2    3    3    0    0 -0.37651682165E+02 -0.55275075954E+01  0.14316538164E+02  0.50528858653E+02  0.29999996361E+02 0.  0.
        -12    1    3    3    0    0  0.37651682165E+02  0.55275075954E+01 -0.14316538164E+02  0.40659141347E+02  0.00000000000E+00 0.  1.
         11    1    4    4    0    0 -0.14355414848E+02 -0.13760212539E+02 -0.11765508432E+00  0.19885553237E+02  0.51100000000E-03 0. -1.
        -11    1    4    4    0    0 -0.10988098879E+02 -0.15970233803E+00  0.10582680254E+02  0.15256373863E+02  0.51100000000E-03 0.  1.
         12    1    4    4    0    0 -0.12308168438E+02  0.83924072814E+01  0.38515129940E+01  0.15386931553E+02  0.00000000000E+00 0. -1.
</event>
<event>
 8    1  0.6016610E-012  0.9118800E+02  0.7816164E-02  0.1184000E+00
        -11   -1    0    0    0    0  0.00000000000E+00  0.00000000000E+00  0.45593999997E+02  0.45594000000E+02  0.51100000000E-03 0. -1.
         11   -1    0    0    0    0 -0.00000000000E+00 -0.00000000000E+00 -0.45593999997E+02  0.45594000000E+02  0.51100000000E-03 0.  1.
         23    2    1    2    0    0 -0.17763568394E-14  0.35527136788E-14 -0.71054273576E-14  0.91188000000E+02  0.91188000000E+02 0.  0.
    9900012    2    3    3    0    0  0.94929077804E+01 -0.21747244900E+02 -0.33016774855E+02  0.50528863503E+02  0.30000011103E+02 0.  0.
         12    1    3    3    0    0 -0.94929077804E+01  0.21747244900E+02  0.33016774855E+02  0.40659136497E+02  0.00000000000E+00 0. -1.
         11    1    4    4    0    0  0.10343377107E+02 -0.11104045968E+02  0.10635849886E+00  0.15175526324E+02  0.51100000000E-03 0. -1.
        -11    1    4    4    0    0 -0.15604083884E+01 -0.10174857352E+02 -0.32901809585E+02  0.34474507549E+02  0.51100000000E-03 0.  1.
        -12    1    4    4    0    0  0.70993906201E+00 -0.46834158021E+00 -0.22132376868E+00  0.87882962973E+00  0.00000000000E+00 0.  1.
</event>
<event>
 8    1  0.6016610E-012  0.9118800E+02  0.7816164E-02  0.1184000E+00
        -11   -1    0    0    0    0  0.00000000000E+00  0.00000000000E+00  0.45593999997E+02  0.45594000000E+02  0.51100000000E-03 0. -1.
         11   -1    0    0    0    0 -0.00000000000E+00 -0.00000000000E+00 -0.45593999997E+02  0.45594000000E+02  0.51100000000E-03 0.  1.
         23    2    1    2    0    0  0.35527136788E-14 -0.35527136788E-14 -0.88817841970E-15  0.91188000000E+02  0.91188000000E+02 0.  0.
    9900012    2    3    3    0    0  0.29859929196E+02 -0.27327061222E+02  0.38448036547E+01  0.50528853898E+02  0.29999981908E+02 0.  0.
        -12    1    3    3    0    0 -0.29859929196E+02  0.27327061222E+02 -0.38448036547E+01  0.40659146102E+02  0.00000000000E+00 0.  1.
         11    1    4    4    0    0  0.33440811037E+02 -0.26142261114E+02 -0.29302630870E+01  0.42547527554E+02  0.51100000000E-03 0. -1.
        -11    1    4    4    0    0 -0.87123377782E+00  0.52240729057E+00  0.15773539321E+01  0.18761671997E+01  0.51100000000E-03 0.  1.
         12    1    4    4    0    0 -0.27096480624E+01 -0.17072073978E+01  0.51977128096E+01  0.61051591439E+01  0.00000000000E+00 0. -1.
</event>
<event>
 8    1  0.6016610E-012  0.9118800E+02  0.7816164E-02  0.1184000E+00
        -11   -1    0    0    0    0  0.00000000000E+00  0.00000000000E+00  0.45593999997E+02  0.45594000000E+02  0.51100000000E-03 0. -1.
         11   -1    0    0    0    0 -0.00000000000E+00 -0.00000000000E+00 -0.45593999997E+02  0.45594000000E+02  0.51100000000E-03 0.  1.
         23    2    1    2    0    0  0.17763568394E-14  0.00000000000E+00 -0.35527136788E-14  0.91188000000E+02  0.91188000000E+02 0.  0.
    9900012    2    3    3    0    0 -0.14528555095E+02  0.29561342220E+02 -0.23837233325E+02  0.50528861303E+02  0.30000004416E+02 0.  0.
         12    1    3    3    0    0  0.14528555095E+02 -0.29561342220E+02  0.23837233325E+02  0.40659138697E+02  0.00000000000E+00 0. -1.
         11    1    4    4    0    0 -0.17178213724E+02  0.11105490612E+02 -0.21024885528E+01  0.20563156539E+02  0.51100000000E-03 0. -1.
        -11    1    4    4    0    0  0.49855385212E+01  0.54518737881E+01 -0.85637776836E+01  0.11310031416E+02  0.51100000000E-03 0.  1.
         12    1    4    4    0    0 -0.23358798917E+01  0.13003977820E+02 -0.13170967089E+02  0.18655673348E+02  0.00000000000E+00 0. -1.
</event>
<event>
 8    1  0.6016610E-012  0.9118800E+02  0.7816164E-02  0.1184000E+00
        -11   -1    0    0    0    0  0.00000000000E+00  0.00000000000E+00  0.45593999997E+02  0.45594000000E+02  0.51100000000E-03 0. -1.
         11   -1    0    0    0    0 -0.00000000000E+00 -0.00000000000E+00 -0.45593999997E+02  0.45594000000E+02  0.51100000000E-03 0.  1.
         23    2    1    2    0    0 -0.17763568394E-14  0.00000000000E+00 -0.35527136788E-14  0.91188000000E+02  0.91188000000E+02 0.  0.
    9900012    2    3    3    0    0  0.15295891486E+02  0.24762999342E+02  0.28390053890E+02  0.50528860896E+02  0.30000003181E+02 0.  0.
        -12    1    3    3    0    0 -0.15295891486E+02 -0.24762999342E+02 -0.28390053890E+02  0.40659139104E+02  0.00000000000E+00 0.  1.
         11    1    4    4    0    0  0.39692057975E+01  0.13286400080E+02  0.23374015029E+02  0.27177704108E+02  0.51100000000E-03 0. -1.
        -11    1    4    4    0    0  0.14253452713E+02  0.40584312017E+01  0.36127084825E+01  0.15253964760E+02  0.51100000000E-03 0.  1.
        -12    1    4    4    0    0 -0.29267670246E+01  0.74181680606E+01  0.14033303783E+01  0.80971920282E+01  0.00000000000E+00 0.  1.
</event>
<event>
 8    1  0.6016610E-012  0.9118800E+02  0.7816164E-02  0.1184000E+00
        -11   -1    0    0    0    0  0.00000000000E+00  0.00000000000E+00  0.45593999997E+02  0.45594000000E+02  0.51100000000E-03 0. -1.
         11   -1    0    0    0    0 -0.00000000000E+00 -0.00000000000E+00 -0.45593999997E+02  0.45594000000E+02  0.51100000000E-03 0.  1.
         23    2    1    2    0    0  0.00000000000E+00  0.00000000000E+00  0.00000000000E+00  0.91188000000E+02  0.91188000000E+02 0.  0.
    9900012    2    3    3    0    0 -0.27624465586E+02 -0.16884253645E+02 -0.24596254299E+02  0.50528870083E+02  0.30000031105E+02 0.  0.
         12    1    3    3    0    0  0.27624465586E+02  0.16884253645E+02  0.24596254299E+02  0.40659129917E+02  0.00000000000E+00 0. -1.
         11    1    4    4    0    0  0.60226425477E+01 -0.51224247231E+01 -0.40581771013E+01  0.88870838832E+01  0.51100000000E-03 0. -1.
        -11    1    4    4    0    0 -0.98958784080E+01 -0.48166140244E+01 -0.33218323309E+01  0.11496205914E+02  0.51100000000E-03 0.  1.
         12    1    4    4    0    0 -0.23751229726E+02 -0.69452148971E+01 -0.17216244866E+02  0.30145580286E+02  0.00000000000E+00 0. -1.
</event>
<event>
 8    1  0.6016610E-012  0.9118800E+02  0.7816164E-02  0.1184000E+00
        -11   -1    0    0    0    0  0.00000000000E+00  0.00000000000E+00  0.45593999997E+02  0.45594000000E+02  0.51100000000E-03 0. -1.
         11   -1    0    0    0    0 -0.00000000000E+00 -0.00000000000E+00 -0.45593999997E+02  0.45594000000E+02  0.51100000000E-03 0.  1.
         23    2    1    2    0    0  0.00000000000E+00 -0.88817841970E-15  0.00000000000E+00  0.91188000000E+02  0.91188000000E+02 0.  0.
    9900012    2    3    3    0    0  0.17763671068E+02  0.76033074225E+01  0.35774344572E+02  0.50528904792E+02  0.30000136606E+02 0.  0.
        -12    1    3    3    0    0 -0.17763671068E+02 -0.76033074225E+01 -0.35774344572E+02  0.40659095208E+02  0.00000000000E+00 0.  1.
         11    1    4    4    0    0  0.48322938756E+01  0.40274049274E+00  0.12516142847E+02  0.13422633722E+02  0.51100000000E-03 0. -1.
        -11    1    4    4    0    0  0.66079862194E+01  0.15892700294E+02  0.95410078654E+01  0.19679284435E+02  0.51100000000E-03 0.  1.
        -12    1    4    4    0    0  0.63233909728E+01 -0.86921333641E+01  0.13717193860E+02  0.17426986636E+02  0.00000000000E+00 0.  1.
</event>
<event>
 8    1  0.6016610E-012  0.9118800E+02  0.7816164E-02  0.1184000E+00
        -11   -1    0    0    0    0  0.00000000000E+00  0.00000000000E+00  0.45593999997E+02  0.45594000000E+02  0.51100000000E-03 0. -1.
         11   -1    0    0    0    0 -0.00000000000E+00 -0.00000000000E+00 -0.45593999997E+02  0.45594000000E+02  0.51100000000E-03 0.  1.
         23    2    1    2    0    0 -0.17763568394E-14 -0.35527136788E-14  0.00000000000E+00  0.91188000000E+02  0.91188000000E+02 0.  0.
    9900012    2    3    3    0    0  0.11587220034E+02 -0.21739202625E+02 -0.32346705361E+02  0.50528856544E+02  0.29999989951E+02 0.  0.
         12    1    3    3    0    0 -0.11587220034E+02  0.21739202625E+02  0.32346705361E+02  0.40659143456E+02  0.00000000000E+00 0. -1.
         11    1    4    4    0    0  0.12672701988E+02 -0.16699175478E+02 -0.18554668766E+02  0.27995277648E+02  0.51100000000E-03 0. -1.
        -11    1    4    4    0    0 -0.27462933404E+01 -0.92918323617E+00  0.35788359934E+01  0.46058197888E+01  0.51100000000E-03 0.  1.
        -12    1    4    4    0    0  0.16608113863E+01 -0.41108439103E+01 -0.17370872589E+02  0.17927759107E+02  0.00000000000E+00 0.  1.
</event>
<event>
 8    1  0.6016610E-012  0.9118800E+02  0.7816164E-02  0.1184000E+00
        -11   -1    0    0    0    0  0.00000000000E+00  0.00000000000E+00  0.45593999997E+02  0.45594000000E+02  0.51100000000E-03 0. -1.
         11   -1    0    0    0    0 -0.00000000000E+00 -0.00000000000E+00 -0.45593999997E+02  0.45594000000E+02  0.51100000000E-03 0.  1.
         23    2    1    2    0    0  0.17763568394E-14  0.00000000000E+00  0.00000000000E+00  0.91188000000E+02  0.91188000000E+02 0.  0.
    9900012    2    3    3    0    0 -0.13007030879E+02 -0.18016373034E+02  0.34049860004E+02  0.50528861840E+02  0.30000006050E+02 0.  0.
        -12    1    3    3    0    0  0.13007030879E+02  0.18016373034E+02 -0.34049860004E+02  0.40659138160E+02  0.00000000000E+00 0.  1.
         11    1    4    4    0    0 -0.45113280961E+01  0.68391480791E+01  0.12083477327E+02  0.14599193547E+02  0.51100000000E-03 0. -1.
        -11    1    4    4    0    0 -0.63376862573E+01 -0.20734365388E+02  0.11650309129E+02  0.24613205362E+02  0.51100000000E-03 0.  1.
         12    1    4    4    0    0 -0.21580165258E+01 -0.41211557251E+01  0.10316073547E+02  0.11316462931E+02  0.00000000000E+00 0. -1.
</event>
<event>
 8    1  0.6776516E-012  0.9118800E+02  0.7816164E-02  0.1184000E+00
        -11   -1    0    0    0    0  0.00000000000E+00  0.00000000000E+00  0.45593999997E+02  0.45594000000E+02  0.51100000000E-03 0. -1.
         11   -1    0    0    0    0 -0.00000000000E+00 -0.00000000000E+00 -0.45593999997E+02  0.45594000000E+02  0.51100000000E-03 0.  1.
         23    2    1    2    0    0  0.17763568394E-14  0.35527136788E-14  0.00000000000E+00  0.91188000000E+02  0.91188000000E+02 0.  0.
    9900012    2    3    3    0    0  0.12917976619E+02 -0.10323290451E+02  0.37144586305E+02  0.50528871413E+02  0.30000035148E+02 0.  0.
        -12    1    3    3    0    0 -0.12917976619E+02  0.10323290451E+02 -0.37144586305E+02  0.40659128587E+02  0.00000000000E+00 0.  1.
         11    1    4    4    0    0  0.98208140513E+01 -0.92005569106E+01  0.16517762276E+02  0.21305752907E+02  0.51100000000E-03 0. -1.
        -11    1    4    4    0    0 -0.67026688984E+01  0.29410618448E+01  0.16105663185E+02  0.17690901674E+02  0.51100000000E-03 0.  1.
        -12    1    4    4    0    0  0.97998314657E+01 -0.40637953847E+01  0.45211608439E+01  0.11532216832E+02  0.00000000000E+00 0.  1.
</event>
<event>
 8    1  0.6016610E-012  0.9118800E+02  0.7816164E-02  0.1184000E+00
        -11   -1    0    0    0    0  0.00000000000E+00  0.00000000000E+00  0.45593999997E+02  0.45594000000E+02  0.51100000000E-03 0. -1.
         11   -1    0    0    0    0 -0.00000000000E+00 -0.00000000000E+00 -0.45593999997E+02  0.45594000000E+02  0.51100000000E-03 0.  1.
         23    2    1    2    0    0 -0.35527136788E-14  0.00000000000E+00  0.00000000000E+00  0.91188000000E+02  0.91188000000E+02 0.  0.
    9900012    2    3    3    0    0  0.21641798791E+02  0.13559341919E+02  0.31637681294E+02  0.50528854831E+02  0.29999984746E+02 0.  0.
        -12    1    3    3    0    0 -0.21641798791E+02 -0.13559341919E+02 -0.31637681294E+02  0.40659145169E+02  0.00000000000E+00 0.  1.
         11    1    4    4    0    0  0.16439663586E+02  0.38752112044E+01  0.29417693135E+02  0.33921681420E+02  0.51100000000E-03 0. -1.
        -11    1    4    4    0    0  0.10683240872E+01  0.53562649944E+00 -0.44148192687E+01  0.45737120087E+01  0.51100000000E-03 0.  1.
         12    1    4    4    0    0  0.41338111173E+01  0.91485042151E+01  0.66348074275E+01  0.12033461403E+02  0.00000000000E+00 0. -1.
</event>
<event>
 8    1  0.6016610E-012  0.9118800E+02  0.7816164E-02  0.1184000E+00
        -11   -1    0    0    0    0  0.00000000000E+00  0.00000000000E+00  0.45593999997E+02  0.45594000000E+02  0.51100000000E-03 0. -1.
         11   -1    0    0    0    0 -0.00000000000E+00 -0.00000000000E+00 -0.45593999997E+02  0.45594000000E+02  0.51100000000E-03 0.  1.
         23    2    1    2    0    0  0.22204460493E-15  0.35527136788E-14  0.00000000000E+00  0.91188000000E+02  0.91188000000E+02 0.  0.
    9900012    2    3    3    0    0 -0.18422938352E+01  0.28754455503E+02 -0.28687161792E+02  0.50528855770E+02  0.29999987598E+02 0.  0.
         12    1    3    3    0    0  0.18422938352E+01 -0.28754455503E+02  0.28687161792E+02  0.40659144230E+02  0.00000000000E+00 0. -1.
         11    1    4    4    0    0 -0.19094913672E+01  0.16075267982E+02 -0.30958886627E+01  0.16481654191E+02  0.51100000000E-03 0. -1.
        -11    1    4    4    0    0  0.55372602000E+00 -0.17982937326E+01 -0.17208090151E+02  0.17310656827E+02  0.51100000000E-03 0.  1.
        -12    1    4    4    0    0 -0.48652848796E+00  0.14477481253E+02 -0.83831829781E+01  0.16736544753E+02  0.00000000000E+00 0.  1.
</event>
<event>
 8    1  0.6016610E-012  0.9118800E+02  0.7816164E-02  0.1184000E+00
        -11   -1    0    0    0    0  0.00000000000E+00  0.00000000000E+00  0.45593999997E+02  0.45594000000E+02  0.51100000000E-03 0. -1.
         11   -1    0    0    0    0 -0.00000000000E+00 -0.00000000000E+00 -0.45593999997E+02  0.45594000000E+02  0.51100000000E-03 0.  1.
         23    2    1    2    0    0  0.00000000000E+00  0.88817841970E-15  0.00000000000E+00  0.91188000000E+02  0.91188000000E+02 0.  0.
    9900012    2    3    3    0    0  0.28774214814E+02  0.68956565091E+01 -0.27886561259E+02  0.50528858154E+02  0.29999994844E+02 0.  0.
         12    1    3    3    0    0 -0.28774214814E+02 -0.68956565091E+01  0.27886561259E+02  0.40659141846E+02  0.00000000000E+00 0. -1.
         11    1    4    4    0    0  0.65075842584E+01  0.14748292827E+02 -0.16880834836E+02  0.23341451952E+02  0.51100000000E-03 0. -1.
        -11    1    4    4    0    0  0.20477462762E+01 -0.17031903066E+01 -0.42220445783E+01  0.49919718263E+01  0.51100000000E-03 0.  1.
         12    1    4    4    0    0  0.20218884279E+02 -0.61494460114E+01 -0.67836818440E+01  0.22195434375E+02  0.00000000000E+00 0. -1.
</event>
<event>
 8    1  0.6016610E-012  0.9118800E+02  0.7816164E-02  0.1184000E+00
        -11   -1    0    0    0    0  0.00000000000E+00  0.00000000000E+00  0.45593999997E+02  0.45594000000E+02  0.51100000000E-03 0. -1.
         11   -1    0    0    0    0 -0.00000000000E+00 -0.00000000000E+00 -0.45593999997E+02  0.45594000000E+02  0.51100000000E-03 0.  1.
         23    2    1    2    0    0 -0.17763568394E-14  0.17763568394E-14  0.00000000000E+00  0.91188000000E+02  0.91188000000E+02 0.  0.
    9900012    2    3    3    0    0 -0.10362938015E+02  0.22926062904E+01  0.39249294682E+02  0.50529007625E+02  0.30000449173E+02 0.  0.
        -12    1    3    3    0    0  0.10362938015E+02 -0.22926062904E+01 -0.39249294682E+02  0.40658992375E+02  0.00000000000E+00 0.  1.
         11    1    4    4    0    0 -0.23529425911E+00 -0.92163736156E+01  0.46637775163E+01  0.10331879161E+02  0.51100000000E-03 0. -1.
        -11    1    4    4    0    0 -0.63088948443E+01  0.14162301868E+02  0.23253375373E+02  0.27948030607E+02  0.51100000000E-03 0.  1.
        -12    1    4    4    0    0 -0.38187489116E+01 -0.26533219617E+01  0.11332141793E+02  0.12249097857E+02  0.00000000000E+00 0.  1.
</event>
<event>
 8    1  0.6016610E-012  0.9118800E+02  0.7816164E-02  0.1184000E+00
        -11   -1    0    0    0    0  0.00000000000E+00  0.00000000000E+00  0.45593999997E+02  0.45594000000E+02  0.51100000000E-03 0. -1.
         11   -1    0    0    0    0 -0.00000000000E+00 -0.00000000000E+00 -0.45593999997E+02  0.45594000000E+02  0.51100000000E-03 0.  1.
         23    2    1    2    0    0  0.00000000000E+00  0.00000000000E+00  0.71054273576E-14  0.91188000000E+02  0.91188000000E+02 0.  0.
    9900012    2    3    3    0    0 -0.17472564808E+02  0.25370317366E+01 -0.36625681460E+02  0.50528836292E+02  0.29999928393E+02 0.  0.
         12    1    3    3    0    0  0.17472564808E+02 -0.25370317366E+01  0.36625681460E+02  0.40659163708E+02  0.00000000000E+00 0. -1.
         11    1    4    4    0    0 -0.10382652105E+02 -0.51597385906E+00 -0.85565046298E+01  0.13464006294E+02  0.51100000000E-03 0. -1.
        -11    1    4    4    0    0  0.68381619634E+01  0.69194200037E+01 -0.12085842739E+02  0.15514716472E+02  0.51100000000E-03 0.  1.
        -12    1    4    4    0    0 -0.13928074667E+02 -0.38664144080E+01 -0.15983334091E+02  0.21550113525E+02  0.00000000000E+00 0.  1.
</event>
<event>
 8    1  0.6016610E-012  0.9118800E+02  0.7816164E-02  0.1184000E+00
        -11   -1    0    0    0    0  0.00000000000E+00  0.00000000000E+00  0.45593999997E+02  0.45594000000E+02  0.51100000000E-03 0. -1.
         11   -1    0    0    0    0 -0.00000000000E+00 -0.00000000000E+00 -0.45593999997E+02  0.45594000000E+02  0.51100000000E-03 0.  1.
         23    2    1    2    0    0  0.00000000000E+00  0.17763568394E-14 -0.35527136788E-14  0.91188000000E+02  0.91188000000E+02 0.  0.
    9900012    2    3    3    0    0 -0.28039015997E+02  0.14349299764E+02 -0.25711378447E+02  0.50528882899E+02  0.30000070059E+02 0.  0.
         12    1    3    3    0    0  0.28039015997E+02 -0.14349299764E+02  0.25711378447E+02  0.40659117101E+02  0.00000000000E+00 0. -1.
         11    1    4    4    0    0 -0.19347290595E+02  0.15245266425E+02 -0.13051183405E+02  0.27875960796E+02  0.51100000000E-03 0.  1.
        -11    1    4    4    0    0  0.13044057841E+01 -0.69235857856E+01 -0.38518043669E+01  0.80295648526E+01  0.51100000000E-03 0. -1.
         12    1    4    4    0    0 -0.99961311857E+01  0.60276191242E+01 -0.88083906753E+01  0.14623357251E+02  0.00000000000E+00 0. -1.
</event>
<event>
 8    1  0.6016610E-012  0.9118800E+02  0.7816164E-02  0.1184000E+00
        -11   -1    0    0    0    0  0.00000000000E+00  0.00000000000E+00  0.45593999997E+02  0.45594000000E+02  0.51100000000E-03 0.  1.
         11   -1    0    0    0    0 -0.00000000000E+00 -0.00000000000E+00 -0.45593999997E+02  0.45594000000E+02  0.51100000000E-03 0. -1.
         23    2    1    2    0    0  0.00000000000E+00  0.17763568394E-14  0.00000000000E+00  0.91188000000E+02  0.91188000000E+02 0.  0.
    9900012    2    3    3    0    0  0.26277252947E+02  0.12564600124E+02  0.28369065612E+02  0.50528842576E+02  0.29999947495E+02 0.  0.
        -12    1    3    3    0    0 -0.26277252947E+02 -0.12564600124E+02 -0.28369065612E+02  0.40659157424E+02  0.00000000000E+00 0.  1.
         11    1    4    4    0    0  0.49278077301E+01 -0.57268959268E+01 -0.24761848766E+01  0.79506048692E+01  0.51100000000E-03 0. -1.
        -11    1    4    4    0    0  0.91724340646E+01  0.63099910451E+01  0.18156944341E+02  0.21298454445E+02  0.51100000000E-03 0.  1.
         12    1    4    4    0    0  0.12177011152E+02  0.11981505006E+02  0.12688306148E+02  0.21279783262E+02  0.00000000000E+00 0. -1.
</event>
<event>
 8    1  0.6016610E-012  0.9118800E+02  0.7816164E-02  0.1184000E+00
        -11   -1    0    0    0    0  0.00000000000E+00  0.00000000000E+00  0.45593999997E+02  0.45594000000E+02  0.51100000000E-03 0. -1.
         11   -1    0    0    0    0 -0.00000000000E+00 -0.00000000000E+00 -0.45593999997E+02  0.45594000000E+02  0.51100000000E-03 0.  1.
         23    2    1    2    0    0  0.71054273576E-14  0.00000000000E+00  0.00000000000E+00  0.91188000000E+02  0.91188000000E+02 0.  0.
    9900012    2    3    3    0    0 -0.32993039439E+02  0.10471858180E+02 -0.21329916676E+02  0.50528858216E+02  0.29999995034E+02 0.  0.
         12    1    3    3    0    0  0.32993039439E+02 -0.10471858180E+02  0.21329916676E+02  0.40659141784E+02  0.00000000000E+00 0. -1.
         11    1    4    4    0    0  0.16698240162E+01 -0.19041615118E+01 -0.30213342640E+00  0.25505740877E+01  0.51100000000E-03 0. -1.
        -11    1    4    4    0    0 -0.32171334984E+02  0.57278430805E+01 -0.88043429519E+01  0.33842568403E+02  0.51100000000E-03 0.  1.
        -12    1    4    4    0    0 -0.24915284715E+01  0.66481766110E+01 -0.12223440298E+02  0.14135715726E+02  0.00000000000E+00 0.  1.
</event>
<event>
 8    1  0.6016610E-012  0.9118800E+02  0.7816164E-02  0.1184000E+00
        -11   -1    0    0    0    0  0.00000000000E+00  0.00000000000E+00  0.45593999997E+02  0.45594000000E+02  0.51100000000E-03 0. -1.
         11   -1    0    0    0    0 -0.00000000000E+00 -0.00000000000E+00 -0.45593999997E+02  0.45594000000E+02  0.51100000000E-03 0.  1.
         23    2    1    2    0    0  0.35527136788E-14  0.00000000000E+00  0.00000000000E+00  0.91188000000E+02  0.91188000000E+02 0.  0.
    9900012    2    3    3    0    0 -0.15869490600E+02  0.26961719892E+02  0.25969043041E+02  0.50528852593E+02  0.29999977941E+02 0.  0.
        -12    1    3    3    0    0  0.15869490600E+02 -0.26961719892E+02 -0.25969043041E+02  0.40659147407E+02  0.00000000000E+00 0.  1.
         11    1    4    4    0    0 -0.21498212504E+02  0.28761708753E+02  0.17878162839E+02  0.40112812642E+02  0.51100000000E-03 0. -1.
        -11    1    4    4    0    0  0.30891145622E+01  0.36471347854E+00  0.29493179183E+01  0.42865045369E+01  0.51100000000E-03 0.  1.
         12    1    4    4    0    0  0.25396073427E+01 -0.21647023395E+01  0.51415622840E+01  0.61295354142E+01  0.00000000000E+00 0. -1.
</event>
<event>
 8    1  0.6016610E-012  0.9118800E+02  0.7816164E-02  0.1184000E+00
        -11   -1    0    0    0    0  0.00000000000E+00  0.00000000000E+00  0.45593999997E+02  0.45594000000E+02  0.51100000000E-03 0. -1.
         11   -1    0    0    0    0 -0.00000000000E+00 -0.00000000000E+00 -0.45593999997E+02  0.45594000000E+02  0.51100000000E-03 0.  1.
         23    2    1    2    0    0  0.00000000000E+00  0.35527136788E-14  0.00000000000E+00  0.91188000000E+02  0.91188000000E+02 0.  0.
    9900012    2    3    3    0    0 -0.12018866388E+02 -0.30533060649E+02  0.24009276469E+02  0.50528852218E+02  0.29999976801E+02 0.  0.
        -12    1    3    3    0    0  0.12018866388E+02  0.30533060649E+02 -0.24009276469E+02  0.40659147782E+02  0.00000000000E+00 0.  1.
         11    1    4    4    0    0 -0.11022578235E+02 -0.76394978223E+01 -0.24601879522E+01  0.13634943453E+02  0.51100000000E-03 0. -1.
        -11    1    4    4    0    0  0.50497552011E+01 -0.12665336502E+02  0.11931225077E+02  0.18118082360E+02  0.51100000000E-03 0.  1.
         12    1    4    4    0    0 -0.60460433538E+01 -0.10228226324E+02  0.14538239344E+02  0.18775826405E+02  0.00000000000E+00 0. -1.
</event>
<event>
 8    1  0.6016610E-012  0.9118800E+02  0.7816164E-02  0.1184000E+00
        -11   -1    0    0    0    0  0.00000000000E+00  0.00000000000E+00  0.45593999997E+02  0.45594000000E+02  0.51100000000E-03 0. -1.
         11   -1    0    0    0    0 -0.00000000000E+00 -0.00000000000E+00 -0.45593999997E+02  0.45594000000E+02  0.51100000000E-03 0.  1.
         23    2    1    2    0    0 -0.35527136788E-14  0.00000000000E+00  0.35527136788E-14  0.91188000000E+02  0.91188000000E+02 0.  0.
    9900012    2    3    3    0    0  0.20451916372E+02  0.19519288467E+02 -0.29221272126E+02  0.50528852810E+02  0.29999978601E+02 0.  0.
         12    1    3    3    0    0 -0.20451916372E+02 -0.19519288467E+02  0.29221272126E+02  0.40659147190E+02  0.00000000000E+00 0. -1.
         11    1    4    4    0    0  0.62845255232E+01  0.62213341473E+01 -0.22577194970E+01  0.91267495425E+01  0.51100000000E-03 0. -1.
        -11    1    4    4    0    0 -0.62567437001E+01  0.82807095736E+01 -0.93547041337E+01  0.13972382848E+02  0.51100000000E-03 0.  1.
        -12    1    4    4    0    0  0.20424134549E+02  0.50172447459E+01 -0.17608848496E+02  0.27429720419E+02  0.00000000000E+00 0.  1.
</event>
<event>
 8    1  0.6016610E-012  0.9118800E+02  0.7816164E-02  0.1184000E+00
        -11   -1    0    0    0    0  0.00000000000E+00  0.00000000000E+00  0.45593999997E+02  0.45594000000E+02  0.51100000000E-03 0. -1.
         11   -1    0    0    0    0 -0.00000000000E+00 -0.00000000000E+00 -0.45593999997E+02  0.45594000000E+02  0.51100000000E-03 0.  1.
         23    2    1    2    0    0  0.00000000000E+00 -0.88817841970E-15 -0.13322676296E-14  0.91188000000E+02  0.91188000000E+02 0.  0.
    9900012    2    3    3    0    0  0.40164197887E+02  0.51324215111E+01  0.36961442170E+01  0.50528855585E+02  0.29999987035E+02 0.  0.
         12    1    3    3    0    0 -0.40164197887E+02 -0.51324215111E+01 -0.36961442170E+01  0.40659144415E+02  0.00000000000E+00 0. -1.
         11    1    4    4    0    0  0.79162439424E+00  0.57676602319E-01 -0.17930440435E+01  0.19608679137E+01  0.51100000000E-03 0. -1.
        -11    1    4    4    0    0  0.32723665330E+01 -0.40446886376E+01  0.97896100265E+01  0.11086223597E+02  0.51100000000E-03 0.  1.
        -12    1    4    4    0    0  0.36100206960E+02  0.91194335464E+01 -0.43004217659E+01  0.37481764075E+02  0.00000000000E+00 0.  1.
</event>
<event>
 8    1  0.6016610E-012  0.9118800E+02  0.7816164E-02  0.1184000E+00
        -11   -1    0    0    0    0  0.00000000000E+00  0.00000000000E+00  0.45593999997E+02  0.45594000000E+02  0.51100000000E-03 0. -1.
         11   -1    0    0    0    0 -0.00000000000E+00 -0.00000000000E+00 -0.45593999997E+02  0.45594000000E+02  0.51100000000E-03 0.  1.
         23    2    1    2    0    0 -0.17763568394E-14  0.00000000000E+00  0.00000000000E+00  0.91188000000E+02  0.91188000000E+02 0.  0.
    9900012    2    3    3    0    0 -0.93986483413E+01  0.36464188644E+01 -0.39389529542E+02  0.50528855903E+02  0.29999988002E+02 0.  0.
         12    1    3    3    0    0  0.93986483413E+01 -0.36464188644E+01  0.39389529542E+02  0.40659144097E+02  0.00000000000E+00 0. -1.
         11    1    4    4    0    0  0.30909104974E+01  0.68668757589E+01 -0.13002041643E+01  0.76418742152E+01  0.51100000000E-03 0. -1.
        -11    1    4    4    0    0 -0.13861986640E+02  0.22433948246E+01 -0.26010165273E+02  0.29558690630E+02  0.51100000000E-03 0.  1.
        -12    1    4    4    0    0  0.13724278018E+01 -0.54638517190E+01 -0.12079160105E+02  0.13328291058E+02  0.00000000000E+00 0.  1.
</event>
<event>
 8    1  0.6016610E-012  0.9118800E+02  0.7816164E-02  0.1184000E+00
        -11   -1    0    0    0    0  0.00000000000E+00  0.00000000000E+00  0.45593999997E+02  0.45594000000E+02  0.51100000000E-03 0. -1.
         11   -1    0    0    0    0 -0.00000000000E+00 -0.00000000000E+00 -0.45593999997E+02  0.45594000000E+02  0.51100000000E-03 0.  1.
         23    2    1    2    0    0  0.00000000000E+00  0.00000000000E+00  0.00000000000E+00  0.91188000000E+02  0.91188000000E+02 0.  0.
    9900012    2    3    3    0    0  0.29008280934E+01 -0.17080625709E+02 -0.36783194904E+02  0.50528855818E+02  0.29999987745E+02 0.  0.
         12    1    3    3    0    0 -0.29008280934E+01  0.17080625709E+02  0.36783194904E+02  0.40659144182E+02  0.00000000000E+00 0. -1.
         11    1    4    4    0    0  0.89593603062E+01 -0.37542254639E+01 -0.30506256292E+02  0.32015559017E+02  0.51100000000E-03 0. -1.
        -11    1    4    4    0    0  0.97552583430E+00  0.38026519799E+00 -0.24123854824E+01  0.26298015611E+01  0.51100000000E-03 0.  1.
         12    1    4    4    0    0 -0.70340580472E+01 -0.13706665443E+02 -0.38645531299E+01  0.15883495241E+02  0.00000000000E+00 0. -1.
</event>
<event>
 8    1  0.6016610E-012  0.9118800E+02  0.7816164E-02  0.1184000E+00
        -11   -1    0    0    0    0  0.00000000000E+00  0.00000000000E+00  0.45593999997E+02  0.45594000000E+02  0.51100000000E-03 0. -1.
         11   -1    0    0    0    0 -0.00000000000E+00 -0.00000000000E+00 -0.45593999997E+02  0.45594000000E+02  0.51100000000E-03 0.  1.
         23    2    1    2    0    0  0.00000000000E+00  0.00000000000E+00 -0.44408920985E-15  0.91188000000E+02  0.91188000000E+02 0.  0.
    9900012    2    3    3    0    0  0.29885463336E+02 -0.27475864656E+02  0.22589345954E+01  0.50528845522E+02  0.29999956448E+02 0.  0.
        -12    1    3    3    0    0 -0.29885463336E+02  0.27475864656E+02 -0.22589345954E+01  0.40659154478E+02  0.00000000000E+00 0.  1.
         11    1    4    4    0    0  0.11610862560E+02 -0.10375113355E+01  0.69488459070E+01  0.13571109713E+02  0.51100000000E-03 0. -1.
        -11    1    4    4    0    0  0.10378395289E+02 -0.25928507296E+02 -0.34486005787E+00  0.27930583741E+02  0.51100000000E-03 0.  1.
        -12    1    4    4    0    0  0.78962054864E+01 -0.50984602403E+00 -0.43450512538E+01  0.90271520675E+01  0.00000000000E+00 0.  1.
</event>
<event>
 8    1  0.6016610E-012  0.9118800E+02  0.7816164E-02  0.1184000E+00
        -11   -1    0    0    0    0  0.00000000000E+00  0.00000000000E+00  0.45593999997E+02  0.45594000000E+02  0.51100000000E-03 0. -1.
         11   -1    0    0    0    0 -0.00000000000E+00 -0.00000000000E+00 -0.45593999997E+02  0.45594000000E+02  0.51100000000E-03 0.  1.
         23    2    1    2    0    0  0.00000000000E+00 -0.44408920985E-15 -0.71054273576E-14  0.91188000000E+02  0.91188000000E+02 0.  0.
    9900012    2    3    3    0    0 -0.93219603894E+01 -0.18596951656E+01 -0.39532371269E+02  0.50528858473E+02  0.29999995814E+02 0.  0.
         12    1    3    3    0    0  0.93219603894E+01  0.18596951656E+01  0.39532371269E+02  0.40659141527E+02  0.00000000000E+00 0. -1.
         11    1    4    4    0    0 -0.12585970770E+02  0.46879251822E+01 -0.35765587525E+02  0.38204195503E+02  0.51100000000E-03 0. -1.
        -11    1    4    4    0    0  0.16894272682E+00 -0.47191798142E+01 -0.63388648015E+01  0.79044548829E+01  0.51100000000E-03 0.  1.
         12    1    4    4    0    0  0.30950676541E+01 -0.18284405336E+01  0.25720810577E+01  0.44202080874E+01  0.00000000000E+00 0. -1.
</event>
<event>
 8    1  0.6016610E-012  0.9118800E+02  0.7816164E-02  0.1184000E+00
        -11   -1    0    0    0    0  0.00000000000E+00  0.00000000000E+00  0.45593999997E+02  0.45594000000E+02  0.51100000000E-03 0. -1.
         11   -1    0    0    0    0 -0.00000000000E+00 -0.00000000000E+00 -0.45593999997E+02  0.45594000000E+02  0.51100000000E-03 0.  1.
         23    2    1    2    0    0  0.71054273576E-14  0.19428902931E-15 -0.35527136788E-14  0.91188000000E+02  0.91188000000E+02 0.  0.
    9900012    2    3    3    0    0 -0.34807235671E+02 -0.13946824548E+00  0.21014339831E+02  0.50528860991E+02  0.30000003467E+02 0.  0.
        -12    1    3    3    0    0  0.34807235671E+02  0.13946824548E+00 -0.21014339831E+02  0.40659139009E+02  0.00000000000E+00 0.  1.
         11    1    4    4    0    0 -0.22050413813E+01 -0.92776764757E+01  0.34106566618E+01  0.10127688157E+02  0.51100000000E-03 0. -1.
        -11    1    4    4    0    0 -0.63624043500E+01  0.69793306067E+01  0.15670218863E+01  0.95732336587E+01  0.51100000000E-03 0.  1.
         12    1    4    4    0    0 -0.26239789940E+02  0.21588776236E+01  0.16036661283E+02  0.30827939175E+02  0.00000000000E+00 0. -1.
</event>
<event>
 8    1  0.6016610E-012  0.9118800E+02  0.7816164E-02  0.1184000E+00
        -11   -1    0    0    0    0  0.00000000000E+00  0.00000000000E+00  0.45593999997E+02  0.45594000000E+02  0.51100000000E-03 0. -1.
         11   -1    0    0    0    0 -0.00000000000E+00 -0.00000000000E+00 -0.45593999997E+02  0.45594000000E+02  0.51100000000E-03 0.  1.
         23    2    1    2    0    0  0.00000000000E+00  0.35527136788E-14  0.35527136788E-14  0.91188000000E+02  0.91188000000E+02 0.  0.
    9900012    2    3    3    0    0 -0.58549790391E+01 -0.28517493641E+02 -0.28383746673E+02  0.50528864516E+02  0.30000014183E+02 0.  0.
         12    1    3    3    0    0  0.58549790391E+01  0.28517493641E+02  0.28383746673E+02  0.40659135484E+02  0.00000000000E+00 0. -1.
         11    1    4    4    0    0 -0.48043103571E+01 -0.20731148963E+02 -0.38054030498E+01  0.21618118049E+02  0.51100000000E-03 0. -1.
        -11    1    4    4    0    0  0.28806715100E+01 -0.10192235474E+02 -0.16392533180E+02  0.19516533417E+02  0.51100000000E-03 0.  1.
         12    1    4    4    0    0 -0.39313401919E+01  0.24058907960E+01 -0.81858104430E+01  0.93942130504E+01  0.00000000000E+00 0. -1.
</event>
<event>
 8    1  0.6016610E-012  0.9118800E+02  0.7816164E-02  0.1184000E+00
        -11   -1    0    0    0    0  0.00000000000E+00  0.00000000000E+00  0.45593999997E+02  0.45594000000E+02  0.51100000000E-03 0. -1.
         11   -1    0    0    0    0 -0.00000000000E+00 -0.00000000000E+00 -0.45593999997E+02  0.45594000000E+02  0.51100000000E-03 0.  1.
         23    2    1    2    0    0  0.00000000000E+00  0.71054273576E-14  0.00000000000E+00  0.91188000000E+02  0.91188000000E+02 0.  0.
    9900012    2    3    3    0    0 -0.68517160437E+01  0.35393149862E+02 -0.18802735172E+02  0.50528881468E+02  0.30000065710E+02 0.  0.
         12    1    3    3    0    0  0.68517160437E+01 -0.35393149862E+02  0.18802735172E+02  0.40659118532E+02  0.00000000000E+00 0. -1.
         11    1    4    4    0    0 -0.42903226111E+01  0.25701380161E+01  0.65987308483E+01  0.82798385611E+01  0.51100000000E-03 0. -1.
        -11    1    4    4    0    0 -0.47606608487E+01  0.15493619645E+02 -0.10746526651E+02  0.19447467103E+02  0.51100000000E-03 0.  1.
         12    1    4    4    0    0  0.21992674161E+01  0.17329392201E+02 -0.14654939369E+02  0.22801575803E+02  0.00000000000E+00 0. -1.
</event>
<event>
 8    1  0.6016610E-012  0.9118800E+02  0.7816164E-02  0.1184000E+00
        -11   -1    0    0    0    0  0.00000000000E+00  0.00000000000E+00  0.45593999997E+02  0.45594000000E+02  0.51100000000E-03 0. -1.
         11   -1    0    0    0    0 -0.00000000000E+00 -0.00000000000E+00 -0.45593999997E+02  0.45594000000E+02  0.51100000000E-03 0.  1.
         23    2    1    2    0    0 -0.44408920985E-15  0.00000000000E+00  0.00000000000E+00  0.91188000000E+02  0.91188000000E+02 0.  0.
    9900012    2    3    3    0    0 -0.35777022091E+01 -0.12206409269E+02  0.38618258321E+02  0.50528852738E+02  0.29999978382E+02 0.  0.
        -12    1    3    3    0    0  0.35777022091E+01  0.12206409269E+02 -0.38618258321E+02  0.40659147262E+02  0.00000000000E+00 0.  1.
         11    1    4    4    0    0  0.60559212005E+01  0.28967349258E+01  0.89847126523E+01  0.11215628227E+02  0.51100000000E-03 0.  1.
        -11    1    4    4    0    0 -0.63034564675E+01 -0.11606834246E+02  0.31484031836E+02  0.34142296724E+02  0.51100000000E-03 0. -1.
        -12    1    4    4    0    0 -0.33301669421E+01 -0.34963099495E+01 -0.18504861678E+01  0.51709277874E+01  0.00000000000E+00 0.  1.
</event>
<event>
 8    1  0.6016610E-012  0.9118800E+02  0.7816164E-02  0.1184000E+00
        -11   -1    0    0    0    0  0.00000000000E+00  0.00000000000E+00  0.45593999997E+02  0.45594000000E+02  0.51100000000E-03 0. -1.
         11   -1    0    0    0    0 -0.00000000000E+00 -0.00000000000E+00 -0.45593999997E+02  0.45594000000E+02  0.51100000000E-03 0.  1.
         23    2    1    2    0    0  0.00000000000E+00  0.00000000000E+00 -0.71054273576E-14  0.91188000000E+02  0.91188000000E+02 0.  0.
    9900012    2    3    3    0    0  0.22691122558E+02 -0.13386724785E+02  0.30968924890E+02  0.50528858934E+02  0.29999997215E+02 0.  0.
        -12    1    3    3    0    0 -0.22691122558E+02  0.13386724785E+02 -0.30968924890E+02  0.40659141066E+02  0.00000000000E+00 0.  1.
         11    1    4    4    0    0  0.14390321685E+01 -0.16597390651E+02  0.77968382807E+01  0.18393881522E+02  0.51100000000E-03 0. -1.
        -11    1    4    4    0    0  0.14795648134E+02  0.41127315356E+01  0.13360571054E+02  0.20355112958E+02  0.51100000000E-03 0.  1.
         12    1    4    4    0    0  0.64564422552E+01 -0.90206567002E+00  0.98115155551E+01  0.11779864454E+02  0.00000000000E+00 0. -1.
</event>
<event>
 8    1  0.6016610E-012  0.9118800E+02  0.7816164E-02  0.1184000E+00
        -11   -1    0    0    0    0  0.00000000000E+00  0.00000000000E+00  0.45593999997E+02  0.45594000000E+02  0.51100000000E-03 0. -1.
         11   -1    0    0    0    0 -0.00000000000E+00 -0.00000000000E+00 -0.45593999997E+02  0.45594000000E+02  0.51100000000E-03 0.  1.
         23    2    1    2    0    0 -0.22204460493E-14  0.00000000000E+00  0.00000000000E+00  0.91188000000E+02  0.91188000000E+02 0.  0.
    9900012    2    3    3    0    0  0.22794003027E+01  0.73021212746E+01  0.39933063957E+02  0.50528852962E+02  0.29999979064E+02 0.  0.
        -12    1    3    3    0    0 -0.22794003027E+01 -0.73021212746E+01 -0.39933063957E+02  0.40659147038E+02  0.00000000000E+00 0.  1.
         11    1    4    4    0    0 -0.12185059545E+02  0.10188713333E+02  0.20291652314E+02  0.25768909744E+02  0.51100000000E-03 0. -1.
        -11    1    4    4    0    0  0.11803494863E+02 -0.35331863944E+01  0.15614642553E+02  0.19890272984E+02  0.51100000000E-03 0.  1.
         12    1    4    4    0    0  0.26609649847E+01  0.64659433566E+00  0.40267690903E+01  0.48696702344E+01  0.00000000000E+00 0. -1.
</event>
<event>
 8    1  0.6016610E-012  0.9118800E+02  0.7816164E-02  0.1184000E+00
        -11   -1    0    0    0    0  0.00000000000E+00  0.00000000000E+00  0.45593999997E+02  0.45594000000E+02  0.51100000000E-03 0. -1.
         11   -1    0    0    0    0 -0.00000000000E+00 -0.00000000000E+00 -0.45593999997E+02  0.45594000000E+02  0.51100000000E-03 0.  1.
         23    2    1    2    0    0  0.00000000000E+00  0.00000000000E+00 -0.35527136788E-14  0.91188000000E+02  0.91188000000E+02 0.  0.
    9900012    2    3    3    0    0  0.17819112712E+02 -0.26244157820E+02  0.25434019144E+02  0.50528856780E+02  0.29999990669E+02 0.  0.
        -12    1    3    3    0    0 -0.17819112712E+02  0.26244157820E+02 -0.25434019144E+02  0.40659143220E+02  0.00000000000E+00 0.  1.
         11    1    4    4    0    0 -0.12730014150E+01  0.82160897649E+00 -0.44799447466E+01  0.47292154853E+01  0.51100000000E-03 0.  1.
        -11    1    4    4    0    0  0.13097255556E+02 -0.15768829419E+02  0.24413032052E+02  0.31877738605E+02  0.51100000000E-03 0. -1.
         12    1    4    4    0    0  0.59948585718E+01 -0.11296937378E+02  0.55009318384E+01  0.13921902690E+02  0.00000000000E+00 0. -1.
</event>
<event>
 8    1  0.6016610E-012  0.9118800E+02  0.7816164E-02  0.1184000E+00
        -11   -1    0    0    0    0  0.00000000000E+00  0.00000000000E+00  0.45593999997E+02  0.45594000000E+02  0.51100000000E-03 0. -1.
         11   -1    0    0    0    0 -0.00000000000E+00 -0.00000000000E+00 -0.45593999997E+02  0.45594000000E+02  0.51100000000E-03 0.  1.
         23    2    1    2    0    0  0.41633363423E-15  0.17763568394E-14  0.71054273576E-14  0.91188000000E+02  0.91188000000E+02 0.  0.
    9900012    2    3    3    0    0  0.11677267900E+00 -0.14157828405E+02 -0.38114405122E+02  0.50528860575E+02  0.30000002202E+02 0.  0.
         12    1    3    3    0    0 -0.11677267900E+00  0.14157828405E+02  0.38114405122E+02  0.40659139425E+02  0.00000000000E+00 0. -1.
         11    1    4    4    0    0  0.52299780016E+01  0.50138269837E+01 -0.19836287876E+02  0.21117988728E+02  0.51100000000E-03 0. -1.
        -11    1    4    4    0    0  0.12133210641E+01 -0.15161098039E+02 -0.97793982041E+01  0.18082247406E+02  0.51100000000E-03 0.  1.
         12    1    4    4    0    0 -0.63265263867E+01 -0.40105573500E+01 -0.84987190415E+01  0.11328624441E+02  0.00000000000E+00 0. -1.
</event>
<event>
 8    1  0.6016610E-012  0.9118800E+02  0.7816164E-02  0.1184000E+00
        -11   -1    0    0    0    0  0.00000000000E+00  0.00000000000E+00  0.45593999997E+02  0.45594000000E+02  0.51100000000E-03 0. -1.
         11   -1    0    0    0    0 -0.00000000000E+00 -0.00000000000E+00 -0.45593999997E+02  0.45594000000E+02  0.51100000000E-03 0.  1.
         23    2    1    2    0    0  0.35527136788E-14  0.35527136788E-14  0.35527136788E-14  0.91188000000E+02  0.91188000000E+02 0.  0.
    9900012    2    3    3    0    0 -0.24771055065E+02 -0.22338948903E+02  0.23249319955E+02  0.50528872053E+02  0.30000037091E+02 0.  0.
        -12    1    3    3    0    0  0.24771055065E+02  0.22338948903E+02 -0.23249319955E+02  0.40659127947E+02  0.00000000000E+00 0.  1.
         11    1    4    4    0    0 -0.84195650693E+01  0.44517829743E+01 -0.13666528801E+01  0.96216000728E+01  0.51100000000E-03 0. -1.
        -11    1    4    4    0    0 -0.24644438771E+01 -0.12162714193E+02  0.79020492758E+01  0.14712154267E+02  0.51100000000E-03 0.  1.
         12    1    4    4    0    0 -0.13887046118E+02 -0.14628017684E+02  0.16713923559E+02  0.26195117713E+02  0.00000000000E+00 0. -1.
</event>
<event>
 8    1  0.6016610E-012  0.9118800E+02  0.7816164E-02  0.1184000E+00
        -11   -1    0    0    0    0  0.00000000000E+00  0.00000000000E+00  0.45593999997E+02  0.45594000000E+02  0.51100000000E-03 0. -1.
         11   -1    0    0    0    0 -0.00000000000E+00 -0.00000000000E+00 -0.45593999997E+02  0.45594000000E+02  0.51100000000E-03 0.  1.
         23    2    1    2    0    0  0.00000000000E+00  0.00000000000E+00  0.00000000000E+00  0.91188000000E+02  0.91188000000E+02 0.  0.
    9900012    2    3    3    0    0  0.12255740112E+02 -0.10482876182E+02 -0.37323916290E+02  0.50528824086E+02  0.29999891293E+02 0.  0.
         12    1    3    3    0    0 -0.12255740112E+02  0.10482876182E+02  0.37323916290E+02  0.40659175914E+02  0.00000000000E+00 0. -1.
         11    1    4    4    0    0  0.62964377502E-02  0.24752345202E+00 -0.28582608470E+02  0.28583680916E+02  0.51100000000E-03 0. -1.
        -11    1    4    4    0    0  0.72110626457E+01 -0.44081133983E+01  0.18194320762E+01  0.86453005473E+01  0.51100000000E-03 0.  1.
         12    1    4    4    0    0  0.50383810286E+01 -0.63222862359E+01 -0.10560739896E+02  0.13299842623E+02  0.00000000000E+00 0. -1.
</event>
<event>
 8    1  0.6016610E-012  0.9118800E+02  0.7816164E-02  0.1184000E+00
        -11   -1    0    0    0    0  0.00000000000E+00  0.00000000000E+00  0.45593999997E+02  0.45594000000E+02  0.51100000000E-03 0. -1.
         11   -1    0    0    0    0 -0.00000000000E+00 -0.00000000000E+00 -0.45593999997E+02  0.45594000000E+02  0.51100000000E-03 0.  1.
         23    2    1    2    0    0 -0.35527136788E-14 -0.35527136788E-14 -0.17763568394E-14  0.91188000000E+02  0.91188000000E+02 0.  0.
    9900012    2    3    3    0    0  0.25210820653E+02  0.29038971940E+02  0.13202967653E+02  0.50528859279E+02  0.29999998263E+02 0.  0.
        -12    1    3    3    0    0 -0.25210820653E+02 -0.29038971940E+02 -0.13202967653E+02  0.40659140721E+02  0.00000000000E+00 0.  1.
         11    1    4    4    0    0  0.97669013049E+01  0.13921265011E+02 -0.62736149286E+01  0.18126009631E+02  0.51100000000E-03 0. -1.
        -11    1    4    4    0    0  0.35112829712E+01 -0.42382912380E+00  0.10059812743E+02  0.10663422149E+02  0.51100000000E-03 0.  1.
         12    1    4    4    0    0  0.11932636377E+02  0.15541536053E+02  0.94167698387E+01  0.21739427499E+02  0.00000000000E+00 0. -1.
</event>
<event>
 8    1  0.6016610E-012  0.9118800E+02  0.7816164E-02  0.1184000E+00
        -11   -1    0    0    0    0  0.00000000000E+00  0.00000000000E+00  0.45593999997E+02  0.45594000000E+02  0.51100000000E-03 0. -1.
         11   -1    0    0    0    0 -0.00000000000E+00 -0.00000000000E+00 -0.45593999997E+02  0.45594000000E+02  0.51100000000E-03 0.  1.
         23    2    1    2    0    0  0.00000000000E+00  0.00000000000E+00  0.00000000000E+00  0.91188000000E+02  0.91188000000E+02 0.  0.
    9900012    2    3    3    0    0 -0.14212953194E+02 -0.15074310979E+02 -0.34984610585E+02  0.50528857514E+02  0.29999992899E+02 0.  0.
         12    1    3    3    0    0  0.14212953194E+02  0.15074310979E+02  0.34984610585E+02  0.40659142486E+02  0.00000000000E+00 0. -1.
         11    1    4    4    0    0 -0.12472677221E+02  0.48135863245E+01 -0.18432488728E+02  0.22770483775E+02  0.51100000000E-03 0. -1.
        -11    1    4    4    0    0  0.33025290616E+01 -0.12972327346E+02 -0.12394315964E+02  0.18242999848E+02  0.51100000000E-03 0.  1.
        -12    1    4    4    0    0 -0.50428050343E+01 -0.69155699568E+01 -0.41578058924E+01  0.95153738907E+01  0.00000000000E+00 0.  1.
</event>
<event>
 8    1  0.6016610E-012  0.9118800E+02  0.7816164E-02  0.1184000E+00
        -11   -1    0    0    0    0  0.00000000000E+00  0.00000000000E+00  0.45593999997E+02  0.45594000000E+02  0.51100000000E-03 0. -1.
         11   -1    0    0    0    0 -0.00000000000E+00 -0.00000000000E+00 -0.45593999997E+02  0.45594000000E+02  0.51100000000E-03 0.  1.
         23    2    1    2    0    0 -0.17763568394E-14  0.00000000000E+00  0.00000000000E+00  0.91188000000E+02  0.91188000000E+02 0.  0.
    9900012    2    3    3    0    0 -0.45621565323E+01 -0.30659167760E+02  0.26312886434E+02  0.50528857948E+02  0.29999994218E+02 0.  0.
        -12    1    3    3    0    0  0.45621565323E+01  0.30659167760E+02 -0.26312886434E+02  0.40659142052E+02  0.00000000000E+00 0.  1.
         11    1    4    4    0    0  0.51956262786E+01 -0.12194188723E+02  0.20491088097E+02  0.24404455795E+02  0.51100000000E-03 0. -1.
        -11    1    4    4    0    0  0.17630670515E+01 -0.33904398901E+01 -0.33215700601E+01  0.50632317744E+01  0.51100000000E-03 0.  1.
         12    1    4    4    0    0 -0.11520849862E+02 -0.15074539147E+02  0.91433683975E+01  0.21061170378E+02  0.00000000000E+00 0. -1.
</event>
<event>
 8    1  0.6016610E-012  0.9118800E+02  0.7816164E-02  0.1184000E+00
        -11   -1    0    0    0    0  0.00000000000E+00  0.00000000000E+00  0.45593999997E+02  0.45594000000E+02  0.51100000000E-03 0. -1.
         11   -1    0    0    0    0 -0.00000000000E+00 -0.00000000000E+00 -0.45593999997E+02  0.45594000000E+02  0.51100000000E-03 0.  1.
         23    2    1    2    0    0  0.00000000000E+00  0.00000000000E+00  0.71054273576E-14  0.91188000000E+02  0.91188000000E+02 0.  0.
    9900012    2    3    3    0    0  0.86163387443E+01  0.14010211378E+02  0.37183844716E+02  0.50528860509E+02  0.30000002005E+02 0.  0.
        -12    1    3    3    0    0 -0.86163387443E+01 -0.14010211378E+02 -0.37183844716E+02  0.40659139491E+02  0.00000000000E+00 0.  1.
         11    1    4    4    0    0  0.79298786806E+01  0.36233407695E+01  0.13717179523E+02  0.16253386987E+02  0.51100000000E-03 0. -1.
        -11    1    4    4    0    0 -0.38258594234E+01  0.51788205720E+01 -0.28720493660E+01  0.70502518158E+01  0.51100000000E-03 0.  1.
        -12    1    4    4    0    0  0.45123194871E+01  0.52080500365E+01  0.26338714559E+02  0.27225221706E+02  0.00000000000E+00 0.  1.
</event>
<event>
 8    1  0.6016610E-012  0.9118800E+02  0.7816164E-02  0.1184000E+00
        -11   -1    0    0    0    0  0.00000000000E+00  0.00000000000E+00  0.45593999997E+02  0.45594000000E+02  0.51100000000E-03 0. -1.
         11   -1    0    0    0    0 -0.00000000000E+00 -0.00000000000E+00 -0.45593999997E+02  0.45594000000E+02  0.51100000000E-03 0.  1.
         23    2    1    2    0    0  0.00000000000E+00  0.35527136788E-14  0.00000000000E+00  0.91188000000E+02  0.91188000000E+02 0.  0.
    9900012    2    3    3    0    0  0.64213489624E+01  0.26415686315E+02  0.30234802555E+02  0.50528862139E+02  0.30000006959E+02 0.  0.
        -12    1    3    3    0    0 -0.64213489624E+01 -0.26415686315E+02 -0.30234802555E+02  0.40659137861E+02  0.00000000000E+00 0.  1.
         11    1    4    4    0    0  0.70749365241E+01  0.13331138105E+02  0.24049902348E+02  0.28393164199E+02  0.51100000000E-03 0. -1.
        -11    1    4    4    0    0  0.34473360082E+00  0.53041448296E+01 -0.57648813216E+01  0.78413423941E+01  0.51100000000E-03 0.  1.
        -12    1    4    4    0    0 -0.99832116259E+00  0.77804033805E+01  0.11949781529E+02  0.14294355546E+02  0.00000000000E+00 0.  1.
</event>
<event>
 8    1  0.6016610E-012  0.9118800E+02  0.7816164E-02  0.1184000E+00
        -11   -1    0    0    0    0  0.00000000000E+00  0.00000000000E+00  0.45593999997E+02  0.45594000000E+02  0.51100000000E-03 0. -1.
         11   -1    0    0    0    0 -0.00000000000E+00 -0.00000000000E+00 -0.45593999997E+02  0.45594000000E+02  0.51100000000E-03 0.  1.
         23    2    1    2    0    0  0.71054273576E-14 -0.44408920985E-15  0.35527136788E-14  0.91188000000E+02  0.91188000000E+02 0.  0.
    9900012    2    3    3    0    0 -0.35720771771E+02  0.25135974245E+01 -0.19258119707E+02  0.50528845034E+02  0.29999954965E+02 0.  0.
         12    1    3    3    0    0  0.35720771771E+02 -0.25135974245E+01  0.19258119707E+02  0.40659154966E+02  0.00000000000E+00 0. -1.
         11    1    4    4    0    0 -0.61991545579E+01 -0.86967428852E+01  0.28353158661E+01  0.11049971510E+02  0.51100000000E-03 0. -1.
        -11    1    4    4    0    0 -0.33931532752E+01  0.84370904185E+00 -0.63798224099E+01  0.72751266889E+01  0.51100000000E-03 0.  1.
         12    1    4    4    0    0 -0.26128463937E+02  0.10366631268E+02 -0.15713613163E+02  0.32203746835E+02  0.00000000000E+00 0. -1.
</event>
<event>
 8    1  0.6016610E-012  0.9118800E+02  0.7816164E-02  0.1184000E+00
        -11   -1    0    0    0    0  0.00000000000E+00  0.00000000000E+00  0.45593999997E+02  0.45594000000E+02  0.51100000000E-03 0. -1.
         11   -1    0    0    0    0 -0.00000000000E+00 -0.00000000000E+00 -0.45593999997E+02  0.45594000000E+02  0.51100000000E-03 0.  1.
         23    2    1    2    0    0 -0.35527136788E-14  0.00000000000E+00  0.35527136788E-14  0.91188000000E+02  0.91188000000E+02 0.  0.
    9900012    2    3    3    0    0 -0.30441306213E+02  0.18169919250E+02  0.19908259207E+02  0.50528955814E+02  0.30000291691E+02 0.  0.
        -12    1    3    3    0    0  0.30441306213E+02 -0.18169919250E+02 -0.19908259207E+02  0.40659044186E+02  0.00000000000E+00 0.  1.
         11    1    4    4    0    0 -0.22303056256E+02  0.15279561573E+02  0.89659856573E+01  0.28482981222E+02  0.51100000000E-03 0. -1.
        -11    1    4    4    0    0  0.18915099026E+01  0.95186324549E+00 -0.36580908453E+01  0.42267578879E+01  0.51100000000E-03 0.  1.
         12    1    4    4    0    0 -0.10029759859E+02  0.19384944312E+01  0.14600364395E+02  0.17819216704E+02  0.00000000000E+00 0. -1.
</event>
<event>
 8    1  0.6016610E-012  0.9118800E+02  0.7816164E-02  0.1184000E+00
        -11   -1    0    0    0    0  0.00000000000E+00  0.00000000000E+00  0.45593999997E+02  0.45594000000E+02  0.51100000000E-03 0.  1.
         11   -1    0    0    0    0 -0.00000000000E+00 -0.00000000000E+00 -0.45593999997E+02  0.45594000000E+02  0.51100000000E-03 0. -1.
         23    2    1    2    0    0  0.71054273576E-14 -0.35527136788E-14 -0.17763568394E-14  0.91188000000E+02  0.91188000000E+02 0.  0.
    9900012    2    3    3    0    0 -0.30601130122E+02 -0.24800887949E+02 -0.10082278583E+02  0.50528861430E+02  0.30000004802E+02 0.  0.
        -12    1    3    3    0    0  0.30601130122E+02  0.24800887949E+02  0.10082278583E+02  0.40659138570E+02  0.00000000000E+00 0.  1.
         11    1    4    4    0    0  0.24085142349E+01 -0.96967294764E+00 -0.63881475089E+01  0.68956243590E+01  0.51100000000E-03 0. -1.
        -11    1    4    4    0    0 -0.11949386132E+02 -0.15692001273E+02  0.32967473358E+01  0.19997381732E+02  0.51100000000E-03 0.  1.
         12    1    4    4    0    0 -0.21060258225E+02 -0.81392137287E+01 -0.69908784104E+01  0.23635855338E+02  0.00000000000E+00 0. -1.
</event>
<event>
 8    1  0.6016610E-012  0.9118800E+02  0.7816164E-02  0.1184000E+00
        -11   -1    0    0    0    0  0.00000000000E+00  0.00000000000E+00  0.45593999997E+02  0.45594000000E+02  0.51100000000E-03 0. -1.
         11   -1    0    0    0    0 -0.00000000000E+00 -0.00000000000E+00 -0.45593999997E+02  0.45594000000E+02  0.51100000000E-03 0.  1.
         23    2    1    2    0    0 -0.88817841970E-15  0.00000000000E+00  0.00000000000E+00  0.91188000000E+02  0.91188000000E+02 0.  0.
    9900012    2    3    3    0    0 -0.55002521073E+01  0.23845910810E+02  0.32469754502E+02  0.50528865811E+02  0.30000018118E+02 0.  0.
        -12    1    3    3    0    0  0.55002521073E+01 -0.23845910810E+02 -0.32469754502E+02  0.40659134189E+02  0.00000000000E+00 0.  1.
         11    1    4    4    0    0 -0.13278144133E+01  0.25406988650E+02  0.17377013389E+02  0.30809718563E+02  0.51100000000E-03 0.  1.
        -11    1    4    4    0    0  0.82861683584E+00  0.35778567367E+01  0.10693342225E+02  0.11306424408E+02  0.51100000000E-03 0. -1.
         12    1    4    4    0    0 -0.50010545299E+01 -0.51389345765E+01  0.43993988881E+01  0.84127228392E+01  0.00000000000E+00 0. -1.
</event>
<event>
 8    1  0.6016610E-012  0.9118800E+02  0.7816164E-02  0.1184000E+00
        -11   -1    0    0    0    0  0.00000000000E+00  0.00000000000E+00  0.45593999997E+02  0.45594000000E+02  0.51100000000E-03 0. -1.
         11   -1    0    0    0    0 -0.00000000000E+00 -0.00000000000E+00 -0.45593999997E+02  0.45594000000E+02  0.51100000000E-03 0.  1.
         23    2    1    2    0    0  0.00000000000E+00  0.17763568394E-14  0.00000000000E+00  0.91188000000E+02  0.91188000000E+02 0.  0.
    9900012    2    3    3    0    0 -0.20665722402E+02 -0.12125332310E+02  0.32849217959E+02  0.50528844985E+02  0.29999954817E+02 0.  0.
        -12    1    3    3    0    0  0.20665722402E+02  0.12125332310E+02 -0.32849217959E+02  0.40659155015E+02  0.00000000000E+00 0.  1.
         11    1    4    4    0    0 -0.14071008760E+02  0.46924434407E-02  0.13526706034E+02  0.19518326924E+02  0.51100000000E-03 0.  1.
        -11    1    4    4    0    0  0.46908151972E+01  0.28407678277E+01  0.38202225882E+01  0.66833980841E+01  0.51100000000E-03 0. -1.
         12    1    4    4    0    0 -0.11285528839E+02 -0.14970792581E+02  0.15502289337E+02  0.24327119977E+02  0.00000000000E+00 0. -1.
</event>
<event>
 8    1  0.6016610E-012  0.9118800E+02  0.7816164E-02  0.1184000E+00
        -11   -1    0    0    0    0  0.00000000000E+00  0.00000000000E+00  0.45593999997E+02  0.45594000000E+02  0.51100000000E-03 0. -1.
         11   -1    0    0    0    0 -0.00000000000E+00 -0.00000000000E+00 -0.45593999997E+02  0.45594000000E+02  0.51100000000E-03 0.  1.
         23    2    1    2    0    0  0.17763568394E-14  0.00000000000E+00  0.00000000000E+00  0.91188000000E+02  0.91188000000E+02 0.  0.
    9900012    2    3    3    0    0 -0.93494895464E+01 -0.86410387382E+01  0.38614573883E+02  0.50528858083E+02  0.29999994630E+02 0.  0.
        -12    1    3    3    0    0  0.93494895464E+01  0.86410387382E+01 -0.38614573883E+02  0.40659141917E+02  0.00000000000E+00 0.  1.
         11    1    4    4    0    0  0.34827380332E+01  0.77609642255E+01  0.19953731849E+02  0.21691321879E+02  0.51100000000E-03 0. -1.
        -11    1    4    4    0    0 -0.80398100753E+01 -0.47869312403E+01  0.90598898843E+01  0.13024394870E+02  0.51100000000E-03 0.  1.
         12    1    4    4    0    0 -0.47924175043E+01 -0.11615071723E+02  0.96009521499E+01  0.15813141334E+02  0.00000000000E+00 0. -1.
</event>
<event>
 8    1  0.6016610E-012  0.9118800E+02  0.7816164E-02  0.1184000E+00
        -11   -1    0    0    0    0  0.00000000000E+00  0.00000000000E+00  0.45593999997E+02  0.45594000000E+02  0.51100000000E-03 0. -1.
         11   -1    0    0    0    0 -0.00000000000E+00 -0.00000000000E+00 -0.45593999997E+02  0.45594000000E+02  0.51100000000E-03 0.  1.
         23    2    1    2    0    0 -0.35527136788E-14  0.00000000000E+00  0.00000000000E+00  0.91188000000E+02  0.91188000000E+02 0.  0.
    9900012    2    3    3    0    0  0.17646619563E+02  0.12862818678E+02  0.34297381540E+02  0.50528859984E+02  0.30000000408E+02 0.  0.
        -12    1    3    3    0    0 -0.17646619563E+02 -0.12862818678E+02 -0.34297381540E+02  0.40659140016E+02  0.00000000000E+00 0.  1.
         11    1    4    4    0    0 -0.44207538615E+01  0.11518741306E+02  0.12099464976E+02  0.17280668938E+02  0.51100000000E-03 0. -1.
        -11    1    4    4    0    0  0.18134200964E+02 -0.29974665366E+01  0.13689486594E+02  0.22918029883E+02  0.51100000000E-03 0.  1.
        -12    1    4    4    0    0  0.39331724601E+01  0.43415439084E+01  0.85084299692E+01  0.10330161163E+02  0.00000000000E+00 0.  1.
</event>
<event>
 8    1  0.6016610E-012  0.9118800E+02  0.7816164E-02  0.1184000E+00
        -11   -1    0    0    0    0  0.00000000000E+00  0.00000000000E+00  0.45593999997E+02  0.45594000000E+02  0.51100000000E-03 0. -1.
         11   -1    0    0    0    0 -0.00000000000E+00 -0.00000000000E+00 -0.45593999997E+02  0.45594000000E+02  0.51100000000E-03 0.  1.
         23    2    1    2    0    0  0.00000000000E+00  0.55511151231E-16 -0.14210854715E-13  0.91188000000E+02  0.91188000000E+02 0.  0.
    9900012    2    3    3    0    0  0.56776224601E+01  0.49542266908E+00  0.40257728078E+02  0.50528861908E+02  0.30000006254E+02 0.  0.
        -12    1    3    3    0    0 -0.56776224601E+01 -0.49542266908E+00 -0.40257728078E+02  0.40659138092E+02  0.00000000000E+00 0.  1.
         11    1    4    4    0    0 -0.47998853084E+01  0.25999395499E+01 -0.14837503591E+01  0.56568630907E+01  0.51100000000E-03 0.  1.
        -11    1    4    4    0    0  0.53031961954E+01 -0.48904753194E+01  0.86527471423E+01  0.11265463688E+02  0.51100000000E-03 0. -1.
         12    1    4    4    0    0  0.51743115732E+01  0.27859584386E+01  0.33088731295E+02  0.33606535129E+02  0.00000000000E+00 0. -1.
</event>
<event>
 8    1  0.6016610E-012  0.9118800E+02  0.7816164E-02  0.1184000E+00
        -11   -1    0    0    0    0  0.00000000000E+00  0.00000000000E+00  0.45593999997E+02  0.45594000000E+02  0.51100000000E-03 0. -1.
         11   -1    0    0    0    0 -0.00000000000E+00 -0.00000000000E+00 -0.45593999997E+02  0.45594000000E+02  0.51100000000E-03 0.  1.
         23    2    1    2    0    0  0.00000000000E+00 -0.35527136788E-14 -0.35527136788E-14  0.91188000000E+02  0.91188000000E+02 0.  0.
    9900012    2    3    3    0    0 -0.13539584649E+02  0.25555769955E+02  0.28578817108E+02  0.50528849520E+02  0.29999968600E+02 0.  0.
        -12    1    3    3    0    0  0.13539584649E+02 -0.25555769955E+02 -0.28578817108E+02  0.40659150480E+02  0.00000000000E+00 0.  1.
         11    1    4    4    0    0 -0.17662047319E+02  0.17324136750E+02  0.98803027858E+01  0.26640082828E+02  0.51100000000E-03 0. -1.
        -11    1    4    4    0    0  0.30360588337E+01  0.37762049213E+01  0.22070494321E+00  0.48503698604E+01  0.51100000000E-03 0.  1.
         12    1    4    4    0    0  0.10864038363E+01  0.44554282834E+01  0.18477809379E+02  0.19038396832E+02  0.00000000000E+00 0. -1.
</event>
<event>
 8    1  0.6016610E-012  0.9118800E+02  0.7816164E-02  0.1184000E+00
        -11   -1    0    0    0    0  0.00000000000E+00  0.00000000000E+00  0.45593999997E+02  0.45594000000E+02  0.51100000000E-03 0. -1.
         11   -1    0    0    0    0 -0.00000000000E+00 -0.00000000000E+00 -0.45593999997E+02  0.45594000000E+02  0.51100000000E-03 0.  1.
         23    2    1    2    0    0  0.00000000000E+00  0.88817841970E-15  0.00000000000E+00  0.91188000000E+02  0.91188000000E+02 0.  0.
    9900012    2    3    3    0    0 -0.35335072660E+02  0.71966629848E+01 -0.18783148586E+02  0.50528856025E+02  0.29999988372E+02 0.  0.
         12    1    3    3    0    0  0.35335072660E+02 -0.71966629848E+01  0.18783148586E+02  0.40659143975E+02  0.00000000000E+00 0. -1.
         11    1    4    4    0    0 -0.43497746315E+01 -0.33907926277E+01  0.23546745036E+01  0.59968747084E+01  0.51100000000E-03 0. -1.
        -11    1    4    4    0    0 -0.33151326188E+02  0.99175224380E+01 -0.23040604516E+02  0.41572071587E+02  0.51100000000E-03 0.  1.
        -12    1    4    4    0    0  0.21660281597E+01  0.66993317443E+00  0.19027814263E+01  0.29599097289E+01  0.00000000000E+00 0.  1.
</event>
<event>
 8    1  0.6016610E-012  0.9118800E+02  0.7816164E-02  0.1184000E+00
        -11   -1    0    0    0    0  0.00000000000E+00  0.00000000000E+00  0.45593999997E+02  0.45594000000E+02  0.51100000000E-03 0. -1.
         11   -1    0    0    0    0 -0.00000000000E+00 -0.00000000000E+00 -0.45593999997E+02  0.45594000000E+02  0.51100000000E-03 0.  1.
         23    2    1    2    0    0  0.71054273576E-14  0.00000000000E+00  0.35527136788E-14  0.91188000000E+02  0.91188000000E+02 0.  0.
    9900012    2    3    3    0    0  0.32225335520E+02 -0.12071073352E+02  0.21656011372E+02  0.50528857243E+02  0.29999992074E+02 0.  0.
        -12    1    3    3    0    0 -0.32225335520E+02  0.12071073352E+02 -0.21656011372E+02  0.40659142757E+02  0.00000000000E+00 0.  1.
         11    1    4    4    0    0 -0.36190986061E+01  0.99813450271E-01  0.41241110140E+01  0.54878164476E+01  0.51100000000E-03 0. -1.
        -11    1    4    4    0    0  0.30377175827E+02 -0.13451128231E+02  0.83124268545E+01  0.34246198364E+02  0.51100000000E-03 0.  1.
         12    1    4    4    0    0  0.54672582988E+01  0.12802414290E+01  0.92194735040E+01  0.10794842431E+02  0.00000000000E+00 0. -1.
</event>
<event>
 8    1  0.6016610E-012  0.9118800E+02  0.7816164E-02  0.1184000E+00
        -11   -1    0    0    0    0  0.00000000000E+00  0.00000000000E+00  0.45593999997E+02  0.45594000000E+02  0.51100000000E-03 0. -1.
         11   -1    0    0    0    0 -0.00000000000E+00 -0.00000000000E+00 -0.45593999997E+02  0.45594000000E+02  0.51100000000E-03 0.  1.
         23    2    1    2    0    0  0.00000000000E+00 -0.17763568394E-14 -0.71054273576E-14  0.91188000000E+02  0.91188000000E+02 0.  0.
    9900012    2    3    3    0    0 -0.16779351237E+02 -0.10479240900E+02 -0.35521878770E+02  0.50528868318E+02  0.30000025739E+02 0.  0.
         12    1    3    3    0    0  0.16779351237E+02  0.10479240900E+02  0.35521878770E+02  0.40659131682E+02  0.00000000000E+00 0. -1.
         11    1    4    4    0    0 -0.14381503901E+02 -0.15794531596E+02 -0.24514856698E+02  0.32515735913E+02  0.51100000000E-03 0. -1.
        -11    1    4    4    0    0 -0.52854117591E+00  0.80225178262E+01 -0.12116402500E+02  0.14541229585E+02  0.51100000000E-03 0.  1.
         12    1    4    4    0    0 -0.18693061603E+01 -0.27072271304E+01  0.11093804278E+01  0.34719028198E+01  0.00000000000E+00 0. -1.
</event>
<event>
 8    1  0.6016610E-012  0.9118800E+02  0.7816164E-02  0.1184000E+00
        -11   -1    0    0    0    0  0.00000000000E+00  0.00000000000E+00  0.45593999997E+02  0.45594000000E+02  0.51100000000E-03 0. -1.
         11   -1    0    0    0    0 -0.00000000000E+00 -0.00000000000E+00 -0.45593999997E+02  0.45594000000E+02  0.51100000000E-03 0.  1.
         23    2    1    2    0    0  0.44408920985E-15 -0.35527136788E-14 -0.71054273576E-14  0.91188000000E+02  0.91188000000E+02 0.  0.
    9900012    2    3    3    0    0  0.34376153265E+01 -0.20028442095E+02 -0.35216629295E+02  0.50528847638E+02  0.29999962881E+02 0.  0.
         12    1    3    3    0    0 -0.34376153265E+01  0.20028442095E+02  0.35216629295E+02  0.40659152362E+02  0.00000000000E+00 0. -1.
         11    1    4    4    0    0  0.50466233206E+01 -0.82470406593E+01 -0.24022909185E+02  0.25895602958E+02  0.51100000000E-03 0. -1.
        -11    1    4    4    0    0 -0.77727962124E+01 -0.13401353004E+02 -0.69733154907E+01  0.16989401181E+02  0.51100000000E-03 0.  1.
         12    1    4    4    0    0  0.61637882183E+01  0.16199515690E+01 -0.42204046191E+01  0.76438434988E+01  0.00000000000E+00 0. -1.
</event>
<event>
 8    1  0.6016610E-012  0.9118800E+02  0.7816164E-02  0.1184000E+00
        -11   -1    0    0    0    0  0.00000000000E+00  0.00000000000E+00  0.45593999997E+02  0.45594000000E+02  0.51100000000E-03 0. -1.
         11   -1    0    0    0    0 -0.00000000000E+00 -0.00000000000E+00 -0.45593999997E+02  0.45594000000E+02  0.51100000000E-03 0.  1.
         23    2    1    2    0    0  0.00000000000E+00  0.00000000000E+00  0.17763568394E-14  0.91188000000E+02  0.91188000000E+02 0.  0.
    9900012    2    3    3    0    0  0.30162420589E+02 -0.22258433399E+02 -0.15746741791E+02  0.50528814689E+02  0.29999862728E+02 0.  0.
         12    1    3    3    0    0 -0.30162420589E+02  0.22258433399E+02  0.15746741791E+02  0.40659185311E+02  0.00000000000E+00 0. -1.
         11    1    4    4    0    0  0.22691108430E+02 -0.46246332880E+01  0.22774931086E+01  0.23269306176E+02  0.51100000000E-03 0. -1.
        -11    1    4    4    0    0  0.69576097812E+00 -0.28668670475E+01  0.57532740385E-01  0.29506474347E+01  0.51100000000E-03 0.  1.
         12    1    4    4    0    0  0.67755511809E+01 -0.14766933064E+02 -0.18081767640E+02  0.24308861078E+02  0.00000000000E+00 0. -1.
</event>
<event>
 8    1  0.6016610E-012  0.9118800E+02  0.7816164E-02  0.1184000E+00
        -11   -1    0    0    0    0  0.00000000000E+00  0.00000000000E+00  0.45593999997E+02  0.45594000000E+02  0.51100000000E-03 0. -1.
         11   -1    0    0    0    0 -0.00000000000E+00 -0.00000000000E+00 -0.45593999997E+02  0.45594000000E+02  0.51100000000E-03 0.  1.
         23    2    1    2    0    0  0.00000000000E+00  0.00000000000E+00  0.00000000000E+00  0.91188000000E+02  0.91188000000E+02 0.  0.
    9900012    2    3    3    0    0 -0.49855022354E+01 -0.29507377706E+02  0.27524987806E+02  0.50528861724E+02  0.30000005697E+02 0.  0.
        -12    1    3    3    0    0  0.49855022354E+01  0.29507377706E+02 -0.27524987806E+02  0.40659138276E+02  0.00000000000E+00 0.  1.
         11    1    4    4    0    0  0.49653070416E+01 -0.28446744318E+02  0.18392031409E+02  0.34236506187E+02  0.51100000000E-03 0. -1.
        -11    1    4    4    0    0  0.79422713692E+00  0.15482221044E+01  0.34413829631E+01  0.38562812902E+01  0.51100000000E-03 0.  1.
         12    1    4    4    0    0 -0.10745036414E+02 -0.26088554920E+01  0.56915734340E+01  0.12436074247E+02  0.00000000000E+00 0. -1.
</event>
<event>
 8    1  0.6016610E-012  0.9118800E+02  0.7816164E-02  0.1184000E+00
        -11   -1    0    0    0    0  0.00000000000E+00  0.00000000000E+00  0.45593999997E+02  0.45594000000E+02  0.51100000000E-03 0. -1.
         11   -1    0    0    0    0 -0.00000000000E+00 -0.00000000000E+00 -0.45593999997E+02  0.45594000000E+02  0.51100000000E-03 0.  1.
         23    2    1    2    0    0 -0.35527136788E-14 -0.88817841970E-15  0.71054273576E-14  0.91188000000E+02  0.91188000000E+02 0.  0.
    9900012    2    3    3    0    0  0.18210220942E+02 -0.72866902186E+01 -0.35615408055E+02  0.50528864593E+02  0.30000014417E+02 0.  0.
         12    1    3    3    0    0 -0.18210220942E+02  0.72866902186E+01  0.35615408055E+02  0.40659135407E+02  0.00000000000E+00 0. -1.
         11    1    4    4    0    0  0.76908050515E+01 -0.42434495466E+01 -0.44384244808E+01  0.98414916821E+01  0.51100000000E-03 0. -1.
        -11    1    4    4    0    0 -0.50250807172E+01  0.61090899411E+01 -0.11874542459E+02  0.14268047344E+02  0.51100000000E-03 0.  1.
        -12    1    4    4    0    0  0.15544496608E+02 -0.91523306130E+01 -0.19302441115E+02  0.26419325567E+02  0.00000000000E+00 0.  1.
</event>
<event>
 8    1  0.6016610E-012  0.9118800E+02  0.7816164E-02  0.1184000E+00
        -11   -1    0    0    0    0  0.00000000000E+00  0.00000000000E+00  0.45593999997E+02  0.45594000000E+02  0.51100000000E-03 0. -1.
         11   -1    0    0    0    0 -0.00000000000E+00 -0.00000000000E+00 -0.45593999997E+02  0.45594000000E+02  0.51100000000E-03 0.  1.
         23    2    1    2    0    0  0.00000000000E+00  0.14210854715E-13  0.17763568394E-14  0.91188000000E+02  0.91188000000E+02 0.  0.
    9900012    2    3    3    0    0 -0.14497791613E+02  0.37372414176E+02  0.68031127611E+01  0.50528860237E+02  0.30000001177E+02 0.  0.
        -12    1    3    3    0    0  0.14497791613E+02 -0.37372414176E+02 -0.68031127611E+01  0.40659139763E+02  0.00000000000E+00 0.  1.
         11    1    4    4    0    0 -0.56806024913E+01  0.36305662887E+02  0.47255155476E+01  0.37049978404E+02  0.51100000000E-03 0. -1.
        -11    1    4    4    0    0 -0.55725221066E+01 -0.25373940443E+01  0.49226227139E+01  0.78564359482E+01  0.51100000000E-03 0.  1.
        -12    1    4    4    0    0 -0.32446670151E+01  0.36041453342E+01 -0.28450255004E+01  0.56224458847E+01  0.00000000000E+00 0.  1.
</event>
<event>
 8    1  0.6016610E-012  0.9118800E+02  0.7816164E-02  0.1184000E+00
        -11   -1    0    0    0    0  0.00000000000E+00  0.00000000000E+00  0.45593999997E+02  0.45594000000E+02  0.51100000000E-03 0. -1.
         11   -1    0    0    0    0 -0.00000000000E+00 -0.00000000000E+00 -0.45593999997E+02  0.45594000000E+02  0.51100000000E-03 0.  1.
         23    2    1    2    0    0 -0.35527136788E-14  0.17763568394E-14  0.71054273576E-14  0.91188000000E+02  0.91188000000E+02 0.  0.
    9900012    2    3    3    0    0 -0.90595527166E+01 -0.12924714095E+02 -0.37470547396E+02  0.50528860166E+02  0.30000000961E+02 0.  0.
         12    1    3    3    0    0  0.90595527166E+01  0.12924714095E+02  0.37470547396E+02  0.40659139834E+02  0.00000000000E+00 0. -1.
         11    1    4    4    0    0  0.49966030710E+01 -0.49739045306E+01 -0.25372782646E+02  0.26334081871E+02  0.51100000000E-03 0. -1.
        -11    1    4    4    0    0 -0.10463767133E+02 -0.78399459440E-01 -0.11459007168E+02  0.15517906258E+02  0.51100000000E-03 0.  1.
         12    1    4    4    0    0 -0.35923886547E+01 -0.78724101046E+01 -0.63875758240E+00  0.86768720373E+01  0.00000000000E+00 0. -1.
</event>
<event>
 8    1  0.6016610E-012  0.9118800E+02  0.7816164E-02  0.1184000E+00
        -11   -1    0    0    0    0  0.00000000000E+00  0.00000000000E+00  0.45593999997E+02  0.45594000000E+02  0.51100000000E-03 0.  1.
         11   -1    0    0    0    0 -0.00000000000E+00 -0.00000000000E+00 -0.45593999997E+02  0.45594000000E+02  0.51100000000E-03 0. -1.
         23    2    1    2    0    0  0.00000000000E+00 -0.71054273576E-14  0.00000000000E+00  0.91188000000E+02  0.91188000000E+02 0.  0.
    9900012    2    3    3    0    0  0.34831373804E+01  0.39129709008E+02  0.10483265717E+02  0.50528865317E+02  0.30000016619E+02 0.  0.
        -12    1    3    3    0    0 -0.34831373804E+01 -0.39129709008E+02 -0.10483265717E+02  0.40659134683E+02  0.00000000000E+00 0.  1.
         11    1    4    4    0    0  0.12247286074E+01  0.39597742873E+02  0.35016025078E+01  0.39771125470E+02  0.51100000000E-03 0. -1.
        -11    1    4    4    0    0  0.44401187893E+01 -0.16488790812E+00  0.12473728180E+01  0.46149520143E+01  0.51100000000E-03 0.  1.
         12    1    4    4    0    0 -0.21817100163E+01 -0.30314595724E+00  0.57342903914E+01  0.61427878328E+01  0.00000000000E+00 0. -1.
</event>
<event>
 8    1  0.6016610E-012  0.9118800E+02  0.7816164E-02  0.1184000E+00
        -11   -1    0    0    0    0  0.00000000000E+00  0.00000000000E+00  0.45593999997E+02  0.45594000000E+02  0.51100000000E-03 0. -1.
         11   -1    0    0    0    0 -0.00000000000E+00 -0.00000000000E+00 -0.45593999997E+02  0.45594000000E+02  0.51100000000E-03 0.  1.
         23    2    1    2    0    0  0.00000000000E+00  0.00000000000E+00  0.00000000000E+00  0.91188000000E+02  0.91188000000E+02 0.  0.
    9900012    2    3    3    0    0  0.27325020805E+02  0.93063446671E+01  0.28633888833E+02  0.50528875529E+02  0.30000047658E+02 0.  0.
        -12    1    3    3    0    0 -0.27325020805E+02 -0.93063446671E+01 -0.28633888833E+02  0.40659124471E+02  0.00000000000E+00 0.  1.
         11    1    4    4    0    0  0.22193910656E+02 -0.61104155234E+01  0.15082978296E+02  0.27520957153E+02  0.51100000000E-03 0. -1.
        -11    1    4    4    0    0 -0.14657858174E+01  0.69598664385E+01  0.23275920851E+01  0.74837125867E+01  0.51100000000E-03 0.  1.
         12    1    4    4    0    0  0.65968959667E+01  0.84568937520E+01  0.11223318452E+02  0.15524205790E+02  0.00000000000E+00 0. -1.
</event>
<event>
 8    1  0.6016610E-012  0.9118800E+02  0.7816164E-02  0.1184000E+00
        -11   -1    0    0    0    0  0.00000000000E+00  0.00000000000E+00  0.45593999997E+02  0.45594000000E+02  0.51100000000E-03 0. -1.
         11   -1    0    0    0    0 -0.00000000000E+00 -0.00000000000E+00 -0.45593999997E+02  0.45594000000E+02  0.51100000000E-03 0.  1.
         23    2    1    2    0    0 -0.17763568394E-14 -0.88817841970E-15  0.00000000000E+00  0.91188000000E+02  0.91188000000E+02 0.  0.
    9900012    2    3    3    0    0  0.96135730209E+01  0.73121179960E+01 -0.38823674567E+02  0.50528861265E+02  0.30000004300E+02 0.  0.
         12    1    3    3    0    0 -0.96135730209E+01 -0.73121179960E+01  0.38823674567E+02  0.40659138735E+02  0.00000000000E+00 0. -1.
         11    1    4    4    0    0 -0.26365327762E+01 -0.65262475018E+00 -0.39194280395E+01  0.47685574928E+01  0.51100000000E-03 0. -1.
        -11    1    4    4    0    0  0.13868131797E+02 -0.39878862713E+01 -0.28865484944E+02  0.32271419828E+02  0.51100000000E-03 0.  1.
        -12    1    4    4    0    0 -0.16180260001E+01  0.11952629017E+02 -0.60387615841E+01  0.13488883943E+02  0.00000000000E+00 0.  1.
</event>
<event>
 8    1  0.6016610E-012  0.9118800E+02  0.7816164E-02  0.1184000E+00
        -11   -1    0    0    0    0  0.00000000000E+00  0.00000000000E+00  0.45593999997E+02  0.45594000000E+02  0.51100000000E-03 0. -1.
         11   -1    0    0    0    0 -0.00000000000E+00 -0.00000000000E+00 -0.45593999997E+02  0.45594000000E+02  0.51100000000E-03 0.  1.
         23    2    1    2    0    0  0.00000000000E+00  0.00000000000E+00  0.35527136788E-14  0.91188000000E+02  0.91188000000E+02 0.  0.
    9900012    2    3    3    0    0  0.22367853014E+02 -0.25939155145E+02 -0.21908981149E+02  0.50528879583E+02  0.30000059979E+02 0.  0.
         12    1    3    3    0    0 -0.22367853014E+02  0.25939155145E+02  0.21908981149E+02  0.40659120417E+02  0.00000000000E+00 0. -1.
         11    1    4    4    0    0 -0.14905667759E+01  0.17060116703E+01 -0.54717344271E+01  0.59221738437E+01  0.51100000000E-03 0. -1.
        -11    1    4    4    0    0  0.22428780426E+02 -0.13847233964E+02 -0.15775588640E+02  0.30719135357E+02  0.51100000000E-03 0.  1.
        -12    1    4    4    0    0  0.14296393637E+01 -0.13797932852E+02 -0.66165808190E+00  0.13887570382E+02  0.00000000000E+00 0.  1.
</event>
<event>
 8    1  0.6016610E-012  0.9118800E+02  0.7816164E-02  0.1184000E+00
        -11   -1    0    0    0    0  0.00000000000E+00  0.00000000000E+00  0.45593999997E+02  0.45594000000E+02  0.51100000000E-03 0. -1.
         11   -1    0    0    0    0 -0.00000000000E+00 -0.00000000000E+00 -0.45593999997E+02  0.45594000000E+02  0.51100000000E-03 0.  1.
         23    2    1    2    0    0  0.00000000000E+00  0.00000000000E+00  0.00000000000E+00  0.91188000000E+02  0.91188000000E+02 0.  0.
    9900012    2    3    3    0    0  0.29120149832E+02  0.96881191918E+01  0.26670644925E+02  0.50528854899E+02  0.29999984950E+02 0.  0.
        -12    1    3    3    0    0 -0.29120149832E+02 -0.96881191918E+01 -0.26670644925E+02  0.40659145101E+02  0.00000000000E+00 0.  1.
         11    1    4    4    0    0  0.29056325398E+02  0.94532640633E+01  0.26506560447E+02  0.40450364573E+02  0.51100000000E-03 0. -1.
        -11    1    4    4    0    0 -0.17365607610E+01 -0.45408605991E+01  0.82828993934E+00  0.49316450340E+01  0.51100000000E-03 0.  1.
         12    1    4    4    0    0  0.18003851947E+01  0.47757157276E+01 -0.66420546200E+00  0.51468452916E+01  0.00000000000E+00 0. -1.
</event>
<event>
 8    1  0.6016610E-012  0.9118800E+02  0.7816164E-02  0.1184000E+00
        -11   -1    0    0    0    0  0.00000000000E+00  0.00000000000E+00  0.45593999997E+02  0.45594000000E+02  0.51100000000E-03 0. -1.
         11   -1    0    0    0    0 -0.00000000000E+00 -0.00000000000E+00 -0.45593999997E+02  0.45594000000E+02  0.51100000000E-03 0.  1.
         23    2    1    2    0    0 -0.35527136788E-14 -0.26645352591E-14 -0.71054273576E-14  0.91188000000E+02  0.91188000000E+02 0.  0.
    9900012    2    3    3    0    0 -0.31148652974E+02 -0.41042668819E+01 -0.25808569229E+02  0.50528857923E+02  0.29999994143E+02 0.  0.
         12    1    3    3    0    0  0.31148652974E+02  0.41042668819E+01  0.25808569229E+02  0.40659142077E+02  0.00000000000E+00 0. -1.
         11    1    4    4    0    0 -0.53084173488E+01 -0.54331008295E+01  0.12523152599E+01  0.76984526461E+01  0.51100000000E-03 0. -1.
        -11    1    4    4    0    0 -0.26527071608E+02  0.52622293179E+01 -0.16842996135E+02  0.31860054999E+02  0.51100000000E-03 0.  1.
        -12    1    4    4    0    0  0.68683598223E+00 -0.39333953703E+01 -0.10217888354E+02  0.10970350278E+02  0.00000000000E+00 0.  1.
</event>
<event>
 8    1  0.6016610E-012  0.9118800E+02  0.7816164E-02  0.1184000E+00
        -11   -1    0    0    0    0  0.00000000000E+00  0.00000000000E+00  0.45593999997E+02  0.45594000000E+02  0.51100000000E-03 0. -1.
         11   -1    0    0    0    0 -0.00000000000E+00 -0.00000000000E+00 -0.45593999997E+02  0.45594000000E+02  0.51100000000E-03 0.  1.
         23    2    1    2    0    0 -0.35527136788E-14  0.00000000000E+00  0.00000000000E+00  0.91188000000E+02  0.91188000000E+02 0.  0.
    9900012    2    3    3    0    0  0.26221294874E+02 -0.10101292828E+02  0.29386610981E+02  0.50528864168E+02  0.30000013125E+02 0.  0.
        -12    1    3    3    0    0 -0.26221294874E+02  0.10101292828E+02 -0.29386610981E+02  0.40659135832E+02  0.00000000000E+00 0.  1.
         11    1    4    4    0    0  0.61578023856E+01 -0.11483676533E+02  0.23203619344E+02  0.26612051929E+02  0.51100000000E-03 0. -1.
        -11    1    4    4    0    0  0.16029713320E+02 -0.37558827833E+01  0.33740709910E+01  0.16806032248E+02  0.51100000000E-03 0.  1.
         12    1    4    4    0    0  0.40337791680E+01  0.51382664886E+01  0.28089206462E+01  0.71107799911E+01  0.00000000000E+00 0. -1.
</event>
<event>
 8    1  0.6016610E-012  0.9118800E+02  0.7816164E-02  0.1184000E+00
        -11   -1    0    0    0    0  0.00000000000E+00  0.00000000000E+00  0.45593999997E+02  0.45594000000E+02  0.51100000000E-03 0. -1.
         11   -1    0    0    0    0 -0.00000000000E+00 -0.00000000000E+00 -0.45593999997E+02  0.45594000000E+02  0.51100000000E-03 0.  1.
         23    2    1    2    0    0 -0.17763568394E-14  0.00000000000E+00  0.00000000000E+00  0.91188000000E+02  0.91188000000E+02 0.  0.
    9900012    2    3    3    0    0 -0.99429909557E+01  0.27636887706E+02  0.28115917090E+02  0.50528862958E+02  0.30000009447E+02 0.  0.
        -12    1    3    3    0    0  0.99429909557E+01 -0.27636887706E+02 -0.28115917090E+02  0.40659137042E+02  0.00000000000E+00 0.  1.
         11    1    4    4    0    0 -0.10297345917E+00  0.23647970711E+02  0.18738186063E+02  0.30172118578E+02  0.51100000000E-03 0. -1.
        -11    1    4    4    0    0 -0.12085812064E+02  0.54713531149E+01  0.10983385643E+02  0.17223162271E+02  0.51100000000E-03 0.  1.
         12    1    4    4    0    0  0.22457945673E+01 -0.14824361204E+01 -0.16056546163E+01  0.31335821094E+01  0.00000000000E+00 0. -1.
</event>
<event>
 8    1  0.6016610E-012  0.9118800E+02  0.7816164E-02  0.1184000E+00
        -11   -1    0    0    0    0  0.00000000000E+00  0.00000000000E+00  0.45593999997E+02  0.45594000000E+02  0.51100000000E-03 0. -1.
         11   -1    0    0    0    0 -0.00000000000E+00 -0.00000000000E+00 -0.45593999997E+02  0.45594000000E+02  0.51100000000E-03 0.  1.
         23    2    1    2    0    0  0.00000000000E+00  0.17763568394E-14  0.00000000000E+00  0.91188000000E+02  0.91188000000E+02 0.  0.
    9900012    2    3    3    0    0 -0.36551719924E+02 -0.12783207674E+02 -0.12398669736E+02  0.50528860326E+02  0.30000001448E+02 0.  0.
         12    1    3    3    0    0  0.36551719924E+02  0.12783207674E+02  0.12398669736E+02  0.40659139674E+02  0.00000000000E+00 0. -1.
         11    1    4    4    0    0 -0.17151374475E+01  0.32081236687E+01 -0.83852913538E+01  0.91403974359E+01  0.51100000000E-03 0. -1.
        -11    1    4    4    0    0 -0.31467533955E+02 -0.86793645746E+01 -0.57690918142E+01  0.33148446167E+02  0.51100000000E-03 0.  1.
         12    1    4    4    0    0 -0.33690485207E+01 -0.73119667677E+01  0.17557134323E+01  0.82400167235E+01  0.00000000000E+00 0. -1.
</event>
<event>
 8    1  0.6016610E-012  0.9118800E+02  0.7816164E-02  0.1184000E+00
        -11   -1    0    0    0    0  0.00000000000E+00  0.00000000000E+00  0.45593999997E+02  0.45594000000E+02  0.51100000000E-03 0. -1.
         11   -1    0    0    0    0 -0.00000000000E+00 -0.00000000000E+00 -0.45593999997E+02  0.45594000000E+02  0.51100000000E-03 0.  1.
         23    2    1    2    0    0 -0.22204460493E-15 -0.71054273576E-14  0.71054273576E-14  0.91188000000E+02  0.91188000000E+02 0.  0.
    9900012    2    3    3    0    0  0.13690773212E+01 -0.21039541024E+02  0.34765339175E+02  0.50528862439E+02  0.30000007869E+02 0.  0.
        -12    1    3    3    0    0 -0.13690773212E+01  0.21039541024E+02 -0.34765339175E+02  0.40659137561E+02  0.00000000000E+00 0.  1.
         11    1    4    4    0    0 -0.38373016095E+01 -0.91677688036E+01  0.23457444050E+02  0.25475960239E+02  0.51100000000E-03 0. -1.
        -11    1    4    4    0    0  0.56771674809E+01 -0.58391544489E-01 -0.30571782011E+01  0.64482539492E+01  0.51100000000E-03 0.  1.
        -12    1    4    4    0    0 -0.47078855015E+00 -0.11813380676E+02  0.14365073327E+02  0.18604648251E+02  0.00000000000E+00 0.  1.
</event>
<event>
 8    1  0.6016610E-012  0.9118800E+02  0.7816164E-02  0.1184000E+00
        -11   -1    0    0    0    0  0.00000000000E+00  0.00000000000E+00  0.45593999997E+02  0.45594000000E+02  0.51100000000E-03 0. -1.
         11   -1    0    0    0    0 -0.00000000000E+00 -0.00000000000E+00 -0.45593999997E+02  0.45594000000E+02  0.51100000000E-03 0.  1.
         23    2    1    2    0    0 -0.88817841970E-15  0.00000000000E+00  0.00000000000E+00  0.91188000000E+02  0.91188000000E+02 0.  0.
    9900012    2    3    3    0    0 -0.36929072466E+01  0.12393209552E+02  0.38547850072E+02  0.50528856476E+02  0.29999989745E+02 0.  0.
        -12    1    3    3    0    0  0.36929072466E+01 -0.12393209552E+02 -0.38547850072E+02  0.40659143524E+02  0.00000000000E+00 0.  1.
         11    1    4    4    0    0  0.16719277271E+01 -0.68194966249E+01  0.14120812552E+02  0.15770168798E+02  0.51100000000E-03 0.  1.
        -11    1    4    4    0    0 -0.72189317373E+01  0.78742612760E+01  0.41645249352E+01  0.11465610942E+02  0.51100000000E-03 0. -1.
         12    1    4    4    0    0  0.18540967636E+01  0.11338444901E+02  0.20262512585E+02  0.23293076736E+02  0.00000000000E+00 0. -1.
</event>
<event>
 8    1  0.6016610E-012  0.9118800E+02  0.7816164E-02  0.1184000E+00
        -11   -1    0    0    0    0  0.00000000000E+00  0.00000000000E+00  0.45593999997E+02  0.45594000000E+02  0.51100000000E-03 0. -1.
         11   -1    0    0    0    0 -0.00000000000E+00 -0.00000000000E+00 -0.45593999997E+02  0.45594000000E+02  0.51100000000E-03 0.  1.
         23    2    1    2    0    0  0.00000000000E+00  0.00000000000E+00  0.00000000000E+00  0.91188000000E+02  0.91188000000E+02 0.  0.
    9900012    2    3    3    0    0  0.22382641802E+02 -0.41091248955E+01 -0.33694185957E+02  0.50528859223E+02  0.29999998095E+02 0.  0.
         12    1    3    3    0    0 -0.22382641802E+02  0.41091248955E+01  0.33694185957E+02  0.40659140777E+02  0.00000000000E+00 0. -1.
         11    1    4    4    0    0  0.15238922339E+02 -0.76090934043E+01 -0.21862442556E+02  0.27714426771E+02  0.51100000000E-03 0.  1.
        -11    1    4    4    0    0 -0.47735383231E+01  0.55352517676E+01 -0.33144463985E+01  0.80256610595E+01  0.51100000000E-03 0. -1.
         12    1    4    4    0    0  0.11917257785E+02 -0.20352832588E+01 -0.85172970024E+01  0.14788771392E+02  0.00000000000E+00 0. -1.
</event>
<event>
 8    1  0.6016610E-012  0.9118800E+02  0.7816164E-02  0.1184000E+00
        -11   -1    0    0    0    0  0.00000000000E+00  0.00000000000E+00  0.45593999997E+02  0.45594000000E+02  0.51100000000E-03 0. -1.
         11   -1    0    0    0    0 -0.00000000000E+00 -0.00000000000E+00 -0.45593999997E+02  0.45594000000E+02  0.51100000000E-03 0.  1.
         23    2    1    2    0    0  0.17763568394E-14  0.00000000000E+00  0.71054273576E-14  0.91188000000E+02  0.91188000000E+02 0.  0.
    9900012    2    3    3    0    0  0.12732646437E+02  0.99864700772E+01  0.37300341932E+02  0.50528863534E+02  0.30000011199E+02 0.  0.
        -12    1    3    3    0    0 -0.12732646437E+02 -0.99864700772E+01 -0.37300341932E+02  0.40659136466E+02  0.00000000000E+00 0.  1.
         11    1    4    4    0    0  0.38098276014E+00  0.76037270684E+01  0.34337008813E+02  0.35170896885E+02  0.51100000000E-03 0. -1.
        -11    1    4    4    0    0  0.30574631761E+01 -0.29954966313E+01  0.27900608138E+00  0.42893969036E+01  0.51100000000E-03 0.  1.
         12    1    4    4    0    0  0.92942005011E+01  0.53782396401E+01  0.26843270375E+01  0.11068569746E+02  0.00000000000E+00 0. -1.
</event>
<event>
 8    1  0.6016610E-012  0.9118800E+02  0.7816164E-02  0.1184000E+00
        -11   -1    0    0    0    0  0.00000000000E+00  0.00000000000E+00  0.45593999997E+02  0.45594000000E+02  0.51100000000E-03 0. -1.
         11   -1    0    0    0    0 -0.00000000000E+00 -0.00000000000E+00 -0.45593999997E+02  0.45594000000E+02  0.51100000000E-03 0.  1.
         23    2    1    2    0    0  0.88817841970E-15 -0.88817841970E-15 -0.71054273576E-14  0.91188000000E+02  0.91188000000E+02 0.  0.
    9900012    2    3    3    0    0 -0.45485129008E+01  0.68319035235E+01 -0.39822167306E+02  0.50528820417E+02  0.29999880140E+02 0.  0.
         12    1    3    3    0    0  0.45485129008E+01 -0.68319035235E+01  0.39822167306E+02  0.40659179583E+02  0.00000000000E+00 0. -1.
         11    1    4    4    0    0 -0.78525185466E+01  0.14973797219E+01 -0.32597316277E+01  0.86330784835E+01  0.51100000000E-03 0. -1.
        -11    1    4    4    0    0  0.42448199956E+01  0.10124035339E+02 -0.98757334703E+01  0.14766336722E+02  0.51100000000E-03 0.  1.
        -12    1    4    4    0    0 -0.94081434977E+00 -0.47895115375E+01 -0.26686702208E+02  0.27129405212E+02  0.00000000000E+00 0.  1.
</event>
<event>
 8    1  0.6016610E-012  0.9118800E+02  0.7816164E-02  0.1184000E+00
        -11   -1    0    0    0    0  0.00000000000E+00  0.00000000000E+00  0.45593999997E+02  0.45594000000E+02  0.51100000000E-03 0.  1.
         11   -1    0    0    0    0 -0.00000000000E+00 -0.00000000000E+00 -0.45593999997E+02  0.45594000000E+02  0.51100000000E-03 0. -1.
         23    2    1    2    0    0  0.00000000000E+00  0.00000000000E+00  0.35527136788E-14  0.91188000000E+02  0.91188000000E+02 0.  0.
    9900012    2    3    3    0    0  0.26372394113E+01  0.30984201056E+02 -0.26195292564E+02  0.50528817774E+02  0.29999872105E+02 0.  0.
         12    1    3    3    0    0 -0.26372394113E+01 -0.30984201056E+02  0.26195292564E+02  0.40659182226E+02  0.00000000000E+00 0. -1.
         11    1    4    4    0    0 -0.79158368281E+01 -0.97710282770E+00 -0.44061408815E+01  0.91120404057E+01  0.51100000000E-03 0. -1.
        -11    1    4    4    0    0  0.34584755234E+01  0.24624478496E+02 -0.17144294291E+02  0.30203523323E+02  0.51100000000E-03 0.  1.
         12    1    4    4    0    0  0.70946007161E+01  0.73368253874E+01 -0.46448573921E+01  0.11213254045E+02  0.00000000000E+00 0. -1.
</event>
<event>
 8    1  0.6016610E-012  0.9118800E+02  0.7816164E-02  0.1184000E+00
        -11   -1    0    0    0    0  0.00000000000E+00  0.00000000000E+00  0.45593999997E+02  0.45594000000E+02  0.51100000000E-03 0.  1.
         11   -1    0    0    0    0 -0.00000000000E+00 -0.00000000000E+00 -0.45593999997E+02  0.45594000000E+02  0.51100000000E-03 0. -1.
         23    2    1    2    0    0  0.00000000000E+00  0.35527136788E-14  0.00000000000E+00  0.91188000000E+02  0.91188000000E+02 0.  0.
    9900012    2    3    3    0    0  0.19656869312E+02 -0.28373382958E+02 -0.21487675256E+02  0.50528910493E+02  0.30000153934E+02 0.  0.
         12    1    3    3    0    0 -0.19656869312E+02  0.28373382958E+02  0.21487675256E+02  0.40659089507E+02  0.00000000000E+00 0. -1.
         11    1    4    4    0    0 -0.62497542386E+01 -0.11583312228E+02 -0.36014269985E+01  0.13645615666E+02  0.51100000000E-03 0.  1.
        -11    1    4    4    0    0  0.25233576916E+02 -0.14223932302E+02 -0.18203564177E+02  0.34211451345E+02  0.51100000000E-03 0. -1.
        -12    1    4    4    0    0  0.67304663465E+00 -0.25661384274E+01  0.31731591867E+00  0.26718434822E+01  0.00000000000E+00 0.  1.
</event>
<event>
 8    1  0.6016610E-012  0.9118800E+02  0.7816164E-02  0.1184000E+00
        -11   -1    0    0    0    0  0.00000000000E+00  0.00000000000E+00  0.45593999997E+02  0.45594000000E+02  0.51100000000E-03 0. -1.
         11   -1    0    0    0    0 -0.00000000000E+00 -0.00000000000E+00 -0.45593999997E+02  0.45594000000E+02  0.51100000000E-03 0.  1.
         23    2    1    2    0    0  0.00000000000E+00  0.00000000000E+00  0.00000000000E+00  0.91188000000E+02  0.91188000000E+02 0.  0.
    9900012    2    3    3    0    0  0.13134865174E+02  0.19335440144E+02  0.33268305201E+02  0.50528879748E+02  0.30000060481E+02 0.  0.
        -12    1    3    3    0    0 -0.13134865174E+02 -0.19335440144E+02 -0.33268305201E+02  0.40659120252E+02  0.00000000000E+00 0.  1.
         11    1    4    4    0    0  0.69373159413E+00  0.14422897926E+02  0.10510860522E+02  0.17859995445E+02  0.51100000000E-03 0. -1.
        -11    1    4    4    0    0  0.15228010799E+02 -0.25714921039E+01  0.14577520312E+02  0.21236972083E+02  0.51100000000E-03 0.  1.
        -12    1    4    4    0    0 -0.27868772187E+01  0.74840343223E+01  0.81799243666E+01  0.11431912220E+02  0.00000000000E+00 0.  1.
</event>
<event>
 8    1  0.6016610E-012  0.9118800E+02  0.7816164E-02  0.1184000E+00
        -11   -1    0    0    0    0  0.00000000000E+00  0.00000000000E+00  0.45593999997E+02  0.45594000000E+02  0.51100000000E-03 0. -1.
         11   -1    0    0    0    0 -0.00000000000E+00 -0.00000000000E+00 -0.45593999997E+02  0.45594000000E+02  0.51100000000E-03 0.  1.
         23    2    1    2    0    0 -0.17763568394E-14 -0.71054273576E-14 -0.35527136788E-14  0.91188000000E+02  0.91188000000E+02 0.  0.
    9900012    2    3    3    0    0 -0.10283532686E+02 -0.33407197231E+02 -0.20769528612E+02  0.50528865846E+02  0.30000018226E+02 0.  0.
         12    1    3    3    0    0  0.10283532686E+02  0.33407197231E+02  0.20769528612E+02  0.40659134154E+02  0.00000000000E+00 0. -1.
         11    1    4    4    0    0  0.93084190237E+00 -0.58543358805E+01  0.32640586175E+01  0.67671112129E+01  0.51100000000E-03 0. -1.
        -11    1    4    4    0    0 -0.69924489376E+01 -0.30583858370E+02 -0.20491057761E+02  0.37471991986E+02  0.51100000000E-03 0.  1.
        -12    1    4    4    0    0 -0.42219256511E+01  0.30309970190E+01 -0.35425294682E+01  0.62897626478E+01  0.00000000000E+00 0.  1.
</event>
<event>
 8    1  0.6016610E-012  0.9118800E+02  0.7816164E-02  0.1184000E+00
        -11   -1    0    0    0    0  0.00000000000E+00  0.00000000000E+00  0.45593999997E+02  0.45594000000E+02  0.51100000000E-03 0.  1.
         11   -1    0    0    0    0 -0.00000000000E+00 -0.00000000000E+00 -0.45593999997E+02  0.45594000000E+02  0.51100000000E-03 0. -1.
         23    2    1    2    0    0  0.00000000000E+00  0.00000000000E+00  0.00000000000E+00  0.91188000000E+02  0.91188000000E+02 0.  0.
    9900012    2    3    3    0    0 -0.31322633099E+02 -0.21591128203E+02  0.14348703475E+02  0.50528813427E+02  0.29999858893E+02 0.  0.
        -12    1    3    3    0    0  0.31322633099E+02  0.21591128203E+02 -0.14348703475E+02  0.40659186573E+02  0.00000000000E+00 0.  1.
         11    1    4    4    0    0 -0.27160725796E+02 -0.22825699437E+02  0.15726656123E+02  0.38807799391E+02  0.51100000000E-03 0. -1.
        -11    1    4    4    0    0  0.24319275968E+01  0.14200662401E+01  0.27526587763E+01  0.39380186087E+01  0.51100000000E-03 0.  1.
         12    1    4    4    0    0 -0.65938349002E+01 -0.18549500644E+00 -0.41306114236E+01  0.77829954273E+01  0.00000000000E+00 0. -1.
</event>
<event>
 8    1  0.6016610E-012  0.9118800E+02  0.7816164E-02  0.1184000E+00
        -11   -1    0    0    0    0  0.00000000000E+00  0.00000000000E+00  0.45593999997E+02  0.45594000000E+02  0.51100000000E-03 0. -1.
         11   -1    0    0    0    0 -0.00000000000E+00 -0.00000000000E+00 -0.45593999997E+02  0.45594000000E+02  0.51100000000E-03 0.  1.
         23    2    1    2    0    0  0.35527136788E-14  0.00000000000E+00  0.00000000000E+00  0.91188000000E+02  0.91188000000E+02 0.  0.
    9900012    2    3    3    0    0 -0.27383200139E+02 -0.21720202253E+02 -0.20774049091E+02  0.50528831890E+02  0.29999915013E+02 0.  0.
         12    1    3    3    0    0  0.27383200139E+02  0.21720202253E+02  0.20774049091E+02  0.40659168110E+02  0.00000000000E+00 0. -1.
         11    1    4    4    0    0 -0.14570848269E+02 -0.36503223200E+01 -0.30524805446E+01  0.15328147639E+02  0.51100000000E-03 0. -1.
        -11    1    4    4    0    0  0.53550805335E+01 -0.48327177959E+01 -0.12204736032E+01  0.73158461501E+01  0.51100000000E-03 0.  1.
        -12    1    4    4    0    0 -0.18167432403E+02 -0.13237162137E+02 -0.16501094943E+02  0.27884838101E+02  0.00000000000E+00 0.  1.
</event>
<event>
 8    1  0.6016610E-012  0.9118800E+02  0.7816164E-02  0.1184000E+00
        -11   -1    0    0    0    0  0.00000000000E+00  0.00000000000E+00  0.45593999997E+02  0.45594000000E+02  0.51100000000E-03 0. -1.
         11   -1    0    0    0    0 -0.00000000000E+00 -0.00000000000E+00 -0.45593999997E+02  0.45594000000E+02  0.51100000000E-03 0.  1.
         23    2    1    2    0    0  0.35527136788E-14  0.17763568394E-14  0.00000000000E+00  0.91188000000E+02  0.91188000000E+02 0.  0.
    9900012    2    3    3    0    0 -0.16295324213E+02  0.60873410552E+01 -0.36750127089E+02  0.50528866298E+02  0.30000019601E+02 0.  0.
         12    1    3    3    0    0  0.16295324213E+02 -0.60873410552E+01  0.36750127089E+02  0.40659133702E+02  0.00000000000E+00 0. -1.
         11    1    4    4    0    0  0.14933541197E+01 -0.94024976873E+01 -0.11746741298E+02  0.15120284411E+02  0.51100000000E-03 0. -1.
        -11    1    4    4    0    0 -0.41352151701E+01  0.11119325224E+01 -0.12367974274E+01  0.44571365893E+01  0.51100000000E-03 0.  1.
         12    1    4    4    0    0 -0.13653463163E+02  0.14377906220E+02 -0.23766588363E+02  0.30951445298E+02  0.00000000000E+00 0. -1.
</event>
<event>
 8    1  0.6016610E-012  0.9118800E+02  0.7816164E-02  0.1184000E+00
        -11   -1    0    0    0    0  0.00000000000E+00  0.00000000000E+00  0.45593999997E+02  0.45594000000E+02  0.51100000000E-03 0. -1.
         11   -1    0    0    0    0 -0.00000000000E+00 -0.00000000000E+00 -0.45593999997E+02  0.45594000000E+02  0.51100000000E-03 0.  1.
         23    2    1    2    0    0  0.88817841970E-15  0.00000000000E+00  0.17763568394E-14  0.91188000000E+02  0.91188000000E+02 0.  0.
    9900012    2    3    3    0    0 -0.24271202041E+01 -0.38747421524E+02 -0.12079405695E+02  0.50528860447E+02  0.30000001814E+02 0.  0.
         12    1    3    3    0    0  0.24271202041E+01  0.38747421524E+02  0.12079405695E+02  0.40659139553E+02  0.00000000000E+00 0. -1.
         11    1    4    4    0    0  0.15710346683E+01 -0.21314793713E+01 -0.48168980440E+01  0.54967136788E+01  0.51100000000E-03 0.  1.
        -11    1    4    4    0    0 -0.10183717095E+02 -0.17923643942E+02  0.57864789100E+01  0.21411409213E+02  0.51100000000E-03 0. -1.
        -12    1    4    4    0    0  0.61855622222E+01 -0.18692298211E+02 -0.13048986561E+02  0.23620737555E+02  0.00000000000E+00 0.  1.
</event>
<event>
 8    1  0.7193108E-012  0.9118800E+02  0.7816164E-02  0.1184000E+00
        -11   -1    0    0    0    0  0.00000000000E+00  0.00000000000E+00  0.45593999997E+02  0.45594000000E+02  0.51100000000E-03 0. -1.
         11   -1    0    0    0    0 -0.00000000000E+00 -0.00000000000E+00 -0.45593999997E+02  0.45594000000E+02  0.51100000000E-03 0.  1.
         23    2    1    2    0    0  0.00000000000E+00  0.24980018054E-15  0.00000000000E+00  0.91188000000E+02  0.91188000000E+02 0.  0.
    9900012    2    3    3    0    0 -0.30049343809E+02  0.24817096222E+00  0.27388678086E+02  0.50528876307E+02  0.30000050023E+02 0.  0.
        -12    1    3    3    0    0  0.30049343809E+02 -0.24817096222E+00 -0.27388678086E+02  0.40659123693E+02  0.00000000000E+00 0.  1.
         11    1    4    4    0    0 -0.22034523095E+02  0.52276062014E+01  0.97258961947E+01  0.24646320854E+02  0.51100000000E-03 0. -1.
        -11    1    4    4    0    0 -0.32838856692E+01  0.32445581968E+00  0.18440001739E+02  0.18732934662E+02  0.51100000000E-03 0.  1.
        -12    1    4    4    0    0 -0.47309350448E+01 -0.53038910589E+01 -0.77721984692E+00  0.71496207908E+01  0.00000000000E+00 0.  1.
</event>
<event>
 8    1  0.6016610E-012  0.9118800E+02  0.7816164E-02  0.1184000E+00
        -11   -1    0    0    0    0  0.00000000000E+00  0.00000000000E+00  0.45593999997E+02  0.45594000000E+02  0.51100000000E-03 0. -1.
         11   -1    0    0    0    0 -0.00000000000E+00 -0.00000000000E+00 -0.45593999997E+02  0.45594000000E+02  0.51100000000E-03 0.  1.
         23    2    1    2    0    0 -0.35527136788E-14  0.35527136788E-14  0.71054273576E-14  0.91188000000E+02  0.91188000000E+02 0.  0.
    9900012    2    3    3    0    0 -0.17732395278E+02  0.20292469280E+02  0.30445645792E+02  0.50528935827E+02  0.30000230937E+02 0.  0.
        -12    1    3    3    0    0  0.17732395278E+02 -0.20292469280E+02 -0.30445645792E+02  0.40659064173E+02  0.00000000000E+00 0.  1.
         11    1    4    4    0    0 -0.39457927931E+00  0.13598673701E+02  0.14847173657E+02  0.20137482094E+02  0.51100000000E-03 0. -1.
        -11    1    4    4    0    0 -0.51353173061E+01  0.23112008874E+01 -0.39892908611E+01  0.69012734486E+01  0.51100000000E-03 0.  1.
        -12    1    4    4    0    0 -0.12202498692E+02  0.43825946916E+01  0.19587762996E+02  0.23490180284E+02  0.00000000000E+00 0.  1.
</event>
<event>
 8    1  0.6016610E-012  0.9118800E+02  0.7816164E-02  0.1184000E+00
        -11   -1    0    0    0    0  0.00000000000E+00  0.00000000000E+00  0.45593999997E+02  0.45594000000E+02  0.51100000000E-03 0. -1.
         11   -1    0    0    0    0 -0.00000000000E+00 -0.00000000000E+00 -0.45593999997E+02  0.45594000000E+02  0.51100000000E-03 0.  1.
         23    2    1    2    0    0  0.00000000000E+00 -0.22204460493E-14  0.00000000000E+00  0.91188000000E+02  0.91188000000E+02 0.  0.
    9900012    2    3    3    0    0  0.15578346933E+02 -0.26666135153E+01  0.37461564513E+02  0.50528873883E+02  0.30000042655E+02 0.  0.
        -12    1    3    3    0    0 -0.15578346933E+02  0.26666135153E+01 -0.37461564513E+02  0.40659126117E+02  0.00000000000E+00 0.  1.
         11    1    4    4    0    0 -0.16685341157E+01 -0.48898985073E+01  0.91369635598E+01  0.10496628833E+02  0.51100000000E-03 0. -1.
        -11    1    4    4    0    0  0.19005391400E+02  0.77402568888E+01  0.14743674637E+02  0.25268407568E+02  0.51100000000E-03 0.  1.
        -12    1    4    4    0    0 -0.17585103514E+01 -0.55169718968E+01  0.13580926317E+02  0.14763837482E+02  0.00000000000E+00 0.  1.
</event>
<event>
 8    1  0.6016610E-012  0.9118800E+02  0.7816164E-02  0.1184000E+00
        -11   -1    0    0    0    0  0.00000000000E+00  0.00000000000E+00  0.45593999997E+02  0.45594000000E+02  0.51100000000E-03 0.  1.
         11   -1    0    0    0    0 -0.00000000000E+00 -0.00000000000E+00 -0.45593999997E+02  0.45594000000E+02  0.51100000000E-03 0. -1.
         23    2    1    2    0    0 -0.35527136788E-14 -0.35527136788E-14  0.88817841970E-15  0.91188000000E+02  0.91188000000E+02 0.  0.
    9900012    2    3    3    0    0 -0.26938944154E+02 -0.29950228531E+02  0.55175115919E+01  0.50528857912E+02  0.29999994109E+02 0.  0.
        -12    1    3    3    0    0  0.26938944154E+02  0.29950228531E+02 -0.55175115919E+01  0.40659142088E+02  0.00000000000E+00 0.  1.
         11    1    4    4    0    0 -0.42145355493E+01 -0.22717092352E+02  0.51817028681E+01  0.23678653672E+02  0.51100000000E-03 0. -1.
        -11    1    4    4    0    0 -0.18660618112E+02 -0.38783487459E+01  0.51175149249E+01  0.19734467730E+02  0.51100000000E-03 0.  1.
         12    1    4    4    0    0 -0.40637904921E+01 -0.33547874331E+01 -0.47817062011E+01  0.71157365099E+01  0.00000000000E+00 0. -1.
</event>
<event>
 8    1  0.6016610E-012  0.9118800E+02  0.7816164E-02  0.1184000E+00
        -11   -1    0    0    0    0  0.00000000000E+00  0.00000000000E+00  0.45593999997E+02  0.45594000000E+02  0.51100000000E-03 0. -1.
         11   -1    0    0    0    0 -0.00000000000E+00 -0.00000000000E+00 -0.45593999997E+02  0.45594000000E+02  0.51100000000E-03 0.  1.
         23    2    1    2    0    0 -0.53290705182E-14  0.00000000000E+00  0.00000000000E+00  0.91188000000E+02  0.91188000000E+02 0.  0.
    9900012    2    3    3    0    0  0.15346590909E+02  0.24878947279E+02  0.28261011601E+02  0.50528872526E+02  0.30000038530E+02 0.  0.
        -12    1    3    3    0    0 -0.15346590909E+02 -0.24878947279E+02 -0.28261011601E+02  0.40659127474E+02  0.00000000000E+00 0.  1.
         11    1    4    4    0    0  0.44912203886E+01  0.16419042439E+02  0.81075682819E+01  0.18854407413E+02  0.51100000000E-03 0. -1.
        -11    1    4    4    0    0 -0.56809912999E+01 -0.35100948291E+00  0.43827852067E+01  0.71837090863E+01  0.51100000000E-03 0.  1.
        -12    1    4    4    0    0  0.16536361820E+02  0.88109143224E+01  0.15770658113E+02  0.24490756026E+02  0.00000000000E+00 0.  1.
</event>
<event>
 8    1  0.6016610E-012  0.9118800E+02  0.7816164E-02  0.1184000E+00
        -11   -1    0    0    0    0  0.00000000000E+00  0.00000000000E+00  0.45593999997E+02  0.45594000000E+02  0.51100000000E-03 0. -1.
         11   -1    0    0    0    0 -0.00000000000E+00 -0.00000000000E+00 -0.45593999997E+02  0.45594000000E+02  0.51100000000E-03 0.  1.
         23    2    1    2    0    0  0.00000000000E+00  0.00000000000E+00  0.00000000000E+00  0.91188000000E+02  0.91188000000E+02 0.  0.
    9900012    2    3    3    0    0  0.17016876957E+02  0.38786758200E+01  0.36722577650E+02  0.50528856665E+02  0.29999990319E+02 0.  0.
        -12    1    3    3    0    0 -0.17016876957E+02 -0.38786758200E+01 -0.36722577650E+02  0.40659143335E+02  0.00000000000E+00 0.  1.
         11    1    4    4    0    0 -0.23937970267E+00 -0.87461884762E+01  0.24118786221E+02  0.25656752806E+02  0.51100000000E-03 0. -1.
        -11    1    4    4    0    0  0.12173378246E+02  0.89651180879E+01  0.80470693968E+01  0.17126581865E+02  0.51100000000E-03 0.  1.
         12    1    4    4    0    0  0.50828784142E+01  0.36597462083E+01  0.45567220316E+01  0.77455219938E+01  0.00000000000E+00 0. -1.
</event>
<event>
 8    1  0.6016610E-012  0.9118800E+02  0.7816164E-02  0.1184000E+00
        -11   -1    0    0    0    0  0.00000000000E+00  0.00000000000E+00  0.45593999997E+02  0.45594000000E+02  0.51100000000E-03 0. -1.
         11   -1    0    0    0    0 -0.00000000000E+00 -0.00000000000E+00 -0.45593999997E+02  0.45594000000E+02  0.51100000000E-03 0.  1.
         23    2    1    2    0    0 -0.44408920985E-15  0.71054273576E-14  0.35527136788E-14  0.91188000000E+02  0.91188000000E+02 0.  0.
    9900012    2    3    3    0    0 -0.20168396527E+01 -0.34764559858E+02 -0.20988643609E+02  0.50528862959E+02  0.30000009451E+02 0.  0.
         12    1    3    3    0    0  0.20168396527E+01  0.34764559858E+02  0.20988643609E+02  0.40659137041E+02  0.00000000000E+00 0. -1.
         11    1    4    4    0    0  0.18116906970E+01 -0.17528568480E+02 -0.16262107010E+02  0.23978929517E+02  0.51100000000E-03 0. -1.
        -11    1    4    4    0    0  0.28194048583E+01 -0.67985777817E+01  0.65166382423E+01  0.98303752650E+01  0.51100000000E-03 0.  1.
        -12    1    4    4    0    0 -0.66479352080E+01 -0.10437413597E+02 -0.11243174841E+02  0.16719558177E+02  0.00000000000E+00 0.  1.
</event>
<event>
 8    1  0.6016610E-012  0.9118800E+02  0.7816164E-02  0.1184000E+00
        -11   -1    0    0    0    0  0.00000000000E+00  0.00000000000E+00  0.45593999997E+02  0.45594000000E+02  0.51100000000E-03 0. -1.
         11   -1    0    0    0    0 -0.00000000000E+00 -0.00000000000E+00 -0.45593999997E+02  0.45594000000E+02  0.51100000000E-03 0.  1.
         23    2    1    2    0    0 -0.26645352591E-14 -0.11102230246E-14 -0.71054273576E-14  0.91188000000E+02  0.91188000000E+02 0.  0.
    9900012    2    3    3    0    0 -0.58257609970E+01  0.17513908989E+01 -0.40201483537E+02  0.50528854167E+02  0.29999982727E+02 0.  0.
         12    1    3    3    0    0  0.58257609970E+01 -0.17513908989E+01  0.40201483537E+02  0.40659145833E+02  0.00000000000E+00 0. -1.
         11    1    4    4    0    0 -0.12841664659E+02  0.13520742936E+01 -0.16901379500E+02  0.21269534207E+02  0.51100000000E-03 0. -1.
        -11    1    4    4    0    0  0.67751034250E+01 -0.70259190961E+01 -0.96899744384E+01  0.13753587548E+02  0.51100000000E-03 0.  1.
        -12    1    4    4    0    0  0.24080023665E+00  0.74252357014E+01 -0.13610129598E+02  0.15505732412E+02  0.00000000000E+00 0.  1.
</event>
<event>
 8    1  0.6016610E-012  0.9118800E+02  0.7816164E-02  0.1184000E+00
        -11   -1    0    0    0    0  0.00000000000E+00  0.00000000000E+00  0.45593999997E+02  0.45594000000E+02  0.51100000000E-03 0. -1.
         11   -1    0    0    0    0 -0.00000000000E+00 -0.00000000000E+00 -0.45593999997E+02  0.45594000000E+02  0.51100000000E-03 0.  1.
         23    2    1    2    0    0  0.00000000000E+00  0.35527136788E-14  0.35527136788E-14  0.91188000000E+02  0.91188000000E+02 0.  0.
    9900012    2    3    3    0    0  0.13420586499E+02  0.28178313670E+02  0.26058316097E+02  0.50528863991E+02  0.30000012586E+02 0.  0.
        -12    1    3    3    0    0 -0.13420586499E+02 -0.28178313670E+02 -0.26058316097E+02  0.40659136009E+02  0.00000000000E+00 0.  1.
         11    1    4    4    0    0  0.13201304872E+02  0.81660360094E+01  0.17310403741E+02  0.23250992933E+02  0.51100000000E-03 0. -1.
        -11    1    4    4    0    0 -0.22127339147E+01  0.22199921782E+02  0.62702877536E+01  0.23174322585E+02  0.51100000000E-03 0.  1.
        -12    1    4    4    0    0  0.24320155413E+01 -0.21876441218E+01  0.24776246018E+01  0.41035484723E+01  0.00000000000E+00 0.  1.
</event>
<event>
 8    1  0.6016610E-012  0.9118800E+02  0.7816164E-02  0.1184000E+00
        -11   -1    0    0    0    0  0.00000000000E+00  0.00000000000E+00  0.45593999997E+02  0.45594000000E+02  0.51100000000E-03 0. -1.
         11   -1    0    0    0    0 -0.00000000000E+00 -0.00000000000E+00 -0.45593999997E+02  0.45594000000E+02  0.51100000000E-03 0.  1.
         23    2    1    2    0    0  0.00000000000E+00  0.44408920985E-15 -0.35527136788E-14  0.91188000000E+02  0.91188000000E+02 0.  0.
    9900012    2    3    3    0    0 -0.28036546695E+02  0.13339738781E+01  0.29416625827E+02  0.50528864348E+02  0.30000013673E+02 0.  0.
        -12    1    3    3    0    0  0.28036546695E+02 -0.13339738781E+01 -0.29416625827E+02  0.40659135652E+02  0.00000000000E+00 0.  1.
         11    1    4    4    0    0 -0.27125114779E+01  0.11153551252E+01  0.71442055562E+01  0.77227850458E+01  0.51100000000E-03 0. -1.
        -11    1    4    4    0    0 -0.10916078312E+02  0.10315713730E+02  0.79186376088E+00  0.15040005451E+02  0.51100000000E-03 0.  1.
        -12    1    4    4    0    0 -0.14407956905E+02 -0.10097094977E+02  0.21480556510E+02  0.27766073852E+02  0.00000000000E+00 0.  1.
</event>
<event>
 8    1  0.6016610E-012  0.9118800E+02  0.7816164E-02  0.1184000E+00
        -11   -1    0    0    0    0  0.00000000000E+00  0.00000000000E+00  0.45593999997E+02  0.45594000000E+02  0.51100000000E-03 0. -1.
         11   -1    0    0    0    0 -0.00000000000E+00 -0.00000000000E+00 -0.45593999997E+02  0.45594000000E+02  0.51100000000E-03 0.  1.
         23    2    1    2    0    0 -0.35527136788E-14 -0.35527136788E-14  0.00000000000E+00  0.91188000000E+02  0.91188000000E+02 0.  0.
    9900012    2    3    3    0    0 -0.18466437551E+02 -0.16735438305E+02 -0.32126111607E+02  0.50528791227E+02  0.29999791412E+02 0.  0.
         12    1    3    3    0    0  0.18466437551E+02  0.16735438305E+02  0.32126111607E+02  0.40659208773E+02  0.00000000000E+00 0. -1.
         11    1    4    4    0    0  0.10794879073E+00  0.33344986563E+01  0.12061831627E+01  0.35475924672E+01  0.51100000000E-03 0. -1.
        -11    1    4    4    0    0 -0.21929294572E+02 -0.17133932801E+02 -0.24455492054E+02  0.37047762490E+02  0.51100000000E-03 0.  1.
        -12    1    4    4    0    0  0.33549082300E+01 -0.29360041598E+01 -0.88768027164E+01  0.99334362697E+01  0.00000000000E+00 0.  1.
</event>
<event>
 8    1  0.6016610E-012  0.9118800E+02  0.7816164E-02  0.1184000E+00
        -11   -1    0    0    0    0  0.00000000000E+00  0.00000000000E+00  0.45593999997E+02  0.45594000000E+02  0.51100000000E-03 0. -1.
         11   -1    0    0    0    0 -0.00000000000E+00 -0.00000000000E+00 -0.45593999997E+02  0.45594000000E+02  0.51100000000E-03 0.  1.
         23    2    1    2    0    0 -0.17763568394E-14  0.71054273576E-14  0.00000000000E+00  0.91188000000E+02  0.91188000000E+02 0.  0.
    9900012    2    3    3    0    0 -0.13275594873E+02  0.27313732050E+02 -0.27034870033E+02  0.50528861108E+02  0.30000003824E+02 0.  0.
         12    1    3    3    0    0  0.13275594873E+02 -0.27313732050E+02  0.27034870033E+02  0.40659138892E+02  0.00000000000E+00 0. -1.
         11    1    4    4    0    0 -0.97759639082E+01  0.15881447545E+02  0.51530412497E+00  0.18656242522E+02  0.51100000000E-03 0. -1.
        -11    1    4    4    0    0 -0.38269497402E+01  0.38287669254E+01 -0.21439706486E+02  0.22112575945E+02  0.51100000000E-03 0.  1.
        -12    1    4    4    0    0  0.32731877543E+00  0.76035175802E+01 -0.61104676719E+01  0.97600426404E+01  0.00000000000E+00 0.  1.
</event>
<event>
 8    1  0.6016610E-012  0.9118800E+02  0.7816164E-02  0.1184000E+00
        -11   -1    0    0    0    0  0.00000000000E+00  0.00000000000E+00  0.45593999997E+02  0.45594000000E+02  0.51100000000E-03 0. -1.
         11   -1    0    0    0    0 -0.00000000000E+00 -0.00000000000E+00 -0.45593999997E+02  0.45594000000E+02  0.51100000000E-03 0.  1.
         23    2    1    2    0    0 -0.35527136788E-14 -0.88817841970E-15  0.00000000000E+00  0.91188000000E+02  0.91188000000E+02 0.  0.
    9900012    2    3    3    0    0  0.23592092941E+02  0.71956201447E+01  0.32323405338E+02  0.50528851813E+02  0.29999975572E+02 0.  0.
        -12    1    3    3    0    0 -0.23592092941E+02 -0.71956201447E+01 -0.32323405338E+02  0.40659148187E+02  0.00000000000E+00 0.  1.
         11    1    4    4    0    0  0.60611530762E+01  0.12960084643E+02  0.22181386994E+02  0.26395365120E+02  0.51100000000E-03 0. -1.
        -11    1    4    4    0    0 -0.74816721555E+00 -0.30437514012E+01  0.18132227778E+00  0.31395946879E+01  0.51100000000E-03 0.  1.
         12    1    4    4    0    0  0.18279107081E+02 -0.27207130971E+01  0.99606960664E+01  0.20993892006E+02  0.00000000000E+00 0. -1.
</event>
<event>
 8    1  0.6016610E-012  0.9118800E+02  0.7816164E-02  0.1184000E+00
        -11   -1    0    0    0    0  0.00000000000E+00  0.00000000000E+00  0.45593999997E+02  0.45594000000E+02  0.51100000000E-03 0. -1.
         11   -1    0    0    0    0 -0.00000000000E+00 -0.00000000000E+00 -0.45593999997E+02  0.45594000000E+02  0.51100000000E-03 0.  1.
         23    2    1    2    0    0  0.00000000000E+00  0.00000000000E+00 -0.35527136788E-14  0.91188000000E+02  0.91188000000E+02 0.  0.
    9900012    2    3    3    0    0 -0.17487696645E+02 -0.29980993836E+02  0.21177498191E+02  0.50528856441E+02  0.29999989638E+02 0.  0.
        -12    1    3    3    0    0  0.17487696645E+02  0.29980993836E+02 -0.21177498191E+02  0.40659143559E+02  0.00000000000E+00 0.  1.
         11    1    4    4    0    0  0.10485288878E+01 -0.15249244002E+02  0.19608607078E+02  0.24862347582E+02  0.51100000000E-03 0. -1.
        -11    1    4    4    0    0 -0.14655920923E+02 -0.14891578320E+02 -0.11503765527E+01  0.20925546335E+02  0.51100000000E-03 0.  1.
         12    1    4    4    0    0 -0.38803046105E+01  0.15982848674E+00  0.27192676649E+01  0.47409625235E+01  0.00000000000E+00 0. -1.
</event>
<event>
 8    1  0.6016610E-012  0.9118800E+02  0.7816164E-02  0.1184000E+00
        -11   -1    0    0    0    0  0.00000000000E+00  0.00000000000E+00  0.45593999997E+02  0.45594000000E+02  0.51100000000E-03 0.  1.
         11   -1    0    0    0    0 -0.00000000000E+00 -0.00000000000E+00 -0.45593999997E+02  0.45594000000E+02  0.51100000000E-03 0. -1.
         23    2    1    2    0    0  0.00000000000E+00  0.00000000000E+00 -0.17763568394E-14  0.91188000000E+02  0.91188000000E+02 0.  0.
    9900012    2    3    3    0    0  0.96224370049E+01  0.37328396311E+02  0.12929243413E+02  0.50528858343E+02  0.29999995419E+02 0.  0.
        -12    1    3    3    0    0 -0.96224370049E+01 -0.37328396311E+02 -0.12929243413E+02  0.40659141657E+02  0.00000000000E+00 0.  1.
         11    1    4    4    0    0  0.71742840569E+01  0.38197323551E+02  0.21881763662E+01  0.38926777342E+02  0.51100000000E-03 0. -1.
        -11    1    4    4    0    0  0.24501576855E+01 -0.18701927166E+01  0.96064393728E+01  0.10088833984E+02  0.51100000000E-03 0.  1.
         12    1    4    4    0    0 -0.20047374319E-02  0.10012654767E+01  0.11346276741E+01  0.15132470164E+01  0.00000000000E+00 0. -1.
</event>
<event>
 8    1  0.6016610E-012  0.9118800E+02  0.7816164E-02  0.1184000E+00
        -11   -1    0    0    0    0  0.00000000000E+00  0.00000000000E+00  0.45593999997E+02  0.45594000000E+02  0.51100000000E-03 0.  1.
         11   -1    0    0    0    0 -0.00000000000E+00 -0.00000000000E+00 -0.45593999997E+02  0.45594000000E+02  0.51100000000E-03 0. -1.
         23    2    1    2    0    0 -0.11102230246E-15  0.71054273576E-14 -0.88817841970E-15  0.91188000000E+02  0.91188000000E+02 0.  0.
    9900012    2    3    3    0    0  0.34017271426E+00  0.40620948977E+02 -0.17290154716E+01  0.50528847183E+02  0.29999961499E+02 0.  0.
        -12    1    3    3    0    0 -0.34017271426E+00 -0.40620948977E+02  0.17290154716E+01  0.40659152817E+02  0.00000000000E+00 0.  1.
         11    1    4    4    0    0 -0.29362157608E+00  0.30758721443E+02 -0.14162133077E+02  0.33863714681E+02  0.51100000000E-03 0. -1.
        -11    1    4    4    0    0  0.10843890769E+01  0.53358141415E+01  0.30582385394E+01  0.62449688108E+01  0.51100000000E-03 0.  1.
         12    1    4    4    0    0 -0.45059478652E+00  0.45264133925E+01  0.93748790659E+01  0.10420163692E+02  0.00000000000E+00 0. -1.
</event>
<event>
 8    1  0.6016610E-012  0.9118800E+02  0.7816164E-02  0.1184000E+00
        -11   -1    0    0    0    0  0.00000000000E+00  0.00000000000E+00  0.45593999997E+02  0.45594000000E+02  0.51100000000E-03 0. -1.
         11   -1    0    0    0    0 -0.00000000000E+00 -0.00000000000E+00 -0.45593999997E+02  0.45594000000E+02  0.51100000000E-03 0.  1.
         23    2    1    2    0    0  0.44408920985E-15  0.00000000000E+00  0.00000000000E+00  0.91188000000E+02  0.91188000000E+02 0.  0.
    9900012    2    3    3    0    0 -0.28469121771E+01  0.14582536976E+02  0.37847193325E+02  0.50528864051E+02  0.30000012768E+02 0.  0.
        -12    1    3    3    0    0  0.28469121771E+01 -0.14582536976E+02 -0.37847193325E+02  0.40659135949E+02  0.00000000000E+00 0.  1.
         11    1    4    4    0    0 -0.22707538754E+01 -0.50525536389E+01  0.13535188669E+02  0.14624840306E+02  0.51100000000E-03 0. -1.
        -11    1    4    4    0    0  0.43811290290E+01  0.62853567921E+01 -0.76988257207E-01  0.76619794457E+01  0.51100000000E-03 0.  1.
         12    1    4    4    0    0 -0.49572873307E+01  0.13349733823E+02  0.24388992913E+02  0.28242044298E+02  0.00000000000E+00 0. -1.
</event>
<event>
 8    1  0.6016610E-012  0.9118800E+02  0.7816164E-02  0.1184000E+00
        -11   -1    0    0    0    0  0.00000000000E+00  0.00000000000E+00  0.45593999997E+02  0.45594000000E+02  0.51100000000E-03 0. -1.
         11   -1    0    0    0    0 -0.00000000000E+00 -0.00000000000E+00 -0.45593999997E+02  0.45594000000E+02  0.51100000000E-03 0.  1.
         23    2    1    2    0    0  0.35527136788E-14  0.35527136788E-14 -0.35527136788E-14  0.91188000000E+02  0.91188000000E+02 0.  0.
    9900012    2    3    3    0    0 -0.20981325261E+02 -0.24017957666E+02  0.25220712366E+02  0.50528897300E+02  0.30000113832E+02 0.  0.
        -12    1    3    3    0    0  0.20981325261E+02  0.24017957666E+02 -0.25220712366E+02  0.40659102700E+02  0.00000000000E+00 0.  1.
         11    1    4    4    0    0 -0.10602236089E+02 -0.11162267153E+02  0.12141007630E+02  0.19606317467E+02  0.51100000000E-03 0. -1.
        -11    1    4    4    0    0  0.71432060835E+01 -0.50647780740E+01  0.52475375480E+01  0.10208526861E+02  0.51100000000E-03 0.  1.
        -12    1    4    4    0    0 -0.17522295256E+02 -0.77909124393E+01  0.78321671872E+01  0.20714052972E+02  0.00000000000E+00 0.  1.
</event>
<event>
 8    1  0.6016610E-012  0.9118800E+02  0.7816164E-02  0.1184000E+00
        -11   -1    0    0    0    0  0.00000000000E+00  0.00000000000E+00  0.45593999997E+02  0.45594000000E+02  0.51100000000E-03 0. -1.
         11   -1    0    0    0    0 -0.00000000000E+00 -0.00000000000E+00 -0.45593999997E+02  0.45594000000E+02  0.51100000000E-03 0.  1.
         23    2    1    2    0    0  0.88817841970E-15  0.00000000000E+00  0.00000000000E+00  0.91188000000E+02  0.91188000000E+02 0.  0.
    9900012    2    3    3    0    0  0.77916231173E+01  0.35954151264E+02 -0.17313453017E+02  0.50528855404E+02  0.29999986486E+02 0.  0.
         12    1    3    3    0    0 -0.77916231173E+01 -0.35954151264E+02  0.17313453017E+02  0.40659144596E+02  0.00000000000E+00 0. -1.
         11    1    4    4    0    0  0.35273312071E+01  0.36280138075E+02 -0.55068901209E+01  0.36864838576E+02  0.51100000000E-03 0. -1.
        -11    1    4    4    0    0  0.21919535757E+01 -0.28292796198E+01 -0.70006155565E+01  0.78624488600E+01  0.51100000000E-03 0.  1.
         12    1    4    4    0    0  0.20723383345E+01  0.25032928085E+01 -0.48059473393E+01  0.58015679679E+01  0.00000000000E+00 0. -1.
</event>
<event>
 8    1  0.8476397E-012  0.9118800E+02  0.7816164E-02  0.1184000E+00
        -11   -1    0    0    0    0  0.00000000000E+00  0.00000000000E+00  0.45593999997E+02  0.45594000000E+02  0.51100000000E-03 0. -1.
         11   -1    0    0    0    0 -0.00000000000E+00 -0.00000000000E+00 -0.45593999997E+02  0.45594000000E+02  0.51100000000E-03 0.  1.
         23    2    1    2    0    0  0.66613381478E-15  0.88817841970E-15  0.00000000000E+00  0.91188000000E+02  0.91188000000E+02 0.  0.
    9900012    2    3    3    0    0  0.16277084872E+01  0.65260101499E+01  0.40098962382E+02  0.50528867846E+02  0.30000024305E+02 0.  0.
        -12    1    3    3    0    0 -0.16277084872E+01 -0.65260101499E+01 -0.40098962382E+02  0.40659132154E+02  0.00000000000E+00 0.  1.
         11    1    4    4    0    0 -0.30140199530E+01  0.34621523257E+01  0.25982084929E+02  0.26384456646E+02  0.51100000000E-03 0. -1.
        -11    1    4    4    0    0  0.46510014643E+01  0.42811308470E+01 -0.29909992087E+01  0.69932805233E+01  0.51100000000E-03 0.  1.
        -12    1    4    4    0    0 -0.92730240483E-02 -0.12172730227E+01  0.17107876662E+02  0.17151130677E+02  0.00000000000E+00 0.  1.
</event>
<event>
 8    1  0.6016610E-012  0.9118800E+02  0.7816164E-02  0.1184000E+00
        -11   -1    0    0    0    0  0.00000000000E+00  0.00000000000E+00  0.45593999997E+02  0.45594000000E+02  0.51100000000E-03 0. -1.
         11   -1    0    0    0    0 -0.00000000000E+00 -0.00000000000E+00 -0.45593999997E+02  0.45594000000E+02  0.51100000000E-03 0.  1.
         23    2    1    2    0    0  0.00000000000E+00  0.00000000000E+00  0.71054273576E-14  0.91188000000E+02  0.91188000000E+02 0.  0.
    9900012    2    3    3    0    0  0.14544824029E+02  0.85125001569E+01 -0.37002033703E+02  0.50528867408E+02  0.30000022973E+02 0.  0.
         12    1    3    3    0    0 -0.14544824029E+02 -0.85125001569E+01  0.37002033703E+02  0.40659132592E+02  0.00000000000E+00 0. -1.
         11    1    4    4    0    0  0.64769282932E+00 -0.58499402639E+01 -0.13163128777E+02  0.14419059142E+02  0.51100000000E-03 0. -1.
        -11    1    4    4    0    0  0.62125678571E+01  0.10512064027E+02 -0.24617427467E+02  0.27479396370E+02  0.51100000000E-03 0.  1.
         12    1    4    4    0    0  0.76845633428E+01  0.38503763941E+01  0.77852254075E+00  0.86304118958E+01  0.00000000000E+00 0. -1.
</event>
<event>
 8    1  0.6016610E-012  0.9118800E+02  0.7816164E-02  0.1184000E+00
        -11   -1    0    0    0    0  0.00000000000E+00  0.00000000000E+00  0.45593999997E+02  0.45594000000E+02  0.51100000000E-03 0. -1.
         11   -1    0    0    0    0 -0.00000000000E+00 -0.00000000000E+00 -0.45593999997E+02  0.45594000000E+02  0.51100000000E-03 0.  1.
         23    2    1    2    0    0  0.17763568394E-14 -0.88817841970E-15  0.00000000000E+00  0.91188000000E+02  0.91188000000E+02 0.  0.
    9900012    2    3    3    0    0 -0.15836845455E+02  0.29396532295E+01 -0.37332540180E+02  0.50528858453E+02  0.29999995754E+02 0.  0.
         12    1    3    3    0    0  0.15836845455E+02 -0.29396532295E+01  0.37332540180E+02  0.40659141547E+02  0.00000000000E+00 0. -1.
         11    1    4    4    0    0  0.46036000876E+01 -0.17710941193E+01 -0.58686762638E+01  0.76662422017E+01  0.51100000000E-03 0. -1.
        -11    1    4    4    0    0 -0.11321711739E+02  0.12035455726E+02 -0.13083272802E+02  0.21076180363E+02  0.51100000000E-03 0.  1.
         12    1    4    4    0    0 -0.91187338034E+01 -0.73247083775E+01 -0.18380591114E+02  0.21786435888E+02  0.00000000000E+00 0. -1.
</event>
<event>
 8    1  0.6016610E-012  0.9118800E+02  0.7816164E-02  0.1184000E+00
        -11   -1    0    0    0    0  0.00000000000E+00  0.00000000000E+00  0.45593999997E+02  0.45594000000E+02  0.51100000000E-03 0. -1.
         11   -1    0    0    0    0 -0.00000000000E+00 -0.00000000000E+00 -0.45593999997E+02  0.45594000000E+02  0.51100000000E-03 0.  1.
         23    2    1    2    0    0  0.00000000000E+00 -0.35527136788E-14 -0.71054273576E-14  0.91188000000E+02  0.91188000000E+02 0.  0.
    9900012    2    3    3    0    0  0.86429577197E+01 -0.17740475483E+02  0.35549113133E+02  0.50528872697E+02  0.30000039050E+02 0.  0.
        -12    1    3    3    0    0 -0.86429577197E+01  0.17740475483E+02 -0.35549113133E+02  0.40659127303E+02  0.00000000000E+00 0.  1.
         11    1    4    4    0    0  0.97510204689E+01  0.28752015028E+01  0.22457570781E+02  0.24651402993E+02  0.51100000000E-03 0. -1.
        -11    1    4    4    0    0 -0.22695898643E+01 -0.30396051422E+01 -0.21855934116E+00  0.37997376250E+01  0.51100000000E-03 0.  1.
         12    1    4    4    0    0  0.11615271151E+01 -0.17576071843E+02  0.13310101693E+02  0.22077732079E+02  0.00000000000E+00 0. -1.
</event>
<event>
 8    1  0.6016610E-012  0.9118800E+02  0.7816164E-02  0.1184000E+00
        -11   -1    0    0    0    0  0.00000000000E+00  0.00000000000E+00  0.45593999997E+02  0.45594000000E+02  0.51100000000E-03 0. -1.
         11   -1    0    0    0    0 -0.00000000000E+00 -0.00000000000E+00 -0.45593999997E+02  0.45594000000E+02  0.51100000000E-03 0.  1.
         23    2    1    2    0    0  0.00000000000E+00  0.00000000000E+00 -0.88817841970E-15  0.91188000000E+02  0.91188000000E+02 0.  0.
    9900012    2    3    3    0    0 -0.29496437441E+02  0.27028452133E+02 -0.72524036466E+01  0.50528752527E+02  0.29999673779E+02 0.  0.
         12    1    3    3    0    0  0.29496437441E+02 -0.27028452133E+02  0.72524036466E+01  0.40659247473E+02  0.00000000000E+00 0. -1.
         11    1    4    4    0    0 -0.78845867959E+01 -0.49187644834E+01  0.13770568767E+01  0.93945323933E+01  0.51100000000E-03 0. -1.
        -11    1    4    4    0    0 -0.44135327486E+01  0.93795582321E+01 -0.73949028532E+01  0.12733419510E+02  0.51100000000E-03 0.  1.
         12    1    4    4    0    0 -0.17198317896E+02  0.22567658385E+02 -0.12345576702E+01  0.28400800624E+02  0.00000000000E+00 0. -1.
</event>
<event>
 8    1  0.6016610E-012  0.9118800E+02  0.7816164E-02  0.1184000E+00
        -11   -1    0    0    0    0  0.00000000000E+00  0.00000000000E+00  0.45593999997E+02  0.45594000000E+02  0.51100000000E-03 0. -1.
         11   -1    0    0    0    0 -0.00000000000E+00 -0.00000000000E+00 -0.45593999997E+02  0.45594000000E+02  0.51100000000E-03 0.  1.
         23    2    1    2    0    0 -0.35527136788E-14  0.00000000000E+00  0.35527136788E-14  0.91188000000E+02  0.91188000000E+02 0.  0.
    9900012    2    3    3    0    0 -0.23999741113E+02  0.20408249639E+02 -0.25703723677E+02  0.50528860343E+02  0.30000001498E+02 0.  0.
         12    1    3    3    0    0  0.23999741113E+02 -0.20408249639E+02  0.25703723677E+02  0.40659139657E+02  0.00000000000E+00 0. -1.
         11    1    4    4    0    0  0.51320180836E+01  0.47224952738E+01 -0.10307515658E+01  0.70499659767E+01  0.51100000000E-03 0. -1.
        -11    1    4    4    0    0 -0.13799910845E+02  0.11749426381E+02 -0.19964854335E+02  0.26964457504E+02  0.51100000000E-03 0.  1.
         12    1    4    4    0    0 -0.15331848352E+02  0.39363279847E+01 -0.47081177759E+01  0.16514436862E+02  0.00000000000E+00 0. -1.
</event>
<event>
 8    1  0.6016610E-012  0.9118800E+02  0.7816164E-02  0.1184000E+00
        -11   -1    0    0    0    0  0.00000000000E+00  0.00000000000E+00  0.45593999997E+02  0.45594000000E+02  0.51100000000E-03 0. -1.
         11   -1    0    0    0    0 -0.00000000000E+00 -0.00000000000E+00 -0.45593999997E+02  0.45594000000E+02  0.51100000000E-03 0.  1.
         23    2    1    2    0    0 -0.22204460493E-14 -0.35527136788E-14  0.00000000000E+00  0.91188000000E+02  0.91188000000E+02 0.  0.
    9900012    2    3    3    0    0  0.39615205194E+01  0.19225924755E+02  0.35606685799E+02  0.50528857104E+02  0.29999991652E+02 0.  0.
        -12    1    3    3    0    0 -0.39615205194E+01 -0.19225924755E+02 -0.35606685799E+02  0.40659142896E+02  0.00000000000E+00 0.  1.
         11    1    4    4    0    0  0.43110888583E+01 -0.47845621744E+00  0.49211264344E+01  0.65598699027E+01  0.51100000000E-03 0. -1.
        -11    1    4    4    0    0 -0.73260002404E+01 -0.10739083420E+01  0.16439316489E+01  0.75845942658E+01  0.51100000000E-03 0.  1.
        -12    1    4    4    0    0  0.69764319015E+01  0.20778289314E+02  0.29041627715E+02  0.36384392935E+02  0.00000000000E+00 0.  1.
</event>
<event>
 8    1  0.6016610E-012  0.9118800E+02  0.7816164E-02  0.1184000E+00
        -11   -1    0    0    0    0  0.00000000000E+00  0.00000000000E+00  0.45593999997E+02  0.45594000000E+02  0.51100000000E-03 0.  1.
         11   -1    0    0    0    0 -0.00000000000E+00 -0.00000000000E+00 -0.45593999997E+02  0.45594000000E+02  0.51100000000E-03 0. -1.
         23    2    1    2    0    0  0.88817841970E-15  0.00000000000E+00  0.88817841970E-15  0.91188000000E+02  0.91188000000E+02 0.  0.
    9900012    2    3    3    0    0  0.69270772529E+01  0.39541767755E+02 -0.64521228919E+01  0.50528859745E+02  0.29999999681E+02 0.  0.
        -12    1    3    3    0    0 -0.69270772529E+01 -0.39541767755E+02  0.64521228919E+01  0.40659140255E+02  0.00000000000E+00 0.  1.
         11    1    4    4    0    0 -0.12754351477E+01  0.92005044318E+01 -0.67758506498E+01  0.11497311377E+02  0.51100000000E-03 0. -1.
        -11    1    4    4    0    0  0.10360041267E+02  0.11458814956E+02  0.92807637978E+01  0.18021306062E+02  0.51100000000E-03 0.  1.
        -12    1    4    4    0    0 -0.21575288659E+01  0.18882448367E+02 -0.89570360398E+01  0.21010242306E+02  0.00000000000E+00 0.  1.
</event>
<event>
 8    1  0.6016610E-012  0.9118800E+02  0.7816164E-02  0.1184000E+00
        -11   -1    0    0    0    0  0.00000000000E+00  0.00000000000E+00  0.45593999997E+02  0.45594000000E+02  0.51100000000E-03 0. -1.
         11   -1    0    0    0    0 -0.00000000000E+00 -0.00000000000E+00 -0.45593999997E+02  0.45594000000E+02  0.51100000000E-03 0.  1.
         23    2    1    2    0    0  0.35527136788E-14  0.00000000000E+00 -0.35527136788E-14  0.91188000000E+02  0.91188000000E+02 0.  0.
    9900012    2    3    3    0    0 -0.19712692804E+02  0.26415206943E+02  0.23807822246E+02  0.50528858156E+02  0.29999994850E+02 0.  0.
        -12    1    3    3    0    0  0.19712692804E+02 -0.26415206943E+02 -0.23807822246E+02  0.40659141844E+02  0.00000000000E+00 0.  1.
         11    1    4    4    0    0 -0.27297185619E+01  0.11424143318E+02  0.96967868914E+01  0.15231220905E+02  0.51100000000E-03 0. -1.
        -11    1    4    4    0    0 -0.61963629906E+01  0.71449657885E+01 -0.59745148328E+01  0.11186611559E+02  0.51100000000E-03 0.  1.
        -12    1    4    4    0    0 -0.10786611251E+02  0.78460978364E+01  0.20085550187E+02  0.24111025691E+02  0.00000000000E+00 0.  1.
</event>
<event>
 8    1  0.6016610E-012  0.9118800E+02  0.7816164E-02  0.1184000E+00
        -11   -1    0    0    0    0  0.00000000000E+00  0.00000000000E+00  0.45593999997E+02  0.45594000000E+02  0.51100000000E-03 0.  1.
         11   -1    0    0    0    0 -0.00000000000E+00 -0.00000000000E+00 -0.45593999997E+02  0.45594000000E+02  0.51100000000E-03 0. -1.
         23    2    1    2    0    0  0.71054273576E-14  0.00000000000E+00  0.00000000000E+00  0.91188000000E+02  0.91188000000E+02 0.  0.
    9900012    2    3    3    0    0 -0.36641213177E+02  0.15869979649E+02 -0.76636226795E+01  0.50528857489E+02  0.29999992825E+02 0.  0.
         12    1    3    3    0    0  0.36641213177E+02 -0.15869979649E+02  0.76636226795E+01  0.40659142511E+02  0.00000000000E+00 0. -1.
         11    1    4    4    0    0 -0.40910747730E+01  0.32110753407E+01  0.49818373550E+01  0.72018470780E+01  0.51100000000E-03 0. -1.
        -11    1    4    4    0    0 -0.77907172327E+01  0.91909086522E+00 -0.13829750420E+02  0.15899748424E+02  0.51100000000E-03 0.  1.
        -12    1    4    4    0    0 -0.24759421171E+02  0.11739813443E+02  0.11842903851E+01  0.27427261987E+02  0.00000000000E+00 0.  1.
</event>
<event>
 8    1  0.6016610E-012  0.9118800E+02  0.7816164E-02  0.1184000E+00
        -11   -1    0    0    0    0  0.00000000000E+00  0.00000000000E+00  0.45593999997E+02  0.45594000000E+02  0.51100000000E-03 0. -1.
         11   -1    0    0    0    0 -0.00000000000E+00 -0.00000000000E+00 -0.45593999997E+02  0.45594000000E+02  0.51100000000E-03 0.  1.
         23    2    1    2    0    0  0.00000000000E+00  0.00000000000E+00  0.00000000000E+00  0.91188000000E+02  0.91188000000E+02 0.  0.
    9900012    2    3    3    0    0 -0.29472971198E+02 -0.16536998440E+02  0.22606122661E+02  0.50528866581E+02  0.30000020458E+02 0.  0.
        -12    1    3    3    0    0  0.29472971198E+02  0.16536998440E+02 -0.22606122661E+02  0.40659133419E+02  0.00000000000E+00 0.  1.
         11    1    4    4    0    0 -0.90822470910E+01 -0.21190050574E+02  0.16261187953E+02  0.28212261332E+02  0.51100000000E-03 0. -1.
        -11    1    4    4    0    0 -0.60812029094E+01 -0.41126889052E+00  0.29072626230E+01  0.67529509954E+01  0.51100000000E-03 0.  1.
         12    1    4    4    0    0 -0.14309521197E+02  0.50643210248E+01  0.34376720853E+01  0.15563654253E+02  0.00000000000E+00 0. -1.
</event>
<event>
 8    1  0.6016610E-012  0.9118800E+02  0.7816164E-02  0.1184000E+00
        -11   -1    0    0    0    0  0.00000000000E+00  0.00000000000E+00  0.45593999997E+02  0.45594000000E+02  0.51100000000E-03 0. -1.
         11   -1    0    0    0    0 -0.00000000000E+00 -0.00000000000E+00 -0.45593999997E+02  0.45594000000E+02  0.51100000000E-03 0.  1.
         23    2    1    2    0    0  0.35527136788E-14  0.35527136788E-14 -0.35527136788E-14  0.91188000000E+02  0.91188000000E+02 0.  0.
    9900012    2    3    3    0    0 -0.16644418435E+02 -0.24463129750E+02  0.27886995895E+02  0.50528856843E+02  0.29999990860E+02 0.  0.
        -12    1    3    3    0    0  0.16644418435E+02  0.24463129750E+02 -0.27886995895E+02  0.40659143157E+02  0.00000000000E+00 0.  1.
         11    1    4    4    0    0 -0.10815853980E+02 -0.40958687494E+01  0.51502870406E+01  0.12660343400E+02  0.51100000000E-03 0. -1.
        -11    1    4    4    0    0  0.81331033653E+01 -0.98717501569E+01  0.88412545757E+01  0.15548845753E+02  0.51100000000E-03 0.  1.
        -12    1    4    4    0    0 -0.13961667820E+02 -0.10495510844E+02  0.13895454279E+02  0.22319667690E+02  0.00000000000E+00 0.  1.
</event>
<event>
 8    1  0.6016610E-012  0.9118800E+02  0.7816164E-02  0.1184000E+00
        -11   -1    0    0    0    0  0.00000000000E+00  0.00000000000E+00  0.45593999997E+02  0.45594000000E+02  0.51100000000E-03 0. -1.
         11   -1    0    0    0    0 -0.00000000000E+00 -0.00000000000E+00 -0.45593999997E+02  0.45594000000E+02  0.51100000000E-03 0.  1.
         23    2    1    2    0    0  0.88817841970E-15 -0.13322676296E-14 -0.71054273576E-14  0.91188000000E+02  0.91188000000E+02 0.  0.
    9900012    2    3    3    0    0  0.45406371940E+01 -0.33164142513E+01 -0.40268471771E+02  0.50528858243E+02  0.29999995116E+02 0.  0.
         12    1    3    3    0    0 -0.45406371940E+01  0.33164142513E+01  0.40268471771E+02  0.40659141757E+02  0.00000000000E+00 0. -1.
         11    1    4    4    0    0 -0.70519375345E+00 -0.96876292322E+01 -0.26022266348E+01  0.10055796442E+02  0.51100000000E-03 0. -1.
        -11    1    4    4    0    0  0.35547323585E+01  0.58472500188E+01 -0.71189551195E+01  0.98745114905E+01  0.51100000000E-03 0.  1.
         12    1    4    4    0    0  0.16910985889E+01  0.52396496215E+00 -0.30547290017E+02  0.30598550310E+02  0.00000000000E+00 0. -1.
</event>
<event>
 8    1  0.6016610E-012  0.9118800E+02  0.7816164E-02  0.1184000E+00
        -11   -1    0    0    0    0  0.00000000000E+00  0.00000000000E+00  0.45593999997E+02  0.45594000000E+02  0.51100000000E-03 0. -1.
         11   -1    0    0    0    0 -0.00000000000E+00 -0.00000000000E+00 -0.45593999997E+02  0.45594000000E+02  0.51100000000E-03 0.  1.
         23    2    1    2    0    0  0.00000000000E+00  0.00000000000E+00  0.35527136788E-14  0.91188000000E+02  0.91188000000E+02 0.  0.
    9900012    2    3    3    0    0  0.18938218849E+02  0.16782824400E+02  0.31825265610E+02  0.50528845321E+02  0.29999955839E+02 0.  0.
        -12    1    3    3    0    0 -0.18938218849E+02 -0.16782824400E+02 -0.31825265610E+02  0.40659154679E+02  0.00000000000E+00 0.  1.
         11    1    4    4    0    0  0.14275589043E+02 -0.13172106634E+01  0.51691727710E+01  0.15239679585E+02  0.51100000000E-03 0. -1.
        -11    1    4    4    0    0  0.54144660325E+01  0.13884357000E+02  0.27157454514E+02  0.30977720182E+02  0.51100000000E-03 0.  1.
         12    1    4    4    0    0 -0.75183622618E+00  0.42156780630E+01 -0.50136167432E+00  0.43114455546E+01  0.00000000000E+00 0. -1.
</event>
<event>
 8    1  0.6016610E-012  0.9118800E+02  0.7816164E-02  0.1184000E+00
        -11   -1    0    0    0    0  0.00000000000E+00  0.00000000000E+00  0.45593999997E+02  0.45594000000E+02  0.51100000000E-03 0. -1.
         11   -1    0    0    0    0 -0.00000000000E+00 -0.00000000000E+00 -0.45593999997E+02  0.45594000000E+02  0.51100000000E-03 0.  1.
         23    2    1    2    0    0  0.00000000000E+00  0.35527136788E-14  0.00000000000E+00  0.91188000000E+02  0.91188000000E+02 0.  0.
    9900012    2    3    3    0    0  0.29016527104E+01  0.22632797122E+02  0.33652688055E+02  0.50528849648E+02  0.29999968990E+02 0.  0.
        -12    1    3    3    0    0 -0.29016527104E+01 -0.22632797122E+02 -0.33652688055E+02  0.40659150352E+02  0.00000000000E+00 0.  1.
         11    1    4    4    0    0 -0.40164173098E+01  0.24021356537E+02  0.16012739733E+02  0.29147298535E+02  0.51100000000E-03 0. -1.
        -11    1    4    4    0    0  0.73569252776E+01  0.24060197443E-01  0.18328515844E+02  0.19749922069E+02  0.51100000000E-03 0.  1.
        -12    1    4    4    0    0 -0.43885525745E+00 -0.14126196123E+01 -0.68856752192E+00  0.16316290443E+01  0.00000000000E+00 0.  1.
</event>
<event>
 8    1  0.6016610E-012  0.9118800E+02  0.7816164E-02  0.1184000E+00
        -11   -1    0    0    0    0  0.00000000000E+00  0.00000000000E+00  0.45593999997E+02  0.45594000000E+02  0.51100000000E-03 0. -1.
         11   -1    0    0    0    0 -0.00000000000E+00 -0.00000000000E+00 -0.45593999997E+02  0.45594000000E+02  0.51100000000E-03 0.  1.
         23    2    1    2    0    0  0.13322676296E-14  0.00000000000E+00  0.71054273576E-14  0.91188000000E+02  0.91188000000E+02 0.  0.
    9900012    2    3    3    0    0  0.27355747023E+01 -0.15214478651E+02 -0.37605869959E+02  0.50528865910E+02  0.30000018421E+02 0.  0.
         12    1    3    3    0    0 -0.27355747023E+01  0.15214478651E+02  0.37605869959E+02  0.40659134090E+02  0.00000000000E+00 0. -1.
         11    1    4    4    0    0  0.56965315854E+01  0.20167466636E+01 -0.72984302863E+01  0.94754854289E+01  0.51100000000E-03 0. -1.
        -11    1    4    4    0    0 -0.11284636249E+02 -0.14608275705E+02 -0.16727366809E+02  0.24910831680E+02  0.51100000000E-03 0.  1.
        -12    1    4    4    0    0  0.83236793657E+01 -0.26229496089E+01 -0.13580072863E+02  0.16142548801E+02  0.00000000000E+00 0.  1.
</event>
<event>
 8    1  0.6016610E-012  0.9118800E+02  0.7816164E-02  0.1184000E+00
        -11   -1    0    0    0    0  0.00000000000E+00  0.00000000000E+00  0.45593999997E+02  0.45594000000E+02  0.51100000000E-03 0. -1.
         11   -1    0    0    0    0 -0.00000000000E+00 -0.00000000000E+00 -0.45593999997E+02  0.45594000000E+02  0.51100000000E-03 0.  1.
         23    2    1    2    0    0  0.00000000000E+00  0.00000000000E+00  0.00000000000E+00  0.91188000000E+02  0.91188000000E+02 0.  0.
    9900012    2    3    3    0    0  0.27168084968E+02  0.23359913890E+02  0.19219142170E+02  0.50528857811E+02  0.29999993803E+02 0.  0.
        -12    1    3    3    0    0 -0.27168084968E+02 -0.23359913890E+02 -0.19219142170E+02  0.40659142189E+02  0.00000000000E+00 0.  1.
         11    1    4    4    0    0  0.75411475563E+01  0.14389151467E+02  0.15266359378E+02  0.22293010459E+02  0.51100000000E-03 0. -1.
        -11    1    4    4    0    0  0.10495253253E+02  0.80955380437E+00 -0.62964814076E+01  0.12265863059E+02  0.51100000000E-03 0.  1.
        -12    1    4    4    0    0  0.91316841587E+01  0.81612086182E+01  0.10249264200E+02  0.15969984293E+02  0.00000000000E+00 0.  1.
</event>
<event>
 8    1  0.6016610E-012  0.9118800E+02  0.7816164E-02  0.1184000E+00
        -11   -1    0    0    0    0  0.00000000000E+00  0.00000000000E+00  0.45593999997E+02  0.45594000000E+02  0.51100000000E-03 0.  1.
         11   -1    0    0    0    0 -0.00000000000E+00 -0.00000000000E+00 -0.45593999997E+02  0.45594000000E+02  0.51100000000E-03 0. -1.
         23    2    1    2    0    0  0.00000000000E+00  0.17763568394E-14  0.00000000000E+00  0.91188000000E+02  0.91188000000E+02 0.  0.
    9900012    2    3    3    0    0  0.38676742352E+02 -0.11710480549E+02 -0.44877765924E+01  0.50528857211E+02  0.29999991977E+02 0.  0.
         12    1    3    3    0    0 -0.38676742352E+02  0.11710480549E+02  0.44877765924E+01  0.40659142789E+02  0.00000000000E+00 0. -1.
         11    1    4    4    0    0  0.74514999639E+01 -0.60839883503E+01 -0.59408327483E+01  0.11306337159E+02  0.51100000000E-03 0. -1.
        -11    1    4    4    0    0  0.19101065399E+02  0.82142665963E+01  0.52427582631E+00  0.20799032201E+02  0.51100000000E-03 0.  1.
        -12    1    4    4    0    0  0.12124176989E+02 -0.13840758795E+02  0.92878032954E+00  0.18423487850E+02  0.00000000000E+00 0.  1.
</event>
<event>
 8    1  0.6016610E-012  0.9118800E+02  0.7816164E-02  0.1184000E+00
        -11   -1    0    0    0    0  0.00000000000E+00  0.00000000000E+00  0.45593999997E+02  0.45594000000E+02  0.51100000000E-03 0. -1.
         11   -1    0    0    0    0 -0.00000000000E+00 -0.00000000000E+00 -0.45593999997E+02  0.45594000000E+02  0.51100000000E-03 0.  1.
         23    2    1    2    0    0  0.35527136788E-14  0.00000000000E+00  0.35527136788E-14  0.91188000000E+02  0.91188000000E+02 0.  0.
    9900012    2    3    3    0    0 -0.30421115656E+02 -0.37251908805E+01  0.26717859882E+02  0.50528863739E+02  0.30000011821E+02 0.  0.
        -12    1    3    3    0    0  0.30421115656E+02  0.37251908805E+01 -0.26717859882E+02  0.40659136261E+02  0.00000000000E+00 0.  1.
         11    1    4    4    0    0 -0.10132139531E+02  0.11334744717E+01  0.47071510150E+01  0.11229527452E+02  0.51100000000E-03 0. -1.
        -11    1    4    4    0    0 -0.64525908848E+00 -0.34303651183E+01 -0.48598907012E+01  0.59835024881E+01  0.51100000000E-03 0.  1.
        -12    1    4    4    0    0 -0.19643717036E+02 -0.14283002339E+01  0.26870599568E+02  0.33315833799E+02  0.00000000000E+00 0.  1.
</event>
<event>
 8    1  0.6016610E-012  0.9118800E+02  0.7816164E-02  0.1184000E+00
        -11   -1    0    0    0    0  0.00000000000E+00  0.00000000000E+00  0.45593999997E+02  0.45594000000E+02  0.51100000000E-03 0. -1.
         11   -1    0    0    0    0 -0.00000000000E+00 -0.00000000000E+00 -0.45593999997E+02  0.45594000000E+02  0.51100000000E-03 0.  1.
         23    2    1    2    0    0 -0.17763568394E-14  0.00000000000E+00  0.00000000000E+00  0.91188000000E+02  0.91188000000E+02 0.  0.
    9900012    2    3    3    0    0  0.14098818945E+02 -0.73202220776E+01 -0.37427301261E+02  0.50528865398E+02  0.30000016864E+02 0.  0.
         12    1    3    3    0    0 -0.14098818945E+02  0.73202220776E+01  0.37427301261E+02  0.40659134602E+02  0.00000000000E+00 0. -1.
         11    1    4    4    0    0  0.10438054659E+02  0.48321958915E+01 -0.74417727064E+01  0.13699747569E+02  0.51100000000E-03 0. -1.
        -11    1    4    4    0    0 -0.52054959418E+01 -0.10455725678E+02 -0.12234317894E+02  0.16914429403E+02  0.51100000000E-03 0.  1.
        -12    1    4    4    0    0  0.88662602282E+01 -0.16966922911E+01 -0.17751210661E+02  0.19914688426E+02  0.00000000000E+00 0.  1.
</event>
<event>
 8    1  0.6016610E-012  0.9118800E+02  0.7816164E-02  0.1184000E+00
        -11   -1    0    0    0    0  0.00000000000E+00  0.00000000000E+00  0.45593999997E+02  0.45594000000E+02  0.51100000000E-03 0. -1.
         11   -1    0    0    0    0 -0.00000000000E+00 -0.00000000000E+00 -0.45593999997E+02  0.45594000000E+02  0.51100000000E-03 0.  1.
         23    2    1    2    0    0  0.00000000000E+00  0.88817841970E-15  0.00000000000E+00  0.91188000000E+02  0.91188000000E+02 0.  0.
    9900012    2    3    3    0    0 -0.33329801089E+02 -0.54972950727E+01 -0.22628916431E+02  0.50528883525E+02  0.30000071961E+02 0.  0.
         12    1    3    3    0    0  0.33329801089E+02  0.54972950727E+01  0.22628916431E+02  0.40659116475E+02  0.00000000000E+00 0. -1.
         11    1    4    4    0    0  0.30367343349E+01 -0.27196989189E+01 -0.78055958265E+01  0.88060118157E+01  0.51100000000E-03 0. -1.
        -11    1    4    4    0    0 -0.28288883594E+02 -0.23017044879E+01 -0.17326266790E+02  0.33252944226E+02  0.51100000000E-03 0.  1.
         12    1    4    4    0    0 -0.80776518297E+01 -0.47589166592E+00  0.25029461859E+01  0.84699274831E+01  0.00000000000E+00 0. -1.
</event>
<event>
 8    1  0.6016610E-012  0.9118800E+02  0.7816164E-02  0.1184000E+00
        -11   -1    0    0    0    0  0.00000000000E+00  0.00000000000E+00  0.45593999997E+02  0.45594000000E+02  0.51100000000E-03 0. -1.
         11   -1    0    0    0    0 -0.00000000000E+00 -0.00000000000E+00 -0.45593999997E+02  0.45594000000E+02  0.51100000000E-03 0.  1.
         23    2    1    2    0    0  0.71054273576E-14  0.11102230246E-15  0.00000000000E+00  0.91188000000E+02  0.91188000000E+02 0.  0.
    9900012    2    3    3    0    0 -0.33697180575E+02  0.82647090047E+00 -0.22737247710E+02  0.50528862450E+02  0.30000007903E+02 0.  0.
         12    1    3    3    0    0  0.33697180575E+02 -0.82647090047E+00  0.22737247710E+02  0.40659137550E+02  0.00000000000E+00 0. -1.
         11    1    4    4    0    0 -0.27159749228E+02  0.19930078364E+00 -0.14543357287E+02  0.30809104830E+02  0.51100000000E-03 0.  1.
        -11    1    4    4    0    0  0.27261133017E+01  0.45269955869E+01  0.17641117220E+01  0.55711285397E+01  0.51100000000E-03 0. -1.
         12    1    4    4    0    0 -0.92635446488E+01 -0.38998254701E+01 -0.99580021446E+01  0.14148629081E+02  0.00000000000E+00 0. -1.
</event>
<event>
 8    1  0.6160103E-012  0.9118800E+02  0.7816164E-02  0.1184000E+00
        -11   -1    0    0    0    0  0.00000000000E+00  0.00000000000E+00  0.45593999997E+02  0.45594000000E+02  0.51100000000E-03 0. -1.
         11   -1    0    0    0    0 -0.00000000000E+00 -0.00000000000E+00 -0.45593999997E+02  0.45594000000E+02  0.51100000000E-03 0.  1.
         23    2    1    2    0    0  0.00000000000E+00 -0.44408920985E-15  0.71054273576E-14  0.91188000000E+02  0.91188000000E+02 0.  0.
    9900012    2    3    3    0    0 -0.16118635580E+02 -0.38320171690E+01  0.37130458065E+02  0.50528859764E+02  0.29999999740E+02 0.  0.
        -12    1    3    3    0    0  0.16118635580E+02  0.38320171690E+01 -0.37130458065E+02  0.40659140236E+02  0.00000000000E+00 0.  1.
         11    1    4    4    0    0  0.25000113486E+00 -0.17989979840E+01  0.15965503647E+02  0.16068484723E+02  0.51100000000E-03 0. -1.
        -11    1    4    4    0    0 -0.14620847578E+02  0.65433490664E+01  0.63053225971E+01  0.17214577956E+02  0.51100000000E-03 0.  1.
        -12    1    4    4    0    0 -0.17477891369E+01 -0.85763682514E+01  0.14859631821E+02  0.17245797085E+02  0.00000000000E+00 0.  1.
</event>
<event>
 8    1  0.6016610E-012  0.9118800E+02  0.7816164E-02  0.1184000E+00
        -11   -1    0    0    0    0  0.00000000000E+00  0.00000000000E+00  0.45593999997E+02  0.45594000000E+02  0.51100000000E-03 0. -1.
         11   -1    0    0    0    0 -0.00000000000E+00 -0.00000000000E+00 -0.45593999997E+02  0.45594000000E+02  0.51100000000E-03 0.  1.
         23    2    1    2    0    0 -0.35527136788E-14  0.35527136788E-14  0.00000000000E+00  0.91188000000E+02  0.91188000000E+02 0.  0.
    9900012    2    3    3    0    0 -0.19378420591E+02 -0.18652986087E+02  0.30491129968E+02  0.50528854887E+02  0.29999984915E+02 0.  0.
        -12    1    3    3    0    0  0.19378420591E+02  0.18652986087E+02 -0.30491129968E+02  0.40659145113E+02  0.00000000000E+00 0.  1.
         11    1    4    4    0    0 -0.19304825537E+01 -0.17340043828E+02  0.18938208929E+02  0.25749944476E+02  0.51100000000E-03 0. -1.
        -11    1    4    4    0    0 -0.12400105101E+02  0.50695707735E+01  0.48874705634E+01  0.14260102493E+02  0.51100000000E-03 0.  1.
        -12    1    4    4    0    0 -0.50478329368E+01 -0.63825130327E+01  0.66654504757E+01  0.10518807918E+02  0.00000000000E+00 0.  1.
</event>
<event>
 8    1  0.6016610E-012  0.9118800E+02  0.7816164E-02  0.1184000E+00
        -11   -1    0    0    0    0  0.00000000000E+00  0.00000000000E+00  0.45593999997E+02  0.45594000000E+02  0.51100000000E-03 0. -1.
         11   -1    0    0    0    0 -0.00000000000E+00 -0.00000000000E+00 -0.45593999997E+02  0.45594000000E+02  0.51100000000E-03 0.  1.
         23    2    1    2    0    0  0.88817841970E-15  0.00000000000E+00  0.88817841970E-15  0.91188000000E+02  0.91188000000E+02 0.  0.
    9900012    2    3    3    0    0 -0.55354575801E+01  0.40222246770E+02 -0.21669071270E+01  0.50528856965E+02  0.29999991230E+02 0.  0.
         12    1    3    3    0    0  0.55354575801E+01 -0.40222246770E+02  0.21669071270E+01  0.40659143035E+02  0.00000000000E+00 0. -1.
         11    1    4    4    0    0  0.69372337275E+01  0.11593389812E+02  0.48834314270E+01  0.14365925027E+02  0.51100000000E-03 0. -1.
        -11    1    4    4    0    0 -0.12582193132E+02  0.23395452270E+02  0.97412118202E+00  0.26582093283E+02  0.51100000000E-03 0.  1.
        -12    1    4    4    0    0  0.10950182429E+00  0.52334046878E+01 -0.80244597360E+01  0.95808386548E+01  0.00000000000E+00 0.  1.
</event>
<event>
 8    1  0.6016610E-012  0.9118800E+02  0.7816164E-02  0.1184000E+00
        -11   -1    0    0    0    0  0.00000000000E+00  0.00000000000E+00  0.45593999997E+02  0.45594000000E+02  0.51100000000E-03 0. -1.
         11   -1    0    0    0    0 -0.00000000000E+00 -0.00000000000E+00 -0.45593999997E+02  0.45594000000E+02  0.51100000000E-03 0.  1.
         23    2    1    2    0    0 -0.88817841970E-15  0.00000000000E+00  0.35527136788E-14  0.91188000000E+02  0.91188000000E+02 0.  0.
    9900012    2    3    3    0    0  0.70332746874E+01 -0.26180348381E+02 -0.30303272294E+02  0.50528857044E+02  0.29999991472E+02 0.  0.
         12    1    3    3    0    0 -0.70332746874E+01  0.26180348381E+02  0.30303272294E+02  0.40659142956E+02  0.00000000000E+00 0. -1.
         11    1    4    4    0    0  0.95561748754E+01 -0.24801437967E+02 -0.10328385292E+02  0.28515037200E+02  0.51100000000E-03 0. -1.
        -11    1    4    4    0    0 -0.52821807042E+01 -0.12082940179E+01 -0.75999554994E+01  0.93338486853E+01  0.51100000000E-03 0.  1.
         12    1    4    4    0    0  0.27592805162E+01 -0.17061639610E+00 -0.12374931502E+02  0.12679971159E+02  0.00000000000E+00 0. -1.
</event>
<event>
 8    1  0.6016610E-012  0.9118800E+02  0.7816164E-02  0.1184000E+00
        -11   -1    0    0    0    0  0.00000000000E+00  0.00000000000E+00  0.45593999997E+02  0.45594000000E+02  0.51100000000E-03 0. -1.
         11   -1    0    0    0    0 -0.00000000000E+00 -0.00000000000E+00 -0.45593999997E+02  0.45594000000E+02  0.51100000000E-03 0.  1.
         23    2    1    2    0    0  0.00000000000E+00  0.00000000000E+00  0.44408920985E-15  0.91188000000E+02  0.91188000000E+02 0.  0.
    9900012    2    3    3    0    0 -0.59573636807E+01 -0.40102197219E+02  0.30802875120E+01  0.50528873411E+02  0.30000041220E+02 0.  0.
        -12    1    3    3    0    0  0.59573636807E+01  0.40102197219E+02 -0.30802875120E+01  0.40659126589E+02  0.00000000000E+00 0.  1.
         11    1    4    4    0    0 -0.11418155992E+02 -0.83155929457E+01 -0.51772619613E+01  0.15044182064E+02  0.51100000000E-03 0. -1.
        -11    1    4    4    0    0  0.22221054494E+01 -0.19103936817E+02  0.10934977338E+02  0.22124011485E+02  0.51100000000E-03 0.  1.
        -12    1    4    4    0    0  0.32386868620E+01 -0.12682667457E+02 -0.26774278646E+01  0.13360679862E+02  0.00000000000E+00 0.  1.
</event>
<event>
 8    1  0.6016610E-012  0.9118800E+02  0.7816164E-02  0.1184000E+00
        -11   -1    0    0    0    0  0.00000000000E+00  0.00000000000E+00  0.45593999997E+02  0.45594000000E+02  0.51100000000E-03 0. -1.
         11   -1    0    0    0    0 -0.00000000000E+00 -0.00000000000E+00 -0.45593999997E+02  0.45594000000E+02  0.51100000000E-03 0.  1.
         23    2    1    2    0    0  0.00000000000E+00  0.00000000000E+00  0.00000000000E+00  0.91188000000E+02  0.91188000000E+02 0.  0.
    9900012    2    3    3    0    0  0.21773689671E+02  0.52015325275E+01  0.33941366641E+02  0.50528857462E+02  0.29999992740E+02 0.  0.
        -12    1    3    3    0    0 -0.21773689671E+02 -0.52015325275E+01 -0.33941366641E+02  0.40659142538E+02  0.00000000000E+00 0.  1.
         11    1    4    4    0    0  0.21958683977E+02 -0.36874234016E+01  0.11378051058E+02  0.25004818326E+02  0.51100000000E-03 0. -1.
        -11    1    4    4    0    0 -0.25186404364E+01  0.38625508347E+01  0.38490524543E+01  0.60065009494E+01  0.51100000000E-03 0.  1.
         12    1    4    4    0    0  0.23336461302E+01  0.50264050945E+01  0.18714263128E+02  0.19517538186E+02  0.00000000000E+00 0. -1.
</event>
<event>
 8    1  0.6150624E-012  0.9118800E+02  0.7816164E-02  0.1184000E+00
        -11   -1    0    0    0    0  0.00000000000E+00  0.00000000000E+00  0.45593999997E+02  0.45594000000E+02  0.51100000000E-03 0. -1.
         11   -1    0    0    0    0 -0.00000000000E+00 -0.00000000000E+00 -0.45593999997E+02  0.45594000000E+02  0.51100000000E-03 0.  1.
         23    2    1    2    0    0  0.00000000000E+00  0.00000000000E+00  0.00000000000E+00  0.91188000000E+02  0.91188000000E+02 0.  0.
    9900012    2    3    3    0    0  0.17263345803E+02  0.10108174190E+02  0.35397271770E+02  0.50528866432E+02  0.30000020005E+02 0.  0.
        -12    1    3    3    0    0 -0.17263345803E+02 -0.10108174190E+02 -0.35397271770E+02  0.40659133568E+02  0.00000000000E+00 0.  1.
         11    1    4    4    0    0  0.52320357499E+01  0.95296827646E+01  0.23589259951E+02  0.25973876049E+02  0.51100000000E-03 0. -1.
        -11    1    4    4    0    0  0.24199994259E+01  0.22521890389E+00 -0.47902464082E+01  0.53715530053E+01  0.51100000000E-03 0.  1.
         12    1    4    4    0    0  0.96113106275E+01  0.35327252176E+00  0.16598258227E+02  0.19183437378E+02  0.00000000000E+00 0. -1.
</event>
<event>
 8    1  0.6016610E-012  0.9118800E+02  0.7816164E-02  0.1184000E+00
        -11   -1    0    0    0    0  0.00000000000E+00  0.00000000000E+00  0.45593999997E+02  0.45594000000E+02  0.51100000000E-03 0. -1.
         11   -1    0    0    0    0 -0.00000000000E+00 -0.00000000000E+00 -0.45593999997E+02  0.45594000000E+02  0.51100000000E-03 0.  1.
         23    2    1    2    0    0  0.00000000000E+00 -0.88817841970E-15 -0.71054273576E-14  0.91188000000E+02  0.91188000000E+02 0.  0.
    9900012    2    3    3    0    0  0.21647311139E+02 -0.75874787746E+01 -0.33570666582E+02  0.50528861194E+02  0.30000004084E+02 0.  0.
         12    1    3    3    0    0 -0.21647311139E+02  0.75874787746E+01  0.33570666582E+02  0.40659138806E+02  0.00000000000E+00 0. -1.
         11    1    4    4    0    0  0.12807065732E+02  0.16295027980E+00 -0.21037473954E+02  0.24629713682E+02  0.51100000000E-03 0.  1.
        -11    1    4    4    0    0 -0.34670764895E+01 -0.26028284907E+01  0.31133768695E+01  0.53374573842E+01  0.51100000000E-03 0. -1.
         12    1    4    4    0    0  0.12307321896E+02 -0.51476005636E+01 -0.15646569498E+02  0.20561690127E+02  0.00000000000E+00 0. -1.
</event>
<event>
 8    1  0.6016610E-012  0.9118800E+02  0.7816164E-02  0.1184000E+00
        -11   -1    0    0    0    0  0.00000000000E+00  0.00000000000E+00  0.45593999997E+02  0.45594000000E+02  0.51100000000E-03 0. -1.
         11   -1    0    0    0    0 -0.00000000000E+00 -0.00000000000E+00 -0.45593999997E+02  0.45594000000E+02  0.51100000000E-03 0.  1.
         23    2    1    2    0    0  0.17763568394E-14  0.00000000000E+00  0.71054273576E-14  0.91188000000E+02  0.91188000000E+02 0.  0.
    9900012    2    3    3    0    0  0.88752966353E+01  0.14207662412E+02 -0.37047767114E+02  0.50528860686E+02  0.30000002542E+02 0.  0.
         12    1    3    3    0    0 -0.88752966353E+01 -0.14207662412E+02  0.37047767114E+02  0.40659139314E+02  0.00000000000E+00 0. -1.
         11    1    4    4    0    0 -0.39535782996E+01  0.13776650226E+02 -0.21629444295E+02  0.25947249056E+02  0.51100000000E-03 0.  1.
        -11    1    4    4    0    0  0.56225792706E+00 -0.34127728579E+01  0.11194541886E+01  0.36354271410E+01  0.51100000000E-03 0. -1.
         12    1    4    4    0    0  0.12266617008E+02  0.38437850440E+01 -0.16537777008E+02  0.20946184489E+02  0.00000000000E+00 0. -1.
</event>
<event>
 8    1  0.6016610E-012  0.9118800E+02  0.7816164E-02  0.1184000E+00
        -11   -1    0    0    0    0  0.00000000000E+00  0.00000000000E+00  0.45593999997E+02  0.45594000000E+02  0.51100000000E-03 0.  1.
         11   -1    0    0    0    0 -0.00000000000E+00 -0.00000000000E+00 -0.45593999997E+02  0.45594000000E+02  0.51100000000E-03 0. -1.
         23    2    1    2    0    0 -0.35527136788E-14  0.00000000000E+00 -0.17763568394E-14  0.91188000000E+02  0.91188000000E+02 0.  0.
    9900012    2    3    3    0    0  0.30127603389E+02 -0.26937330652E+02 -0.44579726462E+01  0.50528858485E+02  0.29999995852E+02 0.  0.
         12    1    3    3    0    0 -0.30127603389E+02  0.26937330652E+02  0.44579726462E+01  0.40659141515E+02  0.00000000000E+00 0. -1.
         11    1    4    4    0    0 -0.46415764392E+00 -0.14412360236E+02  0.45105833939E+01  0.15108836246E+02  0.51100000000E-03 0. -1.
        -11    1    4    4    0    0  0.17621586726E+02 -0.84216217629E+01 -0.78900291308E+00  0.19546522906E+02  0.51100000000E-03 0.  1.
         12    1    4    4    0    0  0.12970174307E+02 -0.41033486522E+01 -0.81795531270E+01  0.15873499333E+02  0.00000000000E+00 0. -1.
</event>
<event>
 8    1  0.6016610E-012  0.9118800E+02  0.7816164E-02  0.1184000E+00
        -11   -1    0    0    0    0  0.00000000000E+00  0.00000000000E+00  0.45593999997E+02  0.45594000000E+02  0.51100000000E-03 0. -1.
         11   -1    0    0    0    0 -0.00000000000E+00 -0.00000000000E+00 -0.45593999997E+02  0.45594000000E+02  0.51100000000E-03 0.  1.
         23    2    1    2    0    0  0.35527136788E-14  0.71054273576E-14  0.35527136788E-14  0.91188000000E+02  0.91188000000E+02 0.  0.
    9900012    2    3    3    0    0  0.22504363338E+02  0.27472335487E+02  0.19798816557E+02  0.50528822396E+02  0.29999886155E+02 0.  0.
         12    1    3    3    0    0 -0.22504363338E+02 -0.27472335487E+02 -0.19798816557E+02  0.40659177604E+02  0.00000000000E+00 0. -1.
         11    1    4    4    0    0 -0.34341834902E+01  0.36442017153E+01  0.12136203978E+02  0.13128643100E+02  0.51100000000E-03 0. -1.
        -11    1    4    4    0    0  0.47021299466E+01  0.10547286922E+02  0.19820529075E+01  0.11716817889E+02  0.51100000000E-03 0.  1.
         12    1    4    4    0    0  0.21236416882E+02  0.13280846849E+02  0.56805596716E+01  0.25683361408E+02  0.00000000000E+00 0. -1.
</event>
<event>
 8    1  0.6016610E-012  0.9118800E+02  0.7816164E-02  0.1184000E+00
        -11   -1    0    0    0    0  0.00000000000E+00  0.00000000000E+00  0.45593999997E+02  0.45594000000E+02  0.51100000000E-03 0. -1.
         11   -1    0    0    0    0 -0.00000000000E+00 -0.00000000000E+00 -0.45593999997E+02  0.45594000000E+02  0.51100000000E-03 0.  1.
         23    2    1    2    0    0  0.17763568394E-14  0.00000000000E+00  0.00000000000E+00  0.91188000000E+02  0.91188000000E+02 0.  0.
    9900012    2    3    3    0    0 -0.99323995463E+01  0.28226377951E+02  0.27527884309E+02  0.50528863419E+02  0.30000010849E+02 0.  0.
        -12    1    3    3    0    0  0.99323995463E+01 -0.28226377951E+02 -0.27527884309E+02  0.40659136581E+02  0.00000000000E+00 0.  1.
         11    1    4    4    0    0 -0.99662287281E+01  0.27065579131E+02  0.26316872998E+02  0.39044194107E+02  0.51100000000E-03 0. -1.
        -11    1    4    4    0    0  0.48461610879E+01  0.25808747167E+01  0.28759411038E+01  0.61981633640E+01  0.51100000000E-03 0.  1.
         12    1    4    4    0    0 -0.48123319061E+01 -0.14200758965E+01 -0.16649297936E+01  0.52865059485E+01  0.00000000000E+00 0. -1.
</event>
<event>
 8    1  0.6016610E-012  0.9118800E+02  0.7816164E-02  0.1184000E+00
        -11   -1    0    0    0    0  0.00000000000E+00  0.00000000000E+00  0.45593999997E+02  0.45594000000E+02  0.51100000000E-03 0. -1.
         11   -1    0    0    0    0 -0.00000000000E+00 -0.00000000000E+00 -0.45593999997E+02  0.45594000000E+02  0.51100000000E-03 0.  1.
         23    2    1    2    0    0  0.00000000000E+00 -0.35527136788E-14  0.35527136788E-14  0.91188000000E+02  0.91188000000E+02 0.  0.
    9900012    2    3    3    0    0  0.19008516606E+02  0.19872697435E+02 -0.29948583062E+02  0.50528862843E+02  0.30000009098E+02 0.  0.
         12    1    3    3    0    0 -0.19008516606E+02 -0.19872697435E+02  0.29948583062E+02  0.40659137157E+02  0.00000000000E+00 0. -1.
         11    1    4    4    0    0  0.17679492213E+02  0.16511161306E+02 -0.12688132193E+02  0.27316141590E+02  0.51100000000E-03 0. -1.
        -11    1    4    4    0    0 -0.37248605345E+01  0.11984468841E+01 -0.17277818895E+02  0.17715357376E+02  0.51100000000E-03 0.  1.
        -12    1    4    4    0    0  0.50538849281E+01  0.21630892449E+01  0.17368025168E-01  0.54973638770E+01  0.00000000000E+00 0.  1.
</event>
<event>
 8    1  0.6016610E-012  0.9118800E+02  0.7816164E-02  0.1184000E+00
        -11   -1    0    0    0    0  0.00000000000E+00  0.00000000000E+00  0.45593999997E+02  0.45594000000E+02  0.51100000000E-03 0. -1.
         11   -1    0    0    0    0 -0.00000000000E+00 -0.00000000000E+00 -0.45593999997E+02  0.45594000000E+02  0.51100000000E-03 0.  1.
         23    2    1    2    0    0  0.00000000000E+00 -0.35527136788E-14  0.00000000000E+00  0.91188000000E+02  0.91188000000E+02 0.  0.
    9900012    2    3    3    0    0 -0.14539965608E+02  0.19053925030E+02  0.32843613407E+02  0.50528860799E+02  0.30000002886E+02 0.  0.
        -12    1    3    3    0    0  0.14539965608E+02 -0.19053925030E+02 -0.32843613407E+02  0.40659139201E+02  0.00000000000E+00 0.  1.
         11    1    4    4    0    0 -0.79141012934E+01  0.19444028842E+02  0.21931040457E+02  0.30359080893E+02  0.51100000000E-03 0. -1.
        -11    1    4    4    0    0  0.34299428427E+01 -0.13417577943E+01  0.92197478724E+01  0.99281706761E+01  0.51100000000E-03 0.  1.
         12    1    4    4    0    0 -0.10055807157E+02  0.95165398185E+00  0.16928250774E+01  0.10241609230E+02  0.00000000000E+00 0. -1.
</event>
<event>
 8    1  0.6016610E-012  0.9118800E+02  0.7816164E-02  0.1184000E+00
        -11   -1    0    0    0    0  0.00000000000E+00  0.00000000000E+00  0.45593999997E+02  0.45594000000E+02  0.51100000000E-03 0. -1.
         11   -1    0    0    0    0 -0.00000000000E+00 -0.00000000000E+00 -0.45593999997E+02  0.45594000000E+02  0.51100000000E-03 0.  1.
         23    2    1    2    0    0  0.00000000000E+00  0.00000000000E+00 -0.35527136788E-14  0.91188000000E+02  0.91188000000E+02 0.  0.
    9900012    2    3    3    0    0 -0.31694236147E+02 -0.98814672619E+01  0.23473104668E+02  0.50528995549E+02  0.30000412468E+02 0.  0.
        -12    1    3    3    0    0  0.31694236147E+02  0.98814672619E+01 -0.23473104668E+02  0.40659004451E+02  0.00000000000E+00 0.  1.
         11    1    4    4    0    0 -0.19702627466E+01 -0.50931048340E+01  0.14082007987E+02  0.15103794270E+02  0.51100000000E-03 0. -1.
        -11    1    4    4    0    0 -0.16951884005E+02  0.15328326130E+01 -0.20579950287E+01  0.17145007755E+02  0.51100000000E-03 0.  1.
        -12    1    4    4    0    0 -0.12772089396E+02 -0.63211950409E+01  0.11449091710E+02  0.18280193523E+02  0.00000000000E+00 0.  1.
</event>
<event>
 8    1  0.6016610E-012  0.9118800E+02  0.7816164E-02  0.1184000E+00
        -11   -1    0    0    0    0  0.00000000000E+00  0.00000000000E+00  0.45593999997E+02  0.45594000000E+02  0.51100000000E-03 0. -1.
         11   -1    0    0    0    0 -0.00000000000E+00 -0.00000000000E+00 -0.45593999997E+02  0.45594000000E+02  0.51100000000E-03 0.  1.
         23    2    1    2    0    0  0.00000000000E+00  0.00000000000E+00  0.00000000000E+00  0.91188000000E+02  0.91188000000E+02 0.  0.
    9900012    2    3    3    0    0  0.52746159578E+01 -0.84618476400E+01  0.39417519536E+02  0.50528864675E+02  0.30000014666E+02 0.  0.
        -12    1    3    3    0    0 -0.52746159578E+01  0.84618476400E+01 -0.39417519536E+02  0.40659135325E+02  0.00000000000E+00 0.  1.
         11    1    4    4    0    0 -0.81738600635E+01 -0.11020797280E+01  0.15958834345E+02  0.17964157703E+02  0.51100000000E-03 0. -1.
        -11    1    4    4    0    0  0.13702361535E+02 -0.10858930468E+02  0.13753220485E+02  0.22244598367E+02  0.51100000000E-03 0.  1.
         12    1    4    4    0    0 -0.25388551373E+00  0.34991625559E+01  0.97054647064E+01  0.10320108605E+02  0.00000000000E+00 0. -1.
</event>
<event>
 8    1  0.6016610E-012  0.9118800E+02  0.7816164E-02  0.1184000E+00
        -11   -1    0    0    0    0  0.00000000000E+00  0.00000000000E+00  0.45593999997E+02  0.45594000000E+02  0.51100000000E-03 0. -1.
         11   -1    0    0    0    0 -0.00000000000E+00 -0.00000000000E+00 -0.45593999997E+02  0.45594000000E+02  0.51100000000E-03 0.  1.
         23    2    1    2    0    0  0.71054273576E-14 -0.35527136788E-14  0.17763568394E-14  0.91188000000E+02  0.91188000000E+02 0.  0.
    9900012    2    3    3    0    0 -0.34344606908E+02  0.19041172897E+02 -0.10537918704E+02  0.50528855646E+02  0.29999987222E+02 0.  0.
         12    1    3    3    0    0  0.34344606908E+02 -0.19041172897E+02  0.10537918704E+02  0.40659144354E+02  0.00000000000E+00 0. -1.
         11    1    4    4    0    0 -0.35961180743E+01  0.12859771762E+02  0.33332702174E+01  0.13762866183E+02  0.51100000000E-03 0.  1.
        -11    1    4    4    0    0 -0.20407345844E+02  0.98995864131E+01 -0.11855968434E+02  0.25593467200E+02  0.51100000000E-03 0. -1.
         12    1    4    4    0    0 -0.10341142989E+02 -0.37181852777E+01 -0.20152204874E+01  0.11172522262E+02  0.00000000000E+00 0. -1.
</event>
<event>
 8    1  0.6016610E-012  0.9118800E+02  0.7816164E-02  0.1184000E+00
        -11   -1    0    0    0    0  0.00000000000E+00  0.00000000000E+00  0.45593999997E+02  0.45594000000E+02  0.51100000000E-03 0. -1.
         11   -1    0    0    0    0 -0.00000000000E+00 -0.00000000000E+00 -0.45593999997E+02  0.45594000000E+02  0.51100000000E-03 0.  1.
         23    2    1    2    0    0  0.00000000000E+00 -0.11102230246E-15  0.71054273576E-14  0.91188000000E+02  0.91188000000E+02 0.  0.
    9900012    2    3    3    0    0 -0.63964750006E+01  0.10516083751E+00 -0.40152708023E+02  0.50528856959E+02  0.29999991213E+02 0.  0.
         12    1    3    3    0    0  0.63964750006E+01 -0.10516083751E+00  0.40152708023E+02  0.40659143041E+02  0.00000000000E+00 0. -1.
         11    1    4    4    0    0 -0.40459536049E+01 -0.33770368443E+01 -0.44285037060E+01  0.68837318190E+01  0.51100000000E-03 0. -1.
        -11    1    4    4    0    0  0.11079489922E+02  0.30992928117E+01 -0.18733545745E+02  0.21984231833E+02  0.51100000000E-03 0.  1.
        -12    1    4    4    0    0 -0.13430011317E+02  0.38290487015E+00 -0.16990658572E+02  0.21660893307E+02  0.00000000000E+00 0.  1.
</event>
<event>
 8    1  0.6016610E-012  0.9118800E+02  0.7816164E-02  0.1184000E+00
        -11   -1    0    0    0    0  0.00000000000E+00  0.00000000000E+00  0.45593999997E+02  0.45594000000E+02  0.51100000000E-03 0. -1.
         11   -1    0    0    0    0 -0.00000000000E+00 -0.00000000000E+00 -0.45593999997E+02  0.45594000000E+02  0.51100000000E-03 0.  1.
         23    2    1    2    0    0  0.00000000000E+00  0.88817841970E-15  0.00000000000E+00  0.91188000000E+02  0.91188000000E+02 0.  0.
    9900012    2    3    3    0    0 -0.29898629906E+02  0.76786183789E+01  0.26462740249E+02  0.50528857462E+02  0.29999992740E+02 0.  0.
        -12    1    3    3    0    0  0.29898629906E+02 -0.76786183789E+01 -0.26462740249E+02  0.40659142538E+02  0.00000000000E+00 0.  1.
         11    1    4    4    0    0 -0.22916567060E+01  0.98784590759E+01 -0.22514798363E+01  0.10387723807E+02  0.51100000000E-03 0. -1.
        -11    1    4    4    0    0 -0.13117260046E+02 -0.30321084820E+01  0.12371918104E+02  0.18284434658E+02  0.51100000000E-03 0.  1.
         12    1    4    4    0    0 -0.14489713155E+02  0.83226778506E+00  0.16342301981E+02  0.21856698996E+02  0.00000000000E+00 0. -1.
</event>
<event>
 8    1  0.6016610E-012  0.9118800E+02  0.7816164E-02  0.1184000E+00
        -11   -1    0    0    0    0  0.00000000000E+00  0.00000000000E+00  0.45593999997E+02  0.45594000000E+02  0.51100000000E-03 0. -1.
         11   -1    0    0    0    0 -0.00000000000E+00 -0.00000000000E+00 -0.45593999997E+02  0.45594000000E+02  0.51100000000E-03 0.  1.
         23    2    1    2    0    0  0.17763568394E-14 -0.44408920985E-15  0.00000000000E+00  0.91188000000E+02  0.91188000000E+02 0.  0.
    9900012    2    3    3    0    0 -0.71461239726E+01 -0.24687186875E+01 -0.39950031365E+02  0.50528847698E+02  0.29999963064E+02 0.  0.
         12    1    3    3    0    0  0.71461239726E+01  0.24687186875E+01  0.39950031365E+02  0.40659152302E+02  0.00000000000E+00 0. -1.
         11    1    4    4    0    0  0.77688912323E+01  0.76406922289E+01 -0.11285587101E+02  0.15687585066E+02  0.51100000000E-03 0. -1.
        -11    1    4    4    0    0 -0.23035320760E+01  0.10476661814E+01 -0.16911934627E+01  0.30436819877E+01  0.51100000000E-03 0.  1.
         12    1    4    4    0    0 -0.12611483129E+02 -0.11157077098E+02 -0.26973250802E+02  0.31797580645E+02  0.00000000000E+00 0. -1.
</event>
<event>
 8    1  0.6016610E-012  0.9118800E+02  0.7816164E-02  0.1184000E+00
        -11   -1    0    0    0    0  0.00000000000E+00  0.00000000000E+00  0.45593999997E+02  0.45594000000E+02  0.51100000000E-03 0. -1.
         11   -1    0    0    0    0 -0.00000000000E+00 -0.00000000000E+00 -0.45593999997E+02  0.45594000000E+02  0.51100000000E-03 0.  1.
         23    2    1    2    0    0 -0.71054273576E-14 -0.35527136788E-14  0.44408920985E-15  0.91188000000E+02  0.91188000000E+02 0.  0.
    9900012    2    3    3    0    0  0.37631471833E+02  0.15051232366E+02 -0.32405089618E+01  0.50528829246E+02  0.29999906977E+02 0.  0.
        -12    1    3    3    0    0 -0.37631471833E+02 -0.15051232366E+02  0.32405089618E+01  0.40659170754E+02  0.00000000000E+00 0.  1.
         11    1    4    4    0    0  0.99921684990E+01  0.12327632124E+02  0.23241282151E+01  0.16037939934E+02  0.51100000000E-03 0. -1.
        -11    1    4    4    0    0 -0.67395138020E+00 -0.32950457862E+01 -0.43779479302E+01  0.55206852416E+01  0.51100000000E-03 0.  1.
        -12    1    4    4    0    0  0.28313254714E+02  0.60186460283E+01 -0.11866892467E+01  0.28970204071E+02  0.00000000000E+00 0.  1.
</event>
<event>
 8    1  0.6016610E-012  0.9118800E+02  0.7816164E-02  0.1184000E+00
        -11   -1    0    0    0    0  0.00000000000E+00  0.00000000000E+00  0.45593999997E+02  0.45594000000E+02  0.51100000000E-03 0. -1.
         11   -1    0    0    0    0 -0.00000000000E+00 -0.00000000000E+00 -0.45593999997E+02  0.45594000000E+02  0.51100000000E-03 0.  1.
         23    2    1    2    0    0 -0.35527136788E-14  0.00000000000E+00  0.00000000000E+00  0.91188000000E+02  0.91188000000E+02 0.  0.
    9900012    2    3    3    0    0  0.19828568288E+02 -0.11619640666E+02  0.33540671213E+02  0.50528870706E+02  0.30000032998E+02 0.  0.
        -12    1    3    3    0    0 -0.19828568288E+02  0.11619640666E+02 -0.33540671213E+02  0.40659129294E+02  0.00000000000E+00 0.  1.
         11    1    4    4    0    0  0.20191119860E+02 -0.10659670534E+02  0.34692898543E+02  0.41532000996E+02  0.51100000000E-03 0. -1.
        -11    1    4    4    0    0 -0.12845679034E+01 -0.21807378412E+01  0.33747571828E+01  0.42183786618E+01  0.51100000000E-03 0.  1.
         12    1    4    4    0    0  0.92201633137E+00  0.12207677094E+01 -0.45269845137E+01  0.47784910487E+01  0.00000000000E+00 0. -1.
</event>
<event>
 8    1  0.6016610E-012  0.9118800E+02  0.7816164E-02  0.1184000E+00
        -11   -1    0    0    0    0  0.00000000000E+00  0.00000000000E+00  0.45593999997E+02  0.45594000000E+02  0.51100000000E-03 0. -1.
         11   -1    0    0    0    0 -0.00000000000E+00 -0.00000000000E+00 -0.45593999997E+02  0.45594000000E+02  0.51100000000E-03 0.  1.
         23    2    1    2    0    0  0.00000000000E+00  0.35527136788E-14  0.00000000000E+00  0.91188000000E+02  0.91188000000E+02 0.  0.
    9900012    2    3    3    0    0  0.71101226649E+01  0.12961997519E+02 -0.37876092052E+02  0.50528861136E+02  0.30000003910E+02 0.  0.
         12    1    3    3    0    0 -0.71101226649E+01 -0.12961997519E+02  0.37876092052E+02  0.40659138864E+02  0.00000000000E+00 0. -1.
         11    1    4    4    0    0 -0.52701872430E+01  0.16237314649E+02 -0.16781365000E+02  0.23938242878E+02  0.51100000000E-03 0.  1.
        -11    1    4    4    0    0  0.31267128565E+01 -0.53553433972E+01 -0.11694519532E+02  0.13236986950E+02  0.51100000000E-03 0. -1.
        -12    1    4    4    0    0  0.92535970514E+01  0.20800262672E+01 -0.94002075208E+01  0.13353631307E+02  0.00000000000E+00 0.  1.
</event>
<event>
 8    1  0.6016610E-012  0.9118800E+02  0.7816164E-02  0.1184000E+00
        -11   -1    0    0    0    0  0.00000000000E+00  0.00000000000E+00  0.45593999997E+02  0.45594000000E+02  0.51100000000E-03 0. -1.
         11   -1    0    0    0    0 -0.00000000000E+00 -0.00000000000E+00 -0.45593999997E+02  0.45594000000E+02  0.51100000000E-03 0.  1.
         23    2    1    2    0    0  0.88817841970E-15  0.35527136788E-14 -0.71054273576E-14  0.91188000000E+02  0.91188000000E+02 0.  0.
    9900012    2    3    3    0    0 -0.76306419488E+01 -0.16337554283E+02  0.36442153965E+02  0.50528770271E+02  0.29999727716E+02 0.  0.
        -12    1    3    3    0    0  0.76306419488E+01  0.16337554283E+02 -0.36442153965E+02  0.40659229729E+02  0.00000000000E+00 0.  1.
         11    1    4    4    0    0 -0.37366446547E+01 -0.73309943555E+01  0.27400442498E+02  0.28609268444E+02  0.51100000000E-03 0. -1.
        -11    1    4    4    0    0 -0.85274220186E+01 -0.68610575845E+01 -0.65085601119E+00  0.10964244218E+02  0.51100000000E-03 0.  1.
        -12    1    4    4    0    0  0.46334247245E+01 -0.21455023428E+01  0.96925674783E+01  0.10955257610E+02  0.00000000000E+00 0.  1.
</event>
<event>
 8    1  0.6016610E-012  0.9118800E+02  0.7816164E-02  0.1184000E+00
        -11   -1    0    0    0    0  0.00000000000E+00  0.00000000000E+00  0.45593999997E+02  0.45594000000E+02  0.51100000000E-03 0. -1.
         11   -1    0    0    0    0 -0.00000000000E+00 -0.00000000000E+00 -0.45593999997E+02  0.45594000000E+02  0.51100000000E-03 0.  1.
         23    2    1    2    0    0  0.00000000000E+00  0.00000000000E+00 -0.35527136788E-14  0.91188000000E+02  0.91188000000E+02 0.  0.
    9900012    2    3    3    0    0 -0.85706809983E+01 -0.34891154156E+02 -0.19034630861E+02  0.50528851175E+02  0.29999973633E+02 0.  0.
         12    1    3    3    0    0  0.85706809983E+01  0.34891154156E+02  0.19034630861E+02  0.40659148825E+02  0.00000000000E+00 0. -1.
         11    1    4    4    0    0  0.62979919249E+01 -0.10429152701E+02 -0.11468543442E+02  0.16731987846E+02  0.51100000000E-03 0. -1.
        -11    1    4    4    0    0 -0.15242440909E+02 -0.17428144222E+02  0.40857785430E+00  0.23156838127E+02  0.51100000000E-03 0.  1.
        -12    1    4    4    0    0  0.37376798614E+00 -0.70338572333E+01 -0.79746652735E+01  0.10640025202E+02  0.00000000000E+00 0.  1.
</event>
<event>
 8    1  0.6016610E-012  0.9118800E+02  0.7816164E-02  0.1184000E+00
        -11   -1    0    0    0    0  0.00000000000E+00  0.00000000000E+00  0.45593999997E+02  0.45594000000E+02  0.51100000000E-03 0.  1.
         11   -1    0    0    0    0 -0.00000000000E+00 -0.00000000000E+00 -0.45593999997E+02  0.45594000000E+02  0.51100000000E-03 0. -1.
         23    2    1    2    0    0  0.22204460493E-15  0.00000000000E+00  0.35527136788E-14  0.91188000000E+02  0.91188000000E+02 0.  0.
    9900012    2    3    3    0    0  0.10191614829E+01  0.25706625021E+02 -0.31484861866E+02  0.50528858509E+02  0.29999995923E+02 0.  0.
         12    1    3    3    0    0 -0.10191614829E+01 -0.25706625021E+02  0.31484861866E+02  0.40659141491E+02  0.00000000000E+00 0. -1.
         11    1    4    4    0    0  0.62024413173E+01  0.62597501480E+01 -0.24539282744E+02  0.26073571831E+02  0.51100000000E-03 0. -1.
        -11    1    4    4    0    0 -0.10488269188E+01  0.16640203849E+02 -0.91212443519E+01  0.19005091971E+02  0.51100000000E-03 0.  1.
         12    1    4    4    0    0 -0.41344529156E+01  0.28066710236E+01  0.21756652291E+01  0.54501947061E+01  0.00000000000E+00 0. -1.
</event>
<event>
 8    1  0.6016610E-012  0.9118800E+02  0.7816164E-02  0.1184000E+00
        -11   -1    0    0    0    0  0.00000000000E+00  0.00000000000E+00  0.45593999997E+02  0.45594000000E+02  0.51100000000E-03 0.  1.
         11   -1    0    0    0    0 -0.00000000000E+00 -0.00000000000E+00 -0.45593999997E+02  0.45594000000E+02  0.51100000000E-03 0. -1.
         23    2    1    2    0    0  0.00000000000E+00  0.00000000000E+00  0.17763568394E-14  0.91188000000E+02  0.91188000000E+02 0.  0.
    9900012    2    3    3    0    0  0.32204434498E+02  0.22773043150E+02 -0.98705287544E+01  0.50528875150E+02  0.30000046506E+02 0.  0.
         12    1    3    3    0    0 -0.32204434498E+02 -0.22773043150E+02  0.98705287544E+01  0.40659124850E+02  0.00000000000E+00 0. -1.
         11    1    4    4    0    0  0.24580152520E+02  0.20899139842E+02 -0.19525088329E+02  0.37711894922E+02  0.51100000000E-03 0. -1.
        -11    1    4    4    0    0  0.20868229666E+01 -0.28853041742E+00  0.44189072106E+01  0.48953877367E+01  0.51100000000E-03 0.  1.
         12    1    4    4    0    0  0.55374590120E+01  0.21624337252E+01  0.52356523641E+01  0.79215924917E+01  0.00000000000E+00 0. -1.
</event>
<event>
 8    1  0.6016610E-012  0.9118800E+02  0.7816164E-02  0.1184000E+00
        -11   -1    0    0    0    0  0.00000000000E+00  0.00000000000E+00  0.45593999997E+02  0.45594000000E+02  0.51100000000E-03 0. -1.
         11   -1    0    0    0    0 -0.00000000000E+00 -0.00000000000E+00 -0.45593999997E+02  0.45594000000E+02  0.51100000000E-03 0.  1.
         23    2    1    2    0    0  0.35527136788E-14  0.35527136788E-14  0.71054273576E-14  0.91188000000E+02  0.91188000000E+02 0.  0.
    9900012    2    3    3    0    0 -0.97182571542E+01 -0.22764618128E+02 -0.32256677041E+02  0.50528861121E+02  0.30000003864E+02 0.  0.
         12    1    3    3    0    0  0.97182571542E+01  0.22764618128E+02  0.32256677041E+02  0.40659138879E+02  0.00000000000E+00 0. -1.
         11    1    4    4    0    0  0.29929800458E+01  0.36399642612E+00 -0.11348839575E+02  0.11742511781E+02  0.51100000000E-03 0. -1.
        -11    1    4    4    0    0 -0.16305536206E+02 -0.10530022748E+02 -0.10597902649E+02  0.22114868999E+02  0.51100000000E-03 0.  1.
        -12    1    4    4    0    0  0.35942990057E+01 -0.12598591806E+02 -0.10309934817E+02  0.16671480342E+02  0.00000000000E+00 0.  1.
</event>
<event>
 8    1  0.6016610E-012  0.9118800E+02  0.7816164E-02  0.1184000E+00
        -11   -1    0    0    0    0  0.00000000000E+00  0.00000000000E+00  0.45593999997E+02  0.45594000000E+02  0.51100000000E-03 0. -1.
         11   -1    0    0    0    0 -0.00000000000E+00 -0.00000000000E+00 -0.45593999997E+02  0.45594000000E+02  0.51100000000E-03 0.  1.
         23    2    1    2    0    0 -0.17763568394E-14 -0.35527136788E-14  0.71054273576E-14  0.91188000000E+02  0.91188000000E+02 0.  0.
    9900012    2    3    3    0    0  0.87096341833E+01  0.19019450293E+02 -0.34865006220E+02  0.50528857414E+02  0.29999992597E+02 0.  0.
         12    1    3    3    0    0 -0.87096341833E+01 -0.19019450293E+02  0.34865006220E+02  0.40659142586E+02  0.00000000000E+00 0. -1.
         11    1    4    4    0    0  0.44519412419E+01  0.36966387507E+01 -0.70124995430E+00  0.58289510749E+01  0.51100000000E-03 0. -1.
        -11    1    4    4    0    0 -0.60315355451E+01  0.16908366252E+02 -0.25329957443E+02  0.31046400993E+02  0.51100000000E-03 0.  1.
        -12    1    4    4    0    0  0.10289228487E+02 -0.15855547097E+01 -0.88337988236E+01  0.13653505346E+02  0.00000000000E+00 0.  1.
</event>
<event>
 8    1  0.6016610E-012  0.9118800E+02  0.7816164E-02  0.1184000E+00
        -11   -1    0    0    0    0  0.00000000000E+00  0.00000000000E+00  0.45593999997E+02  0.45594000000E+02  0.51100000000E-03 0. -1.
         11   -1    0    0    0    0 -0.00000000000E+00 -0.00000000000E+00 -0.45593999997E+02  0.45594000000E+02  0.51100000000E-03 0.  1.
         23    2    1    2    0    0  0.00000000000E+00  0.00000000000E+00  0.00000000000E+00  0.91188000000E+02  0.91188000000E+02 0.  0.
    9900012    2    3    3    0    0 -0.27134473516E+02  0.16480120374E+02 -0.25402596006E+02  0.50528857063E+02  0.29999991528E+02 0.  0.
         12    1    3    3    0    0  0.27134473516E+02 -0.16480120374E+02  0.25402596006E+02  0.40659142937E+02  0.00000000000E+00 0. -1.
         11    1    4    4    0    0 -0.25245792438E+01 -0.62739810772E+01  0.16444527624E+00  0.67648637403E+01  0.51100000000E-03 0. -1.
        -11    1    4    4    0    0 -0.19060821998E+02  0.10789255430E+02 -0.19163604242E+02  0.29102692243E+02  0.51100000000E-03 0.  1.
         12    1    4    4    0    0 -0.55490722737E+01  0.11964846022E+02 -0.64034370409E+01  0.14661301080E+02  0.00000000000E+00 0. -1.
</event>
<event>
 8    1  0.6016610E-012  0.9118800E+02  0.7816164E-02  0.1184000E+00
        -11   -1    0    0    0    0  0.00000000000E+00  0.00000000000E+00  0.45593999997E+02  0.45594000000E+02  0.51100000000E-03 0. -1.
         11   -1    0    0    0    0 -0.00000000000E+00 -0.00000000000E+00 -0.45593999997E+02  0.45594000000E+02  0.51100000000E-03 0.  1.
         23    2    1    2    0    0  0.00000000000E+00  0.35527136788E-14  0.00000000000E+00  0.91188000000E+02  0.91188000000E+02 0.  0.
    9900012    2    3    3    0    0 -0.24139643912E+02 -0.25389170631E+02  0.20635728496E+02  0.50528859773E+02  0.29999999765E+02 0.  0.
        -12    1    3    3    0    0  0.24139643912E+02  0.25389170631E+02 -0.20635728496E+02  0.40659140227E+02  0.00000000000E+00 0.  1.
         11    1    4    4    0    0 -0.17748019894E+02 -0.23448685766E+02  0.17361318164E+02  0.34150379836E+02  0.51100000000E-03 0. -1.
        -11    1    4    4    0    0 -0.94708301902E+01  0.29814979082E+01  0.36050720918E+01  0.10563261774E+02  0.51100000000E-03 0.  1.
        -12    1    4    4    0    0  0.30792061724E+01 -0.49219827733E+01 -0.33066176028E+00  0.58152181621E+01  0.00000000000E+00 0.  1.
</event>
<event>
 8    1  0.6016610E-012  0.9118800E+02  0.7816164E-02  0.1184000E+00
        -11   -1    0    0    0    0  0.00000000000E+00  0.00000000000E+00  0.45593999997E+02  0.45594000000E+02  0.51100000000E-03 0. -1.
         11   -1    0    0    0    0 -0.00000000000E+00 -0.00000000000E+00 -0.45593999997E+02  0.45594000000E+02  0.51100000000E-03 0.  1.
         23    2    1    2    0    0 -0.35527136788E-14 -0.35527136788E-14  0.00000000000E+00  0.91188000000E+02  0.91188000000E+02 0.  0.
    9900012    2    3    3    0    0 -0.29831583682E+02  0.16847687068E+02 -0.21895130372E+02  0.50528872137E+02  0.30000037349E+02 0.  0.
         12    1    3    3    0    0  0.29831583682E+02 -0.16847687068E+02  0.21895130372E+02  0.40659127863E+02  0.00000000000E+00 0. -1.
         11    1    4    4    0    0 -0.28263816932E+01 -0.45810291060E+01 -0.71689431380E+01  0.89648205293E+01  0.51100000000E-03 0. -1.
        -11    1    4    4    0    0 -0.21657077635E+02  0.22587536810E+02 -0.17030174537E+02  0.35626572608E+02  0.51100000000E-03 0.  1.
         12    1    4    4    0    0 -0.53481243547E+01 -0.11588206358E+01  0.23039873029E+01  0.59374789997E+01  0.00000000000E+00 0. -1.
</event>
<event>
 8    1  0.6016610E-012  0.9118800E+02  0.7816164E-02  0.1184000E+00
        -11   -1    0    0    0    0  0.00000000000E+00  0.00000000000E+00  0.45593999997E+02  0.45594000000E+02  0.51100000000E-03 0. -1.
         11   -1    0    0    0    0 -0.00000000000E+00 -0.00000000000E+00 -0.45593999997E+02  0.45594000000E+02  0.51100000000E-03 0.  1.
         23    2    1    2    0    0  0.00000000000E+00  0.00000000000E+00  0.00000000000E+00  0.91188000000E+02  0.91188000000E+02 0.  0.
    9900012    2    3    3    0    0  0.52539270497E+01  0.17576950552E+02  0.36285167902E+02  0.50528851585E+02  0.29999974879E+02 0.  0.
        -12    1    3    3    0    0 -0.52539270497E+01 -0.17576950552E+02 -0.36285167902E+02  0.40659148415E+02  0.00000000000E+00 0.  1.
         11    1    4    4    0    0 -0.10666513061E+01 -0.53289617287E+01  0.42121838357E+01  0.68759051071E+01  0.51100000000E-03 0.  1.
        -11    1    4    4    0    0  0.32868847495E+01  0.21080788652E+02  0.33596558618E+02  0.39798643354E+02  0.51100000000E-03 0. -1.
        -12    1    4    4    0    0  0.30336936063E+01  0.18251236285E+01 -0.15235745527E+01  0.38543031243E+01  0.00000000000E+00 0.  1.
</event>
<event>
 8    1  0.6016610E-012  0.9118800E+02  0.7816164E-02  0.1184000E+00
        -11   -1    0    0    0    0  0.00000000000E+00  0.00000000000E+00  0.45593999997E+02  0.45594000000E+02  0.51100000000E-03 0. -1.
         11   -1    0    0    0    0 -0.00000000000E+00 -0.00000000000E+00 -0.45593999997E+02  0.45594000000E+02  0.51100000000E-03 0.  1.
         23    2    1    2    0    0 -0.35527136788E-14  0.00000000000E+00 -0.17763568394E-14  0.91188000000E+02  0.91188000000E+02 0.  0.
    9900012    2    3    3    0    0  0.19527227730E+02  0.34811159537E+02  0.77483183856E+01  0.50528857253E+02  0.29999992105E+02 0.  0.
        -12    1    3    3    0    0 -0.19527227730E+02 -0.34811159537E+02 -0.77483183856E+01  0.40659142747E+02  0.00000000000E+00 0.  1.
         11    1    4    4    0    0  0.14069077804E+02  0.13292778447E+02 -0.68377214358E+01  0.20527818778E+02  0.51100000000E-03 0.  1.
        -11    1    4    4    0    0  0.42552160119E+01  0.81850407841E+01  0.13788393177E+02  0.16589802368E+02  0.51100000000E-03 0. -1.
         12    1    4    4    0    0  0.12029339140E+01  0.13333340307E+02  0.79764664422E+00  0.13411236106E+02  0.00000000000E+00 0. -1.
</event>
<event>
 8    1  0.6016610E-012  0.9118800E+02  0.7816164E-02  0.1184000E+00
        -11   -1    0    0    0    0  0.00000000000E+00  0.00000000000E+00  0.45593999997E+02  0.45594000000E+02  0.51100000000E-03 0. -1.
         11   -1    0    0    0    0 -0.00000000000E+00 -0.00000000000E+00 -0.45593999997E+02  0.45594000000E+02  0.51100000000E-03 0.  1.
         23    2    1    2    0    0  0.00000000000E+00  0.00000000000E+00  0.00000000000E+00  0.91188000000E+02  0.91188000000E+02 0.  0.
    9900012    2    3    3    0    0  0.15880409189E+02 -0.10785843543E+02 -0.35841909334E+02  0.50528877018E+02  0.30000052185E+02 0.  0.
         12    1    3    3    0    0 -0.15880409189E+02  0.10785843543E+02  0.35841909334E+02  0.40659122982E+02  0.00000000000E+00 0. -1.
         11    1    4    4    0    0  0.32904981936E+00  0.30728529962E+01 -0.11974858998E+02  0.12367212605E+02  0.51100000000E-03 0. -1.
        -11    1    4    4    0    0  0.76777705659E+01 -0.12524844289E+02 -0.26028835498E+02  0.29888462037E+02  0.51100000000E-03 0.  1.
        -12    1    4    4    0    0  0.78735888035E+01 -0.13338522500E+01  0.21617851621E+01  0.82732023762E+01  0.00000000000E+00 0.  1.
</event>
<event>
 8    1  0.6016610E-012  0.9118800E+02  0.7816164E-02  0.1184000E+00
        -11   -1    0    0    0    0  0.00000000000E+00  0.00000000000E+00  0.45593999997E+02  0.45594000000E+02  0.51100000000E-03 0. -1.
         11   -1    0    0    0    0 -0.00000000000E+00 -0.00000000000E+00 -0.45593999997E+02  0.45594000000E+02  0.51100000000E-03 0.  1.
         23    2    1    2    0    0  0.00000000000E+00  0.00000000000E+00  0.00000000000E+00  0.91188000000E+02  0.91188000000E+02 0.  0.
    9900012    2    3    3    0    0 -0.15905094910E+02 -0.65105414530E+01 -0.36848442285E+02  0.50528844906E+02  0.29999954576E+02 0.  0.
         12    1    3    3    0    0  0.15905094910E+02  0.65105414530E+01  0.36848442285E+02  0.40659155094E+02  0.00000000000E+00 0. -1.
         11    1    4    4    0    0 -0.76805651009E+01 -0.16341370957E+01  0.12664354137E+01  0.79539514227E+01  0.51100000000E-03 0. -1.
        -11    1    4    4    0    0 -0.11513756163E+02 -0.15553205449E+01 -0.35196196380E+02  0.37064239407E+02  0.51100000000E-03 0.  1.
         12    1    4    4    0    0  0.32892263544E+01 -0.33210838124E+01 -0.29186813195E+01  0.55106540758E+01  0.00000000000E+00 0. -1.
</event>
<event>
 8    1  0.6016610E-012  0.9118800E+02  0.7816164E-02  0.1184000E+00
        -11   -1    0    0    0    0  0.00000000000E+00  0.00000000000E+00  0.45593999997E+02  0.45594000000E+02  0.51100000000E-03 0. -1.
         11   -1    0    0    0    0 -0.00000000000E+00 -0.00000000000E+00 -0.45593999997E+02  0.45594000000E+02  0.51100000000E-03 0.  1.
         23    2    1    2    0    0  0.00000000000E+00  0.71054273576E-14 -0.35527136788E-14  0.91188000000E+02  0.91188000000E+02 0.  0.
    9900012    2    3    3    0    0  0.12729187045E+02  0.33632279122E+02 -0.18973758573E+02  0.50528856918E+02  0.29999991089E+02 0.  0.
         12    1    3    3    0    0 -0.12729187045E+02 -0.33632279122E+02  0.18973758573E+02  0.40659143082E+02  0.00000000000E+00 0. -1.
         11    1    4    4    0    0  0.87216325454E+01  0.17956473692E+02  0.52701668992E+01  0.20646464131E+02  0.51100000000E-03 0. -1.
        -11    1    4    4    0    0  0.43612929335E+01  0.16212102942E+02 -0.22920914931E+02  0.28411643729E+02  0.51100000000E-03 0.  1.
         12    1    4    4    0    0 -0.35373843374E+00 -0.53629751194E+00 -0.13230105410E+01  0.14707490583E+01  0.00000000000E+00 0. -1.
</event>
<event>
 8    1  0.6016610E-012  0.9118800E+02  0.7816164E-02  0.1184000E+00
        -11   -1    0    0    0    0  0.00000000000E+00  0.00000000000E+00  0.45593999997E+02  0.45594000000E+02  0.51100000000E-03 0. -1.
         11   -1    0    0    0    0 -0.00000000000E+00 -0.00000000000E+00 -0.45593999997E+02  0.45594000000E+02  0.51100000000E-03 0.  1.
         23    2    1    2    0    0  0.00000000000E+00  0.35527136788E-14 -0.17763568394E-14  0.91188000000E+02  0.91188000000E+02 0.  0.
    9900012    2    3    3    0    0 -0.22465826197E+02 -0.31279614586E+02  0.13039886352E+02  0.50528852549E+02  0.29999977807E+02 0.  0.
        -12    1    3    3    0    0  0.22465826197E+02  0.31279614586E+02 -0.13039886352E+02  0.40659147451E+02  0.00000000000E+00 0.  1.
         11    1    4    4    0    0 -0.81975371486E+01 -0.99814935619E+01  0.15805468373E+02  0.20411826468E+02  0.51100000000E-03 0. -1.
        -11    1    4    4    0    0 -0.44612603434E-01 -0.12709965098E+02 -0.43320165433E+01  0.13428014398E+02  0.51100000000E-03 0.  1.
        -12    1    4    4    0    0 -0.14223676445E+02 -0.85881559264E+01  0.15664345230E+01  0.16689011683E+02  0.00000000000E+00 0.  1.
</event>
<event>
 8    1  0.6016610E-012  0.9118800E+02  0.7816164E-02  0.1184000E+00
        -11   -1    0    0    0    0  0.00000000000E+00  0.00000000000E+00  0.45593999997E+02  0.45594000000E+02  0.51100000000E-03 0. -1.
         11   -1    0    0    0    0 -0.00000000000E+00 -0.00000000000E+00 -0.45593999997E+02  0.45594000000E+02  0.51100000000E-03 0.  1.
         23    2    1    2    0    0  0.00000000000E+00  0.17763568394E-14  0.00000000000E+00  0.91188000000E+02  0.91188000000E+02 0.  0.
    9900012    2    3    3    0    0  0.32503055844E+02 -0.76623172205E+01 -0.23194963260E+02  0.50528855087E+02  0.29999985523E+02 0.  0.
         12    1    3    3    0    0 -0.32503055844E+02  0.76623172205E+01  0.23194963260E+02  0.40659144913E+02  0.00000000000E+00 0. -1.
         11    1    4    4    0    0 -0.10897089178E+01 -0.35180076776E+01 -0.15025580322E+01  0.39776279925E+01  0.51100000000E-03 0. -1.
        -11    1    4    4    0    0  0.12086640672E+02  0.97844872397E+01 -0.87969231999E+01  0.17866419096E+02  0.51100000000E-03 0.  1.
        -12    1    4    4    0    0  0.21506124090E+02 -0.13928796783E+02 -0.12895482027E+02  0.28684807998E+02  0.00000000000E+00 0.  1.
</event>
<event>
 8    1  0.6016610E-012  0.9118800E+02  0.7816164E-02  0.1184000E+00
        -11   -1    0    0    0    0  0.00000000000E+00  0.00000000000E+00  0.45593999997E+02  0.45594000000E+02  0.51100000000E-03 0. -1.
         11   -1    0    0    0    0 -0.00000000000E+00 -0.00000000000E+00 -0.45593999997E+02  0.45594000000E+02  0.51100000000E-03 0.  1.
         23    2    1    2    0    0  0.00000000000E+00  0.00000000000E+00  0.00000000000E+00  0.91188000000E+02  0.91188000000E+02 0.  0.
    9900012    2    3    3    0    0 -0.21747263594E+01 -0.21022135399E+02 -0.34734801271E+02  0.50528855508E+02  0.29999986802E+02 0.  0.
         12    1    3    3    0    0  0.21747263594E+01  0.21022135399E+02  0.34734801271E+02  0.40659144492E+02  0.00000000000E+00 0. -1.
         11    1    4    4    0    0  0.21153801497E+01  0.25163768971E+01  0.15356316433E+01  0.36283812742E+01  0.51100000000E-03 0. -1.
        -11    1    4    4    0    0 -0.29650014740E+01 -0.24702216048E+02 -0.24220201771E+02  0.34721879060E+02  0.51100000000E-03 0.  1.
        -12    1    4    4    0    0 -0.13251050351E+01  0.11637037518E+01 -0.12050231144E+02  0.12178595174E+02  0.00000000000E+00 0.  1.
</event>
<event>
 8    1  0.6016610E-012  0.9118800E+02  0.7816164E-02  0.1184000E+00
        -11   -1    0    0    0    0  0.00000000000E+00  0.00000000000E+00  0.45593999997E+02  0.45594000000E+02  0.51100000000E-03 0. -1.
         11   -1    0    0    0    0 -0.00000000000E+00 -0.00000000000E+00 -0.45593999997E+02  0.45594000000E+02  0.51100000000E-03 0.  1.
         23    2    1    2    0    0  0.17763568394E-14  0.17763568394E-14  0.00000000000E+00  0.91188000000E+02  0.91188000000E+02 0.  0.
    9900012    2    3    3    0    0 -0.91452680299E+01 -0.10712355455E+02 -0.38141515503E+02  0.50528859680E+02  0.29999999483E+02 0.  0.
         12    1    3    3    0    0  0.91452680299E+01  0.10712355455E+02  0.38141515503E+02  0.40659140320E+02  0.00000000000E+00 0. -1.
         11    1    4    4    0    0  0.95888316959E+01 -0.47711019451E+01 -0.95822809871E+01  0.14371124390E+02  0.51100000000E-03 0. -1.
        -11    1    4    4    0    0 -0.12266818514E+02 -0.78090090005E+01 -0.23881842588E+02  0.27960648485E+02  0.51100000000E-03 0.  1.
         12    1    4    4    0    0 -0.64672812114E+01  0.18677554907E+01 -0.46773919274E+01  0.81970868046E+01  0.00000000000E+00 0. -1.
</event>
<event>
 8    1  0.6016610E-012  0.9118800E+02  0.7816164E-02  0.1184000E+00
        -11   -1    0    0    0    0  0.00000000000E+00  0.00000000000E+00  0.45593999997E+02  0.45594000000E+02  0.51100000000E-03 0. -1.
         11   -1    0    0    0    0 -0.00000000000E+00 -0.00000000000E+00 -0.45593999997E+02  0.45594000000E+02  0.51100000000E-03 0.  1.
         23    2    1    2    0    0  0.00000000000E+00  0.00000000000E+00  0.00000000000E+00  0.91188000000E+02  0.91188000000E+02 0.  0.
    9900012    2    3    3    0    0  0.28316885284E+02 -0.22029388260E+02 -0.19131788639E+02  0.50528864793E+02  0.30000015024E+02 0.  0.
         12    1    3    3    0    0 -0.28316885284E+02  0.22029388260E+02  0.19131788639E+02  0.40659135207E+02  0.00000000000E+00 0. -1.
         11    1    4    4    0    0 -0.46243911208E+01 -0.53835887786E+01 -0.45316569771E+01  0.84204475293E+01  0.51100000000E-03 0. -1.
        -11    1    4    4    0    0  0.20763303674E+02 -0.16883244147E+02 -0.13225404292E+02  0.29850796159E+02  0.51100000000E-03 0.  1.
         12    1    4    4    0    0  0.12177972731E+02  0.23744466490E+00 -0.13747273696E+01  0.12257621104E+02  0.00000000000E+00 0. -1.
</event>
<event>
 8    1  0.6016610E-012  0.9118800E+02  0.7816164E-02  0.1184000E+00
        -11   -1    0    0    0    0  0.00000000000E+00  0.00000000000E+00  0.45593999997E+02  0.45594000000E+02  0.51100000000E-03 0. -1.
         11   -1    0    0    0    0 -0.00000000000E+00 -0.00000000000E+00 -0.45593999997E+02  0.45594000000E+02  0.51100000000E-03 0.  1.
         23    2    1    2    0    0  0.00000000000E+00  0.88817841970E-15 -0.14210854715E-13  0.91188000000E+02  0.91188000000E+02 0.  0.
    9900012    2    3    3    0    0  0.66419123334E+01  0.58214360592E+01  0.39688313415E+02  0.50528851719E+02  0.29999975285E+02 0.  0.
        -12    1    3    3    0    0 -0.66419123334E+01 -0.58214360592E+01 -0.39688313415E+02  0.40659148281E+02  0.00000000000E+00 0.  1.
         11    1    4    4    0    0  0.40075131169E+01 -0.84388608801E+01  0.68885010176E+01  0.11607152143E+02  0.51100000000E-03 0. -1.
        -11    1    4    4    0    0  0.33856654662E+01  0.11905083465E+02  0.97939195173E+01  0.15783364747E+02  0.51100000000E-03 0.  1.
         12    1    4    4    0    0 -0.75126624967E+00  0.23552134740E+01  0.23005892880E+02  0.23138334829E+02  0.00000000000E+00 0. -1.
</event>
<event>
 8    1  0.6016610E-012  0.9118800E+02  0.7816164E-02  0.1184000E+00
        -11   -1    0    0    0    0  0.00000000000E+00  0.00000000000E+00  0.45593999997E+02  0.45594000000E+02  0.51100000000E-03 0. -1.
         11   -1    0    0    0    0 -0.00000000000E+00 -0.00000000000E+00 -0.45593999997E+02  0.45594000000E+02  0.51100000000E-03 0.  1.
         23    2    1    2    0    0  0.00000000000E+00  0.00000000000E+00 -0.35527136788E-14  0.91188000000E+02  0.91188000000E+02 0.  0.
    9900012    2    3    3    0    0  0.20477295590E+02 -0.19470511156E+02  0.29235960795E+02  0.50528907008E+02  0.30000143341E+02 0.  0.
        -12    1    3    3    0    0 -0.20477295590E+02  0.19470511156E+02 -0.29235960795E+02  0.40659092992E+02  0.00000000000E+00 0.  1.
         11    1    4    4    0    0  0.23957044489E+02 -0.38229303530E+01  0.15025474887E+02  0.28536286952E+02  0.51100000000E-03 0. -1.
        -11    1    4    4    0    0 -0.34901672872E+01 -0.58050420520E+01  0.42887662515E+01  0.80170628749E+01  0.51100000000E-03 0.  1.
         12    1    4    4    0    0  0.10418388496E-01 -0.98425387508E+01  0.99217196557E+01  0.13975557181E+02  0.00000000000E+00 0. -1.
</event>
<event>
 8    1  0.6016610E-012  0.9118800E+02  0.7816164E-02  0.1184000E+00
        -11   -1    0    0    0    0  0.00000000000E+00  0.00000000000E+00  0.45593999997E+02  0.45594000000E+02  0.51100000000E-03 0. -1.
         11   -1    0    0    0    0 -0.00000000000E+00 -0.00000000000E+00 -0.45593999997E+02  0.45594000000E+02  0.51100000000E-03 0.  1.
         23    2    1    2    0    0  0.17763568394E-14  0.00000000000E+00  0.00000000000E+00  0.91188000000E+02  0.91188000000E+02 0.  0.
    9900012    2    3    3    0    0 -0.81702191716E+01 -0.58778576031E+01 -0.39393699125E+02  0.50528865454E+02  0.30000017034E+02 0.  0.
         12    1    3    3    0    0  0.81702191716E+01  0.58778576031E+01  0.39393699125E+02  0.40659134546E+02  0.00000000000E+00 0. -1.
         11    1    4    4    0    0 -0.48505270533E+01 -0.25055419179E+01 -0.17771794031E+01  0.57414039998E+01  0.51100000000E-03 0. -1.
        -11    1    4    4    0    0 -0.26215849968E+01 -0.11262616244E+02 -0.34305778066E+02  0.36202287794E+02  0.51100000000E-03 0.  1.
        -12    1    4    4    0    0 -0.69810712157E+00  0.78903005590E+01 -0.33107416560E+01  0.85851736603E+01  0.00000000000E+00 0.  1.
</event>
<event>
 8    1  0.6016610E-012  0.9118800E+02  0.7816164E-02  0.1184000E+00
        -11   -1    0    0    0    0  0.00000000000E+00  0.00000000000E+00  0.45593999997E+02  0.45594000000E+02  0.51100000000E-03 0. -1.
         11   -1    0    0    0    0 -0.00000000000E+00 -0.00000000000E+00 -0.45593999997E+02  0.45594000000E+02  0.51100000000E-03 0.  1.
         23    2    1    2    0    0  0.00000000000E+00  0.00000000000E+00  0.00000000000E+00  0.91188000000E+02  0.91188000000E+02 0.  0.
    9900012    2    3    3    0    0  0.24552147590E+01 -0.87096831329E+01  0.39639371761E+02  0.50528850312E+02  0.29999971008E+02 0.  0.
        -12    1    3    3    0    0 -0.24552147590E+01  0.87096831329E+01 -0.39639371761E+02  0.40659149688E+02  0.00000000000E+00 0.  1.
         11    1    4    4    0    0  0.63039391422E+01  0.81426050912E+01  0.65000218041E+01  0.12177518224E+02  0.51100000000E-03 0. -1.
        -11    1    4    4    0    0 -0.65471641300E+01 -0.12114838984E+02  0.22105007025E+02  0.26043540804E+02  0.51100000000E-03 0.  1.
        -12    1    4    4    0    0  0.26984397467E+01 -0.47374492402E+01  0.11034342931E+02  0.12307791284E+02  0.00000000000E+00 0.  1.
</event>
<event>
 8    1  0.6016610E-012  0.9118800E+02  0.7816164E-02  0.1184000E+00
        -11   -1    0    0    0    0  0.00000000000E+00  0.00000000000E+00  0.45593999997E+02  0.45594000000E+02  0.51100000000E-03 0. -1.
         11   -1    0    0    0    0 -0.00000000000E+00 -0.00000000000E+00 -0.45593999997E+02  0.45594000000E+02  0.51100000000E-03 0.  1.
         23    2    1    2    0    0  0.00000000000E+00 -0.17763568394E-14  0.00000000000E+00  0.91188000000E+02  0.91188000000E+02 0.  0.
    9900012    2    3    3    0    0 -0.11585963930E+02  0.11888077467E+02 -0.37116096780E+02  0.50528860976E+02  0.30000003422E+02 0.  0.
         12    1    3    3    0    0  0.11585963930E+02 -0.11888077467E+02  0.37116096780E+02  0.40659139024E+02  0.00000000000E+00 0. -1.
         11    1    4    4    0    0 -0.15791685372E+02  0.69704491038E+01 -0.89948630480E+01  0.19464635859E+02  0.51100000000E-03 0. -1.
        -11    1    4    4    0    0  0.71885740960E+01  0.56589711578E+01 -0.14851973407E+02  0.17443642580E+02  0.51100000000E-03 0.  1.
        -12    1    4    4    0    0 -0.29828526535E+01 -0.74134279478E+00 -0.13269260324E+02  0.13620582537E+02  0.00000000000E+00 0.  1.
</event>
<event>
 8    1  0.6016610E-012  0.9118800E+02  0.7816164E-02  0.1184000E+00
        -11   -1    0    0    0    0  0.00000000000E+00  0.00000000000E+00  0.45593999997E+02  0.45594000000E+02  0.51100000000E-03 0.  1.
         11   -1    0    0    0    0 -0.00000000000E+00 -0.00000000000E+00 -0.45593999997E+02  0.45594000000E+02  0.51100000000E-03 0. -1.
         23    2    1    2    0    0  0.00000000000E+00  0.00000000000E+00  0.00000000000E+00  0.91188000000E+02  0.91188000000E+02 0.  0.
    9900012    2    3    3    0    0  0.16185240994E+02  0.34619672159E+02 -0.13881004538E+02  0.50528855722E+02  0.29999987452E+02 0.  0.
        -12    1    3    3    0    0 -0.16185240994E+02 -0.34619672159E+02  0.13881004538E+02  0.40659144278E+02  0.00000000000E+00 0.  1.
         11    1    4    4    0    0  0.21117255660E+02  0.20425418826E+02 -0.78936353717E+01  0.30421139039E+02  0.51100000000E-03 0. -1.
        -11    1    4    4    0    0 -0.10676113115E+01 -0.14837903009E+00 -0.51157306384E+01  0.52280503512E+01  0.51100000000E-03 0.  1.
         12    1    4    4    0    0 -0.38644033547E+01  0.14342632364E+02 -0.87163852781E+00  0.14879666332E+02  0.00000000000E+00 0. -1.
</event>
<event>
 8    1  0.6016610E-012  0.9118800E+02  0.7816164E-02  0.1184000E+00
        -11   -1    0    0    0    0  0.00000000000E+00  0.00000000000E+00  0.45593999997E+02  0.45594000000E+02  0.51100000000E-03 0. -1.
         11   -1    0    0    0    0 -0.00000000000E+00 -0.00000000000E+00 -0.45593999997E+02  0.45594000000E+02  0.51100000000E-03 0.  1.
         23    2    1    2    0    0 -0.22204460493E-15  0.17763568394E-14  0.00000000000E+00  0.91188000000E+02  0.91188000000E+02 0.  0.
    9900012    2    3    3    0    0 -0.52914238735E+00  0.10484411263E+02  0.39280656586E+02  0.50528771613E+02  0.29999731794E+02 0.  0.
        -12    1    3    3    0    0  0.52914238735E+00 -0.10484411263E+02 -0.39280656586E+02  0.40659228387E+02  0.00000000000E+00 0.  1.
         11    1    4    4    0    0  0.27854885008E+01 -0.93761595585E+01  0.14224565195E+02  0.17262953673E+02  0.51100000000E-03 0.  1.
        -11    1    4    4    0    0 -0.38443352075E+01  0.13212848692E+02  0.10682400217E+02  0.17420446562E+02  0.51100000000E-03 0. -1.
         12    1    4    4    0    0  0.52970431939E+00  0.66477221287E+01  0.14373691174E+02  0.15845371379E+02  0.00000000000E+00 0. -1.
</event>
<event>
 8    1  0.6016610E-012  0.9118800E+02  0.7816164E-02  0.1184000E+00
        -11   -1    0    0    0    0  0.00000000000E+00  0.00000000000E+00  0.45593999997E+02  0.45594000000E+02  0.51100000000E-03 0. -1.
         11   -1    0    0    0    0 -0.00000000000E+00 -0.00000000000E+00 -0.45593999997E+02  0.45594000000E+02  0.51100000000E-03 0.  1.
         23    2    1    2    0    0  0.00000000000E+00  0.00000000000E+00  0.35527136788E-14  0.91188000000E+02  0.91188000000E+02 0.  0.
    9900012    2    3    3    0    0 -0.25527413554E+02 -0.84167220559E+01 -0.30506990533E+02  0.50528849440E+02  0.29999968356E+02 0.  0.
         12    1    3    3    0    0  0.25527413554E+02  0.84167220559E+01  0.30506990533E+02  0.40659150560E+02  0.00000000000E+00 0. -1.
         11    1    4    4    0    0 -0.63790811717E+01 -0.77663236507E+01 -0.58555732875E+01  0.11631689406E+02  0.51100000000E-03 0. -1.
        -11    1    4    4    0    0 -0.68434790046E+01  0.61731937157E+01  0.13677440235E+01  0.93173091348E+01  0.51100000000E-03 0.  1.
        -12    1    4    4    0    0 -0.12304853377E+02 -0.68235921209E+01 -0.26019161269E+02  0.29579850899E+02  0.00000000000E+00 0.  1.
</event>
<event>
 8    1  0.6016610E-012  0.9118800E+02  0.7816164E-02  0.1184000E+00
        -11   -1    0    0    0    0  0.00000000000E+00  0.00000000000E+00  0.45593999997E+02  0.45594000000E+02  0.51100000000E-03 0. -1.
         11   -1    0    0    0    0 -0.00000000000E+00 -0.00000000000E+00 -0.45593999997E+02  0.45594000000E+02  0.51100000000E-03 0.  1.
         23    2    1    2    0    0 -0.17763568394E-14  0.00000000000E+00  0.71054273576E-14  0.91188000000E+02  0.91188000000E+02 0.  0.
    9900012    2    3    3    0    0  0.89092141458E+01 -0.43451687904E+01 -0.39432359416E+02  0.50528861327E+02  0.30000004490E+02 0.  0.
         12    1    3    3    0    0 -0.89092141458E+01  0.43451687904E+01  0.39432359416E+02  0.40659138673E+02  0.00000000000E+00 0. -1.
         11    1    4    4    0    0 -0.42450158215E+01 -0.88557318816E+01 -0.43555904614E+01  0.10743152005E+02  0.51100000000E-03 0. -1.
        -11    1    4    4    0    0  0.92110885407E+01 -0.11657132551E+01 -0.29432997887E+02  0.30862670078E+02  0.51100000000E-03 0.  1.
        -12    1    4    4    0    0  0.39431414266E+01  0.56762763463E+01 -0.56437710677E+01  0.89230392431E+01  0.00000000000E+00 0.  1.
</event>
<event>
 8    1  0.6016610E-012  0.9118800E+02  0.7816164E-02  0.1184000E+00
        -11   -1    0    0    0    0  0.00000000000E+00  0.00000000000E+00  0.45593999997E+02  0.45594000000E+02  0.51100000000E-03 0. -1.
         11   -1    0    0    0    0 -0.00000000000E+00 -0.00000000000E+00 -0.45593999997E+02  0.45594000000E+02  0.51100000000E-03 0.  1.
         23    2    1    2    0    0  0.00000000000E+00  0.00000000000E+00  0.00000000000E+00  0.91188000000E+02  0.91188000000E+02 0.  0.
    9900012    2    3    3    0    0  0.14051006056E+02 -0.17312922728E+02  0.33999968402E+02  0.50528856921E+02  0.29999991098E+02 0.  0.
        -12    1    3    3    0    0 -0.14051006056E+02  0.17312922728E+02 -0.33999968402E+02  0.40659143079E+02  0.00000000000E+00 0.  1.
         11    1    4    4    0    0 -0.51364325178E+01 -0.33598563356E+01  0.11849707377E+02  0.13344929329E+02  0.51100000000E-03 0. -1.
        -11    1    4    4    0    0  0.25846329783E+01 -0.66399934929E+01 -0.15946668547E+01  0.73015617409E+01  0.51100000000E-03 0.  1.
         12    1    4    4    0    0  0.16602805596E+02 -0.73130728992E+01  0.23744927880E+02  0.29882365852E+02  0.00000000000E+00 0. -1.
</event>
<event>
 8    1  0.6016610E-012  0.9118800E+02  0.7816164E-02  0.1184000E+00
        -11   -1    0    0    0    0  0.00000000000E+00  0.00000000000E+00  0.45593999997E+02  0.45594000000E+02  0.51100000000E-03 0. -1.
         11   -1    0    0    0    0 -0.00000000000E+00 -0.00000000000E+00 -0.45593999997E+02  0.45594000000E+02  0.51100000000E-03 0.  1.
         23    2    1    2    0    0  0.88817841970E-15 -0.17763568394E-14  0.71054273576E-14  0.91188000000E+02  0.91188000000E+02 0.  0.
    9900012    2    3    3    0    0 -0.63469838365E+01  0.95253696268E+01 -0.39014739878E+02  0.50528846072E+02  0.29999958121E+02 0.  0.
         12    1    3    3    0    0  0.63469838365E+01 -0.95253696268E+01  0.39014739878E+02  0.40659153928E+02  0.00000000000E+00 0. -1.
         11    1    4    4    0    0 -0.17907800858E+01  0.17460974141E+02 -0.10739171493E+02  0.20577228090E+02  0.51100000000E-03 0. -1.
        -11    1    4    4    0    0 -0.70171749535E+00 -0.20901853210E+01 -0.12486339143E+02  0.12679508964E+02  0.51100000000E-03 0.  1.
         12    1    4    4    0    0 -0.38544862554E+01 -0.58454191933E+01 -0.15789229243E+02  0.17272109018E+02  0.00000000000E+00 0. -1.
</event>
<event>
 8    1  0.6016610E-012  0.9118800E+02  0.7816164E-02  0.1184000E+00
        -11   -1    0    0    0    0  0.00000000000E+00  0.00000000000E+00  0.45593999997E+02  0.45594000000E+02  0.51100000000E-03 0. -1.
         11   -1    0    0    0    0 -0.00000000000E+00 -0.00000000000E+00 -0.45593999997E+02  0.45594000000E+02  0.51100000000E-03 0.  1.
         23    2    1    2    0    0  0.00000000000E+00  0.00000000000E+00  0.71054273576E-14  0.91188000000E+02  0.91188000000E+02 0.  0.
    9900012    2    3    3    0    0  0.16430839438E+02  0.81254223372E+01 -0.36292839388E+02  0.50528866172E+02  0.30000019217E+02 0.  0.
         12    1    3    3    0    0 -0.16430839438E+02 -0.81254223372E+01  0.36292839388E+02  0.40659133828E+02  0.00000000000E+00 0. -1.
         11    1    4    4    0    0  0.90997005947E+01  0.44237931378E+01  0.14650147425E+01  0.10223539754E+02  0.51100000000E-03 0. -1.
        -11    1    4    4    0    0 -0.26578900412E+01  0.21564250435E+01 -0.52918335414E+01  0.63022258711E+01  0.51100000000E-03 0.  1.
         12    1    4    4    0    0  0.99890288843E+01  0.15452041559E+01 -0.32466020589E+02  0.34003100547E+02  0.00000000000E+00 0. -1.
</event>
<event>
 8    1  0.6016610E-012  0.9118800E+02  0.7816164E-02  0.1184000E+00
        -11   -1    0    0    0    0  0.00000000000E+00  0.00000000000E+00  0.45593999997E+02  0.45594000000E+02  0.51100000000E-03 0. -1.
         11   -1    0    0    0    0 -0.00000000000E+00 -0.00000000000E+00 -0.45593999997E+02  0.45594000000E+02  0.51100000000E-03 0.  1.
         23    2    1    2    0    0  0.00000000000E+00  0.00000000000E+00  0.00000000000E+00  0.91188000000E+02  0.91188000000E+02 0.  0.
    9900012    2    3    3    0    0  0.32811038896E+02  0.36495069201E+01 -0.23733491028E+02  0.50528907898E+02  0.30000146046E+02 0.  0.
         12    1    3    3    0    0 -0.32811038896E+02 -0.36495069201E+01  0.23733491028E+02  0.40659092102E+02  0.00000000000E+00 0. -1.
         11    1    4    4    0    0  0.68586752818E+00 -0.40345034967E+01 -0.51140328729E+00  0.41242170548E+01  0.51100000000E-03 0. -1.
        -11    1    4    4    0    0  0.10369656190E+02  0.11460605304E+02 -0.17980521923E+02  0.23710217467E+02  0.51100000000E-03 0.  1.
        -12    1    4    4    0    0  0.21755515178E+02 -0.37765948869E+01 -0.52415658176E+01  0.22694473376E+02  0.00000000000E+00 0.  1.
</event>
<event>
 8    1  0.6016610E-012  0.9118800E+02  0.7816164E-02  0.1184000E+00
        -11   -1    0    0    0    0  0.00000000000E+00  0.00000000000E+00  0.45593999997E+02  0.45594000000E+02  0.51100000000E-03 0. -1.
         11   -1    0    0    0    0 -0.00000000000E+00 -0.00000000000E+00 -0.45593999997E+02  0.45594000000E+02  0.51100000000E-03 0.  1.
         23    2    1    2    0    0  0.00000000000E+00  0.88817841970E-15  0.00000000000E+00  0.91188000000E+02  0.91188000000E+02 0.  0.
    9900012    2    3    3    0    0  0.13047887539E+02  0.62974995243E+01  0.37990258640E+02  0.50528860547E+02  0.30000002119E+02 0.  0.
        -12    1    3    3    0    0 -0.13047887539E+02 -0.62974995243E+01 -0.37990258640E+02  0.40659139453E+02  0.00000000000E+00 0.  1.
         11    1    4    4    0    0  0.15909784805E+02  0.12392830252E+02  0.38579151839E+02  0.43532223135E+02  0.51100000000E-03 0. -1.
        -11    1    4    4    0    0 -0.11114732038E+01 -0.75323900122E+00 -0.24276194194E+00  0.13644322252E+01  0.51100000000E-03 0.  1.
         12    1    4    4    0    0 -0.17504240628E+01 -0.53420917269E+01 -0.34613125692E+00  0.56322051867E+01  0.00000000000E+00 0. -1.
</event>
<event>
 8    1  0.1123364E-011  0.9118800E+02  0.7816164E-02  0.1184000E+00
        -11   -1    0    0    0    0  0.00000000000E+00  0.00000000000E+00  0.45593999997E+02  0.45594000000E+02  0.51100000000E-03 0. -1.
         11   -1    0    0    0    0 -0.00000000000E+00 -0.00000000000E+00 -0.45593999997E+02  0.45594000000E+02  0.51100000000E-03 0.  1.
         23    2    1    2    0    0  0.35527136788E-14 -0.17763568394E-14  0.00000000000E+00  0.91188000000E+02  0.91188000000E+02 0.  0.
    9900012    2    3    3    0    0 -0.25933203298E+02  0.72785739506E+01  0.30457496183E+02  0.50528834418E+02  0.29999922698E+02 0.  0.
        -12    1    3    3    0    0  0.25933203298E+02 -0.72785739506E+01 -0.30457496183E+02  0.40659165582E+02  0.00000000000E+00 0.  1.
         11    1    4    4    0    0 -0.16448497165E+02  0.44656269559E+01  0.16795755344E+02  0.23928900537E+02  0.51100000000E-03 0. -1.
        -11    1    4    4    0    0 -0.66005423808E+01 -0.74320781884E+01  0.89732222706E+00  0.99803874354E+01  0.51100000000E-03 0.  1.
        -12    1    4    4    0    0 -0.28841637525E+01  0.10245025183E+02  0.12764418612E+02  0.16619546446E+02  0.00000000000E+00 0.  1.
</event>
<event>
 8    1  0.6358106E-012  0.9118800E+02  0.7816164E-02  0.1184000E+00
        -11   -1    0    0    0    0  0.00000000000E+00  0.00000000000E+00  0.45593999997E+02  0.45594000000E+02  0.51100000000E-03 0. -1.
         11   -1    0    0    0    0 -0.00000000000E+00 -0.00000000000E+00 -0.45593999997E+02  0.45594000000E+02  0.51100000000E-03 0.  1.
         23    2    1    2    0    0  0.00000000000E+00  0.35527136788E-14 -0.17763568394E-14  0.91188000000E+02  0.91188000000E+02 0.  0.
    9900012    2    3    3    0    0  0.27984418056E+02 -0.25994232708E+02  0.13940640642E+02  0.50528815926E+02  0.29999866490E+02 0.  0.
        -12    1    3    3    0    0 -0.27984418056E+02  0.25994232708E+02 -0.13940640642E+02  0.40659184074E+02  0.00000000000E+00 0.  1.
         11    1    4    4    0    0  0.12862445798E+02 -0.21873814684E+01  0.12673737619E+02  0.18189303866E+02  0.51100000000E-03 0. -1.
        -11    1    4    4    0    0 -0.59744882690E+00 -0.97891192479E+01 -0.40601346380E+01  0.10614541643E+02  0.51100000000E-03 0.  1.
        -12    1    4    4    0    0  0.15719421084E+02 -0.14017731992E+02  0.53270376607E+01  0.21724970418E+02  0.00000000000E+00 0.  1.
</event>
<event>
 8    1  0.6016610E-012  0.9118800E+02  0.7816164E-02  0.1184000E+00
        -11   -1    0    0    0    0  0.00000000000E+00  0.00000000000E+00  0.45593999997E+02  0.45594000000E+02  0.51100000000E-03 0. -1.
         11   -1    0    0    0    0 -0.00000000000E+00 -0.00000000000E+00 -0.45593999997E+02  0.45594000000E+02  0.51100000000E-03 0.  1.
         23    2    1    2    0    0 -0.17763568394E-14  0.00000000000E+00  0.71054273576E-14  0.91188000000E+02  0.91188000000E+02 0.  0.
    9900012    2    3    3    0    0  0.14041870173E+02 -0.11277467487E+02 -0.36452844684E+02  0.50528864785E+02  0.30000015000E+02 0.  0.
         12    1    3    3    0    0 -0.14041870173E+02  0.11277467487E+02  0.36452844684E+02  0.40659135215E+02  0.00000000000E+00 0. -1.
         11    1    4    4    0    0  0.29229439524E+01  0.41310091703E+00 -0.20305087672E+02  0.20518548666E+02  0.51100000000E-03 0. -1.
        -11    1    4    4    0    0  0.13017019445E+02 -0.14732928953E+02 -0.82193309577E+01  0.21308669419E+02  0.51100000000E-03 0.  1.
        -12    1    4    4    0    0 -0.18980932243E+01  0.30423605487E+01 -0.79284260543E+01  0.87016467002E+01  0.00000000000E+00 0.  1.
</event>
<event>
 8    1  0.6189880E-012  0.9118800E+02  0.7816164E-02  0.1184000E+00
        -11   -1    0    0    0    0  0.00000000000E+00  0.00000000000E+00  0.45593999997E+02  0.45594000000E+02  0.51100000000E-03 0. -1.
         11   -1    0    0    0    0 -0.00000000000E+00 -0.00000000000E+00 -0.45593999997E+02  0.45594000000E+02  0.51100000000E-03 0.  1.
         23    2    1    2    0    0 -0.88817841970E-15 -0.17763568394E-14  0.71054273576E-14  0.91188000000E+02  0.91188000000E+02 0.  0.
    9900012    2    3    3    0    0 -0.54273043988E+01  0.12560457772E+02  0.38287715022E+02  0.50528808492E+02  0.29999843892E+02 0.  0.
        -12    1    3    3    0    0  0.54273043988E+01 -0.12560457772E+02 -0.38287715022E+02  0.40659191508E+02  0.00000000000E+00 0.  1.
         11    1    4    4    0    0 -0.12495454846E+02 -0.93391469392E-01  0.23536393490E+02  0.26647831667E+02  0.51100000000E-03 0. -1.
        -11    1    4    4    0    0  0.65678714713E+01  0.89576379315E+00  0.77054005432E+01  0.10164276965E+02  0.51100000000E-03 0.  1.
         12    1    4    4    0    0  0.50027897609E+00  0.11758085448E+02  0.70459209886E+01  0.13716699860E+02  0.00000000000E+00 0. -1.
</event>
<event>
 8    1  0.6016610E-012  0.9118800E+02  0.7816164E-02  0.1184000E+00
        -11   -1    0    0    0    0  0.00000000000E+00  0.00000000000E+00  0.45593999997E+02  0.45594000000E+02  0.51100000000E-03 0. -1.
         11   -1    0    0    0    0 -0.00000000000E+00 -0.00000000000E+00 -0.45593999997E+02  0.45594000000E+02  0.51100000000E-03 0.  1.
         23    2    1    2    0    0  0.00000000000E+00  0.00000000000E+00 -0.35527136788E-14  0.91188000000E+02  0.91188000000E+02 0.  0.
    9900012    2    3    3    0    0 -0.85811539419E+01 -0.33416650559E+02 -0.21514063162E+02  0.50528884770E+02  0.30000075746E+02 0.  0.
         12    1    3    3    0    0  0.85811539419E+01  0.33416650559E+02  0.21514063162E+02  0.40659115230E+02  0.00000000000E+00 0. -1.
         11    1    4    4    0    0  0.23085312212E+01 -0.25386070916E+02 -0.14973716733E+02  0.29563391314E+02  0.51100000000E-03 0. -1.
        -11    1    4    4    0    0 -0.13031006617E+02 -0.55131041555E+01 -0.90671904943E+01  0.16805219267E+02  0.51100000000E-03 0.  1.
         12    1    4    4    0    0  0.21413214536E+01 -0.25174754876E+01  0.25268440646E+01  0.41602741887E+01  0.00000000000E+00 0. -1.
</event>
<event>
 8    1  0.6016610E-012  0.9118800E+02  0.7816164E-02  0.1184000E+00
        -11   -1    0    0    0    0  0.00000000000E+00  0.00000000000E+00  0.45593999997E+02  0.45594000000E+02  0.51100000000E-03 0. -1.
         11   -1    0    0    0    0 -0.00000000000E+00 -0.00000000000E+00 -0.45593999997E+02  0.45594000000E+02  0.51100000000E-03 0.  1.
         23    2    1    2    0    0  0.00000000000E+00  0.00000000000E+00  0.17763568394E-14  0.91188000000E+02  0.91188000000E+02 0.  0.
    9900012    2    3    3    0    0 -0.32044078890E+01 -0.38730904300E+02  0.11950502525E+02  0.50528859719E+02  0.29999999603E+02 0.  0.
        -12    1    3    3    0    0  0.32044078890E+01  0.38730904300E+02 -0.11950502525E+02  0.40659140281E+02  0.00000000000E+00 0.  1.
         11    1    4    4    0    0  0.10477434440E+02 -0.71303059909E+01  0.62669694247E+01  0.14138345094E+02  0.51100000000E-03 0. -1.
        -11    1    4    4    0    0 -0.83005358285E+01 -0.28068517337E+02  0.62457413944E+01  0.29929080279E+02  0.51100000000E-03 0.  1.
         12    1    4    4    0    0 -0.53813065005E+01 -0.35320809718E+01 -0.56220829442E+00  0.64614343462E+01  0.00000000000E+00 0. -1.
</event>
<event>
 8    1  0.6016610E-012  0.9118800E+02  0.7816164E-02  0.1184000E+00
        -11   -1    0    0    0    0  0.00000000000E+00  0.00000000000E+00  0.45593999997E+02  0.45594000000E+02  0.51100000000E-03 0.  1.
         11   -1    0    0    0    0 -0.00000000000E+00 -0.00000000000E+00 -0.45593999997E+02  0.45594000000E+02  0.51100000000E-03 0. -1.
         23    2    1    2    0    0  0.00000000000E+00  0.00000000000E+00 -0.88817841970E-15  0.91188000000E+02  0.91188000000E+02 0.  0.
    9900012    2    3    3    0    0  0.11585856954E+02  0.38596473571E+02  0.54080051342E+01  0.50528851300E+02  0.29999974010E+02 0.  0.
        -12    1    3    3    0    0 -0.11585856954E+02 -0.38596473571E+02 -0.54080051342E+01  0.40659148700E+02  0.00000000000E+00 0.  1.
         11    1    4    4    0    0  0.77264708782E+01  0.34721911967E+02  0.97810698680E+01  0.36891446853E+02  0.51100000000E-03 0. -1.
        -11    1    4    4    0    0  0.56750606926E+01  0.19096221160E+01  0.23261696848E+01  0.64237089095E+01  0.51100000000E-03 0.  1.
         12    1    4    4    0    0 -0.18156746167E+01  0.19649394883E+01 -0.66992344185E+01  0.72136955370E+01  0.00000000000E+00 0. -1.
</event>
<event>
 8    1  0.6016610E-012  0.9118800E+02  0.7816164E-02  0.1184000E+00
        -11   -1    0    0    0    0  0.00000000000E+00  0.00000000000E+00  0.45593999997E+02  0.45594000000E+02  0.51100000000E-03 0.  1.
         11   -1    0    0    0    0 -0.00000000000E+00 -0.00000000000E+00 -0.45593999997E+02  0.45594000000E+02  0.51100000000E-03 0. -1.
         23    2    1    2    0    0  0.00000000000E+00  0.35527136788E-14  0.88817841970E-15  0.91188000000E+02  0.91188000000E+02 0.  0.
    9900012    2    3    3    0    0  0.35540220466E+02 -0.18059735030E+02 -0.79940078418E+01  0.50528862509E+02  0.30000008083E+02 0.  0.
         12    1    3    3    0    0 -0.35540220466E+02  0.18059735030E+02  0.79940078418E+01  0.40659137491E+02  0.00000000000E+00 0. -1.
         11    1    4    4    0    0 -0.36481542197E+01 -0.77289920141E+01 -0.36898400776E+01  0.93092033399E+01  0.51100000000E-03 0. -1.
        -11    1    4    4    0    0  0.23917369542E+02 -0.39504118836E+01 -0.45640556994E+01  0.24667325038E+02  0.51100000000E-03 0.  1.
         12    1    4    4    0    0  0.15271005143E+02 -0.63803311326E+01  0.25988793516E+00  0.16552334131E+02  0.00000000000E+00 0. -1.
</event>
<event>
 8    1  0.6016610E-012  0.9118800E+02  0.7816164E-02  0.1184000E+00
        -11   -1    0    0    0    0  0.00000000000E+00  0.00000000000E+00  0.45593999997E+02  0.45594000000E+02  0.51100000000E-03 0. -1.
         11   -1    0    0    0    0 -0.00000000000E+00 -0.00000000000E+00 -0.45593999997E+02  0.45594000000E+02  0.51100000000E-03 0.  1.
         23    2    1    2    0    0 -0.71054273576E-14 -0.66613381478E-15  0.00000000000E+00  0.91188000000E+02  0.91188000000E+02 0.  0.
    9900012    2    3    3    0    0  0.39762843872E+02 -0.34466150824E+00  0.84830916495E+01  0.50528863410E+02  0.30000010820E+02 0.  0.
        -12    1    3    3    0    0 -0.39762843872E+02  0.34466150824E+00 -0.84830916495E+01  0.40659136590E+02  0.00000000000E+00 0.  1.
         11    1    4    4    0    0  0.40344104820E+02  0.68150131443E+01  0.46900366291E+01  0.41183584615E+02  0.51100000000E-03 0. -1.
        -11    1    4    4    0    0  0.10852858007E+01 -0.64078701236E+01  0.37769889256E+01  0.75169335767E+01  0.51100000000E-03 0.  1.
         12    1    4    4    0    0 -0.16665467491E+01 -0.75180452891E+00  0.16066094791E-01  0.18283452180E+01  0.00000000000E+00 0. -1.
</event>
<event>
 8    1  0.6016610E-012  0.9118800E+02  0.7816164E-02  0.1184000E+00
        -11   -1    0    0    0    0  0.00000000000E+00  0.00000000000E+00  0.45593999997E+02  0.45594000000E+02  0.51100000000E-03 0. -1.
         11   -1    0    0    0    0 -0.00000000000E+00 -0.00000000000E+00 -0.45593999997E+02  0.45594000000E+02  0.51100000000E-03 0.  1.
         23    2    1    2    0    0  0.17763568394E-14 -0.35527136788E-14  0.00000000000E+00  0.91188000000E+02  0.91188000000E+02 0.  0.
    9900012    2    3    3    0    0 -0.10868492928E+02  0.16551195515E+02 -0.35511956637E+02  0.50528864794E+02  0.30000015028E+02 0.  0.
         12    1    3    3    0    0  0.10868492928E+02 -0.16551195515E+02  0.35511956637E+02  0.40659135206E+02  0.00000000000E+00 0. -1.
         11    1    4    4    0    0  0.42238417594E+01 -0.31112226452E+01 -0.10228765553E+01  0.53447939403E+01  0.51100000000E-03 0. -1.
        -11    1    4    4    0    0 -0.13526780577E+02  0.56955546875E+01 -0.21598528064E+02  0.26113397917E+02  0.51100000000E-03 0.  1.
        -12    1    4    4    0    0 -0.15655541106E+01  0.13966863473E+02 -0.12890552017E+02  0.19070672936E+02  0.00000000000E+00 0.  1.
</event>
<event>
 8    1  0.6016610E-012  0.9118800E+02  0.7816164E-02  0.1184000E+00
        -11   -1    0    0    0    0  0.00000000000E+00  0.00000000000E+00  0.45593999997E+02  0.45594000000E+02  0.51100000000E-03 0. -1.
         11   -1    0    0    0    0 -0.00000000000E+00 -0.00000000000E+00 -0.45593999997E+02  0.45594000000E+02  0.51100000000E-03 0.  1.
         23    2    1    2    0    0 -0.35527136788E-14  0.00000000000E+00  0.00000000000E+00  0.91188000000E+02  0.91188000000E+02 0.  0.
    9900012    2    3    3    0    0  0.31593332954E+02 -0.22953076734E+02  0.11321785489E+02  0.50528865167E+02  0.30000016161E+02 0.  0.
        -12    1    3    3    0    0 -0.31593332954E+02  0.22953076734E+02 -0.11321785489E+02  0.40659134833E+02  0.00000000000E+00 0.  1.
         11    1    4    4    0    0 -0.26499172544E+01 -0.12693942649E+02 -0.11243843378E+00  0.12968071718E+02  0.51100000000E-03 0.  1.
        -11    1    4    4    0    0  0.19227341498E+02 -0.50326815850E+01  0.66149111948E+01  0.20946971031E+02  0.51100000000E-03 0. -1.
        -12    1    4    4    0    0  0.15015908711E+02 -0.52264525004E+01  0.48193127279E+01  0.16613822418E+02  0.00000000000E+00 0.  1.
</event>
<event>
 8    1  0.6016610E-012  0.9118800E+02  0.7816164E-02  0.1184000E+00
        -11   -1    0    0    0    0  0.00000000000E+00  0.00000000000E+00  0.45593999997E+02  0.45594000000E+02  0.51100000000E-03 0. -1.
         11   -1    0    0    0    0 -0.00000000000E+00 -0.00000000000E+00 -0.45593999997E+02  0.45594000000E+02  0.51100000000E-03 0.  1.
         23    2    1    2    0    0  0.00000000000E+00  0.00000000000E+00  0.00000000000E+00  0.91188000000E+02  0.91188000000E+02 0.  0.
    9900012    2    3    3    0    0 -0.18084847787E+02 -0.26450420190E+02 -0.25029465357E+02  0.50528922493E+02  0.30000190408E+02 0.  0.
         12    1    3    3    0    0  0.18084847787E+02  0.26450420190E+02  0.25029465357E+02  0.40659077507E+02  0.00000000000E+00 0. -1.
         11    1    4    4    0    0 -0.23622036175E+02 -0.12002930068E+02 -0.16943715557E+02  0.31450920820E+02  0.51100000000E-03 0. -1.
        -11    1    4    4    0    0 -0.63172314206E+00 -0.51710645387E+01 -0.56294818730E+01  0.76700749025E+01  0.51100000000E-03 0.  1.
         12    1    4    4    0    0  0.61689115304E+01 -0.92764255826E+01 -0.24562679273E+01  0.11407926770E+02  0.00000000000E+00 0. -1.
</event>
<event>
 8    1  0.6016610E-012  0.9118800E+02  0.7816164E-02  0.1184000E+00
        -11   -1    0    0    0    0  0.00000000000E+00  0.00000000000E+00  0.45593999997E+02  0.45594000000E+02  0.51100000000E-03 0. -1.
         11   -1    0    0    0    0 -0.00000000000E+00 -0.00000000000E+00 -0.45593999997E+02  0.45594000000E+02  0.51100000000E-03 0.  1.
         23    2    1    2    0    0 -0.35527136788E-14  0.00000000000E+00  0.35527136788E-14  0.91188000000E+02  0.91188000000E+02 0.  0.
    9900012    2    3    3    0    0  0.25273357556E+02 -0.21869961380E+02 -0.23154424291E+02  0.50528866006E+02  0.30000018711E+02 0.  0.
         12    1    3    3    0    0 -0.25273357556E+02  0.21869961380E+02  0.23154424291E+02  0.40659133994E+02  0.00000000000E+00 0. -1.
         11    1    4    4    0    0 -0.31018806108E+01 -0.42492467760E+01 -0.12557752929E+01  0.54087644924E+01  0.51100000000E-03 0. -1.
        -11    1    4    4    0    0  0.18499795840E+02  0.72918299793E+00 -0.87277713414E+01  0.20468222855E+02  0.51100000000E-03 0.  1.
        -12    1    4    4    0    0  0.98754423261E+01 -0.18349897602E+02 -0.13170877657E+02  0.24651878659E+02  0.00000000000E+00 0.  1.
</event>
<event>
 8    1  0.6016610E-012  0.9118800E+02  0.7816164E-02  0.1184000E+00
        -11   -1    0    0    0    0  0.00000000000E+00  0.00000000000E+00  0.45593999997E+02  0.45594000000E+02  0.51100000000E-03 0. -1.
         11   -1    0    0    0    0 -0.00000000000E+00 -0.00000000000E+00 -0.45593999997E+02  0.45594000000E+02  0.51100000000E-03 0.  1.
         23    2    1    2    0    0 -0.71054273576E-14 -0.88817841970E-15  0.17763568394E-14  0.91188000000E+02  0.91188000000E+02 0.  0.
    9900012    2    3    3    0    0  0.39409547599E+02  0.43937351857E+01 -0.89859659048E+01  0.50528868995E+02  0.30000027799E+02 0.  0.
         12    1    3    3    0    0 -0.39409547599E+02 -0.43937351857E+01  0.89859659048E+01  0.40659131005E+02  0.00000000000E+00 0. -1.
         11    1    4    4    0    0  0.83160175799E+01  0.27567472422E+01  0.62735087787E+01  0.10775561071E+02  0.51100000000E-03 0. -1.
        -11    1    4    4    0    0  0.22589944134E+02 -0.78932866637E+01 -0.10295718165E+02  0.26050170117E+02  0.51100000000E-03 0.  1.
        -12    1    4    4    0    0  0.85035858851E+01  0.95302746072E+01 -0.49637565182E+01  0.13703137807E+02  0.00000000000E+00 0.  1.
</event>
<event>
 8    1  0.6016610E-012  0.9118800E+02  0.7816164E-02  0.1184000E+00
        -11   -1    0    0    0    0  0.00000000000E+00  0.00000000000E+00  0.45593999997E+02  0.45594000000E+02  0.51100000000E-03 0.  1.
         11   -1    0    0    0    0 -0.00000000000E+00 -0.00000000000E+00 -0.45593999997E+02  0.45594000000E+02  0.51100000000E-03 0. -1.
         23    2    1    2    0    0 -0.35527136788E-14  0.00000000000E+00  0.17763568394E-14  0.91188000000E+02  0.91188000000E+02 0.  0.
    9900012    2    3    3    0    0 -0.17625572337E+02 -0.33548486872E+02  0.14731016573E+02  0.50528872846E+02  0.30000039504E+02 0.  0.
        -12    1    3    3    0    0  0.17625572337E+02  0.33548486872E+02 -0.14731016573E+02  0.40659127154E+02  0.00000000000E+00 0.  1.
         11    1    4    4    0    0 -0.63805742905E+01 -0.60015606443E+01 -0.73531561896E+01  0.11436754988E+02  0.51100000000E-03 0. -1.
        -11    1    4    4    0    0 -0.12578902912E+02 -0.17877772725E+02  0.11521389189E+02  0.24710037741E+02  0.51100000000E-03 0.  1.
         12    1    4    4    0    0  0.13339048664E+01 -0.96691535034E+01  0.10562783574E+02  0.14382080117E+02  0.00000000000E+00 0. -1.
</event>
<event>
 8    1  0.7458603E-012  0.9118800E+02  0.7816164E-02  0.1184000E+00
        -11   -1    0    0    0    0  0.00000000000E+00  0.00000000000E+00  0.45593999997E+02  0.45594000000E+02  0.51100000000E-03 0.  1.
         11   -1    0    0    0    0 -0.00000000000E+00 -0.00000000000E+00 -0.45593999997E+02  0.45594000000E+02  0.51100000000E-03 0. -1.
         23    2    1    2    0    0 -0.35527136788E-14 -0.35527136788E-14 -0.35527136788E-14  0.91188000000E+02  0.91188000000E+02 0.  0.
    9900012    2    3    3    0    0  0.23124047034E+02  0.20122577566E+02  0.26711886591E+02  0.50528873541E+02  0.30000041616E+02 0.  0.
        -12    1    3    3    0    0 -0.23124047034E+02 -0.20122577566E+02 -0.26711886591E+02  0.40659126459E+02  0.00000000000E+00 0.  1.
         11    1    4    4    0    0  0.11816176026E+02  0.12756300655E+01  0.19892658813E+02  0.23172551065E+02  0.51100000000E-03 0. -1.
        -11    1    4    4    0    0  0.14941491002E+02  0.15025910665E+02  0.59728018165E+01  0.22015914845E+02  0.51100000000E-03 0.  1.
        -12    1    4    4    0    0 -0.36336199936E+01  0.38210368355E+01  0.84642596101E+00  0.53404076308E+01  0.00000000000E+00 0.  1.
</event>
<event>
 8    1  0.6016610E-012  0.9118800E+02  0.7816164E-02  0.1184000E+00
        -11   -1    0    0    0    0  0.00000000000E+00  0.00000000000E+00  0.45593999997E+02  0.45594000000E+02  0.51100000000E-03 0. -1.
         11   -1    0    0    0    0 -0.00000000000E+00 -0.00000000000E+00 -0.45593999997E+02  0.45594000000E+02  0.51100000000E-03 0.  1.
         23    2    1    2    0    0  0.00000000000E+00  0.00000000000E+00  0.00000000000E+00  0.91188000000E+02  0.91188000000E+02 0.  0.
    9900012    2    3    3    0    0  0.24116006310E+02  0.30839588599E+02 -0.10977413956E+02  0.50528860776E+02  0.30000002815E+02 0.  0.
         12    1    3    3    0    0 -0.24116006310E+02 -0.30839588599E+02  0.10977413956E+02  0.40659139224E+02  0.00000000000E+00 0. -1.
         11    1    4    4    0    0 -0.34330218001E+01  0.11247051699E+02  0.51527504394E+01  0.12838716757E+02  0.51100000000E-03 0. -1.
        -11    1    4    4    0    0  0.17039213443E+02  0.10158904898E+02 -0.79657983133E+01  0.21377373237E+02  0.51100000000E-03 0.  1.
         12    1    4    4    0    0  0.10509814666E+02  0.94336320016E+01 -0.81643660824E+01  0.16312770782E+02  0.00000000000E+00 0. -1.
</event>
<event>
 8    1  0.6016610E-012  0.9118800E+02  0.7816164E-02  0.1184000E+00
        -11   -1    0    0    0    0  0.00000000000E+00  0.00000000000E+00  0.45593999997E+02  0.45594000000E+02  0.51100000000E-03 0. -1.
         11   -1    0    0    0    0 -0.00000000000E+00 -0.00000000000E+00 -0.45593999997E+02  0.45594000000E+02  0.51100000000E-03 0.  1.
         23    2    1    2    0    0  0.35527136788E-14 -0.35527136788E-14  0.14210854715E-13  0.91188000000E+02  0.91188000000E+02 0.  0.
    9900012    2    3    3    0    0  0.14389378970E+02 -0.19284657133E+02  0.32775324437E+02  0.50528756035E+02  0.29999684442E+02 0.  0.
        -12    1    3    3    0    0 -0.14389378970E+02  0.19284657133E+02 -0.32775324437E+02  0.40659243965E+02  0.00000000000E+00 0.  1.
         11    1    4    4    0    0  0.37290544286E+00 -0.11531233604E+02  0.29563964739E+02  0.31735412684E+02  0.51100000000E-03 0. -1.
        -11    1    4    4    0    0  0.84023401601E+01  0.12925591677E+00 -0.52461083847E+00  0.84196938217E+01  0.51100000000E-03 0.  1.
        -12    1    4    4    0    0  0.56141333674E+01 -0.78826794456E+01  0.37359705365E+01  0.10373649529E+02  0.00000000000E+00 0.  1.
</event>
<event>
 8    1  0.6016610E-012  0.9118800E+02  0.7816164E-02  0.1184000E+00
        -11   -1    0    0    0    0  0.00000000000E+00  0.00000000000E+00  0.45593999997E+02  0.45594000000E+02  0.51100000000E-03 0. -1.
         11   -1    0    0    0    0 -0.00000000000E+00 -0.00000000000E+00 -0.45593999997E+02  0.45594000000E+02  0.51100000000E-03 0.  1.
         23    2    1    2    0    0  0.00000000000E+00 -0.88817841970E-15  0.00000000000E+00  0.91188000000E+02  0.91188000000E+02 0.  0.
    9900012    2    3    3    0    0  0.22359252124E+02 -0.54761213800E+01 -0.33514798181E+02  0.50528858862E+02  0.29999996998E+02 0.  0.
         12    1    3    3    0    0 -0.22359252124E+02  0.54761213800E+01  0.33514798181E+02  0.40659141138E+02  0.00000000000E+00 0. -1.
         11    1    4    4    0    0  0.16783431113E+01 -0.35597018265E+01 -0.39426041520E+01  0.55706768398E+01  0.51100000000E-03 0. -1.
        -11    1    4    4    0    0  0.68617113744E+01  0.48542755161E+01 -0.28294479426E+02  0.29516514700E+02  0.51100000000E-03 0.  1.
        -12    1    4    4    0    0  0.13819197639E+02 -0.67706950696E+01 -0.12777146031E+01  0.15441667323E+02  0.00000000000E+00 0.  1.
</event>
<event>
 8    1  0.6016610E-012  0.9118800E+02  0.7816164E-02  0.1184000E+00
        -11   -1    0    0    0    0  0.00000000000E+00  0.00000000000E+00  0.45593999997E+02  0.45594000000E+02  0.51100000000E-03 0. -1.
         11   -1    0    0    0    0 -0.00000000000E+00 -0.00000000000E+00 -0.45593999997E+02  0.45594000000E+02  0.51100000000E-03 0.  1.
         23    2    1    2    0    0 -0.88817841970E-15  0.00000000000E+00 -0.71054273576E-14  0.91188000000E+02  0.91188000000E+02 0.  0.
    9900012    2    3    3    0    0  0.69970951684E+01  0.12270781661E+02 -0.38126555052E+02  0.50528860517E+02  0.30000002027E+02 0.  0.
         12    1    3    3    0    0 -0.69970951684E+01 -0.12270781661E+02  0.38126555052E+02  0.40659139483E+02  0.00000000000E+00 0. -1.
         11    1    4    4    0    0 -0.70025676933E+01  0.84737287843E+01 -0.21164139219E+01  0.11194607718E+02  0.51100000000E-03 0. -1.
        -11    1    4    4    0    0  0.62229703477E+01  0.22333317851E+01 -0.24350677272E+02  0.25232293092E+02  0.51100000000E-03 0.  1.
         12    1    4    4    0    0  0.77766925140E+01  0.15637210918E+01 -0.11659463859E+02  0.14101959707E+02  0.00000000000E+00 0. -1.
</event>
<event>
 8    1  0.6016610E-012  0.9118800E+02  0.7816164E-02  0.1184000E+00
        -11   -1    0    0    0    0  0.00000000000E+00  0.00000000000E+00  0.45593999997E+02  0.45594000000E+02  0.51100000000E-03 0. -1.
         11   -1    0    0    0    0 -0.00000000000E+00 -0.00000000000E+00 -0.45593999997E+02  0.45594000000E+02  0.51100000000E-03 0.  1.
         23    2    1    2    0    0 -0.17763568394E-14 -0.17763568394E-14 -0.71054273576E-14  0.91188000000E+02  0.91188000000E+02 0.  0.
    9900012    2    3    3    0    0  0.13006064571E+02 -0.13268115670E+02 -0.36165797190E+02  0.50528862092E+02  0.30000006816E+02 0.  0.
         12    1    3    3    0    0 -0.13006064571E+02  0.13268115670E+02  0.36165797190E+02  0.40659137908E+02  0.00000000000E+00 0. -1.
         11    1    4    4    0    0  0.18831675532E+02 -0.46039751491E+01 -0.25823556538E+02  0.32290628099E+02  0.51100000000E-03 0. -1.
        -11    1    4    4    0    0 -0.10449903702E+01 -0.65365915778E+01 -0.11126881150E+02  0.12947066027E+02  0.51100000000E-03 0.  1.
         12    1    4    4    0    0 -0.47806205908E+01 -0.21275489430E+01  0.78464049773E+00  0.52911679664E+01  0.00000000000E+00 0. -1.
</event>
<event>
 8    1  0.6016610E-012  0.9118800E+02  0.7816164E-02  0.1184000E+00
        -11   -1    0    0    0    0  0.00000000000E+00  0.00000000000E+00  0.45593999997E+02  0.45594000000E+02  0.51100000000E-03 0. -1.
         11   -1    0    0    0    0 -0.00000000000E+00 -0.00000000000E+00 -0.45593999997E+02  0.45594000000E+02  0.51100000000E-03 0.  1.
         23    2    1    2    0    0 -0.17763568394E-14  0.00000000000E+00  0.00000000000E+00  0.91188000000E+02  0.91188000000E+02 0.  0.
    9900012    2    3    3    0    0 -0.15825384479E+02 -0.32667699651E+02  0.18317885698E+02  0.50528851819E+02  0.29999975588E+02 0.  0.
        -12    1    3    3    0    0  0.15825384479E+02  0.32667699651E+02 -0.18317885698E+02  0.40659148181E+02  0.00000000000E+00 0.  1.
         11    1    4    4    0    0 -0.50085686871E+01 -0.32704496565E+02  0.11663664123E+02  0.35081489662E+02  0.51100000000E-03 0.  1.
        -11    1    4    4    0    0 -0.40022727247E+01 -0.16259906279E+01 -0.16076514668E+01  0.46094008271E+01  0.51100000000E-03 0. -1.
         12    1    4    4    0    0 -0.68145430673E+01  0.16627875420E+01  0.82618730418E+01  0.10837961330E+02  0.00000000000E+00 0. -1.
</event>
<event>
 8    1  0.6016610E-012  0.9118800E+02  0.7816164E-02  0.1184000E+00
        -11   -1    0    0    0    0  0.00000000000E+00  0.00000000000E+00  0.45593999997E+02  0.45594000000E+02  0.51100000000E-03 0. -1.
         11   -1    0    0    0    0 -0.00000000000E+00 -0.00000000000E+00 -0.45593999997E+02  0.45594000000E+02  0.51100000000E-03 0.  1.
         23    2    1    2    0    0 -0.35527136788E-14  0.00000000000E+00  0.00000000000E+00  0.91188000000E+02  0.91188000000E+02 0.  0.
    9900012    2    3    3    0    0 -0.26363442742E+02  0.11561834143E+02  0.28713376962E+02  0.50528866481E+02  0.30000020157E+02 0.  0.
        -12    1    3    3    0    0  0.26363442742E+02 -0.11561834143E+02 -0.28713376962E+02  0.40659133519E+02  0.00000000000E+00 0.  1.
         11    1    4    4    0    0  0.33894717369E+01  0.26642521185E+01 -0.63303664435E+00  0.43574641318E+01  0.51100000000E-03 0. -1.
        -11    1    4    4    0    0 -0.20284002057E+02  0.62851112473E+01  0.29499135154E+02  0.36347521758E+02  0.51100000000E-03 0.  1.
        -12    1    4    4    0    0 -0.94689124217E+01  0.26124707773E+01 -0.15272154783E+00  0.98238805918E+01  0.00000000000E+00 0.  1.
</event>
<event>
 8    1  0.6166998E-012  0.9118800E+02  0.7816164E-02  0.1184000E+00
        -11   -1    0    0    0    0  0.00000000000E+00  0.00000000000E+00  0.45593999997E+02  0.45594000000E+02  0.51100000000E-03 0. -1.
         11   -1    0    0    0    0 -0.00000000000E+00 -0.00000000000E+00 -0.45593999997E+02  0.45594000000E+02  0.51100000000E-03 0.  1.
         23    2    1    2    0    0  0.00000000000E+00  0.00000000000E+00  0.00000000000E+00  0.91188000000E+02  0.91188000000E+02 0.  0.
    9900012    2    3    3    0    0  0.33007547942E+02 -0.87880868448E+01  0.22055315016E+02  0.50528860659E+02  0.30000002458E+02 0.  0.
        -12    1    3    3    0    0 -0.33007547942E+02  0.87880868448E+01 -0.22055315016E+02  0.40659139341E+02  0.00000000000E+00 0.  1.
         11    1    4    4    0    0  0.21821548232E+02 -0.18475790358E+01  0.14959861223E+02  0.26521518879E+02  0.51100000000E-03 0. -1.
        -11    1    4    4    0    0  0.73389421666E+01 -0.97385048050E+00 -0.57208598982E+01  0.93561046980E+01  0.51100000000E-03 0.  1.
        -12    1    4    4    0    0  0.38470575433E+01 -0.59666573285E+01  0.12816313691E+02  0.14651237082E+02  0.00000000000E+00 0.  1.
</event>
<event>
 8    1  0.6016610E-012  0.9118800E+02  0.7816164E-02  0.1184000E+00
        -11   -1    0    0    0    0  0.00000000000E+00  0.00000000000E+00  0.45593999997E+02  0.45594000000E+02  0.51100000000E-03 0. -1.
         11   -1    0    0    0    0 -0.00000000000E+00 -0.00000000000E+00 -0.45593999997E+02  0.45594000000E+02  0.51100000000E-03 0.  1.
         23    2    1    2    0    0  0.00000000000E+00 -0.71054273576E-14  0.17763568394E-14  0.91188000000E+02  0.91188000000E+02 0.  0.
    9900012    2    3    3    0    0  0.18861032865E+02 -0.35009164227E+02  0.84726402493E+01  0.50528858674E+02  0.29999996426E+02 0.  0.
        -12    1    3    3    0    0 -0.18861032865E+02  0.35009164227E+02 -0.84726402493E+01  0.40659141326E+02  0.00000000000E+00 0.  1.
         11    1    4    4    0    0  0.10093852093E+02 -0.25748186497E+02 -0.83141171289E+01  0.28878703258E+02  0.51100000000E-03 0. -1.
        -11    1    4    4    0    0  0.28380390976E+00 -0.70781082434E+00  0.40406429694E+01  0.41119747919E+01  0.51100000000E-03 0.  1.
         12    1    4    4    0    0  0.84833768622E+01 -0.85531669049E+01  0.12746114409E+02  0.17538180624E+02  0.00000000000E+00 0. -1.
</event>
<event>
 8    1  0.6016610E-012  0.9118800E+02  0.7816164E-02  0.1184000E+00
        -11   -1    0    0    0    0  0.00000000000E+00  0.00000000000E+00  0.45593999997E+02  0.45594000000E+02  0.51100000000E-03 0. -1.
         11   -1    0    0    0    0 -0.00000000000E+00 -0.00000000000E+00 -0.45593999997E+02  0.45594000000E+02  0.51100000000E-03 0.  1.
         23    2    1    2    0    0  0.00000000000E+00  0.00000000000E+00  0.00000000000E+00  0.91188000000E+02  0.91188000000E+02 0.  0.
    9900012    2    3    3    0    0 -0.25490531560E+02  0.26992418404E+02  0.16577357383E+02  0.50528848160E+02  0.29999964467E+02 0.  0.
        -12    1    3    3    0    0  0.25490531560E+02 -0.26992418404E+02 -0.16577357383E+02  0.40659151840E+02  0.00000000000E+00 0.  1.
         11    1    4    4    0    0 -0.13469389201E+01  0.11073470278E+02  0.13858572488E+01  0.11240844676E+02  0.51100000000E-03 0. -1.
        -11    1    4    4    0    0 -0.26571432464E+02  0.80115816499E+01  0.13426349878E+02  0.30830071927E+02  0.51100000000E-03 0.  1.
        -12    1    4    4    0    0  0.24278398237E+01  0.79073664763E+01  0.17651502561E+01  0.84579315572E+01  0.00000000000E+00 0.  1.
</event>
<event>
 8    1  0.6016610E-012  0.9118800E+02  0.7816164E-02  0.1184000E+00
        -11   -1    0    0    0    0  0.00000000000E+00  0.00000000000E+00  0.45593999997E+02  0.45594000000E+02  0.51100000000E-03 0. -1.
         11   -1    0    0    0    0 -0.00000000000E+00 -0.00000000000E+00 -0.45593999997E+02  0.45594000000E+02  0.51100000000E-03 0.  1.
         23    2    1    2    0    0  0.00000000000E+00 -0.17763568394E-14  0.71054273576E-14  0.91188000000E+02  0.91188000000E+02 0.  0.
    9900012    2    3    3    0    0 -0.17946197157E+02  0.91841537056E+01 -0.35309358092E+02  0.50528862767E+02  0.30000008866E+02 0.  0.
         12    1    3    3    0    0  0.17946197157E+02 -0.91841537056E+01  0.35309358092E+02  0.40659137233E+02  0.00000000000E+00 0. -1.
         11    1    4    4    0    0  0.11387279474E+01 -0.49058192511E+01 -0.22267148921E+02  0.22829579173E+02  0.51100000000E-03 0. -1.
        -11    1    4    4    0    0 -0.13009648849E+02  0.10779246476E+02 -0.62793139070E+01  0.18024230945E+02  0.51100000000E-03 0.  1.
         12    1    4    4    0    0 -0.60752762551E+01  0.33107264806E+01 -0.67628952636E+01  0.96750526485E+01  0.00000000000E+00 0. -1.
</event>
<event>
 8    1  0.6016610E-012  0.9118800E+02  0.7816164E-02  0.1184000E+00
        -11   -1    0    0    0    0  0.00000000000E+00  0.00000000000E+00  0.45593999997E+02  0.45594000000E+02  0.51100000000E-03 0. -1.
         11   -1    0    0    0    0 -0.00000000000E+00 -0.00000000000E+00 -0.45593999997E+02  0.45594000000E+02  0.51100000000E-03 0.  1.
         23    2    1    2    0    0  0.88817841970E-15  0.00000000000E+00 -0.35527136788E-14  0.91188000000E+02  0.91188000000E+02 0.  0.
    9900012    2    3    3    0    0  0.77755218226E+01  0.28721747041E+02 -0.27708633172E+02  0.50528857794E+02  0.29999993749E+02 0.  0.
         12    1    3    3    0    0 -0.77755218226E+01 -0.28721747041E+02  0.27708633172E+02  0.40659142206E+02  0.00000000000E+00 0. -1.
         11    1    4    4    0    0 -0.16239614489E+01 -0.68187404745E+00  0.89977832988E+00  0.19778281797E+01  0.51100000000E-03 0. -1.
        -11    1    4    4    0    0  0.55753779600E+01  0.31480416564E+02 -0.30140024430E+02  0.43937712040E+02  0.51100000000E-03 0.  1.
        -12    1    4    4    0    0  0.38241053115E+01 -0.20767954754E+01  0.15316129273E+01  0.46133175741E+01  0.00000000000E+00 0.  1.
</event>
<event>
 8    1  0.6016610E-012  0.9118800E+02  0.7816164E-02  0.1184000E+00
        -11   -1    0    0    0    0  0.00000000000E+00  0.00000000000E+00  0.45593999997E+02  0.45594000000E+02  0.51100000000E-03 0. -1.
         11   -1    0    0    0    0 -0.00000000000E+00 -0.00000000000E+00 -0.45593999997E+02  0.45594000000E+02  0.51100000000E-03 0.  1.
         23    2    1    2    0    0  0.00000000000E+00  0.00000000000E+00  0.17763568394E-14  0.91188000000E+02  0.91188000000E+02 0.  0.
    9900012    2    3    3    0    0  0.35249560361E+02  0.16245215926E+02 -0.12113491372E+02  0.50528742514E+02  0.29999643343E+02 0.  0.
         12    1    3    3    0    0 -0.35249560361E+02 -0.16245215926E+02  0.12113491372E+02  0.40659257486E+02  0.00000000000E+00 0. -1.
         11    1    4    4    0    0  0.97774918090E+01 -0.27607582218E+01  0.22198376101E+01  0.10399462068E+02  0.51100000000E-03 0. -1.
        -11    1    4    4    0    0  0.10269976000E+02  0.19481388134E+02 -0.10735771965E+02  0.24500075319E+02  0.51100000000E-03 0.  1.
        -12    1    4    4    0    0  0.15202092552E+02 -0.47541398659E+00 -0.35975570172E+01  0.15629205127E+02  0.00000000000E+00 0.  1.
</event>
<event>
 8    1  0.6016610E-012  0.9118800E+02  0.7816164E-02  0.1184000E+00
        -11   -1    0    0    0    0  0.00000000000E+00  0.00000000000E+00  0.45593999997E+02  0.45594000000E+02  0.51100000000E-03 0.  1.
         11   -1    0    0    0    0 -0.00000000000E+00 -0.00000000000E+00 -0.45593999997E+02  0.45594000000E+02  0.51100000000E-03 0. -1.
         23    2    1    2    0    0  0.00000000000E+00  0.35527136788E-14 -0.17763568394E-14  0.91188000000E+02  0.91188000000E+02 0.  0.
    9900012    2    3    3    0    0 -0.30979576532E+02 -0.25251467074E+02  0.74695778225E+01  0.50528863950E+02  0.30000012464E+02 0.  0.
        -12    1    3    3    0    0  0.30979576532E+02  0.25251467074E+02 -0.74695778225E+01  0.40659136050E+02  0.00000000000E+00 0.  1.
         11    1    4    4    0    0  0.17534752742E+01 -0.96751821341E+01 -0.29460765032E+01  0.10264657417E+02  0.51100000000E-03 0. -1.
        -11    1    4    4    0    0 -0.25789613727E+02 -0.83577416468E+01  0.12782455525E+02  0.29972440526E+02  0.51100000000E-03 0.  1.
        -12    1    4    4    0    0 -0.69434380793E+01 -0.72185432926E+01 -0.23668011990E+01  0.10291766007E+02  0.00000000000E+00 0.  1.
</event>
<event>
 8    1  0.6016610E-012  0.9118800E+02  0.7816164E-02  0.1184000E+00
        -11   -1    0    0    0    0  0.00000000000E+00  0.00000000000E+00  0.45593999997E+02  0.45594000000E+02  0.51100000000E-03 0. -1.
         11   -1    0    0    0    0 -0.00000000000E+00 -0.00000000000E+00 -0.45593999997E+02  0.45594000000E+02  0.51100000000E-03 0.  1.
         23    2    1    2    0    0  0.00000000000E+00  0.00000000000E+00  0.71054273576E-14  0.91188000000E+02  0.91188000000E+02 0.  0.
    9900012    2    3    3    0    0  0.73254786546E+01  0.14920098769E+02 -0.37106518472E+02  0.50528859602E+02  0.29999999246E+02 0.  0.
         12    1    3    3    0    0 -0.73254786546E+01 -0.14920098769E+02  0.37106518472E+02  0.40659140398E+02  0.00000000000E+00 0. -1.
         11    1    4    4    0    0  0.76628661141E+01  0.19361058165E+02 -0.11104998847E+02  0.23598539997E+02  0.51100000000E-03 0. -1.
        -11    1    4    4    0    0 -0.15076338285E+01 -0.12382096439E+01 -0.19421713576E+02  0.19519453921E+02  0.51100000000E-03 0.  1.
         12    1    4    4    0    0  0.11702463690E+01 -0.32027497523E+01 -0.65798060493E+01  0.74108656840E+01  0.00000000000E+00 0. -1.
</event>
<event>
 8    1  0.6016610E-012  0.9118800E+02  0.7816164E-02  0.1184000E+00
        -11   -1    0    0    0    0  0.00000000000E+00  0.00000000000E+00  0.45593999997E+02  0.45594000000E+02  0.51100000000E-03 0. -1.
         11   -1    0    0    0    0 -0.00000000000E+00 -0.00000000000E+00 -0.45593999997E+02  0.45594000000E+02  0.51100000000E-03 0.  1.
         23    2    1    2    0    0 -0.17763568394E-14 -0.17763568394E-14  0.00000000000E+00  0.91188000000E+02  0.91188000000E+02 0.  0.
    9900012    2    3    3    0    0 -0.81096732919E+01 -0.39073467063E+01 -0.39650112165E+02  0.50528861373E+02  0.30000004629E+02 0.  0.
         12    1    3    3    0    0  0.81096732919E+01  0.39073467063E+01  0.39650112165E+02  0.40659138627E+02  0.00000000000E+00 0. -1.
         11    1    4    4    0    0 -0.11813373115E+02 -0.81057320989E+01 -0.17218937377E+02  0.22399787541E+02  0.51100000000E-03 0.  1.
        -11    1    4    4    0    0 -0.28585116367E+01  0.85404892502E+01 -0.13470656927E+02  0.16204000855E+02  0.51100000000E-03 0. -1.
         12    1    4    4    0    0  0.65622114603E+01 -0.43421038576E+01 -0.89605178614E+01  0.11925072977E+02  0.00000000000E+00 0. -1.
</event>
<event>
 8    1  0.6016610E-012  0.9118800E+02  0.7816164E-02  0.1184000E+00
        -11   -1    0    0    0    0  0.00000000000E+00  0.00000000000E+00  0.45593999997E+02  0.45594000000E+02  0.51100000000E-03 0. -1.
         11   -1    0    0    0    0 -0.00000000000E+00 -0.00000000000E+00 -0.45593999997E+02  0.45594000000E+02  0.51100000000E-03 0.  1.
         23    2    1    2    0    0  0.00000000000E+00 -0.17763568394E-14  0.35527136788E-14  0.91188000000E+02  0.91188000000E+02 0.  0.
    9900012    2    3    3    0    0  0.28558493554E+02  0.13953909185E+02  0.25354828777E+02  0.50528850010E+02  0.29999970090E+02 0.  0.
        -12    1    3    3    0    0 -0.28558493554E+02 -0.13953909185E+02 -0.25354828777E+02  0.40659149990E+02  0.00000000000E+00 0.  1.
         11    1    4    4    0    0  0.16513771607E+02 -0.13789714778E+01  0.29145064101E+01  0.16825592498E+02  0.51100000000E-03 0.  1.
        -11    1    4    4    0    0  0.10320023173E+02  0.15511900080E+02  0.24647176757E+02  0.30896686631E+02  0.51100000000E-03 0. -1.
         12    1    4    4    0    0  0.17246987732E+01 -0.17901941726E+00 -0.22068543905E+01  0.28065708811E+01  0.00000000000E+00 0. -1.
</event>
<event>
 8    1  0.6016610E-012  0.9118800E+02  0.7816164E-02  0.1184000E+00
        -11   -1    0    0    0    0  0.00000000000E+00  0.00000000000E+00  0.45593999997E+02  0.45594000000E+02  0.51100000000E-03 0. -1.
         11   -1    0    0    0    0 -0.00000000000E+00 -0.00000000000E+00 -0.45593999997E+02  0.45594000000E+02  0.51100000000E-03 0.  1.
         23    2    1    2    0    0 -0.35527136788E-14 -0.88817841970E-15  0.71054273576E-14  0.91188000000E+02  0.91188000000E+02 0.  0.
    9900012    2    3    3    0    0  0.17007477801E+02  0.14020577241E+01 -0.36904549231E+02  0.50528858088E+02  0.29999994645E+02 0.  0.
         12    1    3    3    0    0 -0.17007477801E+02 -0.14020577241E+01  0.36904549231E+02  0.40659141912E+02  0.00000000000E+00 0. -1.
         11    1    4    4    0    0 -0.58398311100E+00  0.92651583455E+00  0.14299103977E+00  0.11044974261E+01  0.51100000000E-03 0. -1.
        -11    1    4    4    0    0  0.16077449612E+01  0.11081443573E+02 -0.54342221715E+01  0.12446445532E+02  0.51100000000E-03 0.  1.
        -12    1    4    4    0    0  0.15983715951E+02 -0.10605901683E+02 -0.31613318100E+02  0.36977915130E+02  0.00000000000E+00 0.  1.
</event>
<event>
 8    1  0.6016610E-012  0.9118800E+02  0.7816164E-02  0.1184000E+00
        -11   -1    0    0    0    0  0.00000000000E+00  0.00000000000E+00  0.45593999997E+02  0.45594000000E+02  0.51100000000E-03 0. -1.
         11   -1    0    0    0    0 -0.00000000000E+00 -0.00000000000E+00 -0.45593999997E+02  0.45594000000E+02  0.51100000000E-03 0.  1.
         23    2    1    2    0    0  0.00000000000E+00 -0.17763568394E-14  0.00000000000E+00  0.91188000000E+02  0.91188000000E+02 0.  0.
    9900012    2    3    3    0    0  0.16588472935E+02 -0.13203438164E+02  0.34693767651E+02  0.50528859238E+02  0.29999998141E+02 0.  0.
        -12    1    3    3    0    0 -0.16588472935E+02  0.13203438164E+02 -0.34693767651E+02  0.40659140762E+02  0.00000000000E+00 0.  1.
         11    1    4    4    0    0  0.12456857275E+01  0.74605297560E+00  0.23792926886E+02  0.23837191488E+02  0.51100000000E-03 0.  1.
        -11    1    4    4    0    0  0.70497681264E+01 -0.10234423584E+02 -0.93731502825E-01  0.12427849476E+02  0.51100000000E-03 0. -1.
         12    1    4    4    0    0  0.82930190811E+01 -0.37150675553E+01  0.10994572268E+02  0.14263818275E+02  0.00000000000E+00 0. -1.
</event>
<event>
 8    1  0.6016610E-012  0.9118800E+02  0.7816164E-02  0.1184000E+00
        -11   -1    0    0    0    0  0.00000000000E+00  0.00000000000E+00  0.45593999997E+02  0.45594000000E+02  0.51100000000E-03 0. -1.
         11   -1    0    0    0    0 -0.00000000000E+00 -0.00000000000E+00 -0.45593999997E+02  0.45594000000E+02  0.51100000000E-03 0.  1.
         23    2    1    2    0    0  0.00000000000E+00  0.00000000000E+00  0.00000000000E+00  0.91188000000E+02  0.91188000000E+02 0.  0.
    9900012    2    3    3    0    0 -0.17952157372E+02 -0.34610126453E+02  0.11533641879E+02  0.50528859547E+02  0.29999999079E+02 0.  0.
        -12    1    3    3    0    0  0.17952157372E+02  0.34610126453E+02 -0.11533641879E+02  0.40659140453E+02  0.00000000000E+00 0.  1.
         11    1    4    4    0    0  0.30337933650E+01 -0.18744525895E+02  0.57290147294E+01  0.19833879178E+02  0.51100000000E-03 0. -1.
        -11    1    4    4    0    0 -0.21748625711E+02 -0.16226362347E+02  0.24605728281E+01  0.27246136868E+02  0.51100000000E-03 0.  1.
        -12    1    4    4    0    0  0.76267497409E+00  0.36076178996E+00  0.33440543218E+01  0.34488435007E+01  0.00000000000E+00 0.  1.
</event>
<event>
 8    1  0.6016610E-012  0.9118800E+02  0.7816164E-02  0.1184000E+00
        -11   -1    0    0    0    0  0.00000000000E+00  0.00000000000E+00  0.45593999997E+02  0.45594000000E+02  0.51100000000E-03 0. -1.
         11   -1    0    0    0    0 -0.00000000000E+00 -0.00000000000E+00 -0.45593999997E+02  0.45594000000E+02  0.51100000000E-03 0.  1.
         23    2    1    2    0    0  0.00000000000E+00  0.35527136788E-14  0.00000000000E+00  0.91188000000E+02  0.91188000000E+02 0.  0.
    9900012    2    3    3    0    0  0.32484648643E+02 -0.18696895079E+02 -0.15758624403E+02  0.50528923202E+02  0.30000192563E+02 0.  0.
         12    1    3    3    0    0 -0.32484648643E+02  0.18696895079E+02  0.15758624403E+02  0.40659076798E+02  0.00000000000E+00 0. -1.
         11    1    4    4    0    0  0.95095709501E+01  0.19982238450E+01  0.37391747278E+01  0.10411832984E+02  0.51100000000E-03 0. -1.
        -11    1    4    4    0    0  0.22084036385E+02 -0.18399158872E+02 -0.22304528852E+02  0.36383041624E+02  0.51100000000E-03 0.  1.
        -12    1    4    4    0    0  0.89104130806E+00 -0.22959600518E+01  0.28067297210E+01  0.37340485935E+01  0.00000000000E+00 0.  1.
</event>
<event>
 8    1  0.6016610E-012  0.9118800E+02  0.7816164E-02  0.1184000E+00
        -11   -1    0    0    0    0  0.00000000000E+00  0.00000000000E+00  0.45593999997E+02  0.45594000000E+02  0.51100000000E-03 0. -1.
         11   -1    0    0    0    0 -0.00000000000E+00 -0.00000000000E+00 -0.45593999997E+02  0.45594000000E+02  0.51100000000E-03 0.  1.
         23    2    1    2    0    0  0.00000000000E+00 -0.88817841970E-15 -0.88817841970E-15  0.91188000000E+02  0.91188000000E+02 0.  0.
    9900012    2    3    3    0    0 -0.40080949446E+02 -0.33631340402E+01 -0.59474707032E+01  0.50528860968E+02  0.30000003399E+02 0.  0.
         12    1    3    3    0    0  0.40080949446E+02  0.33631340402E+01  0.59474707032E+01  0.40659139032E+02  0.00000000000E+00 0. -1.
         11    1    4    4    0    0 -0.12876496163E+02  0.10104875284E+02 -0.72634717755E+01  0.17907280096E+02  0.51100000000E-03 0. -1.
        -11    1    4    4    0    0 -0.27728949107E+02 -0.11121777165E+02  0.24240125382E+01  0.29974395456E+02  0.51100000000E-03 0.  1.
        -12    1    4    4    0    0  0.52449582481E+00 -0.23462321600E+01 -0.11080114659E+01  0.26471854162E+01  0.00000000000E+00 0.  1.
</event>
<event>
 8    1  0.6016610E-012  0.9118800E+02  0.7816164E-02  0.1184000E+00
        -11   -1    0    0    0    0  0.00000000000E+00  0.00000000000E+00  0.45593999997E+02  0.45594000000E+02  0.51100000000E-03 0. -1.
         11   -1    0    0    0    0 -0.00000000000E+00 -0.00000000000E+00 -0.45593999997E+02  0.45594000000E+02  0.51100000000E-03 0.  1.
         23    2    1    2    0    0 -0.88817841970E-15  0.00000000000E+00  0.00000000000E+00  0.91188000000E+02  0.91188000000E+02 0.  0.
    9900012    2    3    3    0    0 -0.56537269743E+01  0.86662415074E+01  0.39320439940E+02  0.50528863663E+02  0.30000011590E+02 0.  0.
        -12    1    3    3    0    0  0.56537269743E+01 -0.86662415074E+01 -0.39320439940E+02  0.40659136337E+02  0.00000000000E+00 0.  1.
         11    1    4    4    0    0 -0.77512282729E+01  0.11736485005E+02  0.25341100286E+02  0.28982718713E+02  0.51100000000E-03 0. -1.
        -11    1    4    4    0    0  0.54161756081E+01 -0.24953672339E+01 -0.11269587566E+01  0.60689251231E+01  0.51100000000E-03 0.  1.
        -12    1    4    4    0    0 -0.33186743094E+01 -0.57487626396E+00  0.15106298411E+02  0.15477219827E+02  0.00000000000E+00 0.  1.
</event>
<event>
 8    1  0.6016610E-012  0.9118800E+02  0.7816164E-02  0.1184000E+00
        -11   -1    0    0    0    0  0.00000000000E+00  0.00000000000E+00  0.45593999997E+02  0.45594000000E+02  0.51100000000E-03 0. -1.
         11   -1    0    0    0    0 -0.00000000000E+00 -0.00000000000E+00 -0.45593999997E+02  0.45594000000E+02  0.51100000000E-03 0.  1.
         23    2    1    2    0    0  0.17763568394E-14  0.00000000000E+00  0.11102230246E-15  0.91188000000E+02  0.91188000000E+02 0.  0.
    9900012    2    3    3    0    0  0.56062435480E+01  0.40263340679E+02 -0.77425224097E+00  0.50528855446E+02  0.29999986612E+02 0.  0.
         12    1    3    3    0    0 -0.56062435480E+01 -0.40263340679E+02  0.77425224097E+00  0.40659144554E+02  0.00000000000E+00 0. -1.
         11    1    4    4    0    0  0.69379215487E+01  0.21425485152E+02  0.13078301476E+01  0.22558736431E+02  0.51100000000E-03 0. -1.
        -11    1    4    4    0    0 -0.10844200101E+02  0.82324822681E+01 -0.35891261460E+00  0.13619811256E+02  0.51100000000E-03 0.  1.
        -12    1    4    4    0    0  0.95125221006E+01  0.10605373259E+02 -0.17231697740E+01  0.14350307758E+02  0.00000000000E+00 0.  1.
</event>
<event>
 8    1  0.6016610E-012  0.9118800E+02  0.7816164E-02  0.1184000E+00
        -11   -1    0    0    0    0  0.00000000000E+00  0.00000000000E+00  0.45593999997E+02  0.45594000000E+02  0.51100000000E-03 0. -1.
         11   -1    0    0    0    0 -0.00000000000E+00 -0.00000000000E+00 -0.45593999997E+02  0.45594000000E+02  0.51100000000E-03 0.  1.
         23    2    1    2    0    0 -0.22204460493E-15  0.00000000000E+00  0.00000000000E+00  0.91188000000E+02  0.91188000000E+02 0.  0.
    9900012    2    3    3    0    0 -0.79595294920E+00 -0.76155741354E+01 -0.39931634132E+02  0.50528856933E+02  0.29999991133E+02 0.  0.
         12    1    3    3    0    0  0.79595294920E+00  0.76155741354E+01  0.39931634132E+02  0.40659143067E+02  0.00000000000E+00 0. -1.
         11    1    4    4    0    0  0.53939543224E+01  0.36245599050E+01 -0.14153602832E+02  0.15574230355E+02  0.51100000000E-03 0. -1.
        -11    1    4    4    0    0 -0.10479138498E+01 -0.15343741135E+02 -0.23313663032E+02  0.27929471883E+02  0.51100000000E-03 0.  1.
        -12    1    4    4    0    0 -0.51419934218E+01  0.41036070942E+01 -0.24643682673E+01  0.70251546951E+01  0.00000000000E+00 0.  1.
</event>
<event>
 8    1  0.6016610E-012  0.9118800E+02  0.7816164E-02  0.1184000E+00
        -11   -1    0    0    0    0  0.00000000000E+00  0.00000000000E+00  0.45593999997E+02  0.45594000000E+02  0.51100000000E-03 0. -1.
         11   -1    0    0    0    0 -0.00000000000E+00 -0.00000000000E+00 -0.45593999997E+02  0.45594000000E+02  0.51100000000E-03 0.  1.
         23    2    1    2    0    0  0.00000000000E+00 -0.17763568394E-14  0.00000000000E+00  0.91188000000E+02  0.91188000000E+02 0.  0.
    9900012    2    3    3    0    0 -0.19875497086E+02  0.28871066931E+01 -0.35352449934E+02  0.50528849912E+02  0.29999969794E+02 0.  0.
         12    1    3    3    0    0  0.19875497086E+02 -0.28871066931E+01  0.35352449934E+02  0.40659150088E+02  0.00000000000E+00 0. -1.
         11    1    4    4    0    0 -0.12045037053E+02 -0.10961453619E+02 -0.14945205006E+02  0.22104197248E+02  0.51100000000E-03 0. -1.
        -11    1    4    4    0    0 -0.68841658791E+01  0.11923058023E+02 -0.21859511382E+02  0.25833878737E+02  0.51100000000E-03 0.  1.
         12    1    4    4    0    0 -0.94629415421E+00  0.19255022890E+01  0.14522664536E+01  0.25907739275E+01  0.00000000000E+00 0. -1.
</event>
<event>
 8    1  0.6016610E-012  0.9118800E+02  0.7816164E-02  0.1184000E+00
        -11   -1    0    0    0    0  0.00000000000E+00  0.00000000000E+00  0.45593999997E+02  0.45594000000E+02  0.51100000000E-03 0. -1.
         11   -1    0    0    0    0 -0.00000000000E+00 -0.00000000000E+00 -0.45593999997E+02  0.45594000000E+02  0.51100000000E-03 0.  1.
         23    2    1    2    0    0  0.71054273576E-14  0.22204460493E-15 -0.35527136788E-14  0.91188000000E+02  0.91188000000E+02 0.  0.
    9900012    2    3    3    0    0  0.25767353247E+02 -0.66806306446E+00 -0.31444602158E+02  0.50528858267E+02  0.29999995187E+02 0.  0.
         12    1    3    3    0    0 -0.25767353247E+02  0.66806306446E+00  0.31444602158E+02  0.40659141733E+02  0.00000000000E+00 0. -1.
         11    1    4    4    0    0 -0.47312127003E+01 -0.65274723888E+00 -0.57198171364E+00  0.48101575770E+01  0.51100000000E-03 0. -1.
        -11    1    4    4    0    0  0.15800366506E+02 -0.47355296387E+01 -0.23236484389E+02  0.28495807230E+02  0.51100000000E-03 0.  1.
         12    1    4    4    0    0  0.14698199441E+02  0.47202138131E+01 -0.76361360554E+01  0.17222893459E+02  0.00000000000E+00 0. -1.
</event>
<event>
 8    1  0.6016610E-012  0.9118800E+02  0.7816164E-02  0.1184000E+00
        -11   -1    0    0    0    0  0.00000000000E+00  0.00000000000E+00  0.45593999997E+02  0.45594000000E+02  0.51100000000E-03 0. -1.
         11   -1    0    0    0    0 -0.00000000000E+00 -0.00000000000E+00 -0.45593999997E+02  0.45594000000E+02  0.51100000000E-03 0.  1.
         23    2    1    2    0    0  0.00000000000E+00  0.00000000000E+00  0.71054273576E-14  0.91188000000E+02  0.91188000000E+02 0.  0.
    9900012    2    3    3    0    0 -0.19103283874E+02 -0.92272663036E+01  0.34685562733E+02  0.50528853916E+02  0.29999981962E+02 0.  0.
        -12    1    3    3    0    0  0.19103283874E+02  0.92272663036E+01 -0.34685562733E+02  0.40659146084E+02  0.00000000000E+00 0.  1.
         11    1    4    4    0    0 -0.90394960880E+01 -0.17455693926E+02  0.18075402188E+02  0.26704567109E+02  0.51100000000E-03 0. -1.
        -11    1    4    4    0    0 -0.10907293791E+02  0.41065497188E+01  0.76940389262E+01  0.13965351542E+02  0.51100000000E-03 0.  1.
         12    1    4    4    0    0  0.84350600415E+00  0.41218779039E+01  0.89161216185E+01  0.98589352645E+01  0.00000000000E+00 0. -1.
</event>
<event>
 8    1  0.6016610E-012  0.9118800E+02  0.7816164E-02  0.1184000E+00
        -11   -1    0    0    0    0  0.00000000000E+00  0.00000000000E+00  0.45593999997E+02  0.45594000000E+02  0.51100000000E-03 0.  1.
         11   -1    0    0    0    0 -0.00000000000E+00 -0.00000000000E+00 -0.45593999997E+02  0.45594000000E+02  0.51100000000E-03 0. -1.
         23    2    1    2    0    0 -0.71054273576E-14  0.00000000000E+00 -0.88817841970E-15  0.91188000000E+02  0.91188000000E+02 0.  0.
    9900012    2    3    3    0    0 -0.35831942139E+02 -0.18617563906E+02  0.47564692666E+01  0.50528858800E+02  0.29999996810E+02 0.  0.
        -12    1    3    3    0    0  0.35831942139E+02  0.18617563906E+02 -0.47564692666E+01  0.40659141200E+02  0.00000000000E+00 0.  1.
         11    1    4    4    0    0 -0.24173872947E+02 -0.48869868644E+01  0.10434716742E+02  0.26779508726E+02  0.51100000000E-03 0. -1.
        -11    1    4    4    0    0 -0.11654253901E+02 -0.61879661062E+01 -0.85002866942E+01  0.15696096096E+02  0.51100000000E-03 0.  1.
        -12    1    4    4    0    0 -0.38152904230E-02 -0.75426109351E+01  0.28220392193E+01  0.80532539778E+01  0.00000000000E+00 0.  1.
</event>
<event>
 8    1  0.6016610E-012  0.9118800E+02  0.7816164E-02  0.1184000E+00
        -11   -1    0    0    0    0  0.00000000000E+00  0.00000000000E+00  0.45593999997E+02  0.45594000000E+02  0.51100000000E-03 0.  1.
         11   -1    0    0    0    0 -0.00000000000E+00 -0.00000000000E+00 -0.45593999997E+02  0.45594000000E+02  0.51100000000E-03 0. -1.
         23    2    1    2    0    0  0.88817841970E-15  0.00000000000E+00  0.00000000000E+00  0.91188000000E+02  0.91188000000E+02 0.  0.
    9900012    2    3    3    0    0 -0.50567261313E+01  0.36866657737E+02  0.16384309827E+02  0.50528849242E+02  0.29999967756E+02 0.  0.
         12    1    3    3    0    0  0.50567261313E+01 -0.36866657737E+02 -0.16384309827E+02  0.40659150758E+02  0.00000000000E+00 0. -1.
         11    1    4    4    0    0 -0.10306912563E+02  0.83609712880E+01  0.11677427961E+02  0.17677686825E+02  0.51100000000E-03 0. -1.
        -11    1    4    4    0    0  0.15914485495E+01  0.14506140100E+02  0.97241515901E+01  0.17536246277E+02  0.51100000000E-03 0.  1.
         12    1    4    4    0    0  0.36587378821E+01  0.13999546349E+02 -0.50172697242E+01  0.15314916139E+02  0.00000000000E+00 0. -1.
</event>
<event>
 8    1  0.6016610E-012  0.9118800E+02  0.7816164E-02  0.1184000E+00
        -11   -1    0    0    0    0  0.00000000000E+00  0.00000000000E+00  0.45593999997E+02  0.45594000000E+02  0.51100000000E-03 0. -1.
         11   -1    0    0    0    0 -0.00000000000E+00 -0.00000000000E+00 -0.45593999997E+02  0.45594000000E+02  0.51100000000E-03 0.  1.
         23    2    1    2    0    0  0.61062266354E-15 -0.44408920985E-15  0.00000000000E+00  0.91188000000E+02  0.91188000000E+02 0.  0.
    9900012    2    3    3    0    0 -0.15276382606E+00  0.27037754053E+01  0.40568854064E+02  0.50528860090E+02  0.30000000728E+02 0.  0.
        -12    1    3    3    0    0  0.15276382606E+00 -0.27037754053E+01 -0.40568854064E+02  0.40659139910E+02  0.00000000000E+00 0.  1.
         11    1    4    4    0    0 -0.82565753876E+01 -0.72641548081E+00  0.78781641008E+01  0.11435216939E+02  0.51100000000E-03 0. -1.
        -11    1    4    4    0    0  0.42147177636E+01 -0.43343836658E+01  0.29058142885E+02  0.29680404238E+02  0.51100000000E-03 0.  1.
        -12    1    4    4    0    0  0.38890937979E+01  0.77645745519E+01  0.36325470781E+01  0.94132389121E+01  0.00000000000E+00 0.  1.
</event>
<event>
 8    1  0.6016610E-012  0.9118800E+02  0.7816164E-02  0.1184000E+00
        -11   -1    0    0    0    0  0.00000000000E+00  0.00000000000E+00  0.45593999997E+02  0.45594000000E+02  0.51100000000E-03 0. -1.
         11   -1    0    0    0    0 -0.00000000000E+00 -0.00000000000E+00 -0.45593999997E+02  0.45594000000E+02  0.51100000000E-03 0.  1.
         23    2    1    2    0    0  0.00000000000E+00  0.00000000000E+00  0.00000000000E+00  0.91188000000E+02  0.91188000000E+02 0.  0.
    9900012    2    3    3    0    0  0.85381361560E+01  0.20183897988E+02  0.34247291261E+02  0.50528850160E+02  0.29999970547E+02 0.  0.
        -12    1    3    3    0    0 -0.85381361560E+01 -0.20183897988E+02 -0.34247291261E+02  0.40659149840E+02  0.00000000000E+00 0.  1.
         11    1    4    4    0    0  0.24263318608E+01  0.23052384192E+02  0.14132345724E+02  0.27148161984E+02  0.51100000000E-03 0. -1.
        -11    1    4    4    0    0 -0.18147150667E+01 -0.33743831765E+01  0.83320457186E+01  0.91707490813E+01  0.51100000000E-03 0.  1.
         12    1    4    4    0    0  0.79265193619E+01  0.50589697277E+00  0.11782899818E+02  0.14209939094E+02  0.00000000000E+00 0. -1.
</event>
<event>
 8    1  0.6016610E-012  0.9118800E+02  0.7816164E-02  0.1184000E+00
        -11   -1    0    0    0    0  0.00000000000E+00  0.00000000000E+00  0.45593999997E+02  0.45594000000E+02  0.51100000000E-03 0. -1.
         11   -1    0    0    0    0 -0.00000000000E+00 -0.00000000000E+00 -0.45593999997E+02  0.45594000000E+02  0.51100000000E-03 0.  1.
         23    2    1    2    0    0  0.00000000000E+00  0.00000000000E+00 -0.71054273576E-14  0.91188000000E+02  0.91188000000E+02 0.  0.
    9900012    2    3    3    0    0  0.95595906018E+01 -0.12177684907E+02 -0.37596336901E+02  0.50528851822E+02  0.29999975598E+02 0.  0.
         12    1    3    3    0    0 -0.95595906018E+01  0.12177684907E+02  0.37596336901E+02  0.40659148178E+02  0.00000000000E+00 0. -1.
         11    1    4    4    0    0  0.23432603204E+00 -0.49277364294E+01  0.41772229729E+01  0.64642622961E+01  0.51100000000E-03 0. -1.
        -11    1    4    4    0    0  0.59027830851E+01 -0.82261737519E+01 -0.34687843688E+02  0.36135291375E+02  0.51100000000E-03 0.  1.
         12    1    4    4    0    0  0.34224814847E+01  0.97622527383E+00 -0.70857161863E+01  0.79292981512E+01  0.00000000000E+00 0. -1.
</event>
<event>
 8    1  0.6016610E-012  0.9118800E+02  0.7816164E-02  0.1184000E+00
        -11   -1    0    0    0    0  0.00000000000E+00  0.00000000000E+00  0.45593999997E+02  0.45594000000E+02  0.51100000000E-03 0. -1.
         11   -1    0    0    0    0 -0.00000000000E+00 -0.00000000000E+00 -0.45593999997E+02  0.45594000000E+02  0.51100000000E-03 0.  1.
         23    2    1    2    0    0  0.00000000000E+00  0.00000000000E+00 -0.71054273576E-14  0.91188000000E+02  0.91188000000E+02 0.  0.
    9900012    2    3    3    0    0  0.21095312571E+02  0.82786762575E+01  0.33758196651E+02  0.50528873913E+02  0.30000042746E+02 0.  0.
        -12    1    3    3    0    0 -0.21095312571E+02 -0.82786762575E+01 -0.33758196651E+02  0.40659126087E+02  0.00000000000E+00 0.  1.
         11    1    4    4    0    0  0.91191976571E+01 -0.54800718145E+01  0.13121975768E+02  0.16893111061E+02  0.51100000000E-03 0. -1.
        -11    1    4    4    0    0  0.94877986750E+01  0.18688863577E+02  0.17356063635E+02  0.27212586990E+02  0.51100000000E-03 0.  1.
        -12    1    4    4    0    0  0.24883162388E+01 -0.49301155049E+01  0.32801572478E+01  0.64231758630E+01  0.00000000000E+00 0.  1.
</event>
<event>
 8    1  0.6016610E-012  0.9118800E+02  0.7816164E-02  0.1184000E+00
        -11   -1    0    0    0    0  0.00000000000E+00  0.00000000000E+00  0.45593999997E+02  0.45594000000E+02  0.51100000000E-03 0. -1.
         11   -1    0    0    0    0 -0.00000000000E+00 -0.00000000000E+00 -0.45593999997E+02  0.45594000000E+02  0.51100000000E-03 0.  1.
         23    2    1    2    0    0 -0.35527136788E-14  0.00000000000E+00  0.35527136788E-14  0.91188000000E+02  0.91188000000E+02 0.  0.
    9900012    2    3    3    0    0  0.22948370111E+02  0.21645055051E+02  0.25652090170E+02  0.50528857990E+02  0.29999994346E+02 0.  0.
        -12    1    3    3    0    0 -0.22948370111E+02 -0.21645055051E+02 -0.25652090170E+02  0.40659142010E+02  0.00000000000E+00 0.  1.
         11    1    4    4    0    0  0.18270546673E+02  0.13192834637E+02  0.13530047616E+02  0.26285470325E+02  0.51100000000E-03 0. -1.
        -11    1    4    4    0    0 -0.80719489384E+00  0.93318919664E+00  0.14568107115E+02  0.14620265074E+02  0.51100000000E-03 0.  1.
        -12    1    4    4    0    0  0.54850183320E+01  0.75190312175E+01 -0.24460645604E+01  0.96231225902E+01  0.00000000000E+00 0.  1.
</event>
<event>
 8    1  0.6016610E-012  0.9118800E+02  0.7816164E-02  0.1184000E+00
        -11   -1    0    0    0    0  0.00000000000E+00  0.00000000000E+00  0.45593999997E+02  0.45594000000E+02  0.51100000000E-03 0. -1.
         11   -1    0    0    0    0 -0.00000000000E+00 -0.00000000000E+00 -0.45593999997E+02  0.45594000000E+02  0.51100000000E-03 0.  1.
         23    2    1    2    0    0  0.00000000000E+00  0.35527136788E-14  0.00000000000E+00  0.91188000000E+02  0.91188000000E+02 0.  0.
    9900012    2    3    3    0    0  0.34212285304E+02  0.21344690283E+02 -0.52047625189E+01  0.50528858077E+02  0.29999994611E+02 0.  0.
         12    1    3    3    0    0 -0.34212285304E+02 -0.21344690283E+02  0.52047625189E+01  0.40659141923E+02  0.00000000000E+00 0. -1.
         11    1    4    4    0    0 -0.51817038639E+01  0.18023474467E+01  0.40428368671E-01  0.54863599924E+01  0.51100000000E-03 0. -1.
        -11    1    4    4    0    0  0.10601141797E+02  0.92963400793E+01 -0.45000948130E+00  0.14107042747E+02  0.51100000000E-03 0.  1.
         12    1    4    4    0    0  0.28792847371E+02  0.10246002757E+02 -0.47951814063E+01  0.30935455338E+02  0.00000000000E+00 0. -1.
</event>
<event>
 8    1  0.6016610E-012  0.9118800E+02  0.7816164E-02  0.1184000E+00
        -11   -1    0    0    0    0  0.00000000000E+00  0.00000000000E+00  0.45593999997E+02  0.45594000000E+02  0.51100000000E-03 0. -1.
         11   -1    0    0    0    0 -0.00000000000E+00 -0.00000000000E+00 -0.45593999997E+02  0.45594000000E+02  0.51100000000E-03 0.  1.
         23    2    1    2    0    0  0.00000000000E+00  0.00000000000E+00  0.00000000000E+00  0.91188000000E+02  0.91188000000E+02 0.  0.
    9900012    2    3    3    0    0 -0.55114949230E+01 -0.22186688585E+02 -0.33623500283E+02  0.50528862061E+02  0.30000006720E+02 0.  0.
         12    1    3    3    0    0  0.55114949230E+01  0.22186688585E+02  0.33623500283E+02  0.40659137939E+02  0.00000000000E+00 0. -1.
         11    1    4    4    0    0  0.50660956460E+01 -0.60746906562E+01  0.84696306605E+00  0.79551579720E+01  0.51100000000E-03 0. -1.
        -11    1    4    4    0    0 -0.65715033604E+01 -0.86402821842E+00 -0.20374635434E+02  0.21425614822E+02  0.51100000000E-03 0.  1.
         12    1    4    4    0    0 -0.40060872086E+01 -0.15247969710E+02 -0.14095827916E+02  0.21148089267E+02  0.00000000000E+00 0. -1.
</event>
<event>
 8    1  0.7719186E-012  0.9118800E+02  0.7816164E-02  0.1184000E+00
        -11   -1    0    0    0    0  0.00000000000E+00  0.00000000000E+00  0.45593999997E+02  0.45594000000E+02  0.51100000000E-03 0. -1.
         11   -1    0    0    0    0 -0.00000000000E+00 -0.00000000000E+00 -0.45593999997E+02  0.45594000000E+02  0.51100000000E-03 0.  1.
         23    2    1    2    0    0  0.66613381478E-15  0.00000000000E+00 -0.35527136788E-14  0.91188000000E+02  0.91188000000E+02 0.  0.
    9900012    2    3    3    0    0  0.14966586178E+01 -0.34802197101E+02  0.20969817822E+02  0.50528853802E+02  0.29999981616E+02 0.  0.
        -12    1    3    3    0    0 -0.14966586178E+01  0.34802197101E+02 -0.20969817822E+02  0.40659146198E+02  0.00000000000E+00 0.  1.
         11    1    4    4    0    0  0.47401708966E+01 -0.15264833684E+02  0.11133620454E+02  0.19479267754E+02  0.51100000000E-03 0. -1.
        -11    1    4    4    0    0 -0.75300478931E+01 -0.27497384826E+01  0.11083284825E+02  0.13678519136E+02  0.51100000000E-03 0.  1.
        -12    1    4    4    0    0  0.42865356144E+01 -0.16787624934E+02 -0.12470874578E+01  0.17371066911E+02  0.00000000000E+00 0.  1.
</event>
<event>
 8    1  0.9589035E-012  0.9118800E+02  0.7816164E-02  0.1184000E+00
        -11   -1    0    0    0    0  0.00000000000E+00  0.00000000000E+00  0.45593999997E+02  0.45594000000E+02  0.51100000000E-03 0. -1.
         11   -1    0    0    0    0 -0.00000000000E+00 -0.00000000000E+00 -0.45593999997E+02  0.45594000000E+02  0.51100000000E-03 0.  1.
         23    2    1    2    0    0 -0.88817841970E-15 -0.17763568394E-14  0.00000000000E+00  0.91188000000E+02  0.91188000000E+02 0.  0.
    9900012    2    3    3    0    0  0.52924585301E+01 -0.12596744479E+02  0.38294626330E+02  0.50528849806E+02  0.29999969469E+02 0.  0.
        -12    1    3    3    0    0 -0.52924585301E+01  0.12596744479E+02 -0.38294626330E+02  0.40659150194E+02  0.00000000000E+00 0.  1.
         11    1    4    4    0    0  0.96750580885E+00 -0.22688587728E+01  0.29986910993E+02  0.30088180716E+02  0.51100000000E-03 0. -1.
        -11    1    4    4    0    0 -0.29021390525E+01 -0.63130635446E-01 -0.25340817043E+01  0.38533059705E+01  0.51100000000E-03 0.  1.
        -12    1    4    4    0    0  0.72270917737E+01 -0.10264755071E+02  0.10841797041E+02  0.16587363120E+02  0.00000000000E+00 0.  1.
</event>
<event>
 8    1  0.6016610E-012  0.9118800E+02  0.7816164E-02  0.1184000E+00
        -11   -1    0    0    0    0  0.00000000000E+00  0.00000000000E+00  0.45593999997E+02  0.45594000000E+02  0.51100000000E-03 0. -1.
         11   -1    0    0    0    0 -0.00000000000E+00 -0.00000000000E+00 -0.45593999997E+02  0.45594000000E+02  0.51100000000E-03 0.  1.
         23    2    1    2    0    0  0.71054273576E-14  0.88817841970E-15 -0.35527136788E-14  0.91188000000E+02  0.91188000000E+02 0.  0.
    9900012    2    3    3    0    0  0.33935551018E+02  0.53985443433E+01 -0.21734765652E+02  0.50528856602E+02  0.29999990127E+02 0.  0.
         12    1    3    3    0    0 -0.33935551018E+02 -0.53985443433E+01  0.21734765652E+02  0.40659143398E+02  0.00000000000E+00 0. -1.
         11    1    4    4    0    0  0.24342443736E+02  0.10088025113E+02 -0.10328150547E+02  0.28301828770E+02  0.51100000000E-03 0.  1.
        -11    1    4    4    0    0  0.68338162408E+00 -0.72348236737E+01  0.32869054134E+00  0.72744568022E+01  0.51100000000E-03 0. -1.
        -12    1    4    4    0    0  0.89097256580E+01  0.25453429041E+01 -0.11735305646E+02  0.14952571030E+02  0.00000000000E+00 0.  1.
</event>
<event>
 8    1  0.7553378E-012  0.9118800E+02  0.7816164E-02  0.1184000E+00
        -11   -1    0    0    0    0  0.00000000000E+00  0.00000000000E+00  0.45593999997E+02  0.45594000000E+02  0.51100000000E-03 0. -1.
         11   -1    0    0    0    0 -0.00000000000E+00 -0.00000000000E+00 -0.45593999997E+02  0.45594000000E+02  0.51100000000E-03 0.  1.
         23    2    1    2    0    0  0.00000000000E+00  0.00000000000E+00  0.00000000000E+00  0.91188000000E+02  0.91188000000E+02 0.  0.
    9900012    2    3    3    0    0 -0.14972079638E+02  0.18901079411E+02  0.32737611839E+02  0.50528865719E+02  0.30000017840E+02 0.  0.
        -12    1    3    3    0    0  0.14972079638E+02 -0.18901079411E+02 -0.32737611839E+02  0.40659134281E+02  0.00000000000E+00 0.  1.
         11    1    4    4    0    0 -0.52367421506E+01  0.15229579951E+02  0.17351903207E+02  0.23673869963E+02  0.51100000000E-03 0. -1.
        -11    1    4    4    0    0 -0.15298323560E+02  0.19712255872E+00  0.92795561366E+01  0.17893790080E+02  0.51100000000E-03 0.  1.
        -12    1    4    4    0    0  0.55629860731E+01  0.34743769009E+01  0.61061524949E+01  0.89612056772E+01  0.00000000000E+00 0.  1.
</event>
<event>
 8    1  0.6016610E-012  0.9118800E+02  0.7816164E-02  0.1184000E+00
        -11   -1    0    0    0    0  0.00000000000E+00  0.00000000000E+00  0.45593999997E+02  0.45594000000E+02  0.51100000000E-03 0. -1.
         11   -1    0    0    0    0 -0.00000000000E+00 -0.00000000000E+00 -0.45593999997E+02  0.45594000000E+02  0.51100000000E-03 0.  1.
         23    2    1    2    0    0  0.00000000000E+00  0.35527136788E-14  0.00000000000E+00  0.91188000000E+02  0.91188000000E+02 0.  0.
    9900012    2    3    3    0    0  0.18353429197E+02  0.26031418241E+02 -0.25272141344E+02  0.50528877689E+02  0.30000054224E+02 0.  0.
         12    1    3    3    0    0 -0.18353429197E+02 -0.26031418241E+02  0.25272141344E+02  0.40659122311E+02  0.00000000000E+00 0. -1.
         11    1    4    4    0    0  0.16166259398E+02  0.52828118336E+01 -0.22118086440E+02  0.27900999835E+02  0.51100000000E-03 0. -1.
        -11    1    4    4    0    0  0.13789116056E+01  0.16529597493E+01 -0.27741599005E+01  0.35113582221E+01  0.51100000000E-03 0.  1.
         12    1    4    4    0    0  0.80825819432E+00  0.19095646659E+02 -0.37989500314E+00  0.19116519632E+02  0.00000000000E+00 0. -1.
</event>
<event>
 8    1  0.6016610E-012  0.9118800E+02  0.7816164E-02  0.1184000E+00
        -11   -1    0    0    0    0  0.00000000000E+00  0.00000000000E+00  0.45593999997E+02  0.45594000000E+02  0.51100000000E-03 0. -1.
         11   -1    0    0    0    0 -0.00000000000E+00 -0.00000000000E+00 -0.45593999997E+02  0.45594000000E+02  0.51100000000E-03 0.  1.
         23    2    1    2    0    0  0.35527136788E-14 -0.44408920985E-15  0.00000000000E+00  0.91188000000E+02  0.91188000000E+02 0.  0.
    9900012    2    3    3    0    0  0.26698053626E+02  0.23473647714E+01 -0.30575628335E+02  0.50528865272E+02  0.30000016480E+02 0.  0.
         12    1    3    3    0    0 -0.26698053626E+02 -0.23473647714E+01  0.30575628335E+02  0.40659134728E+02  0.00000000000E+00 0. -1.
         11    1    4    4    0    0  0.11151646718E+02  0.31976920371E+01  0.26270705940E+01  0.11894787054E+02  0.51100000000E-03 0. -1.
        -11    1    4    4    0    0  0.10951247358E+02 -0.51945810973E+01 -0.27759930304E+02  0.30290711814E+02  0.51100000000E-03 0.  1.
        -12    1    4    4    0    0  0.45951595492E+01  0.43442538315E+01 -0.54427686249E+01  0.83433664032E+01  0.00000000000E+00 0.  1.
</event>
<event>
 8    1  0.6016610E-012  0.9118800E+02  0.7816164E-02  0.1184000E+00
        -11   -1    0    0    0    0  0.00000000000E+00  0.00000000000E+00  0.45593999997E+02  0.45594000000E+02  0.51100000000E-03 0. -1.
         11   -1    0    0    0    0 -0.00000000000E+00 -0.00000000000E+00 -0.45593999997E+02  0.45594000000E+02  0.51100000000E-03 0.  1.
         23    2    1    2    0    0  0.00000000000E+00  0.00000000000E+00  0.00000000000E+00  0.91188000000E+02  0.91188000000E+02 0.  0.
    9900012    2    3    3    0    0 -0.17101634723E+02  0.15128438730E+02 -0.33642680958E+02  0.50528861413E+02  0.30000004750E+02 0.  0.
         12    1    3    3    0    0  0.17101634723E+02 -0.15128438730E+02  0.33642680958E+02  0.40659138587E+02  0.00000000000E+00 0. -1.
         11    1    4    4    0    0  0.66248434717E+01 -0.63430166318E+00 -0.49458862123E+01  0.82917236031E+01  0.51100000000E-03 0. -1.
        -11    1    4    4    0    0 -0.21904923368E+02  0.10438043647E+02 -0.18217369501E+02  0.30342230880E+02  0.51100000000E-03 0.  1.
        -12    1    4    4    0    0 -0.18215548268E+01  0.53246967466E+01 -0.10479425244E+02  0.11894906930E+02  0.00000000000E+00 0.  1.
</event>
<event>
 8    1  0.6016610E-012  0.9118800E+02  0.7816164E-02  0.1184000E+00
        -11   -1    0    0    0    0  0.00000000000E+00  0.00000000000E+00  0.45593999997E+02  0.45594000000E+02  0.51100000000E-03 0. -1.
         11   -1    0    0    0    0 -0.00000000000E+00 -0.00000000000E+00 -0.45593999997E+02  0.45594000000E+02  0.51100000000E-03 0.  1.
         23    2    1    2    0    0  0.00000000000E+00  0.00000000000E+00  0.00000000000E+00  0.91188000000E+02  0.91188000000E+02 0.  0.
    9900012    2    3    3    0    0 -0.20040782754E+02 -0.23429142808E+02 -0.26506547875E+02  0.50528993785E+02  0.30000407107E+02 0.  0.
         12    1    3    3    0    0  0.20040782754E+02  0.23429142808E+02  0.26506547875E+02  0.40659006215E+02  0.00000000000E+00 0. -1.
         11    1    4    4    0    0 -0.11047663743E+02 -0.17823616038E+02 -0.10593193469E+02  0.23493571695E+02  0.51100000000E-03 0. -1.
        -11    1    4    4    0    0  0.55928643860E+01  0.85339594577E+00 -0.60359487232E+01  0.82729132674E+01  0.51100000000E-03 0.  1.
        -12    1    4    4    0    0 -0.14585983397E+02 -0.64589227153E+01 -0.98774056830E+01  0.18762508823E+02  0.00000000000E+00 0.  1.
</event>
<event>
 8    1  0.6016610E-012  0.9118800E+02  0.7816164E-02  0.1184000E+00
        -11   -1    0    0    0    0  0.00000000000E+00  0.00000000000E+00  0.45593999997E+02  0.45594000000E+02  0.51100000000E-03 0. -1.
         11   -1    0    0    0    0 -0.00000000000E+00 -0.00000000000E+00 -0.45593999997E+02  0.45594000000E+02  0.51100000000E-03 0.  1.
         23    2    1    2    0    0 -0.17763568394E-14  0.00000000000E+00  0.00000000000E+00  0.91188000000E+02  0.91188000000E+02 0.  0.
    9900012    2    3    3    0    0 -0.15951559904E+02  0.37347181148E+02  0.19752040458E+01  0.50528860386E+02  0.30000001630E+02 0.  0.
        -12    1    3    3    0    0  0.15951559904E+02 -0.37347181148E+02 -0.19752040458E+01  0.40659139614E+02  0.00000000000E+00 0.  1.
         11    1    4    4    0    0 -0.19105372013E+02  0.30727755861E+02 -0.10145662338E+01  0.36197231453E+02  0.51100000000E-03 0. -1.
        -11    1    4    4    0    0  0.77004032029E+01  0.50402235942E+01  0.19597361764E+01  0.94096030474E+01  0.51100000000E-03 0.  1.
         12    1    4    4    0    0 -0.45465910944E+01  0.15792016936E+01  0.10300341032E+01  0.49220258860E+01  0.00000000000E+00 0. -1.
</event>
<event>
 8    1  0.6016610E-012  0.9118800E+02  0.7816164E-02  0.1184000E+00
        -11   -1    0    0    0    0  0.00000000000E+00  0.00000000000E+00  0.45593999997E+02  0.45594000000E+02  0.51100000000E-03 0. -1.
         11   -1    0    0    0    0 -0.00000000000E+00 -0.00000000000E+00 -0.45593999997E+02  0.45594000000E+02  0.51100000000E-03 0.  1.
         23    2    1    2    0    0  0.00000000000E+00  0.00000000000E+00  0.00000000000E+00  0.91188000000E+02  0.91188000000E+02 0.  0.
    9900012    2    3    3    0    0  0.19178803211E+02 -0.18556906387E+02 -0.30675411980E+02  0.50528853829E+02  0.29999981697E+02 0.  0.
         12    1    3    3    0    0 -0.19178803211E+02  0.18556906387E+02  0.30675411980E+02  0.40659146171E+02  0.00000000000E+00 0. -1.
         11    1    4    4    0    0  0.40316437836E+01 -0.13019781969E+02 -0.38645080851E+01  0.14166979111E+02  0.51100000000E-03 0. -1.
        -11    1    4    4    0    0  0.18612503026E+02 -0.13666199252E+01 -0.17482738509E+02  0.25572232302E+02  0.51100000000E-03 0.  1.
        -12    1    4    4    0    0 -0.34653435987E+01 -0.41705044926E+01 -0.93281653862E+01  0.10789642415E+02  0.00000000000E+00 0.  1.
</event>
<event>
 8    1  0.6016610E-012  0.9118800E+02  0.7816164E-02  0.1184000E+00
        -11   -1    0    0    0    0  0.00000000000E+00  0.00000000000E+00  0.45593999997E+02  0.45594000000E+02  0.51100000000E-03 0. -1.
         11   -1    0    0    0    0 -0.00000000000E+00 -0.00000000000E+00 -0.45593999997E+02  0.45594000000E+02  0.51100000000E-03 0.  1.
         23    2    1    2    0    0  0.88817841970E-15  0.00000000000E+00  0.00000000000E+00  0.91188000000E+02  0.91188000000E+02 0.  0.
    9900012    2    3    3    0    0  0.47728461593E+01  0.11604817917E+02 -0.38674463006E+02  0.50528856525E+02  0.29999989894E+02 0.  0.
         12    1    3    3    0    0 -0.47728461593E+01 -0.11604817917E+02  0.38674463006E+02  0.40659143475E+02  0.00000000000E+00 0. -1.
         11    1    4    4    0    0 -0.33781194799E+01  0.12207765419E+02 -0.40944744656E+01  0.13311872488E+02  0.51100000000E-03 0. -1.
        -11    1    4    4    0    0  0.21206947885E+01 -0.52963349066E+01 -0.10449635409E+02  0.11905603314E+02  0.51100000000E-03 0.  1.
         12    1    4    4    0    0  0.60302708507E+01  0.46933874048E+01 -0.24130353131E+02  0.25311380723E+02  0.00000000000E+00 0. -1.
</event>
<event>
 8    1  0.6016610E-012  0.9118800E+02  0.7816164E-02  0.1184000E+00
        -11   -1    0    0    0    0  0.00000000000E+00  0.00000000000E+00  0.45593999997E+02  0.45594000000E+02  0.51100000000E-03 0.  1.
         11   -1    0    0    0    0 -0.00000000000E+00 -0.00000000000E+00 -0.45593999997E+02  0.45594000000E+02  0.51100000000E-03 0. -1.
         23    2    1    2    0    0  0.00000000000E+00 -0.71054273576E-14  0.17763568394E-14  0.91188000000E+02  0.91188000000E+02 0.  0.
    9900012    2    3    3    0    0  0.15110145648E+02  0.35870140387E+02 -0.11755083159E+02  0.50528862614E+02  0.30000008402E+02 0.  0.
         12    1    3    3    0    0 -0.15110145648E+02 -0.35870140387E+02  0.11755083159E+02  0.40659137386E+02  0.00000000000E+00 0. -1.
         11    1    4    4    0    0 -0.36219911016E+01  0.13846039580E+02 -0.11613772507E+02  0.18431259959E+02  0.51100000000E-03 0. -1.
        -11    1    4    4    0    0  0.67087224945E+01  0.16348581367E+02  0.41017704583E+01  0.18141322757E+02  0.51100000000E-03 0.  1.
         12    1    4    4    0    0  0.12023414256E+02  0.56755194399E+01 -0.42430811109E+01  0.13956279898E+02  0.00000000000E+00 0. -1.
</event>
<event>
 8    1  0.6016610E-012  0.9118800E+02  0.7816164E-02  0.1184000E+00
        -11   -1    0    0    0    0  0.00000000000E+00  0.00000000000E+00  0.45593999997E+02  0.45594000000E+02  0.51100000000E-03 0. -1.
         11   -1    0    0    0    0 -0.00000000000E+00 -0.00000000000E+00 -0.45593999997E+02  0.45594000000E+02  0.51100000000E-03 0.  1.
         23    2    1    2    0    0  0.00000000000E+00  0.00000000000E+00 -0.35527136788E-14  0.91188000000E+02  0.91188000000E+02 0.  0.
    9900012    2    3    3    0    0 -0.17533269714E+02  0.20590918017E+02 -0.30360552520E+02  0.50528873092E+02  0.30000040249E+02 0.  0.
         12    1    3    3    0    0  0.17533269714E+02 -0.20590918017E+02  0.30360552520E+02  0.40659126908E+02  0.00000000000E+00 0. -1.
         11    1    4    4    0    0 -0.10559620155E+02 -0.25940338190E+01 -0.17938466872E+02  0.20976729565E+02  0.51100000000E-03 0.  1.
        -11    1    4    4    0    0 -0.65938249861E+01  0.23150689299E+02 -0.14055675025E+02  0.27874629031E+02  0.51100000000E-03 0. -1.
         12    1    4    4    0    0 -0.37982457354E+00  0.34262537027E-01  0.16335893774E+01  0.16775144953E+01  0.00000000000E+00 0. -1.
</event>
<event>
 8    1  0.6016610E-012  0.9118800E+02  0.7816164E-02  0.1184000E+00
        -11   -1    0    0    0    0  0.00000000000E+00  0.00000000000E+00  0.45593999997E+02  0.45594000000E+02  0.51100000000E-03 0. -1.
         11   -1    0    0    0    0 -0.00000000000E+00 -0.00000000000E+00 -0.45593999997E+02  0.45594000000E+02  0.51100000000E-03 0.  1.
         23    2    1    2    0    0  0.00000000000E+00  0.17763568394E-14  0.00000000000E+00  0.91188000000E+02  0.91188000000E+02 0.  0.
    9900012    2    3    3    0    0 -0.90738113772E+01 -0.15348672870E+02 -0.36541076512E+02  0.50528854849E+02  0.29999984799E+02 0.  0.
         12    1    3    3    0    0  0.90738113772E+01  0.15348672870E+02  0.36541076512E+02  0.40659145151E+02  0.00000000000E+00 0. -1.
         11    1    4    4    0    0  0.47134283771E+01 -0.77781519892E+01 -0.82216003746E+00  0.91319221866E+01  0.51100000000E-03 0. -1.
        -11    1    4    4    0    0 -0.16299517134E+02 -0.44056963412E+01 -0.28792417897E+02  0.33377953018E+02  0.51100000000E-03 0.  1.
        -12    1    4    4    0    0  0.25122773796E+01 -0.31648245399E+01 -0.69264985768E+01  0.80189796442E+01  0.00000000000E+00 0.  1.
</event>
<event>
 8    1  0.6694732E-012  0.9118800E+02  0.7816164E-02  0.1184000E+00
        -11   -1    0    0    0    0  0.00000000000E+00  0.00000000000E+00  0.45593999997E+02  0.45594000000E+02  0.51100000000E-03 0. -1.
         11   -1    0    0    0    0 -0.00000000000E+00 -0.00000000000E+00 -0.45593999997E+02  0.45594000000E+02  0.51100000000E-03 0.  1.
         23    2    1    2    0    0  0.17763568394E-14  0.17763568394E-14  0.00000000000E+00  0.91188000000E+02  0.91188000000E+02 0.  0.
    9900012    2    3    3    0    0  0.73872678770E+01 -0.83959577992E+01  0.39090921634E+02  0.50528880626E+02  0.30000063152E+02 0.  0.
        -12    1    3    3    0    0 -0.73872678770E+01  0.83959577992E+01 -0.39090921634E+02  0.40659119374E+02  0.00000000000E+00 0.  1.
         11    1    4    4    0    0  0.77419477234E+01 -0.11732068110E+02  0.18969513455E+02  0.23609778010E+02  0.51100000000E-03 0. -1.
        -11    1    4    4    0    0  0.24942709493E+01  0.10062739386E+02  0.97384777985E+01  0.14223855371E+02  0.51100000000E-03 0.  1.
        -12    1    4    4    0    0 -0.28489507957E+01 -0.67266290749E+01  0.10382930380E+02  0.12695247246E+02  0.00000000000E+00 0.  1.
</event>
<event>
 8    1  0.6016610E-012  0.9118800E+02  0.7816164E-02  0.1184000E+00
        -11   -1    0    0    0    0  0.00000000000E+00  0.00000000000E+00  0.45593999997E+02  0.45594000000E+02  0.51100000000E-03 0. -1.
         11   -1    0    0    0    0 -0.00000000000E+00 -0.00000000000E+00 -0.45593999997E+02  0.45594000000E+02  0.51100000000E-03 0.  1.
         23    2    1    2    0    0  0.35527136788E-14  0.00000000000E+00  0.00000000000E+00  0.91188000000E+02  0.91188000000E+02 0.  0.
    9900012    2    3    3    0    0 -0.14821675504E+02 -0.23945771741E+02  0.29327184657E+02  0.50528858237E+02  0.29999995097E+02 0.  0.
        -12    1    3    3    0    0  0.14821675504E+02  0.23945771741E+02 -0.29327184657E+02  0.40659141763E+02  0.00000000000E+00 0.  1.
         11    1    4    4    0    0 -0.10948678347E+01 -0.10608226030E+02  0.72685344104E+01  0.12905998134E+02  0.51100000000E-03 0. -1.
        -11    1    4    4    0    0 -0.10562039580E+02  0.24631014331E+01  0.70116934114E+00  0.10868081131E+02  0.51100000000E-03 0.  1.
        -12    1    4    4    0    0 -0.31647680888E+01 -0.15800647144E+02  0.21357480905E+02  0.26754778972E+02  0.00000000000E+00 0.  1.
</event>
<event>
 8    1  0.6016610E-012  0.9118800E+02  0.7816164E-02  0.1184000E+00
        -11   -1    0    0    0    0  0.00000000000E+00  0.00000000000E+00  0.45593999997E+02  0.45594000000E+02  0.51100000000E-03 0. -1.
         11   -1    0    0    0    0 -0.00000000000E+00 -0.00000000000E+00 -0.45593999997E+02  0.45594000000E+02  0.51100000000E-03 0.  1.
         23    2    1    2    0    0  0.00000000000E+00  0.00000000000E+00  0.00000000000E+00  0.91188000000E+02  0.91188000000E+02 0.  0.
    9900012    2    3    3    0    0  0.18931080660E+02 -0.20435524466E+02 -0.29617045876E+02  0.50528857343E+02  0.29999992381E+02 0.  0.
         12    1    3    3    0    0 -0.18931080660E+02  0.20435524466E+02  0.29617045876E+02  0.40659142657E+02  0.00000000000E+00 0. -1.
         11    1    4    4    0    0  0.11433387821E+02  0.58180562611E+01 -0.10676099598E+02  0.16689854362E+02  0.51100000000E-03 0. -1.
        -11    1    4    4    0    0  0.40086351189E+00 -0.12295938647E+02 -0.70672524896E+01  0.14187912347E+02  0.51100000000E-03 0.  1.
         12    1    4    4    0    0  0.70968293272E+01 -0.13957642080E+02 -0.11873693788E+02  0.19651090634E+02  0.00000000000E+00 0. -1.
</event>
<event>
 8    1  0.6016610E-012  0.9118800E+02  0.7816164E-02  0.1184000E+00
        -11   -1    0    0    0    0  0.00000000000E+00  0.00000000000E+00  0.45593999997E+02  0.45594000000E+02  0.51100000000E-03 0. -1.
         11   -1    0    0    0    0 -0.00000000000E+00 -0.00000000000E+00 -0.45593999997E+02  0.45594000000E+02  0.51100000000E-03 0.  1.
         23    2    1    2    0    0 -0.35527136788E-14  0.00000000000E+00  0.00000000000E+00  0.91188000000E+02  0.91188000000E+02 0.  0.
    9900012    2    3    3    0    0  0.19244401044E+02 -0.34520381999E+02  0.95479914980E+01  0.50528832688E+02  0.29999917438E+02 0.  0.
        -12    1    3    3    0    0 -0.19244401044E+02  0.34520381999E+02 -0.95479914980E+01  0.40659167312E+02  0.00000000000E+00 0.  1.
         11    1    4    4    0    0 -0.25187183525E+00 -0.22895733416E+02  0.11850359255E+02  0.25781952269E+02  0.51100000000E-03 0. -1.
        -11    1    4    4    0    0  0.47742417563E+01  0.75691181212E+00 -0.26393118145E+01  0.55074737361E+01  0.51100000000E-03 0.  1.
         12    1    4    4    0    0  0.14722031123E+02 -0.12381560395E+02  0.33694405746E+00  0.19239406683E+02  0.00000000000E+00 0. -1.
</event>
<event>
 8    1  0.6016610E-012  0.9118800E+02  0.7816164E-02  0.1184000E+00
        -11   -1    0    0    0    0  0.00000000000E+00  0.00000000000E+00  0.45593999997E+02  0.45594000000E+02  0.51100000000E-03 0. -1.
         11   -1    0    0    0    0 -0.00000000000E+00 -0.00000000000E+00 -0.45593999997E+02  0.45594000000E+02  0.51100000000E-03 0.  1.
         23    2    1    2    0    0  0.00000000000E+00  0.35527136788E-14  0.35527136788E-14  0.91188000000E+02  0.91188000000E+02 0.  0.
    9900012    2    3    3    0    0  0.21702535652E+02  0.22166364594E+02  0.26283425076E+02  0.50528853345E+02  0.29999980226E+02 0.  0.
        -12    1    3    3    0    0 -0.21702535652E+02 -0.22166364594E+02 -0.26283425076E+02  0.40659146655E+02  0.00000000000E+00 0.  1.
         11    1    4    4    0    0  0.10113985240E+01  0.35288090019E+01 -0.53288462583E+01  0.64708594987E+01  0.51100000000E-03 0. -1.
        -11    1    4    4    0    0  0.11319268694E+02  0.10616499550E+02  0.80985016212E+01  0.17504903177E+02  0.51100000000E-03 0.  1.
         12    1    4    4    0    0  0.93718684334E+01  0.80210560422E+01  0.23513769713E+02  0.26553090669E+02  0.00000000000E+00 0. -1.
</event>
<event>
 8    1  0.6016610E-012  0.9118800E+02  0.7816164E-02  0.1184000E+00
        -11   -1    0    0    0    0  0.00000000000E+00  0.00000000000E+00  0.45593999997E+02  0.45594000000E+02  0.51100000000E-03 0.  1.
         11   -1    0    0    0    0 -0.00000000000E+00 -0.00000000000E+00 -0.45593999997E+02  0.45594000000E+02  0.51100000000E-03 0. -1.
         23    2    1    2    0    0  0.00000000000E+00  0.35527136788E-14  0.00000000000E+00  0.91188000000E+02  0.91188000000E+02 0.  0.
    9900012    2    3    3    0    0  0.17083023288E+02 -0.26841704289E+02 -0.25315183983E+02  0.50528864325E+02  0.30000013601E+02 0.  0.
         12    1    3    3    0    0 -0.17083023288E+02  0.26841704289E+02  0.25315183983E+02  0.40659135675E+02  0.00000000000E+00 0. -1.
         11    1    4    4    0    0  0.69304489612E+01 -0.23906424909E+02 -0.21044627198E+02  0.32594855559E+02  0.51100000000E-03 0. -1.
        -11    1    4    4    0    0  0.13475939706E+02 -0.94946885740E+00 -0.38029126892E+01  0.14034407264E+02  0.51100000000E-03 0.  1.
         12    1    4    4    0    0 -0.33233653792E+01 -0.19858105227E+01 -0.46764409561E+00  0.38996015021E+01  0.00000000000E+00 0. -1.
</event>
<event>
 8    1  0.6016610E-012  0.9118800E+02  0.7816164E-02  0.1184000E+00
        -11   -1    0    0    0    0  0.00000000000E+00  0.00000000000E+00  0.45593999997E+02  0.45594000000E+02  0.51100000000E-03 0. -1.
         11   -1    0    0    0    0 -0.00000000000E+00 -0.00000000000E+00 -0.45593999997E+02  0.45594000000E+02  0.51100000000E-03 0.  1.
         23    2    1    2    0    0  0.00000000000E+00  0.22204460493E-15  0.71054273576E-14  0.91188000000E+02  0.91188000000E+02 0.  0.
    9900012    2    3    3    0    0 -0.15382623029E+02 -0.11092845305E+01 -0.37620607727E+02  0.50528859217E+02  0.29999998077E+02 0.  0.
         12    1    3    3    0    0  0.15382623029E+02  0.11092845305E+01  0.37620607727E+02  0.40659140783E+02  0.00000000000E+00 0. -1.
         11    1    4    4    0    0  0.20556627288E+01 -0.20731755148E+01  0.13760227344E+01  0.32275756841E+01  0.51100000000E-03 0. -1.
        -11    1    4    4    0    0 -0.13170845350E+02  0.88018311295E+01 -0.15482855114E+02  0.22150896172E+02  0.51100000000E-03 0.  1.
        -12    1    4    4    0    0 -0.42674404080E+01 -0.78379401452E+01 -0.23513775347E+02  0.25150387362E+02  0.00000000000E+00 0.  1.
</event>
<event>
 8    1  0.6016610E-012  0.9118800E+02  0.7816164E-02  0.1184000E+00
        -11   -1    0    0    0    0  0.00000000000E+00  0.00000000000E+00  0.45593999997E+02  0.45594000000E+02  0.51100000000E-03 0. -1.
         11   -1    0    0    0    0 -0.00000000000E+00 -0.00000000000E+00 -0.45593999997E+02  0.45594000000E+02  0.51100000000E-03 0.  1.
         23    2    1    2    0    0  0.00000000000E+00  0.00000000000E+00  0.71054273576E-14  0.91188000000E+02  0.91188000000E+02 0.  0.
    9900012    2    3    3    0    0 -0.83951036550E+01 -0.57476478122E+01 -0.39365633800E+02  0.50528851642E+02  0.29999975050E+02 0.  0.
         12    1    3    3    0    0  0.83951036550E+01  0.57476478122E+01  0.39365633800E+02  0.40659148358E+02  0.00000000000E+00 0. -1.
         11    1    4    4    0    0  0.12013112149E+01 -0.80800819894E-02  0.83947053465E+00  0.14655800771E+01  0.51100000000E-03 0. -1.
        -11    1    4    4    0    0 -0.14002024259E+02 -0.52952987905E+01 -0.41766412049E+02  0.44368119729E+02  0.51100000000E-03 0.  1.
        -12    1    4    4    0    0  0.44056093887E+01 -0.44426893970E+00  0.15613077145E+01  0.46951518352E+01  0.00000000000E+00 0.  1.
</event>
<event>
 8    1  0.6016610E-012  0.9118800E+02  0.7816164E-02  0.1184000E+00
        -11   -1    0    0    0    0  0.00000000000E+00  0.00000000000E+00  0.45593999997E+02  0.45594000000E+02  0.51100000000E-03 0. -1.
         11   -1    0    0    0    0 -0.00000000000E+00 -0.00000000000E+00 -0.45593999997E+02  0.45594000000E+02  0.51100000000E-03 0.  1.
         23    2    1    2    0    0 -0.17763568394E-14  0.00000000000E+00 -0.35527136788E-14  0.91188000000E+02  0.91188000000E+02 0.  0.
    9900012    2    3    3    0    0 -0.10288737395E+02 -0.27967870619E+02 -0.27660570657E+02  0.50528842690E+02  0.29999947839E+02 0.  0.
         12    1    3    3    0    0  0.10288737395E+02  0.27967870619E+02  0.27660570657E+02  0.40659157310E+02  0.00000000000E+00 0. -1.
         11    1    4    4    0    0 -0.65217635141E+01 -0.14950436211E+02 -0.18102265763E+01  0.16411150562E+02  0.51100000000E-03 0. -1.
        -11    1    4    4    0    0 -0.34418390726E+01 -0.17247260376E+02 -0.23210308283E+02  0.29121000284E+02  0.51100000000E-03 0.  1.
        -12    1    4    4    0    0 -0.32513480859E+00  0.42298259689E+01 -0.26400357978E+01  0.49966918441E+01  0.00000000000E+00 0.  1.
</event>
<event>
 8    1  0.6016610E-012  0.9118800E+02  0.7816164E-02  0.1184000E+00
        -11   -1    0    0    0    0  0.00000000000E+00  0.00000000000E+00  0.45593999997E+02  0.45594000000E+02  0.51100000000E-03 0. -1.
         11   -1    0    0    0    0 -0.00000000000E+00 -0.00000000000E+00 -0.45593999997E+02  0.45594000000E+02  0.51100000000E-03 0.  1.
         23    2    1    2    0    0 -0.17763568394E-14  0.17763568394E-14  0.00000000000E+00  0.91188000000E+02  0.91188000000E+02 0.  0.
    9900012    2    3    3    0    0  0.14200099346E+02 -0.12725924966E+02  0.35910647472E+02  0.50528848638E+02  0.29999965919E+02 0.  0.
        -12    1    3    3    0    0 -0.14200099346E+02  0.12725924966E+02 -0.35910647472E+02  0.40659151362E+02  0.00000000000E+00 0.  1.
         11    1    4    4    0    0  0.35523805205E+00  0.79709515763E+01  0.51590206579E+01  0.95014608095E+01  0.51100000000E-03 0. -1.
        -11    1    4    4    0    0  0.17766337030E+01 -0.11756658041E+02  0.10865582325E+02  0.16107026887E+02  0.51100000000E-03 0.  1.
         12    1    4    4    0    0  0.12068227591E+02 -0.89402185016E+01  0.19886044488E+02  0.24920360941E+02  0.00000000000E+00 0. -1.
</event>
<event>
 8    1  0.6016610E-012  0.9118800E+02  0.7816164E-02  0.1184000E+00
        -11   -1    0    0    0    0  0.00000000000E+00  0.00000000000E+00  0.45593999997E+02  0.45594000000E+02  0.51100000000E-03 0. -1.
         11   -1    0    0    0    0 -0.00000000000E+00 -0.00000000000E+00 -0.45593999997E+02  0.45594000000E+02  0.51100000000E-03 0.  1.
         23    2    1    2    0    0 -0.88817841970E-15  0.44408920985E-15  0.00000000000E+00  0.91188000000E+02  0.91188000000E+02 0.  0.
    9900012    2    3    3    0    0 -0.60983433286E+01  0.28624318598E+01 -0.40097147517E+02  0.50528873761E+02  0.30000042284E+02 0.  0.
         12    1    3    3    0    0  0.60983433286E+01 -0.28624318598E+01  0.40097147517E+02  0.40659126239E+02  0.00000000000E+00 0. -1.
         11    1    4    4    0    0  0.15068335717E+01  0.13722757546E+02 -0.11808634379E+02  0.18166685670E+02  0.51100000000E-03 0. -1.
        -11    1    4    4    0    0  0.10094487344E+01 -0.14635801818E+01 -0.94497333020E+01  0.96155350051E+01  0.51100000000E-03 0.  1.
         12    1    4    4    0    0 -0.86146256347E+01 -0.93967455043E+01 -0.18838779836E+02  0.22746653086E+02  0.00000000000E+00 0. -1.
</event>
<event>
 8    1  0.6016610E-012  0.9118800E+02  0.7816164E-02  0.1184000E+00
        -11   -1    0    0    0    0  0.00000000000E+00  0.00000000000E+00  0.45593999997E+02  0.45594000000E+02  0.51100000000E-03 0. -1.
         11   -1    0    0    0    0 -0.00000000000E+00 -0.00000000000E+00 -0.45593999997E+02  0.45594000000E+02  0.51100000000E-03 0.  1.
         23    2    1    2    0    0  0.26645352591E-14  0.00000000000E+00  0.00000000000E+00  0.91188000000E+02  0.91188000000E+02 0.  0.
    9900012    2    3    3    0    0 -0.58316666998E+01 -0.81732877870E+01 -0.39399934943E+02  0.50528857814E+02  0.29999993813E+02 0.  0.
         12    1    3    3    0    0  0.58316666998E+01  0.81732877870E+01  0.39399934943E+02  0.40659142186E+02  0.00000000000E+00 0. -1.
         11    1    4    4    0    0  0.12534800395E+01 -0.51804316277E+01 -0.57052888578E+01  0.78075863922E+01  0.51100000000E-03 0. -1.
        -11    1    4    4    0    0 -0.15722392942E+02 -0.23871740371E+01 -0.13920735138E+02  0.21134784285E+02  0.51100000000E-03 0.  1.
        -12    1    4    4    0    0  0.86372462027E+01 -0.60568212213E+00 -0.19773910947E+02  0.21586487138E+02  0.00000000000E+00 0.  1.
</event>
<event>
 8    1  0.6016610E-012  0.9118800E+02  0.7816164E-02  0.1184000E+00
        -11   -1    0    0    0    0  0.00000000000E+00  0.00000000000E+00  0.45593999997E+02  0.45594000000E+02  0.51100000000E-03 0. -1.
         11   -1    0    0    0    0 -0.00000000000E+00 -0.00000000000E+00 -0.45593999997E+02  0.45594000000E+02  0.51100000000E-03 0.  1.
         23    2    1    2    0    0 -0.17763568394E-14  0.35527136788E-14  0.00000000000E+00  0.91188000000E+02  0.91188000000E+02 0.  0.
    9900012    2    3    3    0    0  0.14444463811E+02 -0.16919325146E+02 -0.34033201115E+02  0.50528869705E+02  0.30000029955E+02 0.  0.
         12    1    3    3    0    0 -0.14444463811E+02  0.16919325146E+02  0.34033201115E+02  0.40659130295E+02  0.00000000000E+00 0. -1.
         11    1    4    4    0    0 -0.30735427888E+01 -0.14582982858E+02 -0.11236215251E+02  0.18664473948E+02  0.51100000000E-03 0. -1.
        -11    1    4    4    0    0  0.16207780637E+02 -0.61725444515E+01 -0.14408175047E+02  0.22547460314E+02  0.51100000000E-03 0.  1.
         12    1    4    4    0    0  0.13102259630E+01  0.38362021639E+01 -0.83888108181E+01  0.93169354435E+01  0.00000000000E+00 0. -1.
</event>
<event>
 8    1  0.6016610E-012  0.9118800E+02  0.7816164E-02  0.1184000E+00
        -11   -1    0    0    0    0  0.00000000000E+00  0.00000000000E+00  0.45593999997E+02  0.45594000000E+02  0.51100000000E-03 0. -1.
         11   -1    0    0    0    0 -0.00000000000E+00 -0.00000000000E+00 -0.45593999997E+02  0.45594000000E+02  0.51100000000E-03 0.  1.
         23    2    1    2    0    0  0.17763568394E-14  0.00000000000E+00 -0.71054273576E-14  0.91188000000E+02  0.91188000000E+02 0.  0.
    9900012    2    3    3    0    0  0.21046989621E+01 -0.19850750265E+02 -0.35421518600E+02  0.50528855595E+02  0.29999987066E+02 0.  0.
         12    1    3    3    0    0 -0.21046989621E+01  0.19850750265E+02  0.35421518600E+02  0.40659144405E+02  0.00000000000E+00 0. -1.
         11    1    4    4    0    0  0.23830469610E+01  0.27999835760E+01 -0.58149626257E+01  0.68798700165E+01  0.51100000000E-03 0. -1.
        -11    1    4    4    0    0 -0.86567060924E+01 -0.20596282203E+02 -0.15781425578E+02  0.27353222745E+02  0.51100000000E-03 0.  1.
        -12    1    4    4    0    0  0.83783580936E+01 -0.20544516381E+01 -0.13825130396E+02  0.16295762834E+02  0.00000000000E+00 0.  1.
</event>
<event>
 8    1  0.6016610E-012  0.9118800E+02  0.7816164E-02  0.1184000E+00
        -11   -1    0    0    0    0  0.00000000000E+00  0.00000000000E+00  0.45593999997E+02  0.45594000000E+02  0.51100000000E-03 0. -1.
         11   -1    0    0    0    0 -0.00000000000E+00 -0.00000000000E+00 -0.45593999997E+02  0.45594000000E+02  0.51100000000E-03 0.  1.
         23    2    1    2    0    0  0.35527136788E-14 -0.35527136788E-14  0.00000000000E+00  0.91188000000E+02  0.91188000000E+02 0.  0.
    9900012    2    3    3    0    0  0.31780024126E+02 -0.20320518720E+02  0.15174775005E+02  0.50528840996E+02  0.29999942691E+02 0.  0.
        -12    1    3    3    0    0 -0.31780024126E+02  0.20320518720E+02 -0.15174775005E+02  0.40659159004E+02  0.00000000000E+00 0.  1.
         11    1    4    4    0    0  0.10675291556E+02 -0.13767065100E+02  0.19936572768E+02  0.26475665530E+02  0.51100000000E-03 0. -1.
        -11    1    4    4    0    0 -0.64696777787E+00  0.18447913632E+00  0.28268267932E+00  0.72973256447E+00  0.51100000000E-03 0.  1.
         12    1    4    4    0    0  0.21751700348E+02 -0.67379327565E+01 -0.50444804423E+01  0.23323442901E+02  0.00000000000E+00 0. -1.
</event>
<event>
 8    1  0.6016610E-012  0.9118800E+02  0.7816164E-02  0.1184000E+00
        -11   -1    0    0    0    0  0.00000000000E+00  0.00000000000E+00  0.45593999997E+02  0.45594000000E+02  0.51100000000E-03 0. -1.
         11   -1    0    0    0    0 -0.00000000000E+00 -0.00000000000E+00 -0.45593999997E+02  0.45594000000E+02  0.51100000000E-03 0.  1.
         23    2    1    2    0    0  0.35527136788E-14  0.00000000000E+00  0.71054273576E-14  0.91188000000E+02  0.91188000000E+02 0.  0.
    9900012    2    3    3    0    0 -0.19967460985E+02  0.14536824758E+02 -0.32297784450E+02  0.50528860160E+02  0.30000000941E+02 0.  0.
         12    1    3    3    0    0  0.19967460985E+02 -0.14536824758E+02  0.32297784450E+02  0.40659139840E+02  0.00000000000E+00 0. -1.
         11    1    4    4    0    0  0.12637414858E+01  0.17084112732E+01 -0.20331402411E+01  0.29409813196E+01  0.51100000000E-03 0. -1.
        -11    1    4    4    0    0 -0.15540678507E+01 -0.77682866527E+01 -0.41494149890E+01  0.89431006600E+01  0.51100000000E-03 0.  1.
        -12    1    4    4    0    0 -0.19677134620E+02  0.20596700137E+02 -0.26115229220E+02  0.38644778180E+02  0.00000000000E+00 0.  1.
</event>
<event>
 8    1  0.6016610E-012  0.9118800E+02  0.7816164E-02  0.1184000E+00
        -11   -1    0    0    0    0  0.00000000000E+00  0.00000000000E+00  0.45593999997E+02  0.45594000000E+02  0.51100000000E-03 0.  1.
         11   -1    0    0    0    0 -0.00000000000E+00 -0.00000000000E+00 -0.45593999997E+02  0.45594000000E+02  0.51100000000E-03 0. -1.
         23    2    1    2    0    0  0.00000000000E+00  0.00000000000E+00  0.00000000000E+00  0.91188000000E+02  0.91188000000E+02 0.  0.
    9900012    2    3    3    0    0 -0.18108526864E+02  0.29894855222E+02  0.20773667027E+02  0.50528851513E+02  0.29999974660E+02 0.  0.
        -12    1    3    3    0    0  0.18108526864E+02 -0.29894855222E+02 -0.20773667027E+02  0.40659148487E+02  0.00000000000E+00 0.  1.
         11    1    4    4    0    0 -0.25737381191E+00  0.78631154755E+01  0.34349670315E+01  0.85845107624E+01  0.51100000000E-03 0. -1.
        -11    1    4    4    0    0 -0.24053231004E+02  0.15488426655E+02  0.99552731296E+01  0.30291199140E+02  0.51100000000E-03 0.  1.
        -12    1    4    4    0    0  0.62020779521E+01  0.65433130916E+01  0.73834268656E+01  0.11653141612E+02  0.00000000000E+00 0.  1.
</event>
<event>
 8    1  0.6016610E-012  0.9118800E+02  0.7816164E-02  0.1184000E+00
        -11   -1    0    0    0    0  0.00000000000E+00  0.00000000000E+00  0.45593999997E+02  0.45594000000E+02  0.51100000000E-03 0. -1.
         11   -1    0    0    0    0 -0.00000000000E+00 -0.00000000000E+00 -0.45593999997E+02  0.45594000000E+02  0.51100000000E-03 0.  1.
         23    2    1    2    0    0  0.00000000000E+00 -0.13461454174E-14  0.00000000000E+00  0.91188000000E+02  0.91188000000E+02 0.  0.
    9900012    2    3    3    0    0 -0.20500863503E+02  0.12192316101E+00 -0.35112158675E+02  0.50528881018E+02  0.30000064341E+02 0.  0.
         12    1    3    3    0    0  0.20500863503E+02 -0.12192316101E+00  0.35112158675E+02  0.40659118982E+02  0.00000000000E+00 0. -1.
         11    1    4    4    0    0 -0.15217572879E+02  0.87951540121E+01 -0.98631262688E+01  0.20154664931E+02  0.51100000000E-03 0. -1.
        -11    1    4    4    0    0 -0.67384521458E+01 -0.65800016602E+01 -0.26051397506E+02  0.27701596911E+02  0.51100000000E-03 0.  1.
        -12    1    4    4    0    0  0.14551615220E+01 -0.20932291908E+01  0.80236510010E+00  0.26726191749E+01  0.00000000000E+00 0.  1.
</event>
<event>
 8    1  0.6016610E-012  0.9118800E+02  0.7816164E-02  0.1184000E+00
        -11   -1    0    0    0    0  0.00000000000E+00  0.00000000000E+00  0.45593999997E+02  0.45594000000E+02  0.51100000000E-03 0. -1.
         11   -1    0    0    0    0 -0.00000000000E+00 -0.00000000000E+00 -0.45593999997E+02  0.45594000000E+02  0.51100000000E-03 0.  1.
         23    2    1    2    0    0  0.00000000000E+00  0.00000000000E+00 -0.71054273576E-14  0.91188000000E+02  0.91188000000E+02 0.  0.
    9900012    2    3    3    0    0  0.17549818961E+02  0.83983624840E+01 -0.35702051157E+02  0.50528867019E+02  0.30000021790E+02 0.  0.
         12    1    3    3    0    0 -0.17549818961E+02 -0.83983624840E+01  0.35702051157E+02  0.40659132981E+02  0.00000000000E+00 0. -1.
         11    1    4    4    0    0  0.19095704110E+02  0.63440175664E+01 -0.13896812707E+02  0.24454322277E+02  0.51100000000E-03 0. -1.
        -11    1    4    4    0    0  0.10731517209E+01 -0.24398683609E+01 -0.20551887501E+02  0.20724012458E+02  0.51100000000E-03 0.  1.
         12    1    4    4    0    0 -0.26190368699E+01  0.44942132784E+01 -0.12533509489E+01  0.53505322837E+01  0.00000000000E+00 0. -1.
</event>
<event>
 8    1  0.6016610E-012  0.9118800E+02  0.7816164E-02  0.1184000E+00
        -11   -1    0    0    0    0  0.00000000000E+00  0.00000000000E+00  0.45593999997E+02  0.45594000000E+02  0.51100000000E-03 0. -1.
         11   -1    0    0    0    0 -0.00000000000E+00 -0.00000000000E+00 -0.45593999997E+02  0.45594000000E+02  0.51100000000E-03 0.  1.
         23    2    1    2    0    0  0.00000000000E+00  0.00000000000E+00 -0.35527136788E-14  0.91188000000E+02  0.91188000000E+02 0.  0.
    9900012    2    3    3    0    0  0.29119740311E+02 -0.18832006547E+02  0.21226471291E+02  0.50528845682E+02  0.29999956934E+02 0.  0.
        -12    1    3    3    0    0 -0.29119740311E+02  0.18832006547E+02 -0.21226471291E+02  0.40659154318E+02  0.00000000000E+00 0.  1.
         11    1    4    4    0    0 -0.13721734966E+01 -0.12114861675E+02  0.98488347203E+01  0.15673298285E+02  0.51100000000E-03 0. -1.
        -11    1    4    4    0    0  0.20699980511E+02 -0.48200298917E+01  0.12754298270E+02  0.24786972504E+02  0.51100000000E-03 0.  1.
         12    1    4    4    0    0  0.97919332973E+01 -0.18971149807E+01 -0.13766616987E+01  0.10068574893E+02  0.00000000000E+00 0. -1.
</event>
<event>
 8    1  0.6016610E-012  0.9118800E+02  0.7816164E-02  0.1184000E+00
        -11   -1    0    0    0    0  0.00000000000E+00  0.00000000000E+00  0.45593999997E+02  0.45594000000E+02  0.51100000000E-03 0. -1.
         11   -1    0    0    0    0 -0.00000000000E+00 -0.00000000000E+00 -0.45593999997E+02  0.45594000000E+02  0.51100000000E-03 0.  1.
         23    2    1    2    0    0 -0.17763568394E-14 -0.35527136788E-14 -0.35527136788E-14  0.91188000000E+02  0.91188000000E+02 0.  0.
    9900012    2    3    3    0    0  0.12126057396E+02  0.23333975277E+02  0.31010520342E+02  0.50528830775E+02  0.29999911623E+02 0.  0.
        -12    1    3    3    0    0 -0.12126057396E+02 -0.23333975277E+02 -0.31010520342E+02  0.40659169225E+02  0.00000000000E+00 0.  1.
         11    1    4    4    0    0  0.54901090994E+01  0.16313106281E+02  0.26019000801E+02  0.31196909100E+02  0.51100000000E-03 0. -1.
        -11    1    4    4    0    0 -0.46606926107E+01  0.50570904692E+01  0.13173234205E+00  0.68784862649E+01  0.51100000000E-03 0.  1.
         12    1    4    4    0    0  0.11296640907E+02  0.19637785266E+01  0.48597871993E+01  0.12453435410E+02  0.00000000000E+00 0. -1.
</event>
<event>
 8    1  0.6016610E-012  0.9118800E+02  0.7816164E-02  0.1184000E+00
        -11   -1    0    0    0    0  0.00000000000E+00  0.00000000000E+00  0.45593999997E+02  0.45594000000E+02  0.51100000000E-03 0. -1.
         11   -1    0    0    0    0 -0.00000000000E+00 -0.00000000000E+00 -0.45593999997E+02  0.45594000000E+02  0.51100000000E-03 0.  1.
         23    2    1    2    0    0  0.00000000000E+00  0.00000000000E+00  0.35527136788E-14  0.91188000000E+02  0.91188000000E+02 0.  0.
    9900012    2    3    3    0    0  0.21961518225E+02 -0.16211583330E+02 -0.30133726824E+02  0.50528865613E+02  0.30000017516E+02 0.  0.
         12    1    3    3    0    0 -0.21961518225E+02  0.16211583330E+02  0.30133726824E+02  0.40659134387E+02  0.00000000000E+00 0. -1.
         11    1    4    4    0    0  0.65095117550E+01 -0.22751748500E+01  0.51761576270E+01  0.86222254625E+01  0.51100000000E-03 0. -1.
        -11    1    4    4    0    0  0.83669333254E+01 -0.12920478247E+02 -0.24889543380E+02  0.29264888541E+02  0.51100000000E-03 0.  1.
        -12    1    4    4    0    0  0.70850731444E+01 -0.10159302336E+01 -0.10420341072E+02  0.12641751609E+02  0.00000000000E+00 0.  1.
</event>
<event>
 8    1  0.6016610E-012  0.9118800E+02  0.7816164E-02  0.1184000E+00
        -11   -1    0    0    0    0  0.00000000000E+00  0.00000000000E+00  0.45593999997E+02  0.45594000000E+02  0.51100000000E-03 0.  1.
         11   -1    0    0    0    0 -0.00000000000E+00 -0.00000000000E+00 -0.45593999997E+02  0.45594000000E+02  0.51100000000E-03 0. -1.
         23    2    1    2    0    0 -0.71054273576E-14  0.00000000000E+00  0.35527136788E-14  0.91188000000E+02  0.91188000000E+02 0.  0.
    9900012    2    3    3    0    0  0.17867824473E+02  0.27109636777E+02 -0.24473923232E+02  0.50528874629E+02  0.30000044923E+02 0.  0.
        -12    1    3    3    0    0 -0.17867824473E+02 -0.27109636777E+02  0.24473923232E+02  0.40659125371E+02  0.00000000000E+00 0.  1.
         11    1    4    4    0    0  0.17938772970E+02  0.86823549622E+01 -0.13276660582E+02  0.23946869938E+02  0.51100000000E-03 0. -1.
        -11    1    4    4    0    0 -0.51598803816E+01  0.17788940234E+00 -0.23997827419E+01  0.56934144115E+01  0.51100000000E-03 0.  1.
        -12    1    4    4    0    0  0.50889318848E+01  0.18249392412E+02 -0.87974799077E+01  0.20888590280E+02  0.00000000000E+00 0.  1.
</event>
<event>
 8    1  0.6016610E-012  0.9118800E+02  0.7816164E-02  0.1184000E+00
        -11   -1    0    0    0    0  0.00000000000E+00  0.00000000000E+00  0.45593999997E+02  0.45594000000E+02  0.51100000000E-03 0.  1.
         11   -1    0    0    0    0 -0.00000000000E+00 -0.00000000000E+00 -0.45593999997E+02  0.45594000000E+02  0.51100000000E-03 0. -1.
         23    2    1    2    0    0  0.00000000000E+00 -0.55511151231E-15  0.00000000000E+00  0.91188000000E+02  0.91188000000E+02 0.  0.
    9900012    2    3    3    0    0  0.35987093597E+02  0.69474090586E+00 -0.18910624625E+02  0.50528864566E+02  0.30000014336E+02 0.  0.
         12    1    3    3    0    0 -0.35987093597E+02 -0.69474090586E+00  0.18910624625E+02  0.40659135434E+02  0.00000000000E+00 0. -1.
         11    1    4    4    0    0  0.63800750200E+01 -0.62923327580E+01 -0.58480895355E+01  0.10700418696E+02  0.51100000000E-03 0. -1.
        -11    1    4    4    0    0  0.15972525673E+02  0.14876720414E+02 -0.66199419301E+01  0.22809252905E+02  0.51100000000E-03 0.  1.
        -12    1    4    4    0    0  0.13634492904E+02 -0.78896467497E+01 -0.64425931596E+01  0.17019192966E+02  0.00000000000E+00 0.  1.
</event>
<event>
 8    1  0.6016610E-012  0.9118800E+02  0.7816164E-02  0.1184000E+00
        -11   -1    0    0    0    0  0.00000000000E+00  0.00000000000E+00  0.45593999997E+02  0.45594000000E+02  0.51100000000E-03 0. -1.
         11   -1    0    0    0    0 -0.00000000000E+00 -0.00000000000E+00 -0.45593999997E+02  0.45594000000E+02  0.51100000000E-03 0.  1.
         23    2    1    2    0    0  0.00000000000E+00  0.00000000000E+00 -0.88817841970E-15  0.91188000000E+02  0.91188000000E+02 0.  0.
    9900012    2    3    3    0    0 -0.40072824087E+02 -0.68719788791E+01  0.33286770239E+00  0.50528854351E+02  0.29999983285E+02 0.  0.
        -12    1    3    3    0    0  0.40072824087E+02  0.68719788791E+01 -0.33286770239E+00  0.40659145649E+02  0.00000000000E+00 0.  1.
         11    1    4    4    0    0 -0.25841158008E+02  0.34256374406E+01 -0.56898807220E+01  0.26680989149E+02  0.51100000000E-03 0. -1.
        -11    1    4    4    0    0 -0.60508202375E+01 -0.69897956372E+01  0.10468987546E+02  0.13966723635E+02  0.51100000000E-03 0.  1.
         12    1    4    4    0    0 -0.81808458409E+01 -0.33078206824E+01 -0.44462391216E+01  0.98811415669E+01  0.00000000000E+00 0. -1.
</event>
<event>
 8    1  0.6016610E-012  0.9118800E+02  0.7816164E-02  0.1184000E+00
        -11   -1    0    0    0    0  0.00000000000E+00  0.00000000000E+00  0.45593999997E+02  0.45594000000E+02  0.51100000000E-03 0. -1.
         11   -1    0    0    0    0 -0.00000000000E+00 -0.00000000000E+00 -0.45593999997E+02  0.45594000000E+02  0.51100000000E-03 0.  1.
         23    2    1    2    0    0  0.00000000000E+00  0.17763568394E-14  0.71054273576E-14  0.91188000000E+02  0.91188000000E+02 0.  0.
    9900012    2    3    3    0    0 -0.95286126647E+01 -0.10146564779E+01 -0.39513818326E+02  0.50528858029E+02  0.29999994465E+02 0.  0.
         12    1    3    3    0    0  0.95286126647E+01  0.10146564779E+01  0.39513818326E+02  0.40659141971E+02  0.00000000000E+00 0. -1.
         11    1    4    4    0    0 -0.82223669471E+01 -0.79712122480E+01 -0.18817089983E+02  0.22027946310E+02  0.51100000000E-03 0.  1.
        -11    1    4    4    0    0 -0.62940374662E+01  0.90518817167E+01 -0.54015641165E+01  0.12277148097E+02  0.51100000000E-03 0. -1.
         12    1    4    4    0    0  0.49877917486E+01 -0.20953259466E+01 -0.15295164226E+02  0.16223763622E+02  0.00000000000E+00 0. -1.
</event>
<event>
 8    1  0.6016610E-012  0.9118800E+02  0.7816164E-02  0.1184000E+00
        -11   -1    0    0    0    0  0.00000000000E+00  0.00000000000E+00  0.45593999997E+02  0.45594000000E+02  0.51100000000E-03 0.  1.
         11   -1    0    0    0    0 -0.00000000000E+00 -0.00000000000E+00 -0.45593999997E+02  0.45594000000E+02  0.51100000000E-03 0. -1.
         23    2    1    2    0    0 -0.71054273576E-14 -0.35527136788E-14 -0.44408920985E-15  0.91188000000E+02  0.91188000000E+02 0.  0.
    9900012    2    3    3    0    0 -0.36476162680E+02 -0.17659116192E+02 -0.32879761732E+01  0.50528860611E+02  0.30000002312E+02 0.  0.
        -12    1    3    3    0    0  0.36476162680E+02  0.17659116192E+02  0.32879761732E+01  0.40659139389E+02  0.00000000000E+00 0.  1.
         11    1    4    4    0    0 -0.42524620961E+01  0.27033915301E+01  0.30715370261E+01  0.59013642158E+01  0.51100000000E-03 0.  1.
        -11    1    4    4    0    0 -0.30624195169E+02 -0.80934323237E+01 -0.60653570025E+01  0.32251101258E+02  0.51100000000E-03 0. -1.
        -12    1    4    4    0    0 -0.15995054152E+01 -0.12269075399E+02 -0.29415619681E+00  0.12376395137E+02  0.00000000000E+00 0.  1.
</event>
<event>
 8    1  0.6016610E-012  0.9118800E+02  0.7816164E-02  0.1184000E+00
        -11   -1    0    0    0    0  0.00000000000E+00  0.00000000000E+00  0.45593999997E+02  0.45594000000E+02  0.51100000000E-03 0. -1.
         11   -1    0    0    0    0 -0.00000000000E+00 -0.00000000000E+00 -0.45593999997E+02  0.45594000000E+02  0.51100000000E-03 0.  1.
         23    2    1    2    0    0 -0.12212453271E-14 -0.17763568394E-14  0.00000000000E+00  0.91188000000E+02  0.91188000000E+02 0.  0.
    9900012    2    3    3    0    0 -0.64842367871E+00  0.13453444982E+02 -0.38363391547E+02  0.50528862698E+02  0.30000008657E+02 0.  0.
         12    1    3    3    0    0  0.64842367871E+00 -0.13453444982E+02  0.38363391547E+02  0.40659137302E+02  0.00000000000E+00 0. -1.
         11    1    4    4    0    0 -0.10675790636E+02  0.28697570892E+01 -0.57598313454E+01  0.12465298587E+02  0.51100000000E-03 0. -1.
        -11    1    4    4    0    0  0.35159772870E+01  0.31015953744E+01 -0.25338991683E+02  0.25769099517E+02  0.51100000000E-03 0.  1.
        -12    1    4    4    0    0  0.65113896707E+01  0.74820925187E+01 -0.72645685182E+01  0.12294464594E+02  0.00000000000E+00 0.  1.
</event>
<event>
 8    1  0.6016610E-012  0.9118800E+02  0.7816164E-02  0.1184000E+00
        -11   -1    0    0    0    0  0.00000000000E+00  0.00000000000E+00  0.45593999997E+02  0.45594000000E+02  0.51100000000E-03 0. -1.
         11   -1    0    0    0    0 -0.00000000000E+00 -0.00000000000E+00 -0.45593999997E+02  0.45594000000E+02  0.51100000000E-03 0.  1.
         23    2    1    2    0    0 -0.66613381478E-15  0.00000000000E+00  0.00000000000E+00  0.91188000000E+02  0.91188000000E+02 0.  0.
    9900012    2    3    3    0    0 -0.65823752676E+00 -0.92584112174E+01 -0.39585519281E+02  0.50528870746E+02  0.30000033120E+02 0.  0.
         12    1    3    3    0    0  0.65823752676E+00  0.92584112174E+01  0.39585519281E+02  0.40659129254E+02  0.00000000000E+00 0. -1.
         11    1    4    4    0    0 -0.47583108358E+01  0.51531402767E+01  0.83962290305E+00  0.70640883065E+01  0.51100000000E-03 0. -1.
        -11    1    4    4    0    0  0.29998266459E+01 -0.14373950842E+02 -0.35477184726E+02  0.38395833877E+02  0.51100000000E-03 0.  1.
         12    1    4    4    0    0  0.11002466631E+01 -0.37600652081E-01 -0.49479574580E+01  0.50689485631E+01  0.00000000000E+00 0. -1.
</event>
<event>
 8    1  0.6016610E-012  0.9118800E+02  0.7816164E-02  0.1184000E+00
        -11   -1    0    0    0    0  0.00000000000E+00  0.00000000000E+00  0.45593999997E+02  0.45594000000E+02  0.51100000000E-03 0. -1.
         11   -1    0    0    0    0 -0.00000000000E+00 -0.00000000000E+00 -0.45593999997E+02  0.45594000000E+02  0.51100000000E-03 0.  1.
         23    2    1    2    0    0  0.00000000000E+00  0.66613381478E-15  0.00000000000E+00  0.91188000000E+02  0.91188000000E+02 0.  0.
    9900012    2    3    3    0    0  0.10142971445E+02 -0.11956762853E+01 -0.39355507479E+02  0.50528862276E+02  0.30000007375E+02 0.  0.
         12    1    3    3    0    0 -0.10142971445E+02  0.11956762853E+01  0.39355507479E+02  0.40659137724E+02  0.00000000000E+00 0. -1.
         11    1    4    4    0    0  0.36113617649E+00  0.19667495792E+01  0.27046989585E+00  0.20178398031E+01  0.51100000000E-03 0. -1.
        -11    1    4    4    0    0  0.60102598176E+01 -0.14546764148E+02 -0.19225623293E+02  0.24846652924E+02  0.51100000000E-03 0.  1.
        -12    1    4    4    0    0  0.37715754507E+01  0.11384338283E+02 -0.20400354082E+02  0.23664369550E+02  0.00000000000E+00 0.  1.
</event>
<event>
 8    1  0.6016610E-012  0.9118800E+02  0.7816164E-02  0.1184000E+00
        -11   -1    0    0    0    0  0.00000000000E+00  0.00000000000E+00  0.45593999997E+02  0.45594000000E+02  0.51100000000E-03 0.  1.
         11   -1    0    0    0    0 -0.00000000000E+00 -0.00000000000E+00 -0.45593999997E+02  0.45594000000E+02  0.51100000000E-03 0. -1.
         23    2    1    2    0    0  0.88817841970E-15  0.00000000000E+00  0.00000000000E+00  0.91188000000E+02  0.91188000000E+02 0.  0.
    9900012    2    3    3    0    0  0.58532832570E+01  0.24960115519E+02  0.31557840561E+02  0.50528860898E+02  0.30000003187E+02 0.  0.
        -12    1    3    3    0    0 -0.58532832570E+01 -0.24960115519E+02 -0.31557840561E+02  0.40659139102E+02  0.00000000000E+00 0.  1.
         11    1    4    4    0    0  0.19447051940E+01  0.15579178357E+02  0.12672586507E+02  0.20176400215E+02  0.51100000000E-03 0. -1.
        -11    1    4    4    0    0  0.85398497994E+00 -0.69221846150E+01  0.38570413426E+01  0.79701128204E+01  0.51100000000E-03 0.  1.
        -12    1    4    4    0    0  0.30545930831E+01  0.16303121777E+02  0.15028212712E+02  0.22382347863E+02  0.00000000000E+00 0.  1.
</event>
<event>
 8    1  0.6016610E-012  0.9118800E+02  0.7816164E-02  0.1184000E+00
        -11   -1    0    0    0    0  0.00000000000E+00  0.00000000000E+00  0.45593999997E+02  0.45594000000E+02  0.51100000000E-03 0.  1.
         11   -1    0    0    0    0 -0.00000000000E+00 -0.00000000000E+00 -0.45593999997E+02  0.45594000000E+02  0.51100000000E-03 0. -1.
         23    2    1    2    0    0  0.71054273576E-14  0.00000000000E+00  0.17763568394E-14  0.91188000000E+02  0.91188000000E+02 0.  0.
    9900012    2    3    3    0    0 -0.39495313590E+02  0.51244625621E+01 -0.81869023642E+01  0.50528864711E+02  0.30000014775E+02 0.  0.
         12    1    3    3    0    0  0.39495313590E+02 -0.51244625621E+01  0.81869023642E+01  0.40659135289E+02  0.00000000000E+00 0. -1.
         11    1    4    4    0    0 -0.60867152525E+01 -0.77236763393E+01 -0.64021233212E+01  0.11734157918E+02  0.51100000000E-03 0. -1.
        -11    1    4    4    0    0 -0.15644286154E+02  0.89236914191E+01  0.60321915261E+01  0.18993769839E+02  0.51100000000E-03 0.  1.
        -12    1    4    4    0    0 -0.17764312184E+02  0.39244474823E+01 -0.78169705691E+01  0.19800936955E+02  0.00000000000E+00 0.  1.
</event>
<event>
 8    1  0.6016610E-012  0.9118800E+02  0.7816164E-02  0.1184000E+00
        -11   -1    0    0    0    0  0.00000000000E+00  0.00000000000E+00  0.45593999997E+02  0.45594000000E+02  0.51100000000E-03 0. -1.
         11   -1    0    0    0    0 -0.00000000000E+00 -0.00000000000E+00 -0.45593999997E+02  0.45594000000E+02  0.51100000000E-03 0.  1.
         23    2    1    2    0    0  0.35527136788E-14  0.00000000000E+00 -0.35527136788E-14  0.91188000000E+02  0.91188000000E+02 0.  0.
    9900012    2    3    3    0    0  0.31642876431E+02  0.19895825059E+02 -0.16001581890E+02  0.50528854576E+02  0.29999983971E+02 0.  0.
         12    1    3    3    0    0 -0.31642876431E+02 -0.19895825059E+02  0.16001581890E+02  0.40659145424E+02  0.00000000000E+00 0. -1.
         11    1    4    4    0    0 -0.23427362351E+01  0.30965624021E+01 -0.84096580411E+01  0.92627998147E+01  0.51100000000E-03 0. -1.
        -11    1    4    4    0    0  0.23428398246E+02  0.59909721355E+01 -0.96126782885E+01  0.26022781858E+02  0.51100000000E-03 0.  1.
        -12    1    4    4    0    0  0.10557214420E+02  0.10808290522E+02  0.20207544399E+01  0.15243272904E+02  0.00000000000E+00 0.  1.
</event>
<event>
 8    1  0.6016610E-012  0.9118800E+02  0.7816164E-02  0.1184000E+00
        -11   -1    0    0    0    0  0.00000000000E+00  0.00000000000E+00  0.45593999997E+02  0.45594000000E+02  0.51100000000E-03 0.  1.
         11   -1    0    0    0    0 -0.00000000000E+00 -0.00000000000E+00 -0.45593999997E+02  0.45594000000E+02  0.51100000000E-03 0. -1.
         23    2    1    2    0    0  0.00000000000E+00 -0.35527136788E-14 -0.88817841970E-15  0.91188000000E+02  0.91188000000E+02 0.  0.
    9900012    2    3    3    0    0 -0.31097519657E+02 -0.25131434124E+02 -0.73838794423E+01  0.50528851146E+02  0.29999973544E+02 0.  0.
        -12    1    3    3    0    0  0.31097519657E+02  0.25131434124E+02  0.73838794423E+01  0.40659148854E+02  0.00000000000E+00 0.  1.
         11    1    4    4    0    0 -0.28681699873E+01 -0.57342420766E+00 -0.56644694331E+01  0.63750630285E+01  0.51100000000E-03 0. -1.
        -11    1    4    4    0    0 -0.22208538788E+02 -0.11258432204E+02  0.85259891977E+01  0.26318510270E+02  0.51100000000E-03 0.  1.
        -12    1    4    4    0    0 -0.60208108815E+01 -0.13299577712E+02 -0.10245399207E+02  0.17835277847E+02  0.00000000000E+00 0.  1.
</event>
<event>
 8    1  0.6016610E-012  0.9118800E+02  0.7816164E-02  0.1184000E+00
        -11   -1    0    0    0    0  0.00000000000E+00  0.00000000000E+00  0.45593999997E+02  0.45594000000E+02  0.51100000000E-03 0. -1.
         11   -1    0    0    0    0 -0.00000000000E+00 -0.00000000000E+00 -0.45593999997E+02  0.45594000000E+02  0.51100000000E-03 0.  1.
         23    2    1    2    0    0 -0.17763568394E-14  0.00000000000E+00  0.00000000000E+00  0.91188000000E+02  0.91188000000E+02 0.  0.
    9900012    2    3    3    0    0  0.10544128472E+02  0.13416541110E+02  0.36905070120E+02  0.50528850708E+02  0.29999972212E+02 0.  0.
        -12    1    3    3    0    0 -0.10544128472E+02 -0.13416541110E+02 -0.36905070120E+02  0.40659149292E+02  0.00000000000E+00 0.  1.
         11    1    4    4    0    0 -0.48959019838E+01 -0.39209976705E+00  0.14698760567E+02  0.15497650174E+02  0.51100000000E-03 0. -1.
        -11    1    4    4    0    0  0.94277246596E+01  0.17338020043E+02  0.18859517962E+02  0.27297808507E+02  0.51100000000E-03 0.  1.
        -12    1    4    4    0    0  0.60123057958E+01 -0.35293791662E+01  0.33467915910E+01  0.77333920264E+01  0.00000000000E+00 0.  1.
</event>
<event>
 8    1  0.6016610E-012  0.9118800E+02  0.7816164E-02  0.1184000E+00
        -11   -1    0    0    0    0  0.00000000000E+00  0.00000000000E+00  0.45593999997E+02  0.45594000000E+02  0.51100000000E-03 0. -1.
         11   -1    0    0    0    0 -0.00000000000E+00 -0.00000000000E+00 -0.45593999997E+02  0.45594000000E+02  0.51100000000E-03 0.  1.
         23    2    1    2    0    0  0.00000000000E+00 -0.17763568394E-14  0.00000000000E+00  0.91188000000E+02  0.91188000000E+02 0.  0.
    9900012    2    3    3    0    0 -0.12409509233E+01 -0.15412901058E+02  0.37604105888E+02  0.50528852716E+02  0.29999978316E+02 0.  0.
        -12    1    3    3    0    0  0.12409509233E+01  0.15412901058E+02 -0.37604105888E+02  0.40659147284E+02  0.00000000000E+00 0.  1.
         11    1    4    4    0    0 -0.24102169068E+01 -0.75026589230E+01  0.25504929666E+01  0.82827562494E+01  0.51100000000E-03 0. -1.
        -11    1    4    4    0    0  0.69654391019E+01 -0.32201898712E+01  0.33831132180E+02  0.34690524204E+02  0.51100000000E-03 0.  1.
        -12    1    4    4    0    0 -0.57961731184E+01 -0.46900522639E+01  0.12224807409E+01  0.75555722628E+01  0.00000000000E+00 0.  1.
</event>
<event>
 8    1  0.6016610E-012  0.9118800E+02  0.7816164E-02  0.1184000E+00
        -11   -1    0    0    0    0  0.00000000000E+00  0.00000000000E+00  0.45593999997E+02  0.45594000000E+02  0.51100000000E-03 0. -1.
         11   -1    0    0    0    0 -0.00000000000E+00 -0.00000000000E+00 -0.45593999997E+02  0.45594000000E+02  0.51100000000E-03 0.  1.
         23    2    1    2    0    0 -0.35527136788E-14  0.00000000000E+00  0.00000000000E+00  0.91188000000E+02  0.91188000000E+02 0.  0.
    9900012    2    3    3    0    0 -0.24054298755E+02 -0.45410540025E+01 -0.32464373179E+02  0.50528856059E+02  0.29999988478E+02 0.  0.
         12    1    3    3    0    0  0.24054298755E+02  0.45410540025E+01  0.32464373179E+02  0.40659143941E+02  0.00000000000E+00 0. -1.
         11    1    4    4    0    0 -0.42771196720E+00 -0.16837636961E+01 -0.10910089340E+01  0.20514137726E+01  0.51100000000E-03 0. -1.
        -11    1    4    4    0    0 -0.16129779081E+02 -0.15128089820E+02 -0.15189547788E+02  0.26828179907E+02  0.51100000000E-03 0.  1.
        -12    1    4    4    0    0 -0.74968077069E+01  0.12270799514E+02 -0.16183816457E+02  0.21649262380E+02  0.00000000000E+00 0.  1.
</event>
<event>
 8    1  0.6016610E-012  0.9118800E+02  0.7816164E-02  0.1184000E+00
        -11   -1    0    0    0    0  0.00000000000E+00  0.00000000000E+00  0.45593999997E+02  0.45594000000E+02  0.51100000000E-03 0. -1.
         11   -1    0    0    0    0 -0.00000000000E+00 -0.00000000000E+00 -0.45593999997E+02  0.45594000000E+02  0.51100000000E-03 0.  1.
         23    2    1    2    0    0  0.66613381478E-15 -0.35527136788E-14  0.00000000000E+00  0.91188000000E+02  0.91188000000E+02 0.  0.
    9900012    2    3    3    0    0 -0.15679305390E+01 -0.23783561798E+02 -0.32940096932E+02  0.50528853380E+02  0.29999980334E+02 0.  0.
         12    1    3    3    0    0  0.15679305390E+01  0.23783561798E+02  0.32940096932E+02  0.40659146620E+02  0.00000000000E+00 0. -1.
         11    1    4    4    0    0  0.10751362500E+02 -0.20956987965E+01 -0.11321351433E+02  0.15752991702E+02  0.51100000000E-03 0. -1.
        -11    1    4    4    0    0 -0.82106587761E+01 -0.21528656468E+02 -0.19293228505E+02  0.30052065375E+02  0.51100000000E-03 0.  1.
        -12    1    4    4    0    0 -0.41086342628E+01 -0.15920653375E+00 -0.23255169937E+01  0.47237963032E+01  0.00000000000E+00 0.  1.
</event>
<event>
 8    1  0.6016610E-012  0.9118800E+02  0.7816164E-02  0.1184000E+00
        -11   -1    0    0    0    0  0.00000000000E+00  0.00000000000E+00  0.45593999997E+02  0.45594000000E+02  0.51100000000E-03 0. -1.
         11   -1    0    0    0    0 -0.00000000000E+00 -0.00000000000E+00 -0.45593999997E+02  0.45594000000E+02  0.51100000000E-03 0.  1.
         23    2    1    2    0    0  0.00000000000E+00  0.00000000000E+00  0.00000000000E+00  0.91188000000E+02  0.91188000000E+02 0.  0.
    9900012    2    3    3    0    0  0.27683726143E+02 -0.21493460430E+02  0.20610898352E+02  0.50528847706E+02  0.29999963086E+02 0.  0.
        -12    1    3    3    0    0 -0.27683726143E+02  0.21493460430E+02 -0.20610898352E+02  0.40659152294E+02  0.00000000000E+00 0.  1.
         11    1    4    4    0    0  0.15796766168E+02  0.13373899185E+00  0.46659506861E+01  0.16472000593E+02  0.51100000000E-03 0. -1.
        -11    1    4    4    0    0 -0.41657743361E+01 -0.78992742310E+01  0.55600233118E+01  0.10519794137E+02  0.51100000000E-03 0.  1.
         12    1    4    4    0    0  0.16052734311E+02 -0.13727925191E+02  0.10384924354E+02  0.23537052975E+02  0.00000000000E+00 0. -1.
</event>
<event>
 8    1  0.6016610E-012  0.9118800E+02  0.7816164E-02  0.1184000E+00
        -11   -1    0    0    0    0  0.00000000000E+00  0.00000000000E+00  0.45593999997E+02  0.45594000000E+02  0.51100000000E-03 0. -1.
         11   -1    0    0    0    0 -0.00000000000E+00 -0.00000000000E+00 -0.45593999997E+02  0.45594000000E+02  0.51100000000E-03 0.  1.
         23    2    1    2    0    0 -0.88817841970E-15 -0.35527136788E-14  0.00000000000E+00  0.91188000000E+02  0.91188000000E+02 0.  0.
    9900012    2    3    3    0    0  0.57129051416E+01 -0.22112370734E+02  0.33638846992E+02  0.50528852793E+02  0.29999978551E+02 0.  0.
        -12    1    3    3    0    0 -0.57129051416E+01  0.22112370734E+02 -0.33638846992E+02  0.40659147207E+02  0.00000000000E+00 0.  1.
         11    1    4    4    0    0  0.90374325687E+01 -0.17534161451E+02  0.13542175727E+02  0.23927234042E+02  0.51100000000E-03 0. -1.
        -11    1    4    4    0    0 -0.46471833721E+00  0.62199633101E+01  0.65780391927E+01  0.90650155319E+01  0.51100000000E-03 0.  1.
        -12    1    4    4    0    0 -0.28598090899E+01 -0.10798172593E+02  0.13518632071E+02  0.17536603219E+02  0.00000000000E+00 0.  1.
</event>
<event>
 8    1  0.6016610E-012  0.9118800E+02  0.7816164E-02  0.1184000E+00
        -11   -1    0    0    0    0  0.00000000000E+00  0.00000000000E+00  0.45593999997E+02  0.45594000000E+02  0.51100000000E-03 0. -1.
         11   -1    0    0    0    0 -0.00000000000E+00 -0.00000000000E+00 -0.45593999997E+02  0.45594000000E+02  0.51100000000E-03 0.  1.
         23    2    1    2    0    0  0.00000000000E+00  0.71054273576E-14 -0.17763568394E-14  0.91188000000E+02  0.91188000000E+02 0.  0.
    9900012    2    3    3    0    0 -0.17046438774E+02  0.36710256938E+02 -0.38654917765E+01  0.50528855075E+02  0.29999985487E+02 0.  0.
         12    1    3    3    0    0  0.17046438774E+02 -0.36710256938E+02  0.38654917765E+01  0.40659144925E+02  0.00000000000E+00 0. -1.
         11    1    4    4    0    0 -0.31007513383E+01  0.34105867241E+01  0.82700779822E+01  0.94678905126E+01  0.51100000000E-03 0. -1.
        -11    1    4    4    0    0 -0.10150892176E+02  0.33211056859E+02 -0.83869370490E+01  0.35726119619E+02  0.51100000000E-03 0.  1.
         12    1    4    4    0    0 -0.37947952594E+01  0.88613354795E-01 -0.37486327097E+01  0.53348449443E+01  0.00000000000E+00 0. -1.
</event>
<event>
 8    1  0.6016610E-012  0.9118800E+02  0.7816164E-02  0.1184000E+00
        -11   -1    0    0    0    0  0.00000000000E+00  0.00000000000E+00  0.45593999997E+02  0.45594000000E+02  0.51100000000E-03 0. -1.
         11   -1    0    0    0    0 -0.00000000000E+00 -0.00000000000E+00 -0.45593999997E+02  0.45594000000E+02  0.51100000000E-03 0.  1.
         23    2    1    2    0    0  0.17763568394E-14  0.00000000000E+00  0.00000000000E+00  0.91188000000E+02  0.91188000000E+02 0.  0.
    9900012    2    3    3    0    0  0.14987112667E+02  0.13760369048E+02 -0.35202336546E+02  0.50528858338E+02  0.29999995404E+02 0.  0.
         12    1    3    3    0    0 -0.14987112667E+02 -0.13760369048E+02  0.35202336546E+02  0.40659141662E+02  0.00000000000E+00 0. -1.
         11    1    4    4    0    0  0.10810307353E+02 -0.71069813161E+00 -0.16464986392E+02  0.19709480309E+02  0.51100000000E-03 0. -1.
        -11    1    4    4    0    0  0.52845488580E+01  0.17621557508E+02 -0.89117391109E+01  0.20441742584E+02  0.51100000000E-03 0.  1.
        -12    1    4    4    0    0 -0.11077435442E+01 -0.31504903279E+01 -0.98256110430E+01  0.10377635445E+02  0.00000000000E+00 0.  1.
</event>
<event>
 8    1  0.6016610E-012  0.9118800E+02  0.7816164E-02  0.1184000E+00
        -11   -1    0    0    0    0  0.00000000000E+00  0.00000000000E+00  0.45593999997E+02  0.45594000000E+02  0.51100000000E-03 0. -1.
         11   -1    0    0    0    0 -0.00000000000E+00 -0.00000000000E+00 -0.45593999997E+02  0.45594000000E+02  0.51100000000E-03 0.  1.
         23    2    1    2    0    0 -0.35527136788E-14  0.35527136788E-14 -0.35527136788E-14  0.91188000000E+02  0.91188000000E+02 0.  0.
    9900012    2    3    3    0    0  0.22377533237E+02 -0.20894787842E+02  0.26754817854E+02  0.50528850585E+02  0.29999971838E+02 0.  0.
        -12    1    3    3    0    0 -0.22377533237E+02  0.20894787842E+02 -0.26754817854E+02  0.40659149415E+02  0.00000000000E+00 0.  1.
         11    1    4    4    0    0  0.74946631919E+01 -0.36814760176E+01  0.13308772912E+02  0.15711355088E+02  0.51100000000E-03 0. -1.
        -11    1    4    4    0    0 -0.47741403704E+01 -0.77717275428E+01 -0.14478272933E+00  0.91221229752E+01  0.51100000000E-03 0.  1.
        -12    1    4    4    0    0  0.19657010416E+02 -0.94415842814E+01  0.13590827672E+02  0.25695372522E+02  0.00000000000E+00 0.  1.
</event>
<event>
 8    1  0.6016610E-012  0.9118800E+02  0.7816164E-02  0.1184000E+00
        -11   -1    0    0    0    0  0.00000000000E+00  0.00000000000E+00  0.45593999997E+02  0.45594000000E+02  0.51100000000E-03 0. -1.
         11   -1    0    0    0    0 -0.00000000000E+00 -0.00000000000E+00 -0.45593999997E+02  0.45594000000E+02  0.51100000000E-03 0.  1.
         23    2    1    2    0    0  0.10658141036E-13 -0.71054273576E-14  0.00000000000E+00  0.91188000000E+02  0.91188000000E+02 0.  0.
    9900012    2    3    3    0    0  0.27817518038E+02 -0.26813234135E+02  0.12665009988E+02  0.50528852043E+02  0.29999976271E+02 0.  0.
        -12    1    3    3    0    0 -0.27817518038E+02  0.26813234135E+02 -0.12665009988E+02  0.40659147957E+02  0.00000000000E+00 0.  1.
         11    1    4    4    0    0  0.91039062545E+01  0.54325837480E+01 -0.79733483785E+00  0.10631548259E+02  0.51100000000E-03 0. -1.
        -11    1    4    4    0    0  0.26812079182E+01 -0.56235541137E+01  0.58335557361E+00  0.62572790218E+01  0.51100000000E-03 0.  1.
         12    1    4    4    0    0  0.16032403865E+02 -0.26622263769E+02  0.12878989252E+02  0.33640024763E+02  0.00000000000E+00 0. -1.
</event>
<event>
 8    1  0.6016610E-012  0.9118800E+02  0.7816164E-02  0.1184000E+00
        -11   -1    0    0    0    0  0.00000000000E+00  0.00000000000E+00  0.45593999997E+02  0.45594000000E+02  0.51100000000E-03 0. -1.
         11   -1    0    0    0    0 -0.00000000000E+00 -0.00000000000E+00 -0.45593999997E+02  0.45594000000E+02  0.51100000000E-03 0.  1.
         23    2    1    2    0    0  0.00000000000E+00 -0.17763568394E-14 -0.35527136788E-14  0.91188000000E+02  0.91188000000E+02 0.  0.
    9900012    2    3    3    0    0  0.32687966739E+02 -0.12511741698E+02 -0.20691042581E+02  0.50528854744E+02  0.29999984479E+02 0.  0.
         12    1    3    3    0    0 -0.32687966739E+02  0.12511741698E+02  0.20691042581E+02  0.40659145256E+02  0.00000000000E+00 0. -1.
         11    1    4    4    0    0  0.60567104359E+01  0.46268734941E+01  0.16850209881E+01  0.78058308735E+01  0.51100000000E-03 0. -1.
        -11    1    4    4    0    0  0.70125429116E+01 -0.15047673623E+02 -0.89728903890E+01  0.18871168532E+02  0.51100000000E-03 0.  1.
        -12    1    4    4    0    0  0.19618713392E+02 -0.20909415691E+01 -0.13403173180E+02  0.23851855339E+02  0.00000000000E+00 0.  1.
</event>
<event>
 8    1  0.6016610E-012  0.9118800E+02  0.7816164E-02  0.1184000E+00
        -11   -1    0    0    0    0  0.00000000000E+00  0.00000000000E+00  0.45593999997E+02  0.45594000000E+02  0.51100000000E-03 0. -1.
         11   -1    0    0    0    0 -0.00000000000E+00 -0.00000000000E+00 -0.45593999997E+02  0.45594000000E+02  0.51100000000E-03 0.  1.
         23    2    1    2    0    0  0.00000000000E+00  0.00000000000E+00  0.00000000000E+00  0.91188000000E+02  0.91188000000E+02 0.  0.
    9900012    2    3    3    0    0 -0.32114046927E+02  0.23584063093E+02 -0.81022294632E+01  0.50528853867E+02  0.29999981814E+02 0.  0.
         12    1    3    3    0    0  0.32114046927E+02 -0.23584063093E+02  0.81022294632E+01  0.40659146133E+02  0.00000000000E+00 0. -1.
         11    1    4    4    0    0  0.21900576201E+01  0.21230105333E+01 -0.29166373728E+00  0.30640812817E+01  0.51100000000E-03 0. -1.
        -11    1    4    4    0    0 -0.22718752509E+02  0.10155643636E+01 -0.75553064481E+01  0.23963633746E+02  0.51100000000E-03 0.  1.
        -12    1    4    4    0    0 -0.11585352038E+02  0.20445488197E+02 -0.25525927777E+00  0.23501138839E+02  0.00000000000E+00 0.  1.
</event>
<event>
 8    1  0.6016610E-012  0.9118800E+02  0.7816164E-02  0.1184000E+00
        -11   -1    0    0    0    0  0.00000000000E+00  0.00000000000E+00  0.45593999997E+02  0.45594000000E+02  0.51100000000E-03 0. -1.
         11   -1    0    0    0    0 -0.00000000000E+00 -0.00000000000E+00 -0.45593999997E+02  0.45594000000E+02  0.51100000000E-03 0.  1.
         23    2    1    2    0    0  0.17763568394E-14  0.00000000000E+00  0.00000000000E+00  0.91188000000E+02  0.91188000000E+02 0.  0.
    9900012    2    3    3    0    0 -0.13420313021E+02  0.33025276168E+02 -0.19554840181E+02  0.50528862748E+02  0.30000008809E+02 0.  0.
         12    1    3    3    0    0  0.13420313021E+02 -0.33025276168E+02  0.19554840181E+02  0.40659137252E+02  0.00000000000E+00 0. -1.
         11    1    4    4    0    0 -0.96450029851E+01  0.54884490824E+01 -0.17187516295E+02  0.20458735849E+02  0.51100000000E-03 0. -1.
        -11    1    4    4    0    0 -0.32203443924E+01  0.98534307166E+01  0.42187750662E+01  0.11191906818E+02  0.51100000000E-03 0.  1.
        -12    1    4    4    0    0 -0.55496564379E+00  0.17683396369E+02 -0.65860989527E+01  0.18878220081E+02  0.00000000000E+00 0.  1.
</event>
<event>
 8    1  0.6016610E-012  0.9118800E+02  0.7816164E-02  0.1184000E+00
        -11   -1    0    0    0    0  0.00000000000E+00  0.00000000000E+00  0.45593999997E+02  0.45594000000E+02  0.51100000000E-03 0. -1.
         11   -1    0    0    0    0 -0.00000000000E+00 -0.00000000000E+00 -0.45593999997E+02  0.45594000000E+02  0.51100000000E-03 0.  1.
         23    2    1    2    0    0 -0.17763568394E-14 -0.88817841970E-15  0.00000000000E+00  0.91188000000E+02  0.91188000000E+02 0.  0.
    9900012    2    3    3    0    0  0.64388996515E+01  0.70267627981E+01 -0.39526330105E+02  0.50528860859E+02  0.30000003066E+02 0.  0.
         12    1    3    3    0    0 -0.64388996515E+01 -0.70267627981E+01  0.39526330105E+02  0.40659139141E+02  0.00000000000E+00 0. -1.
         11    1    4    4    0    0 -0.97081509671E+01  0.34634039676E+01 -0.94465279602E+01  0.13981425285E+02  0.51100000000E-03 0. -1.
        -11    1    4    4    0    0  0.24138434196E+01  0.60596198908E+01 -0.12506132166E+02  0.14104927340E+02  0.51100000000E-03 0.  1.
         12    1    4    4    0    0  0.13733207199E+02 -0.24962610602E+01 -0.17573669979E+02  0.22442508233E+02  0.00000000000E+00 0. -1.
</event>
<event>
 8    1  0.6016610E-012  0.9118800E+02  0.7816164E-02  0.1184000E+00
        -11   -1    0    0    0    0  0.00000000000E+00  0.00000000000E+00  0.45593999997E+02  0.45594000000E+02  0.51100000000E-03 0. -1.
         11   -1    0    0    0    0 -0.00000000000E+00 -0.00000000000E+00 -0.45593999997E+02  0.45594000000E+02  0.51100000000E-03 0.  1.
         23    2    1    2    0    0  0.35527136788E-14  0.88817841970E-15  0.35527136788E-14  0.91188000000E+02  0.91188000000E+02 0.  0.
    9900012    2    3    3    0    0 -0.27076806502E+02  0.66863234814E+01 -0.29585549355E+02  0.50528866922E+02  0.30000021496E+02 0.  0.
         12    1    3    3    0    0  0.27076806502E+02 -0.66863234814E+01  0.29585549355E+02  0.40659133078E+02  0.00000000000E+00 0. -1.
         11    1    4    4    0    0  0.11406770710E+01 -0.18827996306E+01 -0.16111530280E+02  0.16261226487E+02  0.51100000000E-03 0. -1.
        -11    1    4    4    0    0 -0.93370497726E+01  0.77598501344E+01 -0.81906168637E+01  0.14645203223E+02  0.51100000000E-03 0.  1.
         12    1    4    4    0    0 -0.18880433800E+02  0.80927297766E+00 -0.52834022111E+01  0.19622437213E+02  0.00000000000E+00 0. -1.
</event>
<event>
 8    1  0.6016610E-012  0.9118800E+02  0.7816164E-02  0.1184000E+00
        -11   -1    0    0    0    0  0.00000000000E+00  0.00000000000E+00  0.45593999997E+02  0.45594000000E+02  0.51100000000E-03 0.  1.
         11   -1    0    0    0    0 -0.00000000000E+00 -0.00000000000E+00 -0.45593999997E+02  0.45594000000E+02  0.51100000000E-03 0. -1.
         23    2    1    2    0    0  0.71054273576E-14 -0.35527136788E-14  0.16653345369E-15  0.91188000000E+02  0.91188000000E+02 0.  0.
    9900012    2    3    3    0    0  0.34778338287E+02 -0.21057679159E+02 -0.44723303291E+00  0.50528945868E+02  0.30000261459E+02 0.  0.
         12    1    3    3    0    0 -0.34778338287E+02  0.21057679159E+02  0.44723303291E+00  0.40659054132E+02  0.00000000000E+00 0. -1.
         11    1    4    4    0    0  0.15519285726E+01 -0.79038580310E+01 -0.75057870894E+01  0.11009827163E+02  0.51100000000E-03 0. -1.
        -11    1    4    4    0    0  0.91326090284E+01 -0.34350975112E+01  0.92523472388E+01  0.13446574741E+02  0.51100000000E-03 0.  1.
         12    1    4    4    0    0  0.24093800686E+02 -0.97187236166E+01 -0.21937931824E+01  0.26072543964E+02  0.00000000000E+00 0. -1.
</event>
<event>
 8    1  0.6016610E-012  0.9118800E+02  0.7816164E-02  0.1184000E+00
        -11   -1    0    0    0    0  0.00000000000E+00  0.00000000000E+00  0.45593999997E+02  0.45594000000E+02  0.51100000000E-03 0. -1.
         11   -1    0    0    0    0 -0.00000000000E+00 -0.00000000000E+00 -0.45593999997E+02  0.45594000000E+02  0.51100000000E-03 0.  1.
         23    2    1    2    0    0  0.00000000000E+00  0.00000000000E+00  0.35527136788E-14  0.91188000000E+02  0.91188000000E+02 0.  0.
    9900012    2    3    3    0    0  0.23486516566E+02 -0.18343749116E+02 -0.27659670529E+02  0.50528844010E+02  0.29999951852E+02 0.  0.
         12    1    3    3    0    0 -0.23486516566E+02  0.18343749116E+02  0.27659670529E+02  0.40659155990E+02  0.00000000000E+00 0. -1.
         11    1    4    4    0    0  0.15364838712E+02 -0.62911112130E+00 -0.38649566838E+01  0.15855974895E+02  0.51100000000E-03 0. -1.
        -11    1    4    4    0    0  0.12772969844E+02 -0.14754852274E+02 -0.16682846400E+02  0.25674341054E+02  0.51100000000E-03 0.  1.
         12    1    4    4    0    0 -0.46512919904E+01 -0.29597857212E+01 -0.71118674456E+01  0.89985280607E+01  0.00000000000E+00 0. -1.
</event>
<event>
 8    1  0.6016610E-012  0.9118800E+02  0.7816164E-02  0.1184000E+00
        -11   -1    0    0    0    0  0.00000000000E+00  0.00000000000E+00  0.45593999997E+02  0.45594000000E+02  0.51100000000E-03 0. -1.
         11   -1    0    0    0    0 -0.00000000000E+00 -0.00000000000E+00 -0.45593999997E+02  0.45594000000E+02  0.51100000000E-03 0.  1.
         23    2    1    2    0    0  0.17763568394E-14  0.00000000000E+00  0.00000000000E+00  0.91188000000E+02  0.91188000000E+02 0.  0.
    9900012    2    3    3    0    0  0.10415701349E+02  0.16324855083E+02  0.35751596060E+02  0.50528876191E+02  0.30000049670E+02 0.  0.
        -12    1    3    3    0    0 -0.10415701349E+02 -0.16324855083E+02 -0.35751596060E+02  0.40659123809E+02  0.00000000000E+00 0.  1.
         11    1    4    4    0    0 -0.63566204122E+00  0.17037269293E+02  0.11531816323E+02  0.20582890933E+02  0.51100000000E-03 0. -1.
        -11    1    4    4    0    0 -0.18703011706E+01  0.10705755960E+01  0.11592780238E+02  0.11791382976E+02  0.51100000000E-03 0.  1.
         12    1    4    4    0    0  0.12921664561E+02 -0.17829898061E+01  0.12626999499E+02  0.18154602282E+02  0.00000000000E+00 0. -1.
</event>
<event>
 8    1  0.6016610E-012  0.9118800E+02  0.7816164E-02  0.1184000E+00
        -11   -1    0    0    0    0  0.00000000000E+00  0.00000000000E+00  0.45593999997E+02  0.45594000000E+02  0.51100000000E-03 0.  1.
         11   -1    0    0    0    0 -0.00000000000E+00 -0.00000000000E+00 -0.45593999997E+02  0.45594000000E+02  0.51100000000E-03 0. -1.
         23    2    1    2    0    0  0.00000000000E+00  0.35527136788E-14 -0.17763568394E-14  0.91188000000E+02  0.91188000000E+02 0.  0.
    9900012    2    3    3    0    0  0.33507227175E+02 -0.18849332612E+02 -0.13233785234E+02  0.50528872064E+02  0.30000037127E+02 0.  0.
         12    1    3    3    0    0 -0.33507227175E+02  0.18849332612E+02  0.13233785234E+02  0.40659127936E+02  0.00000000000E+00 0. -1.
         11    1    4    4    0    0 -0.37058623737E+01 -0.56003305722E+01 -0.41192732351E+01  0.78781679785E+01  0.51100000000E-03 0. -1.
        -11    1    4    4    0    0  0.26685377199E+02 -0.52093381070E+01 -0.11906554658E+01  0.27215146894E+02  0.51100000000E-03 0.  1.
         12    1    4    4    0    0  0.10527712350E+02 -0.80396639326E+01 -0.79238565325E+01  0.15435557192E+02  0.00000000000E+00 0. -1.
</event>
<event>
 8    1  0.6016610E-012  0.9118800E+02  0.7816164E-02  0.1184000E+00
        -11   -1    0    0    0    0  0.00000000000E+00  0.00000000000E+00  0.45593999997E+02  0.45594000000E+02  0.51100000000E-03 0.  1.
         11   -1    0    0    0    0 -0.00000000000E+00 -0.00000000000E+00 -0.45593999997E+02  0.45594000000E+02  0.51100000000E-03 0. -1.
         23    2    1    2    0    0  0.88817841970E-15  0.00000000000E+00  0.00000000000E+00  0.91188000000E+02  0.91188000000E+02 0.  0.
    9900012    2    3    3    0    0  0.70418271397E+01 -0.20908482839E+02  0.34152801434E+02  0.50528857979E+02  0.29999994314E+02 0.  0.
        -12    1    3    3    0    0 -0.70418271397E+01  0.20908482839E+02 -0.34152801434E+02  0.40659142021E+02  0.00000000000E+00 0.  1.
         11    1    4    4    0    0 -0.49513211049E+01 -0.81312540601E+01  0.50707902298E+01  0.10786370432E+02  0.51100000000E-03 0. -1.
        -11    1    4    4    0    0  0.13353122728E+02 -0.24392034942E+01  0.25186548340E+02  0.28611498000E+02  0.51100000000E-03 0.  1.
        -12    1    4    4    0    0 -0.13599744835E+01 -0.10338025285E+02  0.38954628636E+01  0.11130989547E+02  0.00000000000E+00 0.  1.
</event>
<event>
 8    1  0.6016610E-012  0.9118800E+02  0.7816164E-02  0.1184000E+00
        -11   -1    0    0    0    0  0.00000000000E+00  0.00000000000E+00  0.45593999997E+02  0.45594000000E+02  0.51100000000E-03 0. -1.
         11   -1    0    0    0    0 -0.00000000000E+00 -0.00000000000E+00 -0.45593999997E+02  0.45594000000E+02  0.51100000000E-03 0.  1.
         23    2    1    2    0    0  0.26645352591E-14  0.88817841970E-15  0.00000000000E+00  0.91188000000E+02  0.91188000000E+02 0.  0.
    9900012    2    3    3    0    0 -0.55671310840E+01 -0.62454890199E+01 -0.39789025790E+02  0.50528860130E+02  0.30000000853E+02 0.  0.
         12    1    3    3    0    0  0.55671310840E+01  0.62454890199E+01  0.39789025790E+02  0.40659139870E+02  0.00000000000E+00 0. -1.
         11    1    4    4    0    0  0.76204867882E+01 -0.43714092330E+01 -0.34286932903E+02  0.35394558985E+02  0.51100000000E-03 0. -1.
        -11    1    4    4    0    0 -0.20377272494E+01 -0.19463502099E+00  0.82242039572E+00  0.22060350638E+01  0.51100000000E-03 0.  1.
         12    1    4    4    0    0 -0.11149890623E+02 -0.16794447660E+01 -0.63245132831E+01  0.12928266082E+02  0.00000000000E+00 0. -1.
</event>
<event>
 8    1  0.6016610E-012  0.9118800E+02  0.7816164E-02  0.1184000E+00
        -11   -1    0    0    0    0  0.00000000000E+00  0.00000000000E+00  0.45593999997E+02  0.45594000000E+02  0.51100000000E-03 0. -1.
         11   -1    0    0    0    0 -0.00000000000E+00 -0.00000000000E+00 -0.45593999997E+02  0.45594000000E+02  0.51100000000E-03 0.  1.
         23    2    1    2    0    0  0.00000000000E+00  0.00000000000E+00  0.00000000000E+00  0.91188000000E+02  0.91188000000E+02 0.  0.
    9900012    2    3    3    0    0  0.15897113290E+02  0.23313549516E+02 -0.29273281220E+02  0.50528870701E+02  0.30000032982E+02 0.  0.
         12    1    3    3    0    0 -0.15897113290E+02 -0.23313549516E+02  0.29273281220E+02  0.40659129299E+02  0.00000000000E+00 0. -1.
         11    1    4    4    0    0 -0.38953375863E+00  0.19442200927E+02 -0.12232150653E+02  0.22973385107E+02  0.51100000000E-03 0. -1.
        -11    1    4    4    0    0  0.25090403303E+01 -0.35341469036E+01 -0.89516524564E+01  0.99457307262E+01  0.51100000000E-03 0.  1.
         12    1    4    4    0    0  0.13777606718E+02  0.74054954921E+01 -0.80894781112E+01  0.17609754867E+02  0.00000000000E+00 0. -1.
</event>
<event>
 8    1  0.6016610E-012  0.9118800E+02  0.7816164E-02  0.1184000E+00
        -11   -1    0    0    0    0  0.00000000000E+00  0.00000000000E+00  0.45593999997E+02  0.45594000000E+02  0.51100000000E-03 0. -1.
         11   -1    0    0    0    0 -0.00000000000E+00 -0.00000000000E+00 -0.45593999997E+02  0.45594000000E+02  0.51100000000E-03 0.  1.
         23    2    1    2    0    0 -0.44408920985E-15  0.71054273576E-14  0.00000000000E+00  0.91188000000E+02  0.91188000000E+02 0.  0.
    9900012    2    3    3    0    0 -0.11832994066E+01  0.32991067995E+02  0.23735312818E+02  0.50528734888E+02  0.29999620162E+02 0.  0.
        -12    1    3    3    0    0  0.11832994066E+01 -0.32991067995E+02 -0.23735312818E+02  0.40659265112E+02  0.00000000000E+00 0.  1.
         11    1    4    4    0    0 -0.71466022202E+01  0.91287840387E+01  0.16238457573E+02  0.19952346376E+02  0.51100000000E-03 0. -1.
        -11    1    4    4    0    0  0.56593086494E+01  0.70588991965E+01 -0.43257850330E+01  0.10028372184E+02  0.51100000000E-03 0.  1.
         12    1    4    4    0    0  0.30399416424E+00  0.16803384760E+02  0.11822640278E+02  0.20548016327E+02  0.00000000000E+00 0. -1.
</event>
<event>
 8    1  0.6016610E-012  0.9118800E+02  0.7816164E-02  0.1184000E+00
        -11   -1    0    0    0    0  0.00000000000E+00  0.00000000000E+00  0.45593999997E+02  0.45594000000E+02  0.51100000000E-03 0. -1.
         11   -1    0    0    0    0 -0.00000000000E+00 -0.00000000000E+00 -0.45593999997E+02  0.45594000000E+02  0.51100000000E-03 0.  1.
         23    2    1    2    0    0  0.11102230246E-14  0.17763568394E-14  0.00000000000E+00  0.91188000000E+02  0.91188000000E+02 0.  0.
    9900012    2    3    3    0    0  0.17417788200E+01 -0.15706081799E+02 -0.37462663549E+02  0.50528856390E+02  0.29999989483E+02 0.  0.
         12    1    3    3    0    0 -0.17417788200E+01  0.15706081799E+02  0.37462663549E+02  0.40659143610E+02  0.00000000000E+00 0. -1.
         11    1    4    4    0    0 -0.36886730220E+01  0.46294704335E+00 -0.24309810429E+01  0.44418799759E+01  0.51100000000E-03 0. -1.
        -11    1    4    4    0    0  0.80381787506E+01 -0.19526658738E+02 -0.15752759947E+02  0.26344869810E+02  0.51100000000E-03 0.  1.
        -12    1    4    4    0    0 -0.26077269087E+01  0.33576298959E+01 -0.19278922559E+02  0.19742106604E+02  0.00000000000E+00 0.  1.
</event>
<event>
 8    1  0.6016610E-012  0.9118800E+02  0.7816164E-02  0.1184000E+00
        -11   -1    0    0    0    0  0.00000000000E+00  0.00000000000E+00  0.45593999997E+02  0.45594000000E+02  0.51100000000E-03 0. -1.
         11   -1    0    0    0    0 -0.00000000000E+00 -0.00000000000E+00 -0.45593999997E+02  0.45594000000E+02  0.51100000000E-03 0.  1.
         23    2    1    2    0    0  0.35527136788E-14  0.44408920985E-15  0.00000000000E+00  0.91188000000E+02  0.91188000000E+02 0.  0.
    9900012    2    3    3    0    0  0.27418966322E+02 -0.33112489996E+01 -0.29839605986E+02  0.50528853803E+02  0.29999981619E+02 0.  0.
         12    1    3    3    0    0 -0.27418966322E+02  0.33112489996E+01  0.29839605986E+02  0.40659146197E+02  0.00000000000E+00 0. -1.
         11    1    4    4    0    0  0.26577783045E+02 -0.12232864653E+02 -0.17271067370E+02  0.33975157064E+02  0.51100000000E-03 0. -1.
        -11    1    4    4    0    0  0.21292053502E+01  0.25835856015E+01 -0.13611515261E+01  0.36140232044E+01  0.51100000000E-03 0.  1.
         12    1    4    4    0    0 -0.12880220724E+01  0.63380300515E+01 -0.11207387090E+02  0.12939673534E+02  0.00000000000E+00 0. -1.
</event>
<event>
 8    1  0.6016610E-012  0.9118800E+02  0.7816164E-02  0.1184000E+00
        -11   -1    0    0    0    0  0.00000000000E+00  0.00000000000E+00  0.45593999997E+02  0.45594000000E+02  0.51100000000E-03 0. -1.
         11   -1    0    0    0    0 -0.00000000000E+00 -0.00000000000E+00 -0.45593999997E+02  0.45594000000E+02  0.51100000000E-03 0.  1.
         23    2    1    2    0    0  0.17763568394E-14 -0.17763568394E-14  0.71054273576E-14  0.91188000000E+02  0.91188000000E+02 0.  0.
    9900012    2    3    3    0    0 -0.95190630068E+01 -0.10129007570E+02 -0.38209370478E+02  0.50528863915E+02  0.30000012356E+02 0.  0.
         12    1    3    3    0    0  0.95190630068E+01  0.10129007570E+02  0.38209370478E+02  0.40659136085E+02  0.00000000000E+00 0. -1.
         11    1    4    4    0    0  0.22395899791E+00  0.64315509088E+01 -0.93383992920E+01  0.11341106927E+02  0.51100000000E-03 0. -1.
        -11    1    4    4    0    0 -0.36894171860E-01 -0.16445015600E+02 -0.21111490342E+02  0.26760697375E+02  0.51100000000E-03 0.  1.
        -12    1    4    4    0    0 -0.97061278328E+01 -0.11554287851E+00 -0.77594808437E+01  0.12427059613E+02  0.00000000000E+00 0.  1.
</event>
<event>
 8    1  0.6016610E-012  0.9118800E+02  0.7816164E-02  0.1184000E+00
        -11   -1    0    0    0    0  0.00000000000E+00  0.00000000000E+00  0.45593999997E+02  0.45594000000E+02  0.51100000000E-03 0. -1.
         11   -1    0    0    0    0 -0.00000000000E+00 -0.00000000000E+00 -0.45593999997E+02  0.45594000000E+02  0.51100000000E-03 0.  1.
         23    2    1    2    0    0  0.00000000000E+00  0.00000000000E+00  0.00000000000E+00  0.91188000000E+02  0.91188000000E+02 0.  0.
    9900012    2    3    3    0    0 -0.22616047866E+02  0.40397916781E+01 -0.33546397114E+02  0.50528852233E+02  0.29999976846E+02 0.  0.
         12    1    3    3    0    0  0.22616047866E+02 -0.40397916781E+01  0.33546397114E+02  0.40659147767E+02  0.00000000000E+00 0. -1.
         11    1    4    4    0    0  0.16968044143E+01  0.87640598716E+01 -0.13095979541E+02  0.15849055841E+02  0.51100000000E-03 0. -1.
        -11    1    4    4    0    0 -0.12477185230E+02 -0.53304655086E+01 -0.18061759830E+02  0.22590289556E+02  0.51100000000E-03 0.  1.
         12    1    4    4    0    0 -0.11835667050E+02  0.60619731502E+00 -0.23886577420E+01  0.12089506835E+02  0.00000000000E+00 0. -1.
</event>
<event>
 8    1  0.6016610E-012  0.9118800E+02  0.7816164E-02  0.1184000E+00
        -11   -1    0    0    0    0  0.00000000000E+00  0.00000000000E+00  0.45593999997E+02  0.45594000000E+02  0.51100000000E-03 0. -1.
         11   -1    0    0    0    0 -0.00000000000E+00 -0.00000000000E+00 -0.45593999997E+02  0.45594000000E+02  0.51100000000E-03 0.  1.
         23    2    1    2    0    0  0.00000000000E+00 -0.35527136788E-14 -0.71054273576E-14  0.91188000000E+02  0.91188000000E+02 0.  0.
    9900012    2    3    3    0    0  0.28399584097E+02 -0.13182057983E+02 -0.25939590840E+02  0.50528863235E+02  0.30000010289E+02 0.  0.
         12    1    3    3    0    0 -0.28399584097E+02  0.13182057983E+02  0.25939590840E+02  0.40659136765E+02  0.00000000000E+00 0. -1.
         11    1    4    4    0    0 -0.71333806162E+00 -0.32731463772E+01 -0.10848281121E+02  0.11353745723E+02  0.51100000000E-03 0.  1.
        -11    1    4    4    0    0  0.25178489228E+02 -0.16308802480E+01 -0.16136893650E+02  0.29950215811E+02  0.51100000000E-03 0. -1.
         12    1    4    4    0    0  0.39344329307E+01 -0.82780313581E+01  0.10455839307E+01  0.92249017018E+01  0.00000000000E+00 0. -1.
</event>
<event>
 8    1  0.6016610E-012  0.9118800E+02  0.7816164E-02  0.1184000E+00
        -11   -1    0    0    0    0  0.00000000000E+00  0.00000000000E+00  0.45593999997E+02  0.45594000000E+02  0.51100000000E-03 0. -1.
         11   -1    0    0    0    0 -0.00000000000E+00 -0.00000000000E+00 -0.45593999997E+02  0.45594000000E+02  0.51100000000E-03 0.  1.
         23    2    1    2    0    0  0.00000000000E+00 -0.17763568394E-14  0.71054273576E-14  0.91188000000E+02  0.91188000000E+02 0.  0.
    9900012    2    3    3    0    0 -0.15197941155E+02  0.12843563086E+02 -0.35457455204E+02  0.50528860097E+02  0.30000000751E+02 0.  0.
         12    1    3    3    0    0  0.15197941155E+02 -0.12843563086E+02  0.35457455204E+02  0.40659139903E+02  0.00000000000E+00 0. -1.
         11    1    4    4    0    0 -0.19807951536E+00  0.18137191065E+01 -0.10553246395E+02  0.10709800289E+02  0.51100000000E-03 0. -1.
        -11    1    4    4    0    0 -0.16597823851E+02  0.16939138780E+02 -0.23800346388E+02  0.33598789676E+02  0.51100000000E-03 0.  1.
        -12    1    4    4    0    0  0.15979622120E+01 -0.59092948009E+01 -0.11038624209E+01  0.62202701323E+01  0.00000000000E+00 0.  1.
</event>
<event>
 8    1  0.6016610E-012  0.9118800E+02  0.7816164E-02  0.1184000E+00
        -11   -1    0    0    0    0  0.00000000000E+00  0.00000000000E+00  0.45593999997E+02  0.45594000000E+02  0.51100000000E-03 0. -1.
         11   -1    0    0    0    0 -0.00000000000E+00 -0.00000000000E+00 -0.45593999997E+02  0.45594000000E+02  0.51100000000E-03 0.  1.
         23    2    1    2    0    0  0.00000000000E+00 -0.17763568394E-14  0.00000000000E+00  0.91188000000E+02  0.91188000000E+02 0.  0.
    9900012    2    3    3    0    0 -0.34895743104E+02  0.13017917573E+02 -0.16309028966E+02  0.50528886747E+02  0.30000081756E+02 0.  0.
         12    1    3    3    0    0  0.34895743104E+02 -0.13017917573E+02  0.16309028966E+02  0.40659113253E+02  0.00000000000E+00 0. -1.
         11    1    4    4    0    0 -0.89491376983E+01 -0.58083667581E+01 -0.17807205233E+01  0.10816429900E+02  0.51100000000E-03 0.  1.
        -11    1    4    4    0    0 -0.76513104182E+00  0.81706391825E+01 -0.82937226763E+01  0.11667502143E+02  0.51100000000E-03 0. -1.
        -12    1    4    4    0    0 -0.25181474364E+02  0.10655645148E+02 -0.62345857661E+01  0.28044954704E+02  0.00000000000E+00 0.  1.
</event>
<event>
 8    1  0.6016610E-012  0.9118800E+02  0.7816164E-02  0.1184000E+00
        -11   -1    0    0    0    0  0.00000000000E+00  0.00000000000E+00  0.45593999997E+02  0.45594000000E+02  0.51100000000E-03 0. -1.
         11   -1    0    0    0    0 -0.00000000000E+00 -0.00000000000E+00 -0.45593999997E+02  0.45594000000E+02  0.51100000000E-03 0.  1.
         23    2    1    2    0    0  0.17763568394E-14  0.44408920985E-15  0.00000000000E+00  0.91188000000E+02  0.91188000000E+02 0.  0.
    9900012    2    3    3    0    0 -0.97434110657E+01  0.39567603554E+01 -0.39275647981E+02  0.50528849296E+02  0.29999967919E+02 0.  0.
         12    1    3    3    0    0  0.97434110657E+01 -0.39567603554E+01  0.39275647981E+02  0.40659150704E+02  0.00000000000E+00 0. -1.
         11    1    4    4    0    0 -0.48360135336E+01 -0.47876360948E+01 -0.75885433573E+01  0.10192864015E+02  0.51100000000E-03 0. -1.
        -11    1    4    4    0    0  0.10017150637E+01  0.81245039640E+01 -0.91452221830E-01  0.81865353782E+01  0.51100000000E-03 0.  1.
        -12    1    4    4    0    0 -0.59091125958E+01  0.61989248628E+00 -0.31595652402E+02  0.32149449903E+02  0.00000000000E+00 0.  1.
</event>
<event>
 8    1  0.6016610E-012  0.9118800E+02  0.7816164E-02  0.1184000E+00
        -11   -1    0    0    0    0  0.00000000000E+00  0.00000000000E+00  0.45593999997E+02  0.45594000000E+02  0.51100000000E-03 0. -1.
         11   -1    0    0    0    0 -0.00000000000E+00 -0.00000000000E+00 -0.45593999997E+02  0.45594000000E+02  0.51100000000E-03 0.  1.
         23    2    1    2    0    0  0.88817841970E-15  0.00000000000E+00  0.00000000000E+00  0.91188000000E+02  0.91188000000E+02 0.  0.
    9900012    2    3    3    0    0 -0.78557240738E+01  0.81992732412E+01 -0.39041332169E+02  0.50528854658E+02  0.29999984217E+02 0.  0.
         12    1    3    3    0    0  0.78557240738E+01 -0.81992732412E+01  0.39041332169E+02  0.40659145342E+02  0.00000000000E+00 0. -1.
         11    1    4    4    0    0 -0.94370113687E+01 -0.88624381871E+01 -0.21535803515E+02  0.25127491469E+02  0.51100000000E-03 0.  1.
        -11    1    4    4    0    0 -0.13168421738E+01  0.13897683216E+02 -0.11910232122E+02  0.18350294318E+02  0.51100000000E-03 0. -1.
        -12    1    4    4    0    0  0.28981294687E+01  0.31640282120E+01 -0.55952965323E+01  0.70510688713E+01  0.00000000000E+00 0.  1.
</event>
<event>
 8    1  0.6016610E-012  0.9118800E+02  0.7816164E-02  0.1184000E+00
        -11   -1    0    0    0    0  0.00000000000E+00  0.00000000000E+00  0.45593999997E+02  0.45594000000E+02  0.51100000000E-03 0. -1.
         11   -1    0    0    0    0 -0.00000000000E+00 -0.00000000000E+00 -0.45593999997E+02  0.45594000000E+02  0.51100000000E-03 0.  1.
         23    2    1    2    0    0 -0.71054273576E-14  0.00000000000E+00  0.44408920985E-15  0.91188000000E+02  0.91188000000E+02 0.  0.
    9900012    2    3    3    0    0  0.30398822571E+02 -0.26706883041E+02 -0.39771500236E+01  0.50528883706E+02  0.30000072514E+02 0.  0.
         12    1    3    3    0    0 -0.30398822571E+02  0.26706883041E+02  0.39771500236E+01  0.40659116294E+02  0.00000000000E+00 0. -1.
         11    1    4    4    0    0 -0.27295881927E+01 -0.57668801119E+01 -0.86250662395E+01  0.10728435386E+02  0.51100000000E-03 0. -1.
        -11    1    4    4    0    0  0.32031332629E+02 -0.20782306899E+02  0.37355736933E+01  0.38364893602E+02  0.51100000000E-03 0.  1.
         12    1    4    4    0    0  0.10970781348E+01 -0.15769603008E+00  0.91234252262E+00  0.14355547187E+01  0.00000000000E+00 0. -1.
</event>
<event>
 8    1  0.6016610E-012  0.9118800E+02  0.7816164E-02  0.1184000E+00
        -11   -1    0    0    0    0  0.00000000000E+00  0.00000000000E+00  0.45593999997E+02  0.45594000000E+02  0.51100000000E-03 0.  1.
         11   -1    0    0    0    0 -0.00000000000E+00 -0.00000000000E+00 -0.45593999997E+02  0.45594000000E+02  0.51100000000E-03 0. -1.
         23    2    1    2    0    0  0.71054273576E-14  0.00000000000E+00  0.17763568394E-14  0.91188000000E+02  0.91188000000E+02 0.  0.
    9900012    2    3    3    0    0 -0.37558090481E+02  0.10539667359E+02 -0.11466109695E+02  0.50528850720E+02  0.29999972249E+02 0.  0.
         12    1    3    3    0    0  0.37558090481E+02 -0.10539667359E+02  0.11466109695E+02  0.40659149280E+02  0.00000000000E+00 0. -1.
         11    1    4    4    0    0 -0.65778609401E+00  0.65109591731E+01  0.46587518978E+01  0.80330094862E+01  0.51100000000E-03 0. -1.
        -11    1    4    4    0    0 -0.33227525092E+02  0.52253182738E+01 -0.18057547057E+02  0.38176529187E+02  0.51100000000E-03 0.  1.
         12    1    4    4    0    0 -0.36727792951E+01 -0.11966100876E+01  0.19326854647E+01  0.43193120468E+01  0.00000000000E+00 0. -1.
</event>
<event>
 8    1  0.6016610E-012  0.9118800E+02  0.7816164E-02  0.1184000E+00
        -11   -1    0    0    0    0  0.00000000000E+00  0.00000000000E+00  0.45593999997E+02  0.45594000000E+02  0.51100000000E-03 0. -1.
         11   -1    0    0    0    0 -0.00000000000E+00 -0.00000000000E+00 -0.45593999997E+02  0.45594000000E+02  0.51100000000E-03 0.  1.
         23    2    1    2    0    0  0.44408920985E-14  0.00000000000E+00 -0.71054273576E-14  0.91188000000E+02  0.91188000000E+02 0.  0.
    9900012    2    3    3    0    0 -0.21639239669E+01  0.82019113591E+01 -0.39764449477E+02  0.50528863769E+02  0.30000011912E+02 0.  0.
         12    1    3    3    0    0  0.21639239669E+01 -0.82019113591E+01  0.39764449477E+02  0.40659136231E+02  0.00000000000E+00 0. -1.
         11    1    4    4    0    0  0.11136584963E+02  0.50866481088E+01 -0.18266199928E+02  0.21989806131E+02  0.51100000000E-03 0. -1.
        -11    1    4    4    0    0 -0.57275754810E+01 -0.10201831050E+01 -0.18517993731E+02  0.19410357713E+02  0.51100000000E-03 0.  1.
         12    1    4    4    0    0 -0.75729334489E+01  0.41354463554E+01 -0.29802558178E+01  0.91286999249E+01  0.00000000000E+00 0. -1.
</event>
<event>
 8    1  0.6016610E-012  0.9118800E+02  0.7816164E-02  0.1184000E+00
        -11   -1    0    0    0    0  0.00000000000E+00  0.00000000000E+00  0.45593999997E+02  0.45594000000E+02  0.51100000000E-03 0. -1.
         11   -1    0    0    0    0 -0.00000000000E+00 -0.00000000000E+00 -0.45593999997E+02  0.45594000000E+02  0.51100000000E-03 0.  1.
         23    2    1    2    0    0  0.00000000000E+00  0.00000000000E+00  0.00000000000E+00  0.91188000000E+02  0.91188000000E+02 0.  0.
    9900012    2    3    3    0    0  0.43261682752E+01 -0.15308075516E+02  0.37418081325E+02  0.50528859355E+02  0.29999998495E+02 0.  0.
        -12    1    3    3    0    0 -0.43261682752E+01  0.15308075516E+02 -0.37418081325E+02  0.40659140645E+02  0.00000000000E+00 0.  1.
         11    1    4    4    0    0 -0.21663598959E+01 -0.14434462328E+02  0.35729683905E+02  0.38596076615E+02  0.51100000000E-03 0. -1.
        -11    1    4    4    0    0 -0.14507398903E+01 -0.26374127667E+01 -0.12807695911E+01  0.32712326939E+01  0.51100000000E-03 0.  1.
         12    1    4    4    0    0  0.79432680614E+01  0.17637995782E+01  0.29691670113E+01  0.86615500454E+01  0.00000000000E+00 0. -1.
</event>
<event>
 8    1  0.6016610E-012  0.9118800E+02  0.7816164E-02  0.1184000E+00
        -11   -1    0    0    0    0  0.00000000000E+00  0.00000000000E+00  0.45593999997E+02  0.45594000000E+02  0.51100000000E-03 0. -1.
         11   -1    0    0    0    0 -0.00000000000E+00 -0.00000000000E+00 -0.45593999997E+02  0.45594000000E+02  0.51100000000E-03 0.  1.
         23    2    1    2    0    0  0.00000000000E+00  0.00000000000E+00 -0.35527136788E-14  0.91188000000E+02  0.91188000000E+02 0.  0.
    9900012    2    3    3    0    0 -0.10790747717E+02  0.25235519825E+02 -0.29998228969E+02  0.50528862793E+02  0.30000008947E+02 0.  0.
         12    1    3    3    0    0  0.10790747717E+02 -0.25235519825E+02  0.29998228969E+02  0.40659137207E+02  0.00000000000E+00 0. -1.
         11    1    4    4    0    0 -0.11120242421E+02 -0.10673932131E+01 -0.85206844764E+01  0.14049953166E+02  0.51100000000E-03 0. -1.
        -11    1    4    4    0    0  0.76708752613E+00  0.23044108254E+02 -0.11093671873E+02  0.25586889307E+02  0.51100000000E-03 0.  1.
         12    1    4    4    0    0 -0.43759282275E+00  0.32588047843E+01 -0.10383872619E+02  0.10892020321E+02  0.00000000000E+00 0. -1.
</event>
<event>
 8    1  0.6016610E-012  0.9118800E+02  0.7816164E-02  0.1184000E+00
        -11   -1    0    0    0    0  0.00000000000E+00  0.00000000000E+00  0.45593999997E+02  0.45594000000E+02  0.51100000000E-03 0. -1.
         11   -1    0    0    0    0 -0.00000000000E+00 -0.00000000000E+00 -0.45593999997E+02  0.45594000000E+02  0.51100000000E-03 0.  1.
         23    2    1    2    0    0  0.00000000000E+00  0.00000000000E+00  0.71054273576E-14  0.91188000000E+02  0.91188000000E+02 0.  0.
    9900012    2    3    3    0    0 -0.68192630999E+01  0.97541979392E+01  0.38878262685E+02  0.50528855444E+02  0.29999986607E+02 0.  0.
        -12    1    3    3    0    0  0.68192630999E+01 -0.97541979392E+01 -0.38878262685E+02  0.40659144556E+02  0.00000000000E+00 0.  1.
         11    1    4    4    0    0  0.87126392241E+01 -0.20905393032E+01  0.13690790748E+02  0.16362096088E+02  0.51100000000E-03 0. -1.
        -11    1    4    4    0    0 -0.17605981536E+01  0.71614322739E+01  0.13973227964E+02  0.15799902471E+02  0.51100000000E-03 0.  1.
         12    1    4    4    0    0 -0.13771304170E+02  0.46833049685E+01  0.11214243972E+02  0.18366856885E+02  0.00000000000E+00 0. -1.
</event>
<event>
 8    1  0.6673841E-012  0.9118800E+02  0.7816164E-02  0.1184000E+00
        -11   -1    0    0    0    0  0.00000000000E+00  0.00000000000E+00  0.45593999997E+02  0.45594000000E+02  0.51100000000E-03 0. -1.
         11   -1    0    0    0    0 -0.00000000000E+00 -0.00000000000E+00 -0.45593999997E+02  0.45594000000E+02  0.51100000000E-03 0.  1.
         23    2    1    2    0    0  0.00000000000E+00  0.00000000000E+00  0.00000000000E+00  0.91188000000E+02  0.91188000000E+02 0.  0.
    9900012    2    3    3    0    0 -0.14522732093E+02  0.31570555940E+02  0.21108195461E+02  0.50528860001E+02  0.30000000459E+02 0.  0.
        -12    1    3    3    0    0  0.14522732093E+02 -0.31570555940E+02 -0.21108195461E+02  0.40659139999E+02  0.00000000000E+00 0.  1.
         11    1    4    4    0    0 -0.11206426062E+02  0.93193081062E+01  0.84613692714E+01  0.16853137953E+02  0.51100000000E-03 0. -1.
        -11    1    4    4    0    0  0.57130849639E+00 -0.73425244259E+00 -0.45900394257E+01  0.46833729552E+01  0.51100000000E-03 0.  1.
        -12    1    4    4    0    0 -0.38876145282E+01  0.22985500277E+02  0.17236865615E+02  0.28992349093E+02  0.00000000000E+00 0.  1.
</event>
<event>
 8    1  0.6016610E-012  0.9118800E+02  0.7816164E-02  0.1184000E+00
        -11   -1    0    0    0    0  0.00000000000E+00  0.00000000000E+00  0.45593999997E+02  0.45594000000E+02  0.51100000000E-03 0. -1.
         11   -1    0    0    0    0 -0.00000000000E+00 -0.00000000000E+00 -0.45593999997E+02  0.45594000000E+02  0.51100000000E-03 0.  1.
         23    2    1    2    0    0 -0.88817841970E-15  0.00000000000E+00  0.00000000000E+00  0.91188000000E+02  0.91188000000E+02 0.  0.
    9900012    2    3    3    0    0  0.64781677593E+01 -0.22772704865E+02 -0.33054544962E+02  0.50528859736E+02  0.29999999652E+02 0.  0.
         12    1    3    3    0    0 -0.64781677593E+01  0.22772704865E+02  0.33054544962E+02  0.40659140264E+02  0.00000000000E+00 0. -1.
         11    1    4    4    0    0  0.11259890061E+02 -0.19588864288E+02 -0.17445159525E+02  0.28545443058E+02  0.51100000000E-03 0. -1.
        -11    1    4    4    0    0  0.94134268733E+00 -0.13338242991E+01 -0.15879022395E+02  0.15962724260E+02  0.51100000000E-03 0.  1.
         12    1    4    4    0    0 -0.57230649892E+01 -0.18500162787E+01  0.26963695772E+00  0.60206924179E+01  0.00000000000E+00 0. -1.
</event>
<event>
 8    1  0.6016610E-012  0.9118800E+02  0.7816164E-02  0.1184000E+00
        -11   -1    0    0    0    0  0.00000000000E+00  0.00000000000E+00  0.45593999997E+02  0.45594000000E+02  0.51100000000E-03 0. -1.
         11   -1    0    0    0    0 -0.00000000000E+00 -0.00000000000E+00 -0.45593999997E+02  0.45594000000E+02  0.51100000000E-03 0.  1.
         23    2    1    2    0    0  0.00000000000E+00  0.35527136788E-14  0.00000000000E+00  0.91188000000E+02  0.91188000000E+02 0.  0.
    9900012    2    3    3    0    0 -0.27442781196E+02 -0.20090650226E+02 -0.22280593356E+02  0.50528864414E+02  0.30000013874E+02 0.  0.
         12    1    3    3    0    0  0.27442781196E+02  0.20090650226E+02  0.22280593356E+02  0.40659135586E+02  0.00000000000E+00 0. -1.
         11    1    4    4    0    0 -0.43662155212E+01  0.52573270215E+01 -0.10895394113E+02  0.12861296145E+02  0.51100000000E-03 0. -1.
        -11    1    4    4    0    0 -0.20353091542E+02 -0.20456327357E+02 -0.13267910736E+02  0.31760779584E+02  0.51100000000E-03 0.  1.
        -12    1    4    4    0    0 -0.27234741328E+01 -0.48916498906E+01  0.18827114930E+01  0.59067886850E+01  0.00000000000E+00 0.  1.
</event>
<event>
 8    1  0.6016610E-012  0.9118800E+02  0.7816164E-02  0.1184000E+00
        -11   -1    0    0    0    0  0.00000000000E+00  0.00000000000E+00  0.45593999997E+02  0.45594000000E+02  0.51100000000E-03 0. -1.
         11   -1    0    0    0    0 -0.00000000000E+00 -0.00000000000E+00 -0.45593999997E+02  0.45594000000E+02  0.51100000000E-03 0.  1.
         23    2    1    2    0    0  0.00000000000E+00  0.00000000000E+00  0.00000000000E+00  0.91188000000E+02  0.91188000000E+02 0.  0.
    9900012    2    3    3    0    0 -0.18210646734E+02  0.26244513747E+02 -0.25154785665E+02  0.50528863289E+02  0.30000010453E+02 0.  0.
         12    1    3    3    0    0  0.18210646734E+02 -0.26244513747E+02  0.25154785665E+02  0.40659136711E+02  0.00000000000E+00 0. -1.
         11    1    4    4    0    0 -0.41281867934E+01  0.42771398671E+01  0.63941768548E+01  0.87304839245E+01  0.51100000000E-03 0. -1.
        -11    1    4    4    0    0 -0.40886621610E+01  0.13481344700E+02 -0.13691448890E+02  0.19644836119E+02  0.51100000000E-03 0.  1.
         12    1    4    4    0    0 -0.99937977794E+01  0.84860291798E+01 -0.17857513629E+02  0.22153543245E+02  0.00000000000E+00 0. -1.
</event>
<event>
 8    1  0.6016610E-012  0.9118800E+02  0.7816164E-02  0.1184000E+00
        -11   -1    0    0    0    0  0.00000000000E+00  0.00000000000E+00  0.45593999997E+02  0.45594000000E+02  0.51100000000E-03 0. -1.
         11   -1    0    0    0    0 -0.00000000000E+00 -0.00000000000E+00 -0.45593999997E+02  0.45594000000E+02  0.51100000000E-03 0.  1.
         23    2    1    2    0    0  0.00000000000E+00 -0.17763568394E-14  0.00000000000E+00  0.91188000000E+02  0.91188000000E+02 0.  0.
    9900012    2    3    3    0    0 -0.81407147288E+01 -0.14868120131E+02 -0.36957145236E+02  0.50528895036E+02  0.30000106951E+02 0.  0.
         12    1    3    3    0    0  0.81407147288E+01  0.14868120131E+02  0.36957145236E+02  0.40659104964E+02  0.00000000000E+00 0. -1.
         11    1    4    4    0    0 -0.13841213821E+02  0.19586161073E+01 -0.18469824097E+02  0.23163544192E+02  0.51100000000E-03 0. -1.
        -11    1    4    4    0    0  0.97841865868E+00 -0.88193330715E+01 -0.15016908209E+02  0.17442633726E+02  0.51100000000E-03 0.  1.
         12    1    4    4    0    0  0.47220804338E+01 -0.80074031666E+01 -0.34704129302E+01  0.99227171179E+01  0.00000000000E+00 0. -1.
</event>
<event>
 8    1  0.6016610E-012  0.9118800E+02  0.7816164E-02  0.1184000E+00
        -11   -1    0    0    0    0  0.00000000000E+00  0.00000000000E+00  0.45593999997E+02  0.45594000000E+02  0.51100000000E-03 0. -1.
         11   -1    0    0    0    0 -0.00000000000E+00 -0.00000000000E+00 -0.45593999997E+02  0.45594000000E+02  0.51100000000E-03 0.  1.
         23    2    1    2    0    0  0.44408920985E-15  0.00000000000E+00  0.00000000000E+00  0.91188000000E+02  0.91188000000E+02 0.  0.
    9900012    2    3    3    0    0 -0.34199107426E+01 -0.10883292050E+02  0.39025932821E+02  0.50528864890E+02  0.30000015320E+02 0.  0.
        -12    1    3    3    0    0  0.34199107426E+01  0.10883292050E+02 -0.39025932821E+02  0.40659135110E+02  0.00000000000E+00 0.  1.
         11    1    4    4    0    0  0.25152461986E+01 -0.10408663473E+01  0.52426816734E+01  0.59072478856E+01  0.51100000000E-03 0. -1.
        -11    1    4    4    0    0  0.29731888150E+00  0.39331777454E+01 -0.29321114573E+01  0.49148309791E+01  0.51100000000E-03 0.  1.
        -12    1    4    4    0    0 -0.62324758227E+01 -0.13775603448E+02  0.36715362605E+02  0.39706786025E+02  0.00000000000E+00 0.  1.
</event>
<event>
 8    1  0.6016610E-012  0.9118800E+02  0.7816164E-02  0.1184000E+00
        -11   -1    0    0    0    0  0.00000000000E+00  0.00000000000E+00  0.45593999997E+02  0.45594000000E+02  0.51100000000E-03 0. -1.
         11   -1    0    0    0    0 -0.00000000000E+00 -0.00000000000E+00 -0.45593999997E+02  0.45594000000E+02  0.51100000000E-03 0.  1.
         23    2    1    2    0    0  0.00000000000E+00  0.35527136788E-14  0.00000000000E+00  0.91188000000E+02  0.91188000000E+02 0.  0.
    9900012    2    3    3    0    0 -0.15401346866E+02  0.24177390828E+02 -0.28834323390E+02  0.50528856897E+02  0.29999991023E+02 0.  0.
         12    1    3    3    0    0  0.15401346866E+02 -0.24177390828E+02  0.28834323390E+02  0.40659143103E+02  0.00000000000E+00 0. -1.
         11    1    4    4    0    0  0.18537985763E+01  0.83057911765E+01  0.11264196290E+01  0.85843787003E+01  0.51100000000E-03 0. -1.
        -11    1    4    4    0    0 -0.16984837156E+02  0.19310408841E+02 -0.24727541523E+02  0.35676713594E+02  0.51100000000E-03 0.  1.
         12    1    4    4    0    0 -0.27030828644E+00 -0.34388091898E+01 -0.52332014962E+01  0.62677646026E+01  0.00000000000E+00 0. -1.
</event>
<event>
 8    1  0.6016610E-012  0.9118800E+02  0.7816164E-02  0.1184000E+00
        -11   -1    0    0    0    0  0.00000000000E+00  0.00000000000E+00  0.45593999997E+02  0.45594000000E+02  0.51100000000E-03 0. -1.
         11   -1    0    0    0    0 -0.00000000000E+00 -0.00000000000E+00 -0.45593999997E+02  0.45594000000E+02  0.51100000000E-03 0.  1.
         23    2    1    2    0    0  0.00000000000E+00  0.17763568394E-14  0.00000000000E+00  0.91188000000E+02  0.91188000000E+02 0.  0.
    9900012    2    3    3    0    0 -0.24732845782E+02  0.11366721527E+02 -0.30203472995E+02  0.50528858350E+02  0.29999995441E+02 0.  0.
         12    1    3    3    0    0  0.24732845782E+02 -0.11366721527E+02  0.30203472995E+02  0.40659141650E+02  0.00000000000E+00 0. -1.
         11    1    4    4    0    0 -0.85754262860E+01  0.19922996203E+01 -0.27801008914E+01  0.92323428766E+01  0.51100000000E-03 0. -1.
        -11    1    4    4    0    0 -0.11754885656E+02 -0.23593140496E+01 -0.26065544756E+02  0.28690700989E+02  0.51100000000E-03 0.  1.
        -12    1    4    4    0    0 -0.44025338401E+01  0.11733735956E+02 -0.13578273475E+01  0.12605814484E+02  0.00000000000E+00 0.  1.
</event>
<event>
 8    1  0.6016610E-012  0.9118800E+02  0.7816164E-02  0.1184000E+00
        -11   -1    0    0    0    0  0.00000000000E+00  0.00000000000E+00  0.45593999997E+02  0.45594000000E+02  0.51100000000E-03 0. -1.
         11   -1    0    0    0    0 -0.00000000000E+00 -0.00000000000E+00 -0.45593999997E+02  0.45594000000E+02  0.51100000000E-03 0.  1.
         23    2    1    2    0    0 -0.17763568394E-14  0.35527136788E-14  0.35527136788E-14  0.91188000000E+02  0.91188000000E+02 0.  0.
    9900012    2    3    3    0    0  0.15767281570E+02 -0.31164336976E+02 -0.20816860398E+02  0.50528871332E+02  0.30000034899E+02 0.  0.
         12    1    3    3    0    0 -0.15767281570E+02  0.31164336976E+02  0.20816860398E+02  0.40659128668E+02  0.00000000000E+00 0. -1.
         11    1    4    4    0    0 -0.30273708955E+01 -0.39596435158E+01 -0.10741725271E+02  0.11841807859E+02  0.51100000000E-03 0.  1.
        -11    1    4    4    0    0  0.10688272690E+02 -0.23555933833E+02 -0.13478285897E+02  0.29168225568E+02  0.51100000000E-03 0. -1.
         12    1    4    4    0    0  0.81063797759E+01 -0.36487596269E+01  0.34031507696E+01  0.95188379043E+01  0.00000000000E+00 0. -1.
</event>
<event>
 8    1  0.6016610E-012  0.9118800E+02  0.7816164E-02  0.1184000E+00
        -11   -1    0    0    0    0  0.00000000000E+00  0.00000000000E+00  0.45593999997E+02  0.45594000000E+02  0.51100000000E-03 0. -1.
         11   -1    0    0    0    0 -0.00000000000E+00 -0.00000000000E+00 -0.45593999997E+02  0.45594000000E+02  0.51100000000E-03 0.  1.
         23    2    1    2    0    0  0.71054273576E-14 -0.35527136788E-14 -0.76327832943E-15  0.91188000000E+02  0.91188000000E+02 0.  0.
    9900012    2    3    3    0    0  0.32568451514E+02 -0.24340239539E+02 -0.12009826539E+00  0.50528859350E+02  0.29999998480E+02 0.  0.
         12    1    3    3    0    0 -0.32568451514E+02  0.24340239539E+02  0.12009826539E+00  0.40659140650E+02  0.00000000000E+00 0. -1.
         11    1    4    4    0    0  0.32099420135E+01 -0.26880054904E+01  0.94701502176E+01  0.10354363653E+02  0.51100000000E-03 0. -1.
        -11    1    4    4    0    0  0.23201945299E+02 -0.23015558613E+02 -0.74907680133E+01  0.33528462679E+02  0.51100000000E-03 0.  1.
        -12    1    4    4    0    0  0.61565642012E+01  0.13633245648E+01 -0.20994804697E+01  0.66460330180E+01  0.00000000000E+00 0.  1.
</event>
<event>
 8    1  0.6016610E-012  0.9118800E+02  0.7816164E-02  0.1184000E+00
        -11   -1    0    0    0    0  0.00000000000E+00  0.00000000000E+00  0.45593999997E+02  0.45594000000E+02  0.51100000000E-03 0. -1.
         11   -1    0    0    0    0 -0.00000000000E+00 -0.00000000000E+00 -0.45593999997E+02  0.45594000000E+02  0.51100000000E-03 0.  1.
         23    2    1    2    0    0 -0.88817841970E-15  0.55511151231E-15  0.00000000000E+00  0.91188000000E+02  0.91188000000E+02 0.  0.
    9900012    2    3    3    0    0 -0.61775340348E+01 -0.36939942275E+00 -0.40185411375E+02  0.50528859945E+02  0.30000000288E+02 0.  0.
         12    1    3    3    0    0  0.61775340348E+01  0.36939942275E+00  0.40185411375E+02  0.40659140055E+02  0.00000000000E+00 0. -1.
         11    1    4    4    0    0 -0.12776825316E+02 -0.46441503379E+01 -0.16675687149E+02  0.21514970129E+02  0.51100000000E-03 0. -1.
        -11    1    4    4    0    0  0.59245062682E+01  0.68685781119E+01 -0.50920297922E+01  0.10402206856E+02  0.51100000000E-03 0.  1.
        -12    1    4    4    0    0  0.67478501333E+00 -0.25938271967E+01 -0.18417694434E+02  0.18611682960E+02  0.00000000000E+00 0.  1.
</event>
<event>
 8    1  0.6016610E-012  0.9118800E+02  0.7816164E-02  0.1184000E+00
        -11   -1    0    0    0    0  0.00000000000E+00  0.00000000000E+00  0.45593999997E+02  0.45594000000E+02  0.51100000000E-03 0. -1.
         11   -1    0    0    0    0 -0.00000000000E+00 -0.00000000000E+00 -0.45593999997E+02  0.45594000000E+02  0.51100000000E-03 0.  1.
         23    2    1    2    0    0  0.00000000000E+00 -0.35527136788E-14  0.71054273576E-14  0.91188000000E+02  0.91188000000E+02 0.  0.
    9900012    2    3    3    0    0  0.12111423485E+02 -0.17307936066E+02  0.34740672724E+02  0.50528861162E+02  0.30000003989E+02 0.  0.
        -12    1    3    3    0    0 -0.12111423485E+02  0.17307936066E+02 -0.34740672724E+02  0.40659138838E+02  0.00000000000E+00 0.  1.
         11    1    4    4    0    0  0.29880787404E+01 -0.58049773033E+01 -0.12029045655E+01  0.66387766723E+01  0.51100000000E-03 0. -1.
        -11    1    4    4    0    0  0.10976634992E+01 -0.39690993380E+00  0.28054766679E+02  0.28079037311E+02  0.51100000000E-03 0.  1.
        -12    1    4    4    0    0  0.80256812456E+01 -0.11106048828E+02  0.78888106105E+01  0.15811047179E+02  0.00000000000E+00 0.  1.
</event>
<event>
 8    1  0.6016610E-012  0.9118800E+02  0.7816164E-02  0.1184000E+00
        -11   -1    0    0    0    0  0.00000000000E+00  0.00000000000E+00  0.45593999997E+02  0.45594000000E+02  0.51100000000E-03 0. -1.
         11   -1    0    0    0    0 -0.00000000000E+00 -0.00000000000E+00 -0.45593999997E+02  0.45594000000E+02  0.51100000000E-03 0.  1.
         23    2    1    2    0    0 -0.17763568394E-14  0.00000000000E+00  0.35527136788E-14  0.91188000000E+02  0.91188000000E+02 0.  0.
    9900012    2    3    3    0    0  0.10004351816E+02 -0.23558542055E+02  0.31592300057E+02  0.50528863488E+02  0.30000011058E+02 0.  0.
        -12    1    3    3    0    0 -0.10004351816E+02  0.23558542055E+02 -0.31592300057E+02  0.40659136512E+02  0.00000000000E+00 0.  1.
         11    1    4    4    0    0  0.10518231575E+02 -0.67951465553E+01  0.76337296844E+01  0.14665641525E+02  0.51100000000E-03 0. -1.
        -11    1    4    4    0    0 -0.73366478298E+01 -0.18274964285E+02  0.17998865640E+02  0.26678828415E+02  0.51100000000E-03 0.  1.
        -12    1    4    4    0    0  0.68227680711E+01  0.15115687861E+01  0.59597047330E+01  0.91843935484E+01  0.00000000000E+00 0.  1.
</event>
<event>
 8    1  0.6016610E-012  0.9118800E+02  0.7816164E-02  0.1184000E+00
        -11   -1    0    0    0    0  0.00000000000E+00  0.00000000000E+00  0.45593999997E+02  0.45594000000E+02  0.51100000000E-03 0. -1.
         11   -1    0    0    0    0 -0.00000000000E+00 -0.00000000000E+00 -0.45593999997E+02  0.45594000000E+02  0.51100000000E-03 0.  1.
         23    2    1    2    0    0 -0.35527136788E-14  0.00000000000E+00  0.00000000000E+00  0.91188000000E+02  0.91188000000E+02 0.  0.
    9900012    2    3    3    0    0 -0.30647647653E+02  0.19327995238E+02  0.18447659155E+02  0.50528857918E+02  0.29999994127E+02 0.  0.
        -12    1    3    3    0    0  0.30647647653E+02 -0.19327995238E+02 -0.18447659155E+02  0.40659142082E+02  0.00000000000E+00 0.  1.
         11    1    4    4    0    0 -0.11982035143E+02  0.13012519556E+02  0.12422277550E+02  0.21614990426E+02  0.51100000000E-03 0. -1.
        -11    1    4    4    0    0 -0.17254845539E+01 -0.27909515662E+01 -0.55638556527E+01  0.64593496248E+01  0.51100000000E-03 0.  1.
        -12    1    4    4    0    0 -0.16940127956E+02  0.91064272485E+01  0.11589237258E+02  0.22454517867E+02  0.00000000000E+00 0.  1.
</event>
<event>
 8    1  0.6016610E-012  0.9118800E+02  0.7816164E-02  0.1184000E+00
        -11   -1    0    0    0    0  0.00000000000E+00  0.00000000000E+00  0.45593999997E+02  0.45594000000E+02  0.51100000000E-03 0. -1.
         11   -1    0    0    0    0 -0.00000000000E+00 -0.00000000000E+00 -0.45593999997E+02  0.45594000000E+02  0.51100000000E-03 0.  1.
         23    2    1    2    0    0  0.00000000000E+00  0.88817841970E-15  0.71054273576E-14  0.91188000000E+02  0.91188000000E+02 0.  0.
    9900012    2    3    3    0    0 -0.78580590571E+01  0.19076369940E+01  0.39846927627E+02  0.50528858194E+02  0.29999994967E+02 0.  0.
        -12    1    3    3    0    0  0.78580590571E+01 -0.19076369940E+01 -0.39846927627E+02  0.40659141806E+02  0.00000000000E+00 0.  1.
         11    1    4    4    0    0 -0.14101267455E+02 -0.64237386619E+01  0.11044921388E+02  0.19028937200E+02  0.51100000000E-03 0. -1.
        -11    1    4    4    0    0  0.10861077090E+01  0.72888944065E+01  0.18920215534E+02  0.20304732644E+02  0.51100000000E-03 0.  1.
         12    1    4    4    0    0  0.51571006886E+01  0.10424812494E+01  0.98817907051E+01  0.11195188351E+02  0.00000000000E+00 0. -1.
</event>
<event>
 8    1  0.6016610E-012  0.9118800E+02  0.7816164E-02  0.1184000E+00
        -11   -1    0    0    0    0  0.00000000000E+00  0.00000000000E+00  0.45593999997E+02  0.45594000000E+02  0.51100000000E-03 0. -1.
         11   -1    0    0    0    0 -0.00000000000E+00 -0.00000000000E+00 -0.45593999997E+02  0.45594000000E+02  0.51100000000E-03 0.  1.
         23    2    1    2    0    0  0.88817841970E-15  0.00000000000E+00  0.00000000000E+00  0.91188000000E+02  0.91188000000E+02 0.  0.
    9900012    2    3    3    0    0  0.58907932904E+01  0.28555232869E+02 -0.28338365346E+02  0.50528859327E+02  0.29999998411E+02 0.  0.
         12    1    3    3    0    0 -0.58907932904E+01 -0.28555232869E+02  0.28338365346E+02  0.40659140673E+02  0.00000000000E+00 0. -1.
         11    1    4    4    0    0  0.20847112046E+01 -0.42516450004E+00 -0.48648827163E+01  0.53097899924E+01  0.51100000000E-03 0. -1.
        -11    1    4    4    0    0  0.13031177724E+02  0.24922610661E+02 -0.14120311190E+02  0.31469529761E+02  0.51100000000E-03 0.  1.
        -12    1    4    4    0    0 -0.92250956388E+01  0.40577867081E+01 -0.93531714395E+01  0.13749539574E+02  0.00000000000E+00 0.  1.
</event>
<event>
 8    1  0.6016610E-012  0.9118800E+02  0.7816164E-02  0.1184000E+00
        -11   -1    0    0    0    0  0.00000000000E+00  0.00000000000E+00  0.45593999997E+02  0.45594000000E+02  0.51100000000E-03 0. -1.
         11   -1    0    0    0    0 -0.00000000000E+00 -0.00000000000E+00 -0.45593999997E+02  0.45594000000E+02  0.51100000000E-03 0.  1.
         23    2    1    2    0    0 -0.35527136788E-14  0.17763568394E-14  0.71054273576E-14  0.91188000000E+02  0.91188000000E+02 0.  0.
    9900012    2    3    3    0    0 -0.91352781466E+01  0.11425971429E+02  0.37936260392E+02  0.50528856103E+02  0.29999988610E+02 0.  0.
        -12    1    3    3    0    0  0.91352781466E+01 -0.11425971429E+02 -0.37936260392E+02  0.40659143897E+02  0.00000000000E+00 0.  1.
         11    1    4    4    0    0 -0.97778572745E+01  0.68381469626E+01  0.32519023957E+02  0.34638903940E+02  0.51100000000E-03 0. -1.
        -11    1    4    4    0    0  0.73402832397E+01  0.35611060757E+01  0.27865367111E+01  0.86212540634E+01  0.51100000000E-03 0.  1.
         12    1    4    4    0    0 -0.66977041118E+01  0.10267183906E+01  0.26306997239E+01  0.72686980994E+01  0.00000000000E+00 0. -1.
</event>
<event>
 8    1  0.6016610E-012  0.9118800E+02  0.7816164E-02  0.1184000E+00
        -11   -1    0    0    0    0  0.00000000000E+00  0.00000000000E+00  0.45593999997E+02  0.45594000000E+02  0.51100000000E-03 0. -1.
         11   -1    0    0    0    0 -0.00000000000E+00 -0.00000000000E+00 -0.45593999997E+02  0.45594000000E+02  0.51100000000E-03 0.  1.
         23    2    1    2    0    0 -0.55511151231E-15  0.35527136788E-14  0.00000000000E+00  0.91188000000E+02  0.91188000000E+02 0.  0.
    9900012    2    3    3    0    0 -0.39285005941E+00  0.17046993757E+02  0.36910866207E+02  0.50528851319E+02  0.29999974070E+02 0.  0.
        -12    1    3    3    0    0  0.39285005941E+00 -0.17046993757E+02 -0.36910866207E+02  0.40659148681E+02  0.00000000000E+00 0.  1.
         11    1    4    4    0    0 -0.79080424318E+01 -0.11138747247E+01  0.20054426602E+02  0.21586057505E+02  0.51100000000E-03 0. -1.
        -11    1    4    4    0    0  0.20574815932E+00  0.47760916259E+01 -0.15627552294E+01  0.50294719099E+01  0.51100000000E-03 0.  1.
         12    1    4    4    0    0  0.73094442131E+01  0.13384776855E+02  0.18419194834E+02  0.23913321905E+02  0.00000000000E+00 0. -1.
</event>
<event>
 8    1  0.6016610E-012  0.9118800E+02  0.7816164E-02  0.1184000E+00
        -11   -1    0    0    0    0  0.00000000000E+00  0.00000000000E+00  0.45593999997E+02  0.45594000000E+02  0.51100000000E-03 0. -1.
         11   -1    0    0    0    0 -0.00000000000E+00 -0.00000000000E+00 -0.45593999997E+02  0.45594000000E+02  0.51100000000E-03 0.  1.
         23    2    1    2    0    0  0.00000000000E+00  0.00000000000E+00  0.55511151231E-15  0.91188000000E+02  0.91188000000E+02 0.  0.
    9900012    2    3    3    0    0 -0.39559335872E+02 -0.93763759983E+01 -0.55603654595E+00  0.50528847794E+02  0.29999963355E+02 0.  0.
         12    1    3    3    0    0  0.39559335872E+02  0.93763759983E+01  0.55603654595E+00  0.40659152206E+02  0.00000000000E+00 0. -1.
         11    1    4    4    0    0 -0.13256342773E+02  0.43601425868E+01 -0.28367799327E+01  0.14240392823E+02  0.51100000000E-03 0. -1.
        -11    1    4    4    0    0 -0.29477715158E+02 -0.14410686005E+02  0.10846725331E+01  0.32829561021E+02  0.51100000000E-03 0.  1.
        -12    1    4    4    0    0  0.31747220601E+01  0.67416741966E+00  0.11960708537E+01  0.34588939497E+01  0.00000000000E+00 0.  1.
</event>
<event>
 8    1  0.6016610E-012  0.9118800E+02  0.7816164E-02  0.1184000E+00
        -11   -1    0    0    0    0  0.00000000000E+00  0.00000000000E+00  0.45593999997E+02  0.45594000000E+02  0.51100000000E-03 0. -1.
         11   -1    0    0    0    0 -0.00000000000E+00 -0.00000000000E+00 -0.45593999997E+02  0.45594000000E+02  0.51100000000E-03 0.  1.
         23    2    1    2    0    0  0.00000000000E+00  0.00000000000E+00  0.35527136788E-14  0.91188000000E+02  0.91188000000E+02 0.  0.
    9900012    2    3    3    0    0 -0.12584508231E+02 -0.25854609383E+02 -0.28746044864E+02  0.50528858727E+02  0.29999996586E+02 0.  0.
         12    1    3    3    0    0  0.12584508231E+02  0.25854609383E+02  0.28746044864E+02  0.40659141273E+02  0.00000000000E+00 0. -1.
         11    1    4    4    0    0 -0.17749274823E+02 -0.15343388107E+02 -0.10614235068E+02  0.25751083505E+02  0.51100000000E-03 0. -1.
        -11    1    4    4    0    0  0.46935547846E+01 -0.99026213035E+01 -0.57565074758E+01  0.12378559843E+02  0.51100000000E-03 0.  1.
         12    1    4    4    0    0  0.47121180756E+00 -0.60859997212E+00 -0.12375302321E+02  0.12399215379E+02  0.00000000000E+00 0. -1.
</event>
<event>
 8    1  0.6016610E-012  0.9118800E+02  0.7816164E-02  0.1184000E+00
        -11   -1    0    0    0    0  0.00000000000E+00  0.00000000000E+00  0.45593999997E+02  0.45594000000E+02  0.51100000000E-03 0. -1.
         11   -1    0    0    0    0 -0.00000000000E+00 -0.00000000000E+00 -0.45593999997E+02  0.45594000000E+02  0.51100000000E-03 0.  1.
         23    2    1    2    0    0  0.00000000000E+00  0.00000000000E+00  0.71054273576E-14  0.91188000000E+02  0.91188000000E+02 0.  0.
    9900012    2    3    3    0    0 -0.76919942103E+01 -0.56279962348E+01  0.39526247727E+02  0.50528863562E+02  0.30000011283E+02 0.  0.
        -12    1    3    3    0    0  0.76919942103E+01  0.56279962348E+01 -0.39526247727E+02  0.40659136438E+02  0.00000000000E+00 0.  1.
         11    1    4    4    0    0 -0.32301752225E+01  0.98252218843E+01  0.20831091094E+02  0.23257329457E+02  0.51100000000E-03 0.  1.
        -11    1    4    4    0    0 -0.26367495312E+00 -0.14446072473E+02  0.10024406876E+02  0.17585427713E+02  0.51100000000E-03 0. -1.
        -12    1    4    4    0    0 -0.41981440347E+01 -0.10071456460E+01  0.86707497571E+01  0.96861063921E+01  0.00000000000E+00 0.  1.
</event>
<event>
 8    1  0.6016610E-012  0.9118800E+02  0.7816164E-02  0.1184000E+00
        -11   -1    0    0    0    0  0.00000000000E+00  0.00000000000E+00  0.45593999997E+02  0.45594000000E+02  0.51100000000E-03 0. -1.
         11   -1    0    0    0    0 -0.00000000000E+00 -0.00000000000E+00 -0.45593999997E+02  0.45594000000E+02  0.51100000000E-03 0.  1.
         23    2    1    2    0    0  0.17763568394E-14 -0.44408920985E-15  0.00000000000E+00  0.91188000000E+02  0.91188000000E+02 0.  0.
    9900012    2    3    3    0    0  0.11566976365E+02 -0.10389052799E+01 -0.38965264189E+02  0.50528854907E+02  0.29999984975E+02 0.  0.
         12    1    3    3    0    0 -0.11566976365E+02  0.10389052799E+01  0.38965264189E+02  0.40659145093E+02  0.00000000000E+00 0. -1.
         11    1    4    4    0    0  0.80606483130E+01  0.93111981340E+01 -0.92524183302E+01  0.15403886105E+02  0.51100000000E-03 0. -1.
        -11    1    4    4    0    0  0.60464932320E+01 -0.10602094736E+02 -0.11616771967E+02  0.16849744342E+02  0.51100000000E-03 0.  1.
        -12    1    4    4    0    0 -0.25401651801E+01  0.25199132244E+00 -0.18096073891E+02  0.18275224460E+02  0.00000000000E+00 0.  1.
</event>
<event>
 8    1  0.6016610E-012  0.9118800E+02  0.7816164E-02  0.1184000E+00
        -11   -1    0    0    0    0  0.00000000000E+00  0.00000000000E+00  0.45593999997E+02  0.45594000000E+02  0.51100000000E-03 0.  1.
         11   -1    0    0    0    0 -0.00000000000E+00 -0.00000000000E+00 -0.45593999997E+02  0.45594000000E+02  0.51100000000E-03 0. -1.
         23    2    1    2    0    0  0.00000000000E+00  0.00000000000E+00  0.00000000000E+00  0.91188000000E+02  0.91188000000E+02 0.  0.
    9900012    2    3    3    0    0  0.10871315342E+02 -0.37612322817E+02 -0.10967815262E+02  0.50528864537E+02  0.30000014247E+02 0.  0.
         12    1    3    3    0    0 -0.10871315342E+02  0.37612322817E+02  0.10967815262E+02  0.40659135463E+02  0.00000000000E+00 0. -1.
         11    1    4    4    0    0  0.13704556652E+02 -0.37768335111E+01 -0.14955280940E+00  0.14216248123E+02  0.51100000000E-03 0. -1.
        -11    1    4    4    0    0 -0.37253759303E+00 -0.24551934968E+02 -0.49227932161E+01  0.25043366153E+02  0.51100000000E-03 0.  1.
         12    1    4    4    0    0 -0.24607037167E+01 -0.92835543375E+01 -0.58954692368E+01  0.11269250261E+02  0.00000000000E+00 0. -1.
</event>
<event>
 8    1  0.6016610E-012  0.9118800E+02  0.7816164E-02  0.1184000E+00
        -11   -1    0    0    0    0  0.00000000000E+00  0.00000000000E+00  0.45593999997E+02  0.45594000000E+02  0.51100000000E-03 0. -1.
         11   -1    0    0    0    0 -0.00000000000E+00 -0.00000000000E+00 -0.45593999997E+02  0.45594000000E+02  0.51100000000E-03 0.  1.
         23    2    1    2    0    0  0.00000000000E+00 -0.35527136788E-14 -0.35527136788E-14  0.91188000000E+02  0.91188000000E+02 0.  0.
    9900012    2    3    3    0    0  0.12385335862E+02 -0.27364487951E+02 -0.27403535269E+02  0.50528862153E+02  0.30000007001E+02 0.  0.
         12    1    3    3    0    0 -0.12385335862E+02  0.27364487951E+02  0.27403535269E+02  0.40659137847E+02  0.00000000000E+00 0. -1.
         11    1    4    4    0    0 -0.57708768317E+00 -0.60125871806E+01 -0.18071651289E+02  0.19054364733E+02  0.51100000000E-03 0. -1.
        -11    1    4    4    0    0  0.88357737834E+01 -0.22609070990E+02 -0.39766628555E+01  0.24597862450E+02  0.51100000000E-03 0.  1.
        -12    1    4    4    0    0  0.41266497621E+01  0.12571702202E+01 -0.53552211247E+01  0.68766349704E+01  0.00000000000E+00 0.  1.
</event>
<event>
 8    1  0.6016610E-012  0.9118800E+02  0.7816164E-02  0.1184000E+00
        -11   -1    0    0    0    0  0.00000000000E+00  0.00000000000E+00  0.45593999997E+02  0.45594000000E+02  0.51100000000E-03 0. -1.
         11   -1    0    0    0    0 -0.00000000000E+00 -0.00000000000E+00 -0.45593999997E+02  0.45594000000E+02  0.51100000000E-03 0.  1.
         23    2    1    2    0    0  0.17763568394E-14  0.00000000000E+00  0.00000000000E+00  0.91188000000E+02  0.91188000000E+02 0.  0.
    9900012    2    3    3    0    0 -0.15034653006E+02 -0.17094256939E+02  0.33688542152E+02  0.50528778615E+02  0.29999753076E+02 0.  0.
        -12    1    3    3    0    0  0.15034653006E+02  0.17094256939E+02 -0.33688542152E+02  0.40659221385E+02  0.00000000000E+00 0.  1.
         11    1    4    4    0    0 -0.11458790316E+02 -0.12319617406E+02  0.11176596091E+02  0.20198840288E+02  0.51100000000E-03 0. -1.
        -11    1    4    4    0    0  0.16676183778E+00  0.36859864327E+01  0.20542421496E+02  0.20871161603E+02  0.51100000000E-03 0.  1.
        -12    1    4    4    0    0 -0.37426245273E+01 -0.84606259663E+01  0.19695245653E+01  0.94587767236E+01  0.00000000000E+00 0.  1.
</event>
<event>
 8    1  0.6016610E-012  0.9118800E+02  0.7816164E-02  0.1184000E+00
        -11   -1    0    0    0    0  0.00000000000E+00  0.00000000000E+00  0.45593999997E+02  0.45594000000E+02  0.51100000000E-03 0. -1.
         11   -1    0    0    0    0 -0.00000000000E+00 -0.00000000000E+00 -0.45593999997E+02  0.45594000000E+02  0.51100000000E-03 0.  1.
         23    2    1    2    0    0  0.00000000000E+00  0.00000000000E+00  0.00000000000E+00  0.91188000000E+02  0.91188000000E+02 0.  0.
    9900012    2    3    3    0    0 -0.81014206839E+01  0.23490653547E+02  0.32182632659E+02  0.50528859994E+02  0.30000000438E+02 0.  0.
        -12    1    3    3    0    0  0.81014206839E+01 -0.23490653547E+02 -0.32182632659E+02  0.40659140006E+02  0.00000000000E+00 0.  1.
         11    1    4    4    0    0 -0.13260364892E+02  0.15820611108E+01  0.19063828946E+02  0.23275948289E+02  0.51100000000E-03 0. -1.
        -11    1    4    4    0    0 -0.15283844231E+01  0.10876946962E+02  0.58000829809E+01  0.12421147169E+02  0.51100000000E-03 0.  1.
         12    1    4    4    0    0  0.66873286308E+01  0.11031645474E+02  0.73187207329E+01  0.14831764536E+02  0.00000000000E+00 0. -1.
</event>
<event>
 8    1  0.6016610E-012  0.9118800E+02  0.7816164E-02  0.1184000E+00
        -11   -1    0    0    0    0  0.00000000000E+00  0.00000000000E+00  0.45593999997E+02  0.45594000000E+02  0.51100000000E-03 0. -1.
         11   -1    0    0    0    0 -0.00000000000E+00 -0.00000000000E+00 -0.45593999997E+02  0.45594000000E+02  0.51100000000E-03 0.  1.
         23    2    1    2    0    0 -0.17763568394E-14 -0.17763568394E-14  0.71054273576E-14  0.91188000000E+02  0.91188000000E+02 0.  0.
    9900012    2    3    3    0    0 -0.11035777693E+02 -0.11986027933E+02  0.37252024022E+02  0.50528849141E+02  0.29999967448E+02 0.  0.
        -12    1    3    3    0    0  0.11035777693E+02  0.11986027933E+02 -0.37252024022E+02  0.40659150859E+02  0.00000000000E+00 0.  1.
         11    1    4    4    0    0 -0.79387417952E+01  0.82731221954E+01  0.12035449111E+02  0.16622882052E+02  0.51100000000E-03 0. -1.
        -11    1    4    4    0    0  0.67292322009E+00 -0.13270902148E+02  0.96206451196E+01  0.16405074893E+02  0.51100000000E-03 0.  1.
        -12    1    4    4    0    0 -0.37699591180E+01 -0.69882479800E+01  0.15595929791E+02  0.17500892195E+02  0.00000000000E+00 0.  1.
</event>
<event>
 8    1  0.6016610E-012  0.9118800E+02  0.7816164E-02  0.1184000E+00
        -11   -1    0    0    0    0  0.00000000000E+00  0.00000000000E+00  0.45593999997E+02  0.45594000000E+02  0.51100000000E-03 0. -1.
         11   -1    0    0    0    0 -0.00000000000E+00 -0.00000000000E+00 -0.45593999997E+02  0.45594000000E+02  0.51100000000E-03 0.  1.
         23    2    1    2    0    0  0.00000000000E+00  0.00000000000E+00  0.00000000000E+00  0.91188000000E+02  0.91188000000E+02 0.  0.
    9900012    2    3    3    0    0  0.20722955566E+02  0.20534420802E+02 -0.28320664189E+02  0.50528888535E+02  0.30000087190E+02 0.  0.
         12    1    3    3    0    0 -0.20722955566E+02 -0.20534420802E+02  0.28320664189E+02  0.40659111465E+02  0.00000000000E+00 0. -1.
         11    1    4    4    0    0  0.12712233832E+02  0.72376006690E+01 -0.19467768254E+01  0.14757157339E+02  0.51100000000E-03 0. -1.
        -11    1    4    4    0    0  0.44579255052E+01 -0.18849599566E+01 -0.16781131880E+02  0.17465181398E+02  0.51100000000E-03 0.  1.
        -12    1    4    4    0    0  0.35527962285E+01  0.15181780090E+02 -0.95927554837E+01  0.18306549798E+02  0.00000000000E+00 0.  1.
</event>
<event>
 8    1  0.6016610E-012  0.9118800E+02  0.7816164E-02  0.1184000E+00
        -11   -1    0    0    0    0  0.00000000000E+00  0.00000000000E+00  0.45593999997E+02  0.45594000000E+02  0.51100000000E-03 0.  1.
         11   -1    0    0    0    0 -0.00000000000E+00 -0.00000000000E+00 -0.45593999997E+02  0.45594000000E+02  0.51100000000E-03 0. -1.
         23    2    1    2    0    0  0.17763568394E-14 -0.71054273576E-14  0.00000000000E+00  0.91188000000E+02  0.91188000000E+02 0.  0.
    9900012    2    3    3    0    0 -0.63748853397E+01  0.36229087851E+02  0.17319895471E+02  0.50528871275E+02  0.30000034726E+02 0.  0.
        -12    1    3    3    0    0  0.63748853397E+01 -0.36229087851E+02 -0.17319895471E+02  0.40659128725E+02  0.00000000000E+00 0.  1.
         11    1    4    4    0    0  0.44753700808E+01  0.17905550005E+02  0.45950049957E+01  0.19019772068E+02  0.51100000000E-03 0. -1.
        -11    1    4    4    0    0 -0.80649709095E+01  0.12717224608E+02  0.17896416859E+02  0.23389170446E+02  0.51100000000E-03 0.  1.
        -12    1    4    4    0    0 -0.27852845110E+01  0.56063132378E+01 -0.51715263845E+01  0.81199287604E+01  0.00000000000E+00 0.  1.
</event>
<event>
 8    1  0.6016610E-012  0.9118800E+02  0.7816164E-02  0.1184000E+00
        -11   -1    0    0    0    0  0.00000000000E+00  0.00000000000E+00  0.45593999997E+02  0.45594000000E+02  0.51100000000E-03 0.  1.
         11   -1    0    0    0    0 -0.00000000000E+00 -0.00000000000E+00 -0.45593999997E+02  0.45594000000E+02  0.51100000000E-03 0. -1.
         23    2    1    2    0    0  0.00000000000E+00  0.00000000000E+00  0.00000000000E+00  0.91188000000E+02  0.91188000000E+02 0.  0.
    9900012    2    3    3    0    0  0.35593214483E+02 -0.17296174431E+02 -0.93344486801E+01  0.50528849746E+02  0.29999969288E+02 0.  0.
         12    1    3    3    0    0 -0.35593214483E+02  0.17296174431E+02  0.93344486801E+01  0.40659150254E+02  0.00000000000E+00 0. -1.
         11    1    4    4    0    0  0.21244802285E+02 -0.17776717432E+02 -0.17646123655E+02  0.32844162146E+02  0.51100000000E-03 0. -1.
        -11    1    4    4    0    0  0.84963267101E+01 -0.26287569401E+01  0.56900187322E+01  0.10558136391E+02  0.51100000000E-03 0.  1.
         12    1    4    4    0    0  0.58520854879E+01  0.31092999404E+01  0.26216562425E+01  0.71265512087E+01  0.00000000000E+00 0. -1.
</event>
<event>
 8    1  0.6016610E-012  0.9118800E+02  0.7816164E-02  0.1184000E+00
        -11   -1    0    0    0    0  0.00000000000E+00  0.00000000000E+00  0.45593999997E+02  0.45594000000E+02  0.51100000000E-03 0.  1.
         11   -1    0    0    0    0 -0.00000000000E+00 -0.00000000000E+00 -0.45593999997E+02  0.45594000000E+02  0.51100000000E-03 0. -1.
         23    2    1    2    0    0  0.00000000000E+00  0.00000000000E+00  0.00000000000E+00  0.91188000000E+02  0.91188000000E+02 0.  0.
    9900012    2    3    3    0    0  0.21127535827E+02  0.18358263141E+02  0.29491816930E+02  0.50528857591E+02  0.29999993133E+02 0.  0.
        -12    1    3    3    0    0 -0.21127535827E+02 -0.18358263141E+02 -0.29491816930E+02  0.40659142409E+02  0.00000000000E+00 0.  1.
         11    1    4    4    0    0  0.43409961274E+01  0.19381609433E+02  0.21420914656E+02  0.29212097093E+02  0.51100000000E-03 0. -1.
        -11    1    4    4    0    0  0.23491805682E+01 -0.35564847284E+01 -0.57194359800E+00  0.43005060988E+01  0.51100000000E-03 0.  1.
         12    1    4    4    0    0  0.14437359131E+02  0.25331384358E+01  0.86428458716E+01  0.17016254399E+02  0.00000000000E+00 0. -1.
</event>
<event>
 8    1  0.6016610E-012  0.9118800E+02  0.7816164E-02  0.1184000E+00
        -11   -1    0    0    0    0  0.00000000000E+00  0.00000000000E+00  0.45593999997E+02  0.45594000000E+02  0.51100000000E-03 0. -1.
         11   -1    0    0    0    0 -0.00000000000E+00 -0.00000000000E+00 -0.45593999997E+02  0.45594000000E+02  0.51100000000E-03 0.  1.
         23    2    1    2    0    0  0.00000000000E+00 -0.35527136788E-14  0.88817841970E-15  0.91188000000E+02  0.91188000000E+02 0.  0.
    9900012    2    3    3    0    0  0.25117659209E+02  0.31614779584E+02 -0.47722685799E+01  0.50528860318E+02  0.30000001422E+02 0.  0.
         12    1    3    3    0    0 -0.25117659209E+02 -0.31614779584E+02  0.47722685799E+01  0.40659139682E+02  0.00000000000E+00 0. -1.
         11    1    4    4    0    0  0.96481323862E+01  0.65389127010E+01 -0.15296558690E+02  0.19230926807E+02  0.51100000000E-03 0. -1.
        -11    1    4    4    0    0  0.12652408683E+02  0.19885456143E+02  0.84821544044E+01  0.25049186715E+02  0.51100000000E-03 0.  1.
         12    1    4    4    0    0  0.28171181398E+01  0.51904107405E+01  0.20421357057E+01  0.62487467951E+01  0.00000000000E+00 0. -1.
</event>
<event>
 8    1  0.6016610E-012  0.9118800E+02  0.7816164E-02  0.1184000E+00
        -11   -1    0    0    0    0  0.00000000000E+00  0.00000000000E+00  0.45593999997E+02  0.45594000000E+02  0.51100000000E-03 0. -1.
         11   -1    0    0    0    0 -0.00000000000E+00 -0.00000000000E+00 -0.45593999997E+02  0.45594000000E+02  0.51100000000E-03 0.  1.
         23    2    1    2    0    0 -0.35527136788E-14  0.00000000000E+00  0.00000000000E+00  0.91188000000E+02  0.91188000000E+02 0.  0.
    9900012    2    3    3    0    0  0.21585937552E+02 -0.11282885713E+02 -0.32556182148E+02  0.50528914840E+02  0.30000167146E+02 0.  0.
         12    1    3    3    0    0 -0.21585937552E+02  0.11282885713E+02  0.32556182148E+02  0.40659085160E+02  0.00000000000E+00 0. -1.
         11    1    4    4    0    0 -0.27342251481E+01 -0.24078691759E+01 -0.48491585246E+01  0.60653243760E+01  0.51100000000E-03 0. -1.
        -11    1    4    4    0    0  0.21615617666E+02  0.28032163298E+01 -0.12592996695E+02  0.25172932187E+02  0.51100000000E-03 0.  1.
        -12    1    4    4    0    0  0.27045450342E+01 -0.11678232867E+02 -0.15114026929E+02  0.19290658277E+02  0.00000000000E+00 0.  1.
</event>
<event>
 8    1  0.6016610E-012  0.9118800E+02  0.7816164E-02  0.1184000E+00
        -11   -1    0    0    0    0  0.00000000000E+00  0.00000000000E+00  0.45593999997E+02  0.45594000000E+02  0.51100000000E-03 0. -1.
         11   -1    0    0    0    0 -0.00000000000E+00 -0.00000000000E+00 -0.45593999997E+02  0.45594000000E+02  0.51100000000E-03 0.  1.
         23    2    1    2    0    0  0.00000000000E+00  0.00000000000E+00  0.35527136788E-14  0.91188000000E+02  0.91188000000E+02 0.  0.
    9900012    2    3    3    0    0  0.19568909073E+02  0.29923830562E+02 -0.19359445502E+02  0.50528856281E+02  0.29999989152E+02 0.  0.
         12    1    3    3    0    0 -0.19568909073E+02 -0.29923830562E+02  0.19359445502E+02  0.40659143719E+02  0.00000000000E+00 0. -1.
         11    1    4    4    0    0  0.16553900528E+02  0.27479423300E+02 -0.21339875662E+02  0.38529736842E+02  0.51100000000E-03 0.  1.
        -11    1    4    4    0    0  0.30878065513E+01 -0.23910118727E+00  0.62387927662E+01  0.69652174493E+01  0.51100000000E-03 0. -1.
         12    1    4    4    0    0 -0.72798007022E-01  0.26835084497E+01 -0.42583626071E+01  0.50339019898E+01  0.00000000000E+00 0. -1.
</event>
<event>
 8    1  0.6016610E-012  0.9118800E+02  0.7816164E-02  0.1184000E+00
        -11   -1    0    0    0    0  0.00000000000E+00  0.00000000000E+00  0.45593999997E+02  0.45594000000E+02  0.51100000000E-03 0. -1.
         11   -1    0    0    0    0 -0.00000000000E+00 -0.00000000000E+00 -0.45593999997E+02  0.45594000000E+02  0.51100000000E-03 0.  1.
         23    2    1    2    0    0  0.35527136788E-14  0.00000000000E+00  0.00000000000E+00  0.91188000000E+02  0.91188000000E+02 0.  0.
    9900012    2    3    3    0    0  0.31243829481E+02 -0.16352922300E+02 -0.20237959797E+02  0.50528807126E+02  0.29999839740E+02 0.  0.
         12    1    3    3    0    0 -0.31243829481E+02  0.16352922300E+02  0.20237959797E+02  0.40659192874E+02  0.00000000000E+00 0. -1.
         11    1    4    4    0    0  0.20763191234E+01 -0.16703618344E+02 -0.76331668015E+01  0.18482077875E+02  0.51100000000E-03 0. -1.
        -11    1    4    4    0    0  0.65632727106E+01 -0.97107176771E+00 -0.13900081893E+01  0.67787647901E+01  0.51100000000E-03 0.  1.
         12    1    4    4    0    0  0.22604237647E+02  0.13217678115E+01 -0.11214784806E+02  0.25267964461E+02  0.00000000000E+00 0. -1.
</event>
<event>
 8    1  0.6016610E-012  0.9118800E+02  0.7816164E-02  0.1184000E+00
        -11   -1    0    0    0    0  0.00000000000E+00  0.00000000000E+00  0.45593999997E+02  0.45594000000E+02  0.51100000000E-03 0. -1.
         11   -1    0    0    0    0 -0.00000000000E+00 -0.00000000000E+00 -0.45593999997E+02  0.45594000000E+02  0.51100000000E-03 0.  1.
         23    2    1    2    0    0  0.00000000000E+00  0.00000000000E+00  0.71054273576E-14  0.91188000000E+02  0.91188000000E+02 0.  0.
    9900012    2    3    3    0    0  0.14771734580E+02  0.21903666758E+02 -0.30906160002E+02  0.50528862207E+02  0.30000007165E+02 0.  0.
         12    1    3    3    0    0 -0.14771734580E+02 -0.21903666758E+02  0.30906160002E+02  0.40659137793E+02  0.00000000000E+00 0. -1.
         11    1    4    4    0    0  0.50784008751E-03 -0.15691831847E+01  0.26526765367E+01  0.30820495120E+01  0.51100000000E-03 0. -1.
        -11    1    4    4    0    0  0.17519596905E+02  0.23479831230E+02 -0.25183990099E+02  0.38632526553E+02  0.51100000000E-03 0.  1.
         12    1    4    4    0    0 -0.27483701656E+01 -0.69812865696E-02 -0.83748464403E+01  0.88142861427E+01  0.00000000000E+00 0. -1.
</event>
<event>
 8    1  0.6016610E-012  0.9118800E+02  0.7816164E-02  0.1184000E+00
        -11   -1    0    0    0    0  0.00000000000E+00  0.00000000000E+00  0.45593999997E+02  0.45594000000E+02  0.51100000000E-03 0. -1.
         11   -1    0    0    0    0 -0.00000000000E+00 -0.00000000000E+00 -0.45593999997E+02  0.45594000000E+02  0.51100000000E-03 0.  1.
         23    2    1    2    0    0  0.00000000000E+00 -0.17763568394E-14  0.00000000000E+00  0.91188000000E+02  0.91188000000E+02 0.  0.
    9900012    2    3    3    0    0 -0.99669252116E+01  0.12027240135E+02  0.37538874208E+02  0.50528915158E+02  0.30000168112E+02 0.  0.
        -12    1    3    3    0    0  0.99669252116E+01 -0.12027240135E+02 -0.37538874208E+02  0.40659084842E+02  0.00000000000E+00 0.  1.
         11    1    4    4    0    0  0.13276083739E+01  0.45395973317E+01  0.19330352901E+02  0.19900578672E+02  0.51100000000E-03 0. -1.
        -11    1    4    4    0    0 -0.10960473144E+02 -0.47461731801E+01  0.60970122175E+01  0.13410133841E+02  0.51100000000E-03 0.  1.
        -12    1    4    4    0    0 -0.33406044133E+00  0.12233815983E+02  0.12111509089E+02  0.17218202644E+02  0.00000000000E+00 0.  1.
</event>
<event>
 8    1  0.6016610E-012  0.9118800E+02  0.7816164E-02  0.1184000E+00
        -11   -1    0    0    0    0  0.00000000000E+00  0.00000000000E+00  0.45593999997E+02  0.45594000000E+02  0.51100000000E-03 0. -1.
         11   -1    0    0    0    0 -0.00000000000E+00 -0.00000000000E+00 -0.45593999997E+02  0.45594000000E+02  0.51100000000E-03 0.  1.
         23    2    1    2    0    0  0.00000000000E+00  0.00000000000E+00  0.00000000000E+00  0.91188000000E+02  0.91188000000E+02 0.  0.
    9900012    2    3    3    0    0  0.25048674246E+02 -0.18477388226E+02 -0.26159463509E+02  0.50528837586E+02  0.29999932326E+02 0.  0.
         12    1    3    3    0    0 -0.25048674246E+02  0.18477388226E+02  0.26159463509E+02  0.40659162414E+02  0.00000000000E+00 0. -1.
         11    1    4    4    0    0  0.16790331638E+02  0.30865982372E+01 -0.54489645717E+01  0.17920199227E+02  0.51100000000E-03 0. -1.
        -11    1    4    4    0    0  0.42958767841E+01 -0.12546622419E+02 -0.18064617939E+02  0.22409879808E+02  0.51100000000E-03 0.  1.
         12    1    4    4    0    0  0.39624658237E+01 -0.90173640444E+01 -0.26458809983E+01  0.10198758550E+02  0.00000000000E+00 0. -1.
</event>
<event>
 8    1  0.6016610E-012  0.9118800E+02  0.7816164E-02  0.1184000E+00
        -11   -1    0    0    0    0  0.00000000000E+00  0.00000000000E+00  0.45593999997E+02  0.45594000000E+02  0.51100000000E-03 0. -1.
         11   -1    0    0    0    0 -0.00000000000E+00 -0.00000000000E+00 -0.45593999997E+02  0.45594000000E+02  0.51100000000E-03 0.  1.
         23    2    1    2    0    0  0.00000000000E+00  0.17763568394E-14  0.00000000000E+00  0.91188000000E+02  0.91188000000E+02 0.  0.
    9900012    2    3    3    0    0  0.15567485682E+02  0.13233215690E+02 -0.35152551420E+02  0.50528849993E+02  0.29999970039E+02 0.  0.
         12    1    3    3    0    0 -0.15567485682E+02 -0.13233215690E+02  0.35152551420E+02  0.40659150007E+02  0.00000000000E+00 0. -1.
         11    1    4    4    0    0  0.10766591537E+02  0.93539292255E+00 -0.15664222883E+01  0.10920079317E+02  0.51100000000E-03 0. -1.
        -11    1    4    4    0    0  0.73567678793E+01  0.91764225473E+01 -0.33573984390E+02  0.35574445779E+02  0.51100000000E-03 0.  1.
        -12    1    4    4    0    0 -0.25558737349E+01  0.31214002197E+01 -0.12144742385E-01  0.40343248971E+01  0.00000000000E+00 0.  1.
</event>
<event>
 8    1  0.6016610E-012  0.9118800E+02  0.7816164E-02  0.1184000E+00
        -11   -1    0    0    0    0  0.00000000000E+00  0.00000000000E+00  0.45593999997E+02  0.45594000000E+02  0.51100000000E-03 0. -1.
         11   -1    0    0    0    0 -0.00000000000E+00 -0.00000000000E+00 -0.45593999997E+02  0.45594000000E+02  0.51100000000E-03 0.  1.
         23    2    1    2    0    0  0.00000000000E+00 -0.22204460493E-15  0.71054273576E-14  0.91188000000E+02  0.91188000000E+02 0.  0.
    9900012    2    3    3    0    0 -0.13386056659E+02 -0.11857971292E+01 -0.38374116802E+02  0.50528862429E+02  0.30000007839E+02 0.  0.
         12    1    3    3    0    0  0.13386056659E+02  0.11857971292E+01  0.38374116802E+02  0.40659137571E+02  0.00000000000E+00 0. -1.
         11    1    4    4    0    0  0.12791025694E+00 -0.63288204946E+01 -0.99326528599E+00  0.64075663147E+01  0.51100000000E-03 0. -1.
        -11    1    4    4    0    0 -0.17574757205E+02  0.66010136229E+01 -0.27057330098E+02  0.32932424507E+02  0.51100000000E-03 0.  1.
        -12    1    4    4    0    0  0.40607902894E+01 -0.14579902575E+01 -0.10323521418E+02  0.11188871607E+02  0.00000000000E+00 0.  1.
</event>
<event>
 8    1  0.6016610E-012  0.9118800E+02  0.7816164E-02  0.1184000E+00
        -11   -1    0    0    0    0  0.00000000000E+00  0.00000000000E+00  0.45593999997E+02  0.45594000000E+02  0.51100000000E-03 0. -1.
         11   -1    0    0    0    0 -0.00000000000E+00 -0.00000000000E+00 -0.45593999997E+02  0.45594000000E+02  0.51100000000E-03 0.  1.
         23    2    1    2    0    0  0.35527136788E-14 -0.16653345369E-14  0.35527136788E-14  0.91188000000E+02  0.91188000000E+02 0.  0.
    9900012    2    3    3    0    0  0.30446047351E+02  0.74989636869E+00 -0.26937766653E+02  0.50528838472E+02  0.29999935020E+02 0.  0.
         12    1    3    3    0    0 -0.30446047351E+02 -0.74989636869E+00  0.26937766653E+02  0.40659161528E+02  0.00000000000E+00 0. -1.
         11    1    4    4    0    0  0.19305213639E+02 -0.12703156572E+02 -0.20621359304E+02  0.30972599509E+02  0.51100000000E-03 0. -1.
        -11    1    4    4    0    0  0.10545257442E+02  0.86599380992E+01 -0.41488222393E+01  0.14262177556E+02  0.51100000000E-03 0.  1.
        -12    1    4    4    0    0  0.59557626952E+00  0.47931148413E+01 -0.21675851101E+01  0.52940614073E+01  0.00000000000E+00 0.  1.
</event>
<event>
 8    1  0.6016610E-012  0.9118800E+02  0.7816164E-02  0.1184000E+00
        -11   -1    0    0    0    0  0.00000000000E+00  0.00000000000E+00  0.45593999997E+02  0.45594000000E+02  0.51100000000E-03 0. -1.
         11   -1    0    0    0    0 -0.00000000000E+00 -0.00000000000E+00 -0.45593999997E+02  0.45594000000E+02  0.51100000000E-03 0.  1.
         23    2    1    2    0    0  0.00000000000E+00  0.35527136788E-14  0.35527136788E-14  0.91188000000E+02  0.91188000000E+02 0.  0.
    9900012    2    3    3    0    0 -0.25670765556E+02 -0.22442980096E+02 -0.22147015006E+02  0.50528857935E+02  0.29999994178E+02 0.  0.
         12    1    3    3    0    0  0.25670765556E+02  0.22442980096E+02  0.22147015006E+02  0.40659142065E+02  0.00000000000E+00 0. -1.
         11    1    4    4    0    0 -0.72529882023E+01 -0.22414077012E+02 -0.10869264808E+02  0.25944895527E+02  0.51100000000E-03 0. -1.
        -11    1    4    4    0    0 -0.12503331779E+02 -0.48487231476E+01 -0.38892172136E+01  0.13963145510E+02  0.51100000000E-03 0.  1.
         12    1    4    4    0    0 -0.59144455744E+01  0.48198200640E+01 -0.73885329848E+01  0.10620816897E+02  0.00000000000E+00 0. -1.
</event>
<event>
 8    1  0.6016610E-012  0.9118800E+02  0.7816164E-02  0.1184000E+00
        -11   -1    0    0    0    0  0.00000000000E+00  0.00000000000E+00  0.45593999997E+02  0.45594000000E+02  0.51100000000E-03 0.  1.
         11   -1    0    0    0    0 -0.00000000000E+00 -0.00000000000E+00 -0.45593999997E+02  0.45594000000E+02  0.51100000000E-03 0. -1.
         23    2    1    2    0    0  0.00000000000E+00  0.00000000000E+00 -0.88817841970E-15  0.91188000000E+02  0.91188000000E+02 0.  0.
    9900012    2    3    3    0    0  0.62867512582E+01  0.39383433628E+02  0.79112328419E+01  0.50528859689E+02  0.29999999511E+02 0.  0.
         12    1    3    3    0    0 -0.62867512582E+01 -0.39383433628E+02 -0.79112328419E+01  0.40659140311E+02  0.00000000000E+00 0. -1.
         11    1    4    4    0    0  0.70559087843E+01  0.29704022053E+02 -0.97521298368E+00  0.30546126031E+02  0.51100000000E-03 0. -1.
        -11    1    4    4    0    0 -0.10175044636E+00 -0.63531988286E+00  0.96002763419E+01  0.96218132703E+01  0.51100000000E-03 0.  1.
        -12    1    4    4    0    0 -0.66740707978E+00  0.10314731459E+02 -0.71383051639E+00  0.10360920388E+02  0.00000000000E+00 0.  1.
</event>
<event>
 8    1  0.6016610E-012  0.9118800E+02  0.7816164E-02  0.1184000E+00
        -11   -1    0    0    0    0  0.00000000000E+00  0.00000000000E+00  0.45593999997E+02  0.45594000000E+02  0.51100000000E-03 0. -1.
         11   -1    0    0    0    0 -0.00000000000E+00 -0.00000000000E+00 -0.45593999997E+02  0.45594000000E+02  0.51100000000E-03 0.  1.
         23    2    1    2    0    0  0.00000000000E+00  0.00000000000E+00  0.35527136788E-14  0.91188000000E+02  0.91188000000E+02 0.  0.
    9900012    2    3    3    0    0  0.30606468034E+02  0.49576204826E+01 -0.26302727766E+02  0.50528838987E+02  0.29999936585E+02 0.  0.
         12    1    3    3    0    0 -0.30606468034E+02 -0.49576204826E+01  0.26302727766E+02  0.40659161013E+02  0.00000000000E+00 0. -1.
         11    1    4    4    0    0  0.25310455208E+02  0.97512323236E+01 -0.29245619727E+02  0.39887491123E+02  0.51100000000E-03 0. -1.
        -11    1    4    4    0    0  0.67297553423E+00 -0.46719002647E+01 -0.67703560025E+00  0.47684301000E+01  0.51100000000E-03 0.  1.
         12    1    4    4    0    0  0.46230372920E+01 -0.12171157625E+00  0.36199275613E+01  0.58729177638E+01  0.00000000000E+00 0. -1.
</event>
<event>
 8    1  0.6388192E-012  0.9118800E+02  0.7816164E-02  0.1184000E+00
        -11   -1    0    0    0    0  0.00000000000E+00  0.00000000000E+00  0.45593999997E+02  0.45594000000E+02  0.51100000000E-03 0. -1.
         11   -1    0    0    0    0 -0.00000000000E+00 -0.00000000000E+00 -0.45593999997E+02  0.45594000000E+02  0.51100000000E-03 0.  1.
         23    2    1    2    0    0 -0.88817841970E-15  0.00000000000E+00  0.35527136788E-14  0.91188000000E+02  0.91188000000E+02 0.  0.
    9900012    2    3    3    0    0 -0.73964784495E+01 -0.26408033717E+02  0.30017875144E+02  0.50528868597E+02  0.30000026589E+02 0.  0.
        -12    1    3    3    0    0  0.73964784495E+01  0.26408033717E+02 -0.30017875144E+02  0.40659131403E+02  0.00000000000E+00 0.  1.
         11    1    4    4    0    0 -0.10239097663E+02  0.75000257872E+00  0.79457998617E+01  0.12982193980E+02  0.51100000000E-03 0. -1.
        -11    1    4    4    0    0  0.67219506732E+01 -0.94455343415E+01  0.49430685387E+01  0.12603041962E+02  0.51100000000E-03 0.  1.
         12    1    4    4    0    0 -0.38793314594E+01 -0.17712501954E+02  0.17129006744E+02  0.24943632656E+02  0.00000000000E+00 0. -1.
</event>
<event>
 8    1  0.6016610E-012  0.9118800E+02  0.7816164E-02  0.1184000E+00
        -11   -1    0    0    0    0  0.00000000000E+00  0.00000000000E+00  0.45593999997E+02  0.45594000000E+02  0.51100000000E-03 0. -1.
         11   -1    0    0    0    0 -0.00000000000E+00 -0.00000000000E+00 -0.45593999997E+02  0.45594000000E+02  0.51100000000E-03 0.  1.
         23    2    1    2    0    0  0.53290705182E-14  0.35527136788E-14  0.00000000000E+00  0.91188000000E+02  0.91188000000E+02 0.  0.
    9900012    2    3    3    0    0  0.12816256512E+02  0.21446946046E+02 -0.32077056299E+02  0.50528862448E+02  0.30000007896E+02 0.  0.
         12    1    3    3    0    0 -0.12816256512E+02 -0.21446946046E+02  0.32077056299E+02  0.40659137552E+02  0.00000000000E+00 0. -1.
         11    1    4    4    0    0  0.18028521729E+02  0.10502629698E+02 -0.65883238969E+01  0.21880101425E+02  0.51100000000E-03 0.  1.
        -11    1    4    4    0    0 -0.40714478083E+01  0.11185345929E+02 -0.22873703183E+02  0.25785556972E+02  0.51100000000E-03 0. -1.
        -12    1    4    4    0    0 -0.11408174085E+01 -0.24102958134E+00 -0.26150292193E+01  0.28632040508E+01  0.00000000000E+00 0.  1.
</event>
<event>
 8    1  0.6016610E-012  0.9118800E+02  0.7816164E-02  0.1184000E+00
        -11   -1    0    0    0    0  0.00000000000E+00  0.00000000000E+00  0.45593999997E+02  0.45594000000E+02  0.51100000000E-03 0. -1.
         11   -1    0    0    0    0 -0.00000000000E+00 -0.00000000000E+00 -0.45593999997E+02  0.45594000000E+02  0.51100000000E-03 0.  1.
         23    2    1    2    0    0  0.88817841970E-15 -0.44408920985E-15  0.00000000000E+00  0.91188000000E+02  0.91188000000E+02 0.  0.
    9900012    2    3    3    0    0 -0.30942558071E+01 -0.36404214941E+01 -0.40377452390E+02  0.50528858972E+02  0.29999997330E+02 0.  0.
         12    1    3    3    0    0  0.30942558071E+01  0.36404214941E+01  0.40377452390E+02  0.40659141028E+02  0.00000000000E+00 0. -1.
         11    1    4    4    0    0  0.10624094428E+02  0.68731105159E+01 -0.15935176227E+02  0.20347994305E+02  0.51100000000E-03 0. -1.
        -11    1    4    4    0    0 -0.69263679990E+01 -0.29411793340E+01 -0.99537834323E+01  0.12478097387E+02  0.51100000000E-03 0.  1.
         12    1    4    4    0    0 -0.67919822359E+01 -0.75723526760E+01 -0.14488492730E+02  0.17702767279E+02  0.00000000000E+00 0. -1.
</event>
<event>
 8    1  0.6016610E-012  0.9118800E+02  0.7816164E-02  0.1184000E+00
        -11   -1    0    0    0    0  0.00000000000E+00  0.00000000000E+00  0.45593999997E+02  0.45594000000E+02  0.51100000000E-03 0. -1.
         11   -1    0    0    0    0 -0.00000000000E+00 -0.00000000000E+00 -0.45593999997E+02  0.45594000000E+02  0.51100000000E-03 0.  1.
         23    2    1    2    0    0  0.22204460493E-15  0.00000000000E+00  0.00000000000E+00  0.91188000000E+02  0.91188000000E+02 0.  0.
    9900012    2    3    3    0    0 -0.81073278622E+00 -0.21255279817E+02 -0.34651466651E+02  0.50528827003E+02  0.29999900157E+02 0.  0.
         12    1    3    3    0    0  0.81073278622E+00  0.21255279817E+02  0.34651466651E+02  0.40659172997E+02  0.00000000000E+00 0. -1.
         11    1    4    4    0    0  0.43512445074E+01  0.36440213893E+01 -0.86252491106E+01  0.10325073517E+02  0.51100000000E-03 0. -1.
        -11    1    4    4    0    0 -0.95706134150E+01 -0.13484078639E+02 -0.78798472065E+01  0.18316905037E+02  0.51100000000E-03 0.  1.
        -12    1    4    4    0    0  0.44086361214E+01 -0.11415222567E+02 -0.18146370334E+02  0.21886848449E+02  0.00000000000E+00 0.  1.
</event>
<event>
 8    1  0.6016610E-012  0.9118800E+02  0.7816164E-02  0.1184000E+00
        -11   -1    0    0    0    0  0.00000000000E+00  0.00000000000E+00  0.45593999997E+02  0.45594000000E+02  0.51100000000E-03 0. -1.
         11   -1    0    0    0    0 -0.00000000000E+00 -0.00000000000E+00 -0.45593999997E+02  0.45594000000E+02  0.51100000000E-03 0.  1.
         23    2    1    2    0    0  0.88817841970E-15  0.88817841970E-15  0.71054273576E-14  0.91188000000E+02  0.91188000000E+02 0.  0.
    9900012    2    3    3    0    0  0.32316207744E+01 -0.44930174252E+01  0.40280662489E+02  0.50528900785E+02  0.30000124427E+02 0.  0.
        -12    1    3    3    0    0 -0.32316207744E+01  0.44930174252E+01 -0.40280662489E+02  0.40659099215E+02  0.00000000000E+00 0.  1.
         11    1    4    4    0    0  0.11121438264E+02 -0.73557461457E+01  0.61710516553E+01  0.14692694416E+02  0.51100000000E-03 0. -1.
        -11    1    4    4    0    0 -0.54893401069E+01 -0.15960512539E+01  0.14577660392E+02  0.15658493452E+02  0.51100000000E-03 0.  1.
         12    1    4    4    0    0 -0.24004773823E+01  0.44587799745E+01  0.19531950442E+02  0.20177712917E+02  0.00000000000E+00 0. -1.
</event>
<event>
 8    1  0.6016610E-012  0.9118800E+02  0.7816164E-02  0.1184000E+00
        -11   -1    0    0    0    0  0.00000000000E+00  0.00000000000E+00  0.45593999997E+02  0.45594000000E+02  0.51100000000E-03 0. -1.
         11   -1    0    0    0    0 -0.00000000000E+00 -0.00000000000E+00 -0.45593999997E+02  0.45594000000E+02  0.51100000000E-03 0.  1.
         23    2    1    2    0    0 -0.17763568394E-14 -0.71054273576E-14  0.00000000000E+00  0.91188000000E+02  0.91188000000E+02 0.  0.
    9900012    2    3    3    0    0  0.62621088623E+01  0.31517072592E+02 -0.24912355825E+02  0.50528863943E+02  0.30000012440E+02 0.  0.
         12    1    3    3    0    0 -0.62621088623E+01 -0.31517072592E+02  0.24912355825E+02  0.40659136057E+02  0.00000000000E+00 0. -1.
         11    1    4    4    0    0  0.83525869731E+01  0.15590598554E+01 -0.18860012501E+01  0.87036416374E+01  0.51100000000E-03 0. -1.
        -11    1    4    4    0    0 -0.24336255239E+01  0.31812308773E+02 -0.18403463749E+02  0.36832499248E+02  0.51100000000E-03 0.  1.
        -12    1    4    4    0    0  0.34314741308E+00 -0.18542960360E+01 -0.46228908255E+01  0.49927230567E+01  0.00000000000E+00 0.  1.
</event>
<event>
 8    1  0.6016610E-012  0.9118800E+02  0.7816164E-02  0.1184000E+00
        -11   -1    0    0    0    0  0.00000000000E+00  0.00000000000E+00  0.45593999997E+02  0.45594000000E+02  0.51100000000E-03 0. -1.
         11   -1    0    0    0    0 -0.00000000000E+00 -0.00000000000E+00 -0.45593999997E+02  0.45594000000E+02  0.51100000000E-03 0.  1.
         23    2    1    2    0    0  0.00000000000E+00  0.00000000000E+00  0.00000000000E+00  0.91188000000E+02  0.91188000000E+02 0.  0.
    9900012    2    3    3    0    0 -0.21572640155E+01  0.64678246397E+01  0.40083401055E+02  0.50528861006E+02  0.30000003515E+02 0.  0.
        -12    1    3    3    0    0  0.21572640155E+01 -0.64678246397E+01 -0.40083401055E+02  0.40659138994E+02  0.00000000000E+00 0.  1.
         11    1    4    4    0    0  0.12768163962E+01  0.15984278063E+02  0.34329797496E+02  0.37890135942E+02  0.51100000000E-03 0. -1.
        -11    1    4    4    0    0  0.23201673724E-01 -0.58818339833E+01  0.15210728681E+01  0.60753742483E+01  0.51100000000E-03 0.  1.
        -12    1    4    4    0    0 -0.34572820854E+01 -0.36346194399E+01  0.42325306902E+01  0.65633508161E+01  0.00000000000E+00 0.  1.
</event>
<event>
 8    1  0.6016610E-012  0.9118800E+02  0.7816164E-02  0.1184000E+00
        -11   -1    0    0    0    0  0.00000000000E+00  0.00000000000E+00  0.45593999997E+02  0.45594000000E+02  0.51100000000E-03 0.  1.
         11   -1    0    0    0    0 -0.00000000000E+00 -0.00000000000E+00 -0.45593999997E+02  0.45594000000E+02  0.51100000000E-03 0. -1.
         23    2    1    2    0    0  0.00000000000E+00  0.00000000000E+00  0.00000000000E+00  0.91188000000E+02  0.91188000000E+02 0.  0.
    9900012    2    3    3    0    0 -0.32084855802E+02  0.11516337162E+02 -0.22160819072E+02  0.50528857173E+02  0.29999991863E+02 0.  0.
         12    1    3    3    0    0  0.32084855802E+02 -0.11516337162E+02  0.22160819072E+02  0.40659142827E+02  0.00000000000E+00 0. -1.
         11    1    4    4    0    0  0.19873255753E+01  0.92842722258E+01 -0.18383204385E+01  0.96709149516E+01  0.51100000000E-03 0. -1.
        -11    1    4    4    0    0 -0.16477360694E+02  0.24829296747E+01 -0.15139647270E+02  0.22513935127E+02  0.51100000000E-03 0.  1.
         12    1    4    4    0    0 -0.17594820684E+02 -0.25086473797E+00 -0.51828513637E+01  0.18344007094E+02  0.00000000000E+00 0. -1.
</event>
<event>
 8    1  0.6016610E-012  0.9118800E+02  0.7816164E-02  0.1184000E+00
        -11   -1    0    0    0    0  0.00000000000E+00  0.00000000000E+00  0.45593999997E+02  0.45594000000E+02  0.51100000000E-03 0. -1.
         11   -1    0    0    0    0 -0.00000000000E+00 -0.00000000000E+00 -0.45593999997E+02  0.45594000000E+02  0.51100000000E-03 0.  1.
         23    2    1    2    0    0  0.35527136788E-14  0.35527136788E-14  0.00000000000E+00  0.91188000000E+02  0.91188000000E+02 0.  0.
    9900012    2    3    3    0    0  0.18684390878E+02  0.22110578180E+02  0.28551408497E+02  0.50528842888E+02  0.29999948441E+02 0.  0.
        -12    1    3    3    0    0 -0.18684390878E+02 -0.22110578180E+02 -0.28551408497E+02  0.40659157112E+02  0.00000000000E+00 0.  1.
         11    1    4    4    0    0  0.10281209874E+02  0.42854459066E+01  0.53026658634E+01  0.12336392852E+02  0.51100000000E-03 0. -1.
        -11    1    4    4    0    0 -0.63557904810E+01  0.11980991510E+02  0.15279362764E+02  0.20430348918E+02  0.51100000000E-03 0.  1.
        -12    1    4    4    0    0  0.14758971486E+02  0.58441407638E+01  0.79693798693E+01  0.17762101117E+02  0.00000000000E+00 0.  1.
</event>
<event>
 8    1  0.6016610E-012  0.9118800E+02  0.7816164E-02  0.1184000E+00
        -11   -1    0    0    0    0  0.00000000000E+00  0.00000000000E+00  0.45593999997E+02  0.45594000000E+02  0.51100000000E-03 0. -1.
         11   -1    0    0    0    0 -0.00000000000E+00 -0.00000000000E+00 -0.45593999997E+02  0.45594000000E+02  0.51100000000E-03 0.  1.
         23    2    1    2    0    0 -0.35527136788E-14  0.00000000000E+00  0.00000000000E+00  0.91188000000E+02  0.91188000000E+02 0.  0.
    9900012    2    3    3    0    0 -0.25445622955E+02  0.31547099466E+02 -0.32351611252E+01  0.50528862284E+02  0.30000007400E+02 0.  0.
         12    1    3    3    0    0  0.25445622955E+02 -0.31547099466E+02  0.32351611252E+01  0.40659137716E+02  0.00000000000E+00 0. -1.
         11    1    4    4    0    0 -0.69052791493E+01  0.15262984396E+01  0.84423088455E+00  0.71221621088E+01  0.51100000000E-03 0. -1.
        -11    1    4    4    0    0 -0.76837247963E+01  0.31338469848E+02 -0.26088361527E+01  0.32371983960E+02  0.51100000000E-03 0.  1.
        -12    1    4    4    0    0 -0.10856619009E+02 -0.13176688220E+01 -0.14705558570E+01  0.11034716216E+02  0.00000000000E+00 0.  1.
</event>
<event>
 8    1  0.6016610E-012  0.9118800E+02  0.7816164E-02  0.1184000E+00
        -11   -1    0    0    0    0  0.00000000000E+00  0.00000000000E+00  0.45593999997E+02  0.45594000000E+02  0.51100000000E-03 0. -1.
         11   -1    0    0    0    0 -0.00000000000E+00 -0.00000000000E+00 -0.45593999997E+02  0.45594000000E+02  0.51100000000E-03 0.  1.
         23    2    1    2    0    0  0.35527136788E-14  0.00000000000E+00  0.88817841970E-15  0.91188000000E+02  0.91188000000E+02 0.  0.
    9900012    2    3    3    0    0  0.25180138657E+02  0.31427318213E+02 -0.56080336228E+01  0.50528858913E+02  0.29999997152E+02 0.  0.
         12    1    3    3    0    0 -0.25180138657E+02 -0.31427318213E+02  0.56080336228E+01  0.40659141087E+02  0.00000000000E+00 0. -1.
         11    1    4    4    0    0  0.80295611414E+00 -0.16660828496E+01 -0.30756189790E+01  0.35888720997E+01  0.51100000000E-03 0. -1.
        -11    1    4    4    0    0  0.24090999674E+02  0.28807936901E+02  0.53799948589E+01  0.37937024642E+02  0.51100000000E-03 0.  1.
        -12    1    4    4    0    0  0.28618286908E+00  0.42854641610E+01 -0.79124095028E+01  0.90029621708E+01  0.00000000000E+00 0.  1.
</event>
<event>
 8    1  0.6016610E-012  0.9118800E+02  0.7816164E-02  0.1184000E+00
        -11   -1    0    0    0    0  0.00000000000E+00  0.00000000000E+00  0.45593999997E+02  0.45594000000E+02  0.51100000000E-03 0. -1.
         11   -1    0    0    0    0 -0.00000000000E+00 -0.00000000000E+00 -0.45593999997E+02  0.45594000000E+02  0.51100000000E-03 0.  1.
         23    2    1    2    0    0  0.35527136788E-14  0.35527136788E-14  0.00000000000E+00  0.91188000000E+02  0.91188000000E+02 0.  0.
    9900012    2    3    3    0    0  0.14861620542E+02  0.19575883553E+02 -0.32389573758E+02  0.50528837807E+02  0.29999932998E+02 0.  0.
         12    1    3    3    0    0 -0.14861620542E+02 -0.19575883553E+02  0.32389573758E+02  0.40659162193E+02  0.00000000000E+00 0. -1.
         11    1    4    4    0    0  0.59987734055E+01  0.14431793003E+02 -0.24503882622E+00  0.15630802153E+02  0.51100000000E-03 0. -1.
        -11    1    4    4    0    0  0.35162379002E+00  0.49095525113E+01 -0.93741533245E+01  0.10587827726E+02  0.51100000000E-03 0.  1.
         12    1    4    4    0    0  0.85112233467E+01  0.23453803862E+00 -0.22770381607E+02  0.24310207928E+02  0.00000000000E+00 0. -1.
</event>
<event>
 8    1  0.6016610E-012  0.9118800E+02  0.7816164E-02  0.1184000E+00
        -11   -1    0    0    0    0  0.00000000000E+00  0.00000000000E+00  0.45593999997E+02  0.45594000000E+02  0.51100000000E-03 0. -1.
         11   -1    0    0    0    0 -0.00000000000E+00 -0.00000000000E+00 -0.45593999997E+02  0.45594000000E+02  0.51100000000E-03 0.  1.
         23    2    1    2    0    0  0.00000000000E+00  0.44408920985E-15  0.00000000000E+00  0.91188000000E+02  0.91188000000E+02 0.  0.
    9900012    2    3    3    0    0 -0.11899319641E+02  0.25024437560E+01 -0.38798305658E+02  0.50528873662E+02  0.30000041983E+02 0.  0.
         12    1    3    3    0    0  0.11899319641E+02 -0.25024437560E+01  0.38798305658E+02  0.40659126338E+02  0.00000000000E+00 0. -1.
         11    1    4    4    0    0 -0.14184774953E+02 -0.97181082444E+01 -0.20316656358E+02  0.26616085252E+02  0.51100000000E-03 0.  1.
        -11    1    4    4    0    0  0.69534595744E+00  0.56873589531E+01 -0.15560254585E+02  0.16581648919E+02  0.51100000000E-03 0. -1.
         12    1    4    4    0    0  0.15901093547E+01  0.65331930473E+01 -0.29213947149E+01  0.73311394908E+01  0.00000000000E+00 0. -1.
</event>
<event>
 8    1  0.6016610E-012  0.9118800E+02  0.7816164E-02  0.1184000E+00
        -11   -1    0    0    0    0  0.00000000000E+00  0.00000000000E+00  0.45593999997E+02  0.45594000000E+02  0.51100000000E-03 0.  1.
         11   -1    0    0    0    0 -0.00000000000E+00 -0.00000000000E+00 -0.45593999997E+02  0.45594000000E+02  0.51100000000E-03 0. -1.
         23    2    1    2    0    0 -0.35527136788E-14 -0.88817841970E-15  0.00000000000E+00  0.91188000000E+02  0.91188000000E+02 0.  0.
    9900012    2    3    3    0    0  0.29829077969E+02  0.78828855411E+01 -0.26481131144E+02  0.50528879453E+02  0.30000059587E+02 0.  0.
         12    1    3    3    0    0 -0.29829077969E+02 -0.78828855411E+01  0.26481131144E+02  0.40659120547E+02  0.00000000000E+00 0. -1.
         11    1    4    4    0    0 -0.80983317364E+00  0.10746560336E+02 -0.98097953701E+01  0.14573142225E+02  0.51100000000E-03 0. -1.
        -11    1    4    4    0    0  0.13720782716E+02 -0.48694894557E+01 -0.54016868038E+01  0.15529005972E+02  0.51100000000E-03 0.  1.
         12    1    4    4    0    0  0.16918128427E+02  0.20058146604E+01 -0.11269648970E+02  0.20426731256E+02  0.00000000000E+00 0. -1.
</event>
<event>
 8    1  0.6016610E-012  0.9118800E+02  0.7816164E-02  0.1184000E+00
        -11   -1    0    0    0    0  0.00000000000E+00  0.00000000000E+00  0.45593999997E+02  0.45594000000E+02  0.51100000000E-03 0.  1.
         11   -1    0    0    0    0 -0.00000000000E+00 -0.00000000000E+00 -0.45593999997E+02  0.45594000000E+02  0.51100000000E-03 0. -1.
         23    2    1    2    0    0  0.17763568394E-14  0.00000000000E+00  0.00000000000E+00  0.91188000000E+02  0.91188000000E+02 0.  0.
    9900012    2    3    3    0    0 -0.14848702534E+02 -0.36381760072E+02 -0.10442664226E+02  0.50528859957E+02  0.30000000326E+02 0.  0.
         12    1    3    3    0    0  0.14848702534E+02  0.36381760072E+02  0.10442664226E+02  0.40659140043E+02  0.00000000000E+00 0. -1.
         11    1    4    4    0    0  0.37042766735E+01 -0.11403882402E+02  0.27607852827E+01  0.12304151135E+02  0.51100000000E-03 0. -1.
        -11    1    4    4    0    0 -0.17724512556E+02 -0.27537968001E+02 -0.13681105403E+02  0.35491839516E+02  0.51100000000E-03 0.  1.
        -12    1    4    4    0    0 -0.82846665201E+00  0.25600903303E+01  0.47765589399E+00  0.27328693064E+01  0.00000000000E+00 0.  1.
</event>
<event>
 8    1  0.6016610E-012  0.9118800E+02  0.7816164E-02  0.1184000E+00
        -11   -1    0    0    0    0  0.00000000000E+00  0.00000000000E+00  0.45593999997E+02  0.45594000000E+02  0.51100000000E-03 0. -1.
         11   -1    0    0    0    0 -0.00000000000E+00 -0.00000000000E+00 -0.45593999997E+02  0.45594000000E+02  0.51100000000E-03 0.  1.
         23    2    1    2    0    0  0.00000000000E+00  0.35527136788E-14 -0.35527136788E-14  0.91188000000E+02  0.91188000000E+02 0.  0.
    9900012    2    3    3    0    0  0.66930299218E+01 -0.29877505421E+02  0.26752691965E+02  0.50528825056E+02  0.29999894241E+02 0.  0.
        -12    1    3    3    0    0 -0.66930299218E+01  0.29877505421E+02 -0.26752691965E+02  0.40659174944E+02  0.00000000000E+00 0.  1.
         11    1    4    4    0    0  0.70016488141E+01 -0.35030509410E+02  0.22770346948E+02  0.42363290430E+02  0.51100000000E-03 0. -1.
        -11    1    4    4    0    0  0.12077207933E+01  0.11568523896E+01 -0.71132352996E+00  0.18173822909E+01  0.51100000000E-03 0.  1.
         12    1    4    4    0    0 -0.15163396857E+01  0.39961515991E+01  0.46936685467E+01  0.63481523353E+01  0.00000000000E+00 0. -1.
</event>
<event>
 8    1  0.6016610E-012  0.9118800E+02  0.7816164E-02  0.1184000E+00
        -11   -1    0    0    0    0  0.00000000000E+00  0.00000000000E+00  0.45593999997E+02  0.45594000000E+02  0.51100000000E-03 0.  1.
         11   -1    0    0    0    0 -0.00000000000E+00 -0.00000000000E+00 -0.45593999997E+02  0.45594000000E+02  0.51100000000E-03 0. -1.
         23    2    1    2    0    0  0.00000000000E+00  0.00000000000E+00  0.00000000000E+00  0.91188000000E+02  0.91188000000E+02 0.  0.
    9900012    2    3    3    0    0 -0.29997434311E+02  0.16017904151E+02  0.22287801727E+02  0.50528862964E+02  0.30000009466E+02 0.  0.
        -12    1    3    3    0    0  0.29997434311E+02 -0.16017904151E+02 -0.22287801727E+02  0.40659137036E+02  0.00000000000E+00 0.  1.
         11    1    4    4    0    0 -0.26352680482E+02  0.94716307921E+01  0.89344561123E+01  0.29393878014E+02  0.51100000000E-03 0. -1.
        -11    1    4    4    0    0 -0.36369374690E+01  0.89275160599E+01  0.15283526367E+02  0.18069699379E+02  0.51100000000E-03 0.  1.
         12    1    4    4    0    0 -0.78163606471E-02 -0.23812427012E+01 -0.19301807524E+01  0.30652855714E+01  0.00000000000E+00 0. -1.
</event>
<event>
 8    1  0.6016610E-012  0.9118800E+02  0.7816164E-02  0.1184000E+00
        -11   -1    0    0    0    0  0.00000000000E+00  0.00000000000E+00  0.45593999997E+02  0.45594000000E+02  0.51100000000E-03 0.  1.
         11   -1    0    0    0    0 -0.00000000000E+00 -0.00000000000E+00 -0.45593999997E+02  0.45594000000E+02  0.51100000000E-03 0. -1.
         23    2    1    2    0    0 -0.44408920985E-15  0.00000000000E+00 -0.17763568394E-14  0.91188000000E+02  0.91188000000E+02 0.  0.
    9900012    2    3    3    0    0 -0.59724223309E+00 -0.39446222396E+02 -0.98388593662E+01  0.50528876630E+02  0.30000051004E+02 0.  0.
         12    1    3    3    0    0  0.59724223309E+00  0.39446222396E+02  0.98388593662E+01  0.40659123370E+02  0.00000000000E+00 0. -1.
         11    1    4    4    0    0  0.50119477990E+01 -0.66764564765E+01  0.47554806402E+01  0.96077722809E+01  0.51100000000E-03 0. -1.
        -11    1    4    4    0    0 -0.82083801507E+01 -0.33956281683E+02 -0.11668317159E+02  0.36831456610E+02  0.51100000000E-03 0.  1.
         12    1    4    4    0    0  0.25991901187E+01  0.11865157631E+01 -0.29260228473E+01  0.40896477393E+01  0.00000000000E+00 0. -1.
</event>
<event>
 8    1  0.6016610E-012  0.9118800E+02  0.7816164E-02  0.1184000E+00
        -11   -1    0    0    0    0  0.00000000000E+00  0.00000000000E+00  0.45593999997E+02  0.45594000000E+02  0.51100000000E-03 0. -1.
         11   -1    0    0    0    0 -0.00000000000E+00 -0.00000000000E+00 -0.45593999997E+02  0.45594000000E+02  0.51100000000E-03 0.  1.
         23    2    1    2    0    0  0.00000000000E+00  0.00000000000E+00  0.00000000000E+00  0.91188000000E+02  0.91188000000E+02 0.  0.
    9900012    2    3    3    0    0  0.44063626634E+01  0.20734260286E+02  0.34696399906E+02  0.50528858986E+02  0.29999997374E+02 0.  0.
        -12    1    3    3    0    0 -0.44063626634E+01 -0.20734260286E+02 -0.34696399906E+02  0.40659141014E+02  0.00000000000E+00 0.  1.
         11    1    4    4    0    0  0.81701726949E+01  0.74890788131E-01  0.14974836783E+02  0.17058812017E+02  0.51100000000E-03 0. -1.
        -11    1    4    4    0    0  0.39932480239E+01  0.16816236822E+02  0.83969710102E+01  0.19215643966E+02  0.51100000000E-03 0.  1.
        -12    1    4    4    0    0 -0.77570580555E+01  0.38431326762E+01  0.11324592114E+02  0.14254403003E+02  0.00000000000E+00 0.  1.
</event>
<event>
 8    1  0.6016610E-012  0.9118800E+02  0.7816164E-02  0.1184000E+00
        -11   -1    0    0    0    0  0.00000000000E+00  0.00000000000E+00  0.45593999997E+02  0.45594000000E+02  0.51100000000E-03 0. -1.
         11   -1    0    0    0    0 -0.00000000000E+00 -0.00000000000E+00 -0.45593999997E+02  0.45594000000E+02  0.51100000000E-03 0.  1.
         23    2    1    2    0    0  0.00000000000E+00  0.00000000000E+00  0.44408920985E-15  0.91188000000E+02  0.91188000000E+02 0.  0.
    9900012    2    3    3    0    0  0.94862712766E+01  0.39424236986E+02 -0.29841595485E+01  0.50528868026E+02  0.30000024853E+02 0.  0.
        -12    1    3    3    0    0 -0.94862712766E+01 -0.39424236986E+02  0.29841595485E+01  0.40659131974E+02  0.00000000000E+00 0.  1.
         11    1    4    4    0    0 -0.48325310079E+01  0.28791964266E+01 -0.45143960134E+01  0.72126901800E+01  0.51100000000E-03 0. -1.
        -11    1    4    4    0    0  0.11844916776E+02  0.31581266314E+02  0.81300368938E+01  0.34695474281E+02  0.51100000000E-03 0.  1.
        -12    1    4    4    0    0  0.24738855081E+01  0.49637742451E+01 -0.65998004289E+01  0.86207035655E+01  0.00000000000E+00 0.  1.
</event>
<event>
 8    1  0.6016610E-012  0.9118800E+02  0.7816164E-02  0.1184000E+00
        -11   -1    0    0    0    0  0.00000000000E+00  0.00000000000E+00  0.45593999997E+02  0.45594000000E+02  0.51100000000E-03 0. -1.
         11   -1    0    0    0    0 -0.00000000000E+00 -0.00000000000E+00 -0.45593999997E+02  0.45594000000E+02  0.51100000000E-03 0.  1.
         23    2    1    2    0    0  0.00000000000E+00  0.00000000000E+00  0.00000000000E+00  0.91188000000E+02  0.91188000000E+02 0.  0.
    9900012    2    3    3    0    0 -0.23115771581E+02  0.12898022180E+02  0.30862045095E+02  0.50528884178E+02  0.30000073949E+02 0.  0.
        -12    1    3    3    0    0  0.23115771581E+02 -0.12898022180E+02 -0.30862045095E+02  0.40659115822E+02  0.00000000000E+00 0.  1.
         11    1    4    4    0    0 -0.24962108210E+02  0.59706515160E+01  0.12024536519E+02  0.28343341450E+02  0.51100000000E-03 0. -1.
        -11    1    4    4    0    0  0.25649083615E+01  0.12937177481E+01  0.40890209162E+00  0.29016653315E+01  0.51100000000E-03 0.  1.
         12    1    4    4    0    0 -0.71857173280E+00  0.56336529161E+01  0.18428606484E+02  0.19283877397E+02  0.00000000000E+00 0. -1.
</event>
<event>
 8    1  0.6016610E-012  0.9118800E+02  0.7816164E-02  0.1184000E+00
        -11   -1    0    0    0    0  0.00000000000E+00  0.00000000000E+00  0.45593999997E+02  0.45594000000E+02  0.51100000000E-03 0.  1.
         11   -1    0    0    0    0 -0.00000000000E+00 -0.00000000000E+00 -0.45593999997E+02  0.45594000000E+02  0.51100000000E-03 0. -1.
         23    2    1    2    0    0  0.00000000000E+00  0.00000000000E+00  0.00000000000E+00  0.91188000000E+02  0.91188000000E+02 0.  0.
    9900012    2    3    3    0    0  0.13993379433E+02 -0.33413618116E+02 -0.18462992751E+02  0.50528847957E+02  0.29999963850E+02 0.  0.
        -12    1    3    3    0    0 -0.13993379433E+02  0.33413618116E+02  0.18462992751E+02  0.40659152043E+02  0.00000000000E+00 0.  1.
         11    1    4    4    0    0  0.32301993211E+01 -0.57792673121E+01 -0.11105984792E+02  0.12929695154E+02  0.51100000000E-03 0. -1.
        -11    1    4    4    0    0  0.10366551862E+02 -0.19912539644E+02  0.50216120361E+01  0.23004156587E+02  0.51100000000E-03 0.  1.
        -12    1    4    4    0    0  0.39662824956E+00 -0.77218111599E+01 -0.12378619995E+02  0.14594996216E+02  0.00000000000E+00 0.  1.
</event>
<event>
 8    1  0.6016610E-012  0.9118800E+02  0.7816164E-02  0.1184000E+00
        -11   -1    0    0    0    0  0.00000000000E+00  0.00000000000E+00  0.45593999997E+02  0.45594000000E+02  0.51100000000E-03 0. -1.
         11   -1    0    0    0    0 -0.00000000000E+00 -0.00000000000E+00 -0.45593999997E+02  0.45594000000E+02  0.51100000000E-03 0.  1.
         23    2    1    2    0    0  0.00000000000E+00  0.17763568394E-14  0.00000000000E+00  0.91188000000E+02  0.91188000000E+02 0.  0.
    9900012    2    3    3    0    0  0.33861063552E+02 -0.13493612800E+02 -0.18014333979E+02  0.50528862774E+02  0.30000008888E+02 0.  0.
         12    1    3    3    0    0 -0.33861063552E+02  0.13493612800E+02  0.18014333979E+02  0.40659137226E+02  0.00000000000E+00 0. -1.
         11    1    4    4    0    0  0.10207807817E+01 -0.97667751502E+01 -0.11321456340E+02  0.14986903088E+02  0.51100000000E-03 0. -1.
        -11    1    4    4    0    0  0.11085405265E+02 -0.52622811784E+00 -0.77361615137E+01  0.13528167694E+02  0.51100000000E-03 0.  1.
         12    1    4    4    0    0  0.21754877505E+02 -0.32006095316E+01  0.10432838750E+01  0.22013791993E+02  0.00000000000E+00 0. -1.
</event>
<event>
 8    1  0.6016610E-012  0.9118800E+02  0.7816164E-02  0.1184000E+00
        -11   -1    0    0    0    0  0.00000000000E+00  0.00000000000E+00  0.45593999997E+02  0.45594000000E+02  0.51100000000E-03 0. -1.
         11   -1    0    0    0    0 -0.00000000000E+00 -0.00000000000E+00 -0.45593999997E+02  0.45594000000E+02  0.51100000000E-03 0.  1.
         23    2    1    2    0    0  0.00000000000E+00  0.00000000000E+00  0.00000000000E+00  0.91188000000E+02  0.91188000000E+02 0.  0.
    9900012    2    3    3    0    0 -0.52819639038E+01  0.42898779244E+01 -0.40085699671E+02  0.50528861871E+02  0.30000006143E+02 0.  0.
         12    1    3    3    0    0  0.52819639038E+01 -0.42898779244E+01  0.40085699671E+02  0.40659138129E+02  0.00000000000E+00 0. -1.
         11    1    4    4    0    0 -0.22444443095E+01  0.89141717625E+01 -0.84498198063E+00  0.92311420354E+01  0.51100000000E-03 0. -1.
        -11    1    4    4    0    0 -0.28010079688E+01 -0.80212563182E+01 -0.34018164779E+02  0.35063110726E+02  0.51100000000E-03 0.  1.
        -12    1    4    4    0    0 -0.23651162546E+00  0.33969624801E+01 -0.52225529111E+01  0.62346091096E+01  0.00000000000E+00 0.  1.
</event>
<event>
 8    1  0.6016610E-012  0.9118800E+02  0.7816164E-02  0.1184000E+00
        -11   -1    0    0    0    0  0.00000000000E+00  0.00000000000E+00  0.45593999997E+02  0.45594000000E+02  0.51100000000E-03 0. -1.
         11   -1    0    0    0    0 -0.00000000000E+00 -0.00000000000E+00 -0.45593999997E+02  0.45594000000E+02  0.51100000000E-03 0.  1.
         23    2    1    2    0    0 -0.35527136788E-14 -0.17763568394E-14 -0.71054273576E-14  0.91188000000E+02  0.91188000000E+02 0.  0.
    9900012    2    3    3    0    0  0.21237696919E+02  0.13849313851E+02  0.31785570147E+02  0.50528859157E+02  0.29999997893E+02 0.  0.
        -12    1    3    3    0    0 -0.21237696919E+02 -0.13849313851E+02 -0.31785570147E+02  0.40659140843E+02  0.00000000000E+00 0.  1.
         11    1    4    4    0    0  0.80764306662E+01  0.16194431981E+01  0.54958249582E+01  0.99022937146E+01  0.51100000000E-03 0. -1.
        -11    1    4    4    0    0 -0.62537334884E+01  0.21126662815E+01  0.24894758903E+00  0.66056427790E+01  0.51100000000E-03 0.  1.
        -12    1    4    4    0    0  0.19414999741E+02  0.10117204371E+02  0.26040797600E+02  0.34020922663E+02  0.00000000000E+00 0.  1.
</event>
<event>
 8    1  0.6016610E-012  0.9118800E+02  0.7816164E-02  0.1184000E+00
        -11   -1    0    0    0    0  0.00000000000E+00  0.00000000000E+00  0.45593999997E+02  0.45594000000E+02  0.51100000000E-03 0. -1.
         11   -1    0    0    0    0 -0.00000000000E+00 -0.00000000000E+00 -0.45593999997E+02  0.45594000000E+02  0.51100000000E-03 0.  1.
         23    2    1    2    0    0  0.00000000000E+00  0.00000000000E+00  0.00000000000E+00  0.91188000000E+02  0.91188000000E+02 0.  0.
    9900012    2    3    3    0    0  0.10113984790E+02 -0.56949569931E+01 -0.38967111779E+02  0.50528917080E+02  0.30000173956E+02 0.  0.
         12    1    3    3    0    0 -0.10113984790E+02  0.56949569931E+01  0.38967111779E+02  0.40659082920E+02  0.00000000000E+00 0. -1.
         11    1    4    4    0    0 -0.61503262859E+01 -0.94192008587E+01 -0.64793792394E+01  0.12981918727E+02  0.51100000000E-03 0. -1.
        -11    1    4    4    0    0  0.33304819619E+01 -0.24636859524E+01 -0.10604913234E+02  0.11385343365E+02  0.51100000000E-03 0.  1.
         12    1    4    4    0    0  0.12933829114E+02  0.61879298179E+01 -0.21882819305E+02  0.26161654988E+02  0.00000000000E+00 0. -1.
</event>
<event>
 8    1  0.6016610E-012  0.9118800E+02  0.7816164E-02  0.1184000E+00
        -11   -1    0    0    0    0  0.00000000000E+00  0.00000000000E+00  0.45593999997E+02  0.45594000000E+02  0.51100000000E-03 0. -1.
         11   -1    0    0    0    0 -0.00000000000E+00 -0.00000000000E+00 -0.45593999997E+02  0.45594000000E+02  0.51100000000E-03 0.  1.
         23    2    1    2    0    0 -0.35527136788E-14  0.17763568394E-14 -0.35527136788E-14  0.91188000000E+02  0.91188000000E+02 0.  0.
    9900012    2    3    3    0    0 -0.24973885328E+02  0.13565448143E+02 -0.29076606397E+02  0.50528863619E+02  0.30000011456E+02 0.  0.
         12    1    3    3    0    0  0.24973885328E+02 -0.13565448143E+02  0.29076606397E+02  0.40659136381E+02  0.00000000000E+00 0. -1.
         11    1    4    4    0    0  0.48559677157E+01  0.38975633102E+01 -0.31561599676E+01  0.69808859191E+01  0.51100000000E-03 0. -1.
        -11    1    4    4    0    0 -0.18447001834E+02  0.12090053777E+02 -0.22288660610E+02  0.31356748381E+02  0.51100000000E-03 0.  1.
        -12    1    4    4    0    0 -0.11382851210E+02 -0.24221689442E+01 -0.36317858188E+01  0.12191229319E+02  0.00000000000E+00 0.  1.
</event>
<event>
 8    1  0.6016610E-012  0.9118800E+02  0.7816164E-02  0.1184000E+00
        -11   -1    0    0    0    0  0.00000000000E+00  0.00000000000E+00  0.45593999997E+02  0.45594000000E+02  0.51100000000E-03 0. -1.
         11   -1    0    0    0    0 -0.00000000000E+00 -0.00000000000E+00 -0.45593999997E+02  0.45594000000E+02  0.51100000000E-03 0.  1.
         23    2    1    2    0    0 -0.44408920985E-15  0.00000000000E+00 -0.17763568394E-14  0.91188000000E+02  0.91188000000E+02 0.  0.
    9900012    2    3    3    0    0  0.28736839854E+01 -0.39796642088E+02 -0.78187769681E+01  0.50528879813E+02  0.30000060678E+02 0.  0.
         12    1    3    3    0    0 -0.28736839854E+01  0.39796642088E+02  0.78187769681E+01  0.40659120187E+02  0.00000000000E+00 0. -1.
         11    1    4    4    0    0 -0.48142711883E+01 -0.18782705812E+02  0.87806635961E+01  0.21285377567E+02  0.51100000000E-03 0. -1.
        -11    1    4    4    0    0  0.71275924920E+01 -0.76569314196E+01 -0.52377408287E+01  0.11698935966E+02  0.51100000000E-03 0.  1.
         12    1    4    4    0    0  0.56036268178E+00 -0.13357004856E+02 -0.11361699735E+02  0.17544566280E+02  0.00000000000E+00 0. -1.
</event>
<event>
 8    1  0.6016610E-012  0.9118800E+02  0.7816164E-02  0.1184000E+00
        -11   -1    0    0    0    0  0.00000000000E+00  0.00000000000E+00  0.45593999997E+02  0.45594000000E+02  0.51100000000E-03 0. -1.
         11   -1    0    0    0    0 -0.00000000000E+00 -0.00000000000E+00 -0.45593999997E+02  0.45594000000E+02  0.51100000000E-03 0.  1.
         23    2    1    2    0    0  0.35527136788E-14  0.00000000000E+00  0.00000000000E+00  0.91188000000E+02  0.91188000000E+02 0.  0.
    9900012    2    3    3    0    0  0.17310321052E+02 -0.36460145132E+02 -0.49169233429E+01  0.50528861629E+02  0.30000005406E+02 0.  0.
         12    1    3    3    0    0 -0.17310321052E+02  0.36460145132E+02  0.49169233429E+01  0.40659138371E+02  0.00000000000E+00 0. -1.
         11    1    4    4    0    0  0.52758593220E+01 -0.39481279886E+01 -0.73137671284E+01  0.98444703296E+01  0.51100000000E-03 0. -1.
        -11    1    4    4    0    0  0.12757272707E+02 -0.20641520725E+02  0.10346715584E+02  0.26379441018E+02  0.51100000000E-03 0.  1.
        -12    1    4    4    0    0 -0.72281097775E+00 -0.11870496418E+02 -0.79498717988E+01  0.14304950281E+02  0.00000000000E+00 0.  1.
</event>
<event>
 8    1  0.6016610E-012  0.9118800E+02  0.7816164E-02  0.1184000E+00
        -11   -1    0    0    0    0  0.00000000000E+00  0.00000000000E+00  0.45593999997E+02  0.45594000000E+02  0.51100000000E-03 0. -1.
         11   -1    0    0    0    0 -0.00000000000E+00 -0.00000000000E+00 -0.45593999997E+02  0.45594000000E+02  0.51100000000E-03 0.  1.
         23    2    1    2    0    0  0.00000000000E+00  0.17763568394E-14  0.35527136788E-14  0.91188000000E+02  0.91188000000E+02 0.  0.
    9900012    2    3    3    0    0  0.32262472312E+02  0.14292714025E+02  0.20199467789E+02  0.50528839989E+02  0.29999939629E+02 0.  0.
        -12    1    3    3    0    0 -0.32262472312E+02 -0.14292714025E+02 -0.20199467789E+02  0.40659160011E+02  0.00000000000E+00 0.  1.
         11    1    4    4    0    0  0.12581441611E+02 -0.74001209035E+01  0.11289471158E+02  0.18452821510E+02  0.51100000000E-03 0. -1.
        -11    1    4    4    0    0 -0.84519684968E+00  0.15708210886E+00  0.94471854595E+00  0.12773119806E+01  0.51100000000E-03 0.  1.
         12    1    4    4    0    0  0.20526227551E+02  0.21535752819E+02  0.79652780851E+01  0.30798706498E+02  0.00000000000E+00 0. -1.
</event>
<event>
 8    1  0.6016610E-012  0.9118800E+02  0.7816164E-02  0.1184000E+00
        -11   -1    0    0    0    0  0.00000000000E+00  0.00000000000E+00  0.45593999997E+02  0.45594000000E+02  0.51100000000E-03 0. -1.
         11   -1    0    0    0    0 -0.00000000000E+00 -0.00000000000E+00 -0.45593999997E+02  0.45594000000E+02  0.51100000000E-03 0.  1.
         23    2    1    2    0    0  0.35527136788E-14  0.00000000000E+00  0.00000000000E+00  0.91188000000E+02  0.91188000000E+02 0.  0.
    9900012    2    3    3    0    0 -0.28991363661E+02  0.18765651437E+02 -0.21459611430E+02  0.50528883390E+02  0.30000071553E+02 0.  0.
         12    1    3    3    0    0  0.28991363661E+02 -0.18765651437E+02  0.21459611430E+02  0.40659116610E+02  0.00000000000E+00 0. -1.
         11    1    4    4    0    0 -0.19410703580E+02  0.97710660502E+01 -0.80247996811E+01  0.23165633067E+02  0.51100000000E-03 0. -1.
        -11    1    4    4    0    0 -0.45494487564E+01  0.12506385900E+00 -0.16176042457E+02  0.16804091014E+02  0.51100000000E-03 0.  1.
        -12    1    4    4    0    0 -0.50312113241E+01  0.88695215277E+01  0.27412307083E+01  0.10559159309E+02  0.00000000000E+00 0.  1.
</event>
<event>
 8    1  0.6016610E-012  0.9118800E+02  0.7816164E-02  0.1184000E+00
        -11   -1    0    0    0    0  0.00000000000E+00  0.00000000000E+00  0.45593999997E+02  0.45594000000E+02  0.51100000000E-03 0.  1.
         11   -1    0    0    0    0 -0.00000000000E+00 -0.00000000000E+00 -0.45593999997E+02  0.45594000000E+02  0.51100000000E-03 0. -1.
         23    2    1    2    0    0  0.00000000000E+00  0.00000000000E+00  0.35527136788E-14  0.91188000000E+02  0.91188000000E+02 0.  0.
    9900012    2    3    3    0    0  0.34538378464E+02  0.13917374689E+02 -0.16327058264E+02  0.50528859125E+02  0.29999997796E+02 0.  0.
         12    1    3    3    0    0 -0.34538378464E+02 -0.13917374689E+02  0.16327058264E+02  0.40659140875E+02  0.00000000000E+00 0. -1.
         11    1    4    4    0    0  0.13110989988E+02 -0.92049673421E+01 -0.73106110370E+01  0.17608932854E+02  0.51100000000E-03 0. -1.
        -11    1    4    4    0    0  0.99931112510E+01  0.88291987927E+01 -0.31912995173E+01  0.13711360861E+02  0.51100000000E-03 0.  1.
         12    1    4    4    0    0  0.11434277224E+02  0.14293143238E+02 -0.58251477096E+01  0.19208565410E+02  0.00000000000E+00 0. -1.
</event>
<event>
 8    1  0.6016610E-012  0.9118800E+02  0.7816164E-02  0.1184000E+00
        -11   -1    0    0    0    0  0.00000000000E+00  0.00000000000E+00  0.45593999997E+02  0.45594000000E+02  0.51100000000E-03 0. -1.
         11   -1    0    0    0    0 -0.00000000000E+00 -0.00000000000E+00 -0.45593999997E+02  0.45594000000E+02  0.51100000000E-03 0.  1.
         23    2    1    2    0    0  0.00000000000E+00  0.35527136788E-14  0.00000000000E+00  0.91188000000E+02  0.91188000000E+02 0.  0.
    9900012    2    3    3    0    0  0.33404330246E+02  0.21541326666E+02  0.85608330837E+01  0.50528857156E+02  0.29999991811E+02 0.  0.
        -12    1    3    3    0    0 -0.33404330246E+02 -0.21541326666E+02 -0.85608330837E+01  0.40659142844E+02  0.00000000000E+00 0.  1.
         11    1    4    4    0    0  0.22183744045E+02  0.51402022463E+01  0.15087199535E+02  0.27315998408E+02  0.51100000000E-03 0. -1.
        -11    1    4    4    0    0 -0.10181775329E+01  0.62939448764E+01 -0.13470066547E+01  0.65165063327E+01  0.51100000000E-03 0.  1.
         12    1    4    4    0    0  0.12238763734E+02  0.10107179543E+02 -0.51793597965E+01  0.16696352415E+02  0.00000000000E+00 0. -1.
</event>
<event>
 8    1  0.6016610E-012  0.9118800E+02  0.7816164E-02  0.1184000E+00
        -11   -1    0    0    0    0  0.00000000000E+00  0.00000000000E+00  0.45593999997E+02  0.45594000000E+02  0.51100000000E-03 0. -1.
         11   -1    0    0    0    0 -0.00000000000E+00 -0.00000000000E+00 -0.45593999997E+02  0.45594000000E+02  0.51100000000E-03 0.  1.
         23    2    1    2    0    0  0.00000000000E+00  0.00000000000E+00  0.00000000000E+00  0.91188000000E+02  0.91188000000E+02 0.  0.
    9900012    2    3    3    0    0  0.79240529107E+01 -0.24671829273E+02 -0.31331716586E+02  0.50528852954E+02  0.29999979040E+02 0.  0.
         12    1    3    3    0    0 -0.79240529107E+01  0.24671829273E+02  0.31331716586E+02  0.40659147046E+02  0.00000000000E+00 0. -1.
         11    1    4    4    0    0  0.66132573354E+01  0.84482946359E+00  0.46879922099E+00  0.66834633520E+01  0.51100000000E-03 0. -1.
        -11    1    4    4    0    0  0.76716155716E+01 -0.13532019822E+02 -0.22661154480E+02  0.27486308747E+02  0.51100000000E-03 0.  1.
         12    1    4    4    0    0 -0.63608199963E+01 -0.11984638915E+02 -0.91393613276E+01  0.16359080855E+02  0.00000000000E+00 0. -1.
</event>
<event>
 8    1  0.6016610E-012  0.9118800E+02  0.7816164E-02  0.1184000E+00
        -11   -1    0    0    0    0  0.00000000000E+00  0.00000000000E+00  0.45593999997E+02  0.45594000000E+02  0.51100000000E-03 0. -1.
         11   -1    0    0    0    0 -0.00000000000E+00 -0.00000000000E+00 -0.45593999997E+02  0.45594000000E+02  0.51100000000E-03 0.  1.
         23    2    1    2    0    0  0.17763568394E-14  0.00000000000E+00  0.00000000000E+00  0.91188000000E+02  0.91188000000E+02 0.  0.
    9900012    2    3    3    0    0  0.11851362079E+02 -0.28484123893E+02  0.26483312474E+02  0.50528856665E+02  0.29999990320E+02 0.  0.
        -12    1    3    3    0    0 -0.11851362079E+02  0.28484123893E+02 -0.26483312474E+02  0.40659143335E+02  0.00000000000E+00 0.  1.
         11    1    4    4    0    0  0.18776774975E+02 -0.27529036542E+02  0.21034116597E+02  0.39406207540E+02  0.51100000000E-03 0. -1.
        -11    1    4    4    0    0 -0.42786604676E+01  0.14190690912E+01  0.60209009605E+01  0.75214321190E+01  0.51100000000E-03 0.  1.
         12    1    4    4    0    0 -0.26467524275E+01 -0.23741564427E+01 -0.57170508343E+00  0.36012170067E+01  0.00000000000E+00 0. -1.
</event>
<event>
 8    1  0.6016610E-012  0.9118800E+02  0.7816164E-02  0.1184000E+00
        -11   -1    0    0    0    0  0.00000000000E+00  0.00000000000E+00  0.45593999997E+02  0.45594000000E+02  0.51100000000E-03 0. -1.
         11   -1    0    0    0    0 -0.00000000000E+00 -0.00000000000E+00 -0.45593999997E+02  0.45594000000E+02  0.51100000000E-03 0.  1.
         23    2    1    2    0    0  0.17763568394E-14 -0.11934897515E-14  0.71054273576E-14  0.91188000000E+02  0.91188000000E+02 0.  0.
    9900012    2    3    3    0    0  0.84879860712E+01  0.14301403341E+00  0.39763052107E+02  0.50528847606E+02  0.29999962782E+02 0.  0.
        -12    1    3    3    0    0 -0.84879860712E+01 -0.14301403341E+00 -0.39763052107E+02  0.40659152394E+02  0.00000000000E+00 0.  1.
         11    1    4    4    0    0  0.10473996068E+02  0.84914427522E+01  0.82033924121E+01  0.15783055502E+02  0.51100000000E-03 0. -1.
        -11    1    4    4    0    0 -0.57811833181E+01 -0.14128650140E+01  0.85624804359E+01  0.10427575921E+02  0.51100000000E-03 0.  1.
         12    1    4    4    0    0  0.37951733212E+01 -0.69355637048E+01  0.22997179259E+02  0.24318216183E+02  0.00000000000E+00 0. -1.
</event>
<event>
 8    1  0.6016610E-012  0.9118800E+02  0.7816164E-02  0.1184000E+00
        -11   -1    0    0    0    0  0.00000000000E+00  0.00000000000E+00  0.45593999997E+02  0.45594000000E+02  0.51100000000E-03 0. -1.
         11   -1    0    0    0    0 -0.00000000000E+00 -0.00000000000E+00 -0.45593999997E+02  0.45594000000E+02  0.51100000000E-03 0.  1.
         23    2    1    2    0    0  0.00000000000E+00 -0.35527136788E-14  0.00000000000E+00  0.91188000000E+02  0.91188000000E+02 0.  0.
    9900012    2    3    3    0    0  0.98926749612E+01 -0.23469775271E+02 -0.31693379166E+02  0.50528860165E+02  0.30000000958E+02 0.  0.
         12    1    3    3    0    0 -0.98926749612E+01  0.23469775271E+02  0.31693379166E+02  0.40659139835E+02  0.00000000000E+00 0. -1.
         11    1    4    4    0    0  0.14502410863E+01 -0.57539762762E+01 -0.23977415384E+01  0.64000474172E+01  0.51100000000E-03 0. -1.
        -11    1    4    4    0    0  0.96094922220E+01  0.25299071803E+01 -0.18870042518E+02  0.21326539241E+02  0.51100000000E-03 0.  1.
        -12    1    4    4    0    0 -0.11670583471E+01 -0.20245706175E+02 -0.10425595109E+02  0.22802273507E+02  0.00000000000E+00 0.  1.
</event>
<event>
 8    1  0.6016610E-012  0.9118800E+02  0.7816164E-02  0.1184000E+00
        -11   -1    0    0    0    0  0.00000000000E+00  0.00000000000E+00  0.45593999997E+02  0.45594000000E+02  0.51100000000E-03 0.  1.
         11   -1    0    0    0    0 -0.00000000000E+00 -0.00000000000E+00 -0.45593999997E+02  0.45594000000E+02  0.51100000000E-03 0. -1.
         23    2    1    2    0    0  0.88817841970E-15  0.00000000000E+00  0.00000000000E+00  0.91188000000E+02  0.91188000000E+02 0.  0.
    9900012    2    3    3    0    0 -0.72697987296E+01 -0.34452235057E+02  0.20331231597E+02  0.50528862623E+02  0.30000008429E+02 0.  0.
        -12    1    3    3    0    0  0.72697987296E+01  0.34452235057E+02 -0.20331231597E+02  0.40659137377E+02  0.00000000000E+00 0.  1.
         11    1    4    4    0    0  0.58591578611E+00  0.21600839663E+01  0.59087045414E+01  0.63183898003E+01  0.51100000000E-03 0.  1.
        -11    1    4    4    0    0  0.24731680238E+01 -0.28583592447E+02  0.10523924872E+02  0.30559635342E+02  0.51100000000E-03 0. -1.
         12    1    4    4    0    0 -0.10328882539E+02 -0.80287265762E+01  0.38986021831E+01  0.13650837481E+02  0.00000000000E+00 0. -1.
</event>
<event>
 8    1  0.6016610E-012  0.9118800E+02  0.7816164E-02  0.1184000E+00
        -11   -1    0    0    0    0  0.00000000000E+00  0.00000000000E+00  0.45593999997E+02  0.45594000000E+02  0.51100000000E-03 0. -1.
         11   -1    0    0    0    0 -0.00000000000E+00 -0.00000000000E+00 -0.45593999997E+02  0.45594000000E+02  0.51100000000E-03 0.  1.
         23    2    1    2    0    0  0.00000000000E+00  0.17763568394E-14  0.35527136788E-14  0.91188000000E+02  0.91188000000E+02 0.  0.
    9900012    2    3    3    0    0 -0.32978991236E+02 -0.15787053395E+02 -0.17785387173E+02  0.50528869233E+02  0.30000028520E+02 0.  0.
         12    1    3    3    0    0  0.32978991236E+02  0.15787053395E+02  0.17785387173E+02  0.40659130767E+02  0.00000000000E+00 0. -1.
         11    1    4    4    0    0 -0.25493159592E+02 -0.67910422096E+01 -0.82219526285E+01  0.27633674124E+02  0.51100000000E-03 0. -1.
        -11    1    4    4    0    0  0.49899639212E+01 -0.62893142521E+01 -0.33889977970E+01  0.87143858088E+01  0.51100000000E-03 0.  1.
        -12    1    4    4    0    0 -0.12475795565E+02 -0.27066969335E+01 -0.61744367476E+01  0.14180809300E+02  0.00000000000E+00 0.  1.
</event>
<event>
 8    1  0.6016610E-012  0.9118800E+02  0.7816164E-02  0.1184000E+00
        -11   -1    0    0    0    0  0.00000000000E+00  0.00000000000E+00  0.45593999997E+02  0.45594000000E+02  0.51100000000E-03 0. -1.
         11   -1    0    0    0    0 -0.00000000000E+00 -0.00000000000E+00 -0.45593999997E+02  0.45594000000E+02  0.51100000000E-03 0.  1.
         23    2    1    2    0    0  0.00000000000E+00  0.00000000000E+00  0.35527136788E-14  0.91188000000E+02  0.91188000000E+02 0.  0.
    9900012    2    3    3    0    0  0.21266112728E+02  0.15336255203E+02 -0.31075999326E+02  0.50528855784E+02  0.29999987642E+02 0.  0.
         12    1    3    3    0    0 -0.21266112728E+02 -0.15336255203E+02  0.31075999326E+02  0.40659144216E+02  0.00000000000E+00 0. -1.
         11    1    4    4    0    0  0.16798303675E+02  0.83839617053E+01 -0.15647974768E+02  0.24440395553E+02  0.51100000000E-03 0. -1.
        -11    1    4    4    0    0 -0.46454145456E+01  0.33075211329E+01 -0.15239601247E+02  0.16271601604E+02  0.51100000000E-03 0.  1.
         12    1    4    4    0    0  0.91132235988E+01  0.36447723652E+01 -0.18842331194E+00  0.98168586269E+01  0.00000000000E+00 0. -1.
</event>
<event>
 8    1  0.6016610E-012  0.9118800E+02  0.7816164E-02  0.1184000E+00
        -11   -1    0    0    0    0  0.00000000000E+00  0.00000000000E+00  0.45593999997E+02  0.45594000000E+02  0.51100000000E-03 0. -1.
         11   -1    0    0    0    0 -0.00000000000E+00 -0.00000000000E+00 -0.45593999997E+02  0.45594000000E+02  0.51100000000E-03 0.  1.
         23    2    1    2    0    0  0.35527136788E-14 -0.35527136788E-14  0.35527136788E-14  0.91188000000E+02  0.91188000000E+02 0.  0.
    9900012    2    3    3    0    0 -0.23803254803E+02  0.26691819887E+02 -0.19342109336E+02  0.50528863490E+02  0.30000011065E+02 0.  0.
         12    1    3    3    0    0  0.23803254803E+02 -0.26691819887E+02  0.19342109336E+02  0.40659136510E+02  0.00000000000E+00 0. -1.
         11    1    4    4    0    0 -0.90598974988E+00 -0.21386492794E+01  0.12939228038E+01  0.26587355360E+01  0.51100000000E-03 0. -1.
        -11    1    4    4    0    0 -0.25668743738E+02  0.22764107994E+02 -0.22396970379E+02  0.40972103928E+02  0.51100000000E-03 0.  1.
        -12    1    4    4    0    0  0.27714786852E+01  0.60663611732E+01  0.17609382391E+01  0.68980240263E+01  0.00000000000E+00 0.  1.
</event>
<event>
 8    1  0.6016610E-012  0.9118800E+02  0.7816164E-02  0.1184000E+00
        -11   -1    0    0    0    0  0.00000000000E+00  0.00000000000E+00  0.45593999997E+02  0.45594000000E+02  0.51100000000E-03 0. -1.
         11   -1    0    0    0    0 -0.00000000000E+00 -0.00000000000E+00 -0.45593999997E+02  0.45594000000E+02  0.51100000000E-03 0.  1.
         23    2    1    2    0    0  0.17763568394E-14  0.00000000000E+00  0.35527136788E-14  0.91188000000E+02  0.91188000000E+02 0.  0.
    9900012    2    3    3    0    0 -0.11885146437E+02  0.27689791550E+02  0.27297881790E+02  0.50528983630E+02  0.30000376241E+02 0.  0.
        -12    1    3    3    0    0  0.11885146437E+02 -0.27689791550E+02 -0.27297881790E+02  0.40659016370E+02  0.00000000000E+00 0.  1.
         11    1    4    4    0    0 -0.87123525970E+01  0.20978638218E+02  0.85148421985E+01  0.24259243335E+02  0.51100000000E-03 0. -1.
        -11    1    4    4    0    0 -0.61475866617E+01  0.70216691361E+01  0.20707345484E+02  0.22713229988E+02  0.51100000000E-03 0.  1.
        -12    1    4    4    0    0  0.29747928214E+01 -0.31051580440E+00 -0.19243058929E+01  0.35565103071E+01  0.00000000000E+00 0.  1.
</event>
<event>
 8    1  0.6016610E-012  0.9118800E+02  0.7816164E-02  0.1184000E+00
        -11   -1    0    0    0    0  0.00000000000E+00  0.00000000000E+00  0.45593999997E+02  0.45594000000E+02  0.51100000000E-03 0.  1.
         11   -1    0    0    0    0 -0.00000000000E+00 -0.00000000000E+00 -0.45593999997E+02  0.45594000000E+02  0.51100000000E-03 0. -1.
         23    2    1    2    0    0  0.00000000000E+00  0.00000000000E+00  0.00000000000E+00  0.91188000000E+02  0.91188000000E+02 0.  0.
    9900012    2    3    3    0    0  0.28322162557E+02 -0.25980268015E+02 -0.13267960119E+02  0.50528954466E+02  0.30000287593E+02 0.  0.
         12    1    3    3    0    0 -0.28322162557E+02  0.25980268015E+02  0.13267960119E+02  0.40659045534E+02  0.00000000000E+00 0. -1.
         11    1    4    4    0    0  0.15493878904E+02 -0.25479109591E+02 -0.10569461337E+02  0.31637933281E+02  0.51100000000E-03 0. -1.
        -11    1    4    4    0    0  0.76273336284E+01  0.10948196338E+01  0.52030868910E+01  0.92976858285E+01  0.51100000000E-03 0.  1.
         12    1    4    4    0    0  0.52009500244E+01 -0.15959780580E+01 -0.79015856730E+01  0.95933353566E+01  0.00000000000E+00 0. -1.
</event>
<event>
 8    1  0.6016610E-012  0.9118800E+02  0.7816164E-02  0.1184000E+00
        -11   -1    0    0    0    0  0.00000000000E+00  0.00000000000E+00  0.45593999997E+02  0.45594000000E+02  0.51100000000E-03 0. -1.
         11   -1    0    0    0    0 -0.00000000000E+00 -0.00000000000E+00 -0.45593999997E+02  0.45594000000E+02  0.51100000000E-03 0.  1.
         23    2    1    2    0    0  0.22204460493E-15  0.33306690739E-15  0.00000000000E+00  0.91188000000E+02  0.91188000000E+02 0.  0.
    9900012    2    3    3    0    0  0.19383369013E+01 -0.64543011098E+00  0.40607772369E+02  0.50528869331E+02  0.30000028818E+02 0.  0.
        -12    1    3    3    0    0 -0.19383369013E+01  0.64543011098E+00 -0.40607772369E+02  0.40659130669E+02  0.00000000000E+00 0.  1.
         11    1    4    4    0    0 -0.47031166281E+00  0.75064334292E+01  0.40221145367E+02  0.40918312169E+02  0.51100000000E-03 0. -1.
        -11    1    4    4    0    0 -0.13096010638E+01 -0.23608819846E+01 -0.17711091750E+00  0.27055844525E+01  0.51100000000E-03 0.  1.
         12    1    4    4    0    0  0.37182496279E+01 -0.57909815556E+01  0.56373791991E+00  0.69049727092E+01  0.00000000000E+00 0. -1.
</event>
<event>
 8    1  0.6016610E-012  0.9118800E+02  0.7816164E-02  0.1184000E+00
        -11   -1    0    0    0    0  0.00000000000E+00  0.00000000000E+00  0.45593999997E+02  0.45594000000E+02  0.51100000000E-03 0. -1.
         11   -1    0    0    0    0 -0.00000000000E+00 -0.00000000000E+00 -0.45593999997E+02  0.45594000000E+02  0.51100000000E-03 0.  1.
         23    2    1    2    0    0  0.35527136788E-14 -0.35527136788E-14  0.00000000000E+00  0.91188000000E+02  0.91188000000E+02 0.  0.
    9900012    2    3    3    0    0 -0.24843540377E+02  0.24817954689E+02  0.20494715364E+02  0.50528859192E+02  0.29999998000E+02 0.  0.
        -12    1    3    3    0    0  0.24843540377E+02 -0.24817954689E+02 -0.20494715364E+02  0.40659140808E+02  0.00000000000E+00 0.  1.
         11    1    4    4    0    0 -0.10506150660E+02  0.14443374077E+02  0.25799701262E+02  0.31378572974E+02  0.51100000000E-03 0. -1.
        -11    1    4    4    0    0 -0.42101073218E+01  0.60367668051E+01 -0.26028960001E+01  0.78065757518E+01  0.51100000000E-03 0.  1.
         12    1    4    4    0    0 -0.10127282395E+02  0.43378138069E+01 -0.27020898975E+01  0.11343710466E+02  0.00000000000E+00 0. -1.
</event>
<event>
 8    1  0.6016610E-012  0.9118800E+02  0.7816164E-02  0.1184000E+00
        -11   -1    0    0    0    0  0.00000000000E+00  0.00000000000E+00  0.45593999997E+02  0.45594000000E+02  0.51100000000E-03 0. -1.
         11   -1    0    0    0    0 -0.00000000000E+00 -0.00000000000E+00 -0.45593999997E+02  0.45594000000E+02  0.51100000000E-03 0.  1.
         23    2    1    2    0    0  0.88817841970E-15 -0.53290705182E-14  0.00000000000E+00  0.91188000000E+02  0.91188000000E+02 0.  0.
    9900012    2    3    3    0    0  0.10190213156E+01  0.13955823739E+02 -0.38175394660E+02  0.50528878291E+02  0.30000056054E+02 0.  0.
         12    1    3    3    0    0 -0.10190213156E+01 -0.13955823739E+02  0.38175394660E+02  0.40659121709E+02  0.00000000000E+00 0. -1.
         11    1    4    4    0    0  0.58861063807E+01 -0.41541880774E+01 -0.14119461908E+02  0.15851269090E+02  0.51100000000E-03 0.  1.
        -11    1    4    4    0    0 -0.97874727010E+01  0.17131405677E+02 -0.17150964949E+02  0.26142595152E+02  0.51100000000E-03 0. -1.
         12    1    4    4    0    0  0.49203876359E+01  0.97860613923E+00 -0.69049678025E+01  0.85350140491E+01  0.00000000000E+00 0. -1.
</event>
<event>
 8    1  0.6016610E-012  0.9118800E+02  0.7816164E-02  0.1184000E+00
        -11   -1    0    0    0    0  0.00000000000E+00  0.00000000000E+00  0.45593999997E+02  0.45594000000E+02  0.51100000000E-03 0. -1.
         11   -1    0    0    0    0 -0.00000000000E+00 -0.00000000000E+00 -0.45593999997E+02  0.45594000000E+02  0.51100000000E-03 0.  1.
         23    2    1    2    0    0  0.00000000000E+00  0.00000000000E+00  0.71054273576E-14  0.91188000000E+02  0.91188000000E+02 0.  0.
    9900012    2    3    3    0    0  0.22268278429E+02 -0.22408193627E+01 -0.33945034872E+02  0.50528894156E+02  0.30000104275E+02 0.  0.
         12    1    3    3    0    0 -0.22268278429E+02  0.22408193627E+01  0.33945034872E+02  0.40659105844E+02  0.00000000000E+00 0. -1.
         11    1    4    4    0    0 -0.52787423332E+01  0.21906743217E+01 -0.33490675505E+01  0.66242303948E+01  0.51100000000E-03 0. -1.
        -11    1    4    4    0    0  0.15481253339E+02 -0.41227319782E+01 -0.71697874790E+01  0.17551979281E+02  0.51100000000E-03 0.  1.
         12    1    4    4    0    0  0.12065767423E+02 -0.30876170622E+00 -0.23426179842E+02  0.26352684480E+02  0.00000000000E+00 0. -1.
</event>
<event>
 8    1  0.6016610E-012  0.9118800E+02  0.7816164E-02  0.1184000E+00
        -11   -1    0    0    0    0  0.00000000000E+00  0.00000000000E+00  0.45593999997E+02  0.45594000000E+02  0.51100000000E-03 0. -1.
         11   -1    0    0    0    0 -0.00000000000E+00 -0.00000000000E+00 -0.45593999997E+02  0.45594000000E+02  0.51100000000E-03 0.  1.
         23    2    1    2    0    0  0.00000000000E+00  0.00000000000E+00  0.71054273576E-14  0.91188000000E+02  0.91188000000E+02 0.  0.
    9900012    2    3    3    0    0  0.19037067959E+02  0.81619571078E+01  0.34987686222E+02  0.50528859730E+02  0.29999999635E+02 0.  0.
        -12    1    3    3    0    0 -0.19037067959E+02 -0.81619571078E+01 -0.34987686222E+02  0.40659140270E+02  0.00000000000E+00 0.  1.
         11    1    4    4    0    0 -0.36716606644E+01  0.54140823866E+00 -0.15659424744E+01  0.40281994749E+01  0.51100000000E-03 0.  1.
        -11    1    4    4    0    0  0.78350887827E+01 -0.10710953152E+01  0.23763407669E+02  0.25044668209E+02  0.51100000000E-03 0. -1.
        -12    1    4    4    0    0  0.14873639841E+02  0.86916441844E+01  0.12790221028E+02  0.21455992046E+02  0.00000000000E+00 0.  1.
</event>
<event>
 8    1  0.6016610E-012  0.9118800E+02  0.7816164E-02  0.1184000E+00
        -11   -1    0    0    0    0  0.00000000000E+00  0.00000000000E+00  0.45593999997E+02  0.45594000000E+02  0.51100000000E-03 0. -1.
         11   -1    0    0    0    0 -0.00000000000E+00 -0.00000000000E+00 -0.45593999997E+02  0.45594000000E+02  0.51100000000E-03 0.  1.
         23    2    1    2    0    0 -0.26367796835E-15  0.00000000000E+00  0.00000000000E+00  0.91188000000E+02  0.91188000000E+02 0.  0.
    9900012    2    3    3    0    0 -0.40831015572E-01 -0.20813752643E+02 -0.34927805974E+02  0.50528860850E+02  0.30000003039E+02 0.  0.
         12    1    3    3    0    0  0.40831015572E-01  0.20813752643E+02  0.34927805974E+02  0.40659139150E+02  0.00000000000E+00 0. -1.
         11    1    4    4    0    0  0.89221314155E+01 -0.11700710458E+02 -0.25402226760E+02  0.29356160833E+02  0.51100000000E-03 0.  1.
        -11    1    4    4    0    0 -0.26505101691E+01 -0.69183717759E+01  0.21546573226E+01  0.77156736987E+01  0.51100000000E-03 0. -1.
         12    1    4    4    0    0 -0.63124522620E+01 -0.21946704094E+01 -0.11680236537E+02  0.13457026318E+02  0.00000000000E+00 0. -1.
</event>
<event>
 8    1  0.6016610E-012  0.9118800E+02  0.7816164E-02  0.1184000E+00
        -11   -1    0    0    0    0  0.00000000000E+00  0.00000000000E+00  0.45593999997E+02  0.45594000000E+02  0.51100000000E-03 0. -1.
         11   -1    0    0    0    0 -0.00000000000E+00 -0.00000000000E+00 -0.45593999997E+02  0.45594000000E+02  0.51100000000E-03 0.  1.
         23    2    1    2    0    0  0.00000000000E+00  0.00000000000E+00  0.35527136788E-14  0.91188000000E+02  0.91188000000E+02 0.  0.
    9900012    2    3    3    0    0 -0.75866973186E+01  0.27571242484E+02 -0.28903872727E+02  0.50528865148E+02  0.30000016103E+02 0.  0.
         12    1    3    3    0    0  0.75866973186E+01 -0.27571242484E+02  0.28903872727E+02  0.40659134852E+02  0.00000000000E+00 0. -1.
         11    1    4    4    0    0  0.67320283589E+01  0.19898361745E+02 -0.18208373132E+02  0.27799457879E+02  0.51100000000E-03 0. -1.
        -11    1    4    4    0    0 -0.50177366953E+00 -0.12208074249E+01 -0.52581767539E+01  0.54213070952E+01  0.51100000000E-03 0.  1.
         12    1    4    4    0    0 -0.13816952008E+02  0.88936881635E+01 -0.54373228411E+01  0.17308100174E+02  0.00000000000E+00 0. -1.
</event>
<event>
 8    1  0.6932523E-012  0.9118800E+02  0.7816164E-02  0.1184000E+00
        -11   -1    0    0    0    0  0.00000000000E+00  0.00000000000E+00  0.45593999997E+02  0.45594000000E+02  0.51100000000E-03 0. -1.
         11   -1    0    0    0    0 -0.00000000000E+00 -0.00000000000E+00 -0.45593999997E+02  0.45594000000E+02  0.51100000000E-03 0.  1.
         23    2    1    2    0    0 -0.18596235662E-14  0.00000000000E+00 -0.35527136788E-14  0.91188000000E+02  0.91188000000E+02 0.  0.
    9900012    2    3    3    0    0 -0.57745466885E-01  0.32043260058E+02  0.25027822946E+02  0.50528858702E+02  0.29999996509E+02 0.  0.
        -12    1    3    3    0    0  0.57745466885E-01 -0.32043260058E+02 -0.25027822946E+02  0.40659141298E+02  0.00000000000E+00 0.  1.
         11    1    4    4    0    0 -0.54265590342E+01  0.11040970119E+02  0.17231838560E+02  0.21172784997E+02  0.51100000000E-03 0. -1.
        -11    1    4    4    0    0  0.82887246334E+01  0.22420261187E+02  0.94614045640E+01  0.25707766226E+02  0.51100000000E-03 0.  1.
        -12    1    4    4    0    0 -0.29199110660E+01 -0.14179712476E+01 -0.16654201775E+01  0.36483074788E+01  0.00000000000E+00 0.  1.
</event>
<event>
 8    1  0.6016610E-012  0.9118800E+02  0.7816164E-02  0.1184000E+00
        -11   -1    0    0    0    0  0.00000000000E+00  0.00000000000E+00  0.45593999997E+02  0.45594000000E+02  0.51100000000E-03 0. -1.
         11   -1    0    0    0    0 -0.00000000000E+00 -0.00000000000E+00 -0.45593999997E+02  0.45594000000E+02  0.51100000000E-03 0.  1.
         23    2    1    2    0    0  0.17763568394E-14  0.17763568394E-14  0.71054273576E-14  0.91188000000E+02  0.91188000000E+02 0.  0.
    9900012    2    3    3    0    0  0.10332768584E+02  0.59347005384E+01  0.38873899776E+02  0.50528845301E+02  0.29999955777E+02 0.  0.
        -12    1    3    3    0    0 -0.10332768584E+02 -0.59347005384E+01 -0.38873899776E+02  0.40659154699E+02  0.00000000000E+00 0.  1.
         11    1    4    4    0    0  0.15706349919E+02  0.30433776587E+01  0.26049825428E+02  0.30570328432E+02  0.51100000000E-03 0. -1.
        -11    1    4    4    0    0 -0.36393586945E+01  0.69989791307E+01  0.18348756234E+01  0.80992227648E+01  0.51100000000E-03 0.  1.
         12    1    4    4    0    0 -0.17342226411E+01 -0.41076562510E+01  0.10989198725E+02  0.11859294104E+02  0.00000000000E+00 0. -1.
</event>
<event>
 8    1  0.6016610E-012  0.9118800E+02  0.7816164E-02  0.1184000E+00
        -11   -1    0    0    0    0  0.00000000000E+00  0.00000000000E+00  0.45593999997E+02  0.45594000000E+02  0.51100000000E-03 0. -1.
         11   -1    0    0    0    0 -0.00000000000E+00 -0.00000000000E+00 -0.45593999997E+02  0.45594000000E+02  0.51100000000E-03 0.  1.
         23    2    1    2    0    0  0.35527136788E-14 -0.88817841970E-15  0.71054273576E-14  0.91188000000E+02  0.91188000000E+02 0.  0.
    9900012    2    3    3    0    0 -0.20047658188E+02  0.69701361774E+01 -0.34679589754E+02  0.50528863971E+02  0.30000012525E+02 0.  0.
         12    1    3    3    0    0  0.20047658188E+02 -0.69701361774E+01  0.34679589754E+02  0.40659136029E+02  0.00000000000E+00 0. -1.
         11    1    4    4    0    0 -0.14389828080E+02 -0.79508569255E+00 -0.12578587106E+01  0.14466565668E+02  0.51100000000E-03 0. -1.
        -11    1    4    4    0    0  0.22731881006E+01  0.43204629674E+01 -0.12928539394E+02  0.13819584491E+02  0.51100000000E-03 0.  1.
         12    1    4    4    0    0 -0.79310182089E+01  0.34447589026E+01 -0.20493191650E+02  0.22242713812E+02  0.00000000000E+00 0. -1.
</event>
<event>
 8    1  0.6016610E-012  0.9118800E+02  0.7816164E-02  0.1184000E+00
        -11   -1    0    0    0    0  0.00000000000E+00  0.00000000000E+00  0.45593999997E+02  0.45594000000E+02  0.51100000000E-03 0.  1.
         11   -1    0    0    0    0 -0.00000000000E+00 -0.00000000000E+00 -0.45593999997E+02  0.45594000000E+02  0.51100000000E-03 0. -1.
         23    2    1    2    0    0  0.00000000000E+00  0.35527136788E-14  0.00000000000E+00  0.91188000000E+02  0.91188000000E+02 0.  0.
    9900012    2    3    3    0    0 -0.21820603139E+02 -0.16202377223E+02 -0.30240897748E+02  0.50528835650E+02  0.29999926442E+02 0.  0.
         12    1    3    3    0    0  0.21820603139E+02  0.16202377223E+02  0.30240897748E+02  0.40659164350E+02  0.00000000000E+00 0. -1.
         11    1    4    4    0    0 -0.60390893968E+01 -0.18884145678E+02 -0.78238577936E+01  0.21314180955E+02  0.51100000000E-03 0.  1.
        -11    1    4    4    0    0 -0.62728689211E+01 -0.22362813259E+01 -0.14317892892E+02  0.15790880147E+02  0.51100000000E-03 0. -1.
         12    1    4    4    0    0 -0.95086448214E+01  0.49180497818E+01 -0.80991470621E+01  0.13423774549E+02  0.00000000000E+00 0. -1.
</event>
<event>
 8    1  0.6016610E-012  0.9118800E+02  0.7816164E-02  0.1184000E+00
        -11   -1    0    0    0    0  0.00000000000E+00  0.00000000000E+00  0.45593999997E+02  0.45594000000E+02  0.51100000000E-03 0. -1.
         11   -1    0    0    0    0 -0.00000000000E+00 -0.00000000000E+00 -0.45593999997E+02  0.45594000000E+02  0.51100000000E-03 0.  1.
         23    2    1    2    0    0 -0.17763568394E-14  0.00000000000E+00 -0.71054273576E-14  0.91188000000E+02  0.91188000000E+02 0.  0.
    9900012    2    3    3    0    0  0.94662519895E+01  0.10581446679E+02  0.38099721066E+02  0.50528859751E+02  0.29999999698E+02 0.  0.
        -12    1    3    3    0    0 -0.94662519895E+01 -0.10581446679E+02 -0.38099721066E+02  0.40659140249E+02  0.00000000000E+00 0.  1.
         11    1    4    4    0    0  0.64923406243E+01 -0.34255213066E+01  0.95656109135E+01  0.12057594927E+02  0.51100000000E-03 0. -1.
        -11    1    4    4    0    0 -0.35633207467E+01  0.10345631185E+02  0.22908397848E+01  0.11179324064E+02  0.51100000000E-03 0.  1.
        -12    1    4    4    0    0  0.65372321119E+01  0.36613368007E+01  0.26243270367E+02  0.27291940760E+02  0.00000000000E+00 0.  1.
</event>
<event>
 8    1  0.6016610E-012  0.9118800E+02  0.7816164E-02  0.1184000E+00
        -11   -1    0    0    0    0  0.00000000000E+00  0.00000000000E+00  0.45593999997E+02  0.45594000000E+02  0.51100000000E-03 0. -1.
         11   -1    0    0    0    0 -0.00000000000E+00 -0.00000000000E+00 -0.45593999997E+02  0.45594000000E+02  0.51100000000E-03 0.  1.
         23    2    1    2    0    0  0.00000000000E+00  0.00000000000E+00  0.71054273576E-14  0.91188000000E+02  0.91188000000E+02 0.  0.
    9900012    2    3    3    0    0 -0.21674907708E+02  0.74172326580E+01 -0.33590924669E+02  0.50528841320E+02  0.29999943677E+02 0.  0.
         12    1    3    3    0    0  0.21674907708E+02 -0.74172326580E+01  0.33590924669E+02  0.40659158680E+02  0.00000000000E+00 0. -1.
         11    1    4    4    0    0 -0.47882273972E+01  0.11955080845E+02 -0.17122868854E+02  0.21425305545E+02  0.51100000000E-03 0. -1.
        -11    1    4    4    0    0 -0.10855701748E+02 -0.43550949776E+01 -0.14134079456E+00  0.11697567704E+02  0.51100000000E-03 0.  1.
        -12    1    4    4    0    0 -0.60309785628E+01 -0.18275320992E+00 -0.16326715020E+02  0.17405968071E+02  0.00000000000E+00 0.  1.
</event>
<event>
 8    1  0.6016610E-012  0.9118800E+02  0.7816164E-02  0.1184000E+00
        -11   -1    0    0    0    0  0.00000000000E+00  0.00000000000E+00  0.45593999997E+02  0.45594000000E+02  0.51100000000E-03 0. -1.
         11   -1    0    0    0    0 -0.00000000000E+00 -0.00000000000E+00 -0.45593999997E+02  0.45594000000E+02  0.51100000000E-03 0.  1.
         23    2    1    2    0    0  0.00000000000E+00  0.88817841970E-15  0.00000000000E+00  0.91188000000E+02  0.91188000000E+02 0.  0.
    9900012    2    3    3    0    0  0.32056442161E+02  0.74538425892E+01 -0.23874465604E+02  0.50528863742E+02  0.30000011830E+02 0.  0.
         12    1    3    3    0    0 -0.32056442161E+02 -0.74538425892E+01  0.23874465604E+02  0.40659136258E+02  0.00000000000E+00 0. -1.
         11    1    4    4    0    0  0.11529802641E+02  0.66980622256E+01 -0.18612023644E+02  0.22895584965E+02  0.51100000000E-03 0. -1.
        -11    1    4    4    0    0  0.19838596338E+02 -0.55917126963E+01 -0.28483717162E+01  0.20807459653E+02  0.51100000000E-03 0.  1.
         12    1    4    4    0    0  0.68804318271E+00  0.63474930598E+01 -0.24140702435E+01  0.68258191235E+01  0.00000000000E+00 0. -1.
</event>
<event>
 8    1  0.6016610E-012  0.9118800E+02  0.7816164E-02  0.1184000E+00
        -11   -1    0    0    0    0  0.00000000000E+00  0.00000000000E+00  0.45593999997E+02  0.45594000000E+02  0.51100000000E-03 0. -1.
         11   -1    0    0    0    0 -0.00000000000E+00 -0.00000000000E+00 -0.45593999997E+02  0.45594000000E+02  0.51100000000E-03 0.  1.
         23    2    1    2    0    0  0.00000000000E+00  0.00000000000E+00  0.00000000000E+00  0.91188000000E+02  0.91188000000E+02 0.  0.
    9900012    2    3    3    0    0  0.90360521760E+01 -0.32261834095E+02  0.23036708447E+02  0.50528854483E+02  0.29999983685E+02 0.  0.
        -12    1    3    3    0    0 -0.90360521760E+01  0.32261834095E+02 -0.23036708447E+02  0.40659145517E+02  0.00000000000E+00 0.  1.
         11    1    4    4    0    0  0.12903038678E+02 -0.14904545050E+02  0.18516194747E+02  0.27045948651E+02  0.51100000000E-03 0. -1.
        -11    1    4    4    0    0 -0.70948775501E+01 -0.23873547304E+01  0.31031266066E+01  0.81034650031E+01  0.51100000000E-03 0.  1.
         12    1    4    4    0    0  0.32278910484E+01 -0.14969934315E+02  0.14173870932E+01  0.15379440828E+02  0.00000000000E+00 0. -1.
</event>
<event>
 8    1  0.6016610E-012  0.9118800E+02  0.7816164E-02  0.1184000E+00
        -11   -1    0    0    0    0  0.00000000000E+00  0.00000000000E+00  0.45593999997E+02  0.45594000000E+02  0.51100000000E-03 0. -1.
         11   -1    0    0    0    0 -0.00000000000E+00 -0.00000000000E+00 -0.45593999997E+02  0.45594000000E+02  0.51100000000E-03 0.  1.
         23    2    1    2    0    0  0.17763568394E-14  0.17763568394E-14  0.00000000000E+00  0.91188000000E+02  0.91188000000E+02 0.  0.
    9900012    2    3    3    0    0 -0.15226341171E+02 -0.14976095521E+02 -0.34598272241E+02  0.50528863947E+02  0.30000012454E+02 0.  0.
         12    1    3    3    0    0  0.15226341171E+02  0.14976095521E+02  0.34598272241E+02  0.40659136053E+02  0.00000000000E+00 0. -1.
         11    1    4    4    0    0 -0.70059393197E+01 -0.15559220743E+02 -0.27498416569E+02  0.32362562475E+02  0.51100000000E-03 0. -1.
        -11    1    4    4    0    0 -0.76299145479E+01  0.67476679008E+01 -0.61577536860E+01  0.11902291747E+02  0.51100000000E-03 0.  1.
         12    1    4    4    0    0 -0.59048730340E+00 -0.61645426784E+01 -0.94210198611E+00  0.62640097256E+01  0.00000000000E+00 0. -1.
</event>
<event>
 8    1  0.6016610E-012  0.9118800E+02  0.7816164E-02  0.1184000E+00
        -11   -1    0    0    0    0  0.00000000000E+00  0.00000000000E+00  0.45593999997E+02  0.45594000000E+02  0.51100000000E-03 0. -1.
         11   -1    0    0    0    0 -0.00000000000E+00 -0.00000000000E+00 -0.45593999997E+02  0.45594000000E+02  0.51100000000E-03 0.  1.
         23    2    1    2    0    0  0.00000000000E+00 -0.35527136788E-14  0.00000000000E+00  0.91188000000E+02  0.91188000000E+02 0.  0.
    9900012    2    3    3    0    0 -0.22781015225E+02  0.25926026368E+02 -0.21494911363E+02  0.50528871721E+02  0.30000036083E+02 0.  0.
         12    1    3    3    0    0  0.22781015225E+02 -0.25926026368E+02  0.21494911363E+02  0.40659128279E+02  0.00000000000E+00 0. -1.
         11    1    4    4    0    0 -0.66205906509E+01  0.27648636881E+01  0.72714792150E+01  0.10215238716E+02  0.51100000000E-03 0. -1.
        -11    1    4    4    0    0 -0.12782495098E+02  0.18116864772E+02 -0.22541548192E+02  0.31618576269E+02  0.51100000000E-03 0.  1.
         12    1    4    4    0    0 -0.33779294754E+01  0.50442979086E+01 -0.62248423853E+01  0.86950567366E+01  0.00000000000E+00 0. -1.
</event>
<event>
 8    1  0.6016610E-012  0.9118800E+02  0.7816164E-02  0.1184000E+00
        -11   -1    0    0    0    0  0.00000000000E+00  0.00000000000E+00  0.45593999997E+02  0.45594000000E+02  0.51100000000E-03 0. -1.
         11   -1    0    0    0    0 -0.00000000000E+00 -0.00000000000E+00 -0.45593999997E+02  0.45594000000E+02  0.51100000000E-03 0.  1.
         23    2    1    2    0    0 -0.38857805862E-15 -0.88817841970E-15 -0.71054273576E-14  0.91188000000E+02  0.91188000000E+02 0.  0.
    9900012    2    3    3    0    0 -0.47384452228E+00 -0.73833539179E+01  0.39980343680E+02  0.50528851897E+02  0.29999975825E+02 0.  0.
        -12    1    3    3    0    0  0.47384452228E+00  0.73833539179E+01 -0.39980343680E+02  0.40659148103E+02  0.00000000000E+00 0.  1.
         11    1    4    4    0    0  0.28762661237E+01 -0.41511320590E+01  0.23320702383E+02  0.23861264930E+02  0.51100000000E-03 0. -1.
        -11    1    4    4    0    0  0.69958559241E+01 -0.43134846398E-01  0.24012855840E+00  0.70001087642E+01  0.51100000000E-03 0.  1.
         12    1    4    4    0    0 -0.10345966570E+02 -0.31890870124E+01  0.16419512739E+02  0.19667478202E+02  0.00000000000E+00 0. -1.
</event>
<event>
 8    1  0.6016610E-012  0.9118800E+02  0.7816164E-02  0.1184000E+00
        -11   -1    0    0    0    0  0.00000000000E+00  0.00000000000E+00  0.45593999997E+02  0.45594000000E+02  0.51100000000E-03 0. -1.
         11   -1    0    0    0    0 -0.00000000000E+00 -0.00000000000E+00 -0.45593999997E+02  0.45594000000E+02  0.51100000000E-03 0.  1.
         23    2    1    2    0    0  0.35527136788E-14  0.35527136788E-14 -0.35527136788E-14  0.91188000000E+02  0.91188000000E+02 0.  0.
    9900012    2    3    3    0    0 -0.19298375245E+02 -0.20277105301E+02  0.29488517848E+02  0.50528917726E+02  0.30000175920E+02 0.  0.
        -12    1    3    3    0    0  0.19298375245E+02  0.20277105301E+02 -0.29488517848E+02  0.40659082274E+02  0.00000000000E+00 0.  1.
         11    1    4    4    0    0 -0.10187059769E+02 -0.12122700118E+02  0.62512029483E+01  0.17023912108E+02  0.51100000000E-03 0. -1.
        -11    1    4    4    0    0 -0.94667367503E+01 -0.46470041786E+00  0.23966507776E+02  0.25772631733E+02  0.51100000000E-03 0.  1.
        -12    1    4    4    0    0  0.35542127431E+00 -0.76897047652E+01 -0.72919287662E+00  0.77323738858E+01  0.00000000000E+00 0.  1.
</event>
<event>
 8    1  0.6016610E-012  0.9118800E+02  0.7816164E-02  0.1184000E+00
        -11   -1    0    0    0    0  0.00000000000E+00  0.00000000000E+00  0.45593999997E+02  0.45594000000E+02  0.51100000000E-03 0. -1.
         11   -1    0    0    0    0 -0.00000000000E+00 -0.00000000000E+00 -0.45593999997E+02  0.45594000000E+02  0.51100000000E-03 0.  1.
         23    2    1    2    0    0  0.00000000000E+00  0.00000000000E+00 -0.71054273576E-14  0.91188000000E+02  0.91188000000E+02 0.  0.
    9900012    2    3    3    0    0  0.40404092108E+01  0.19716663016E+02 -0.35328372802E+02  0.50528860414E+02  0.30000001714E+02 0.  0.
         12    1    3    3    0    0 -0.40404092108E+01 -0.19716663016E+02  0.35328372802E+02  0.40659139586E+02  0.00000000000E+00 0. -1.
         11    1    4    4    0    0  0.21921955604E+01  0.46991981173E+01  0.18916535114E+01  0.55196501329E+01  0.51100000000E-03 0. -1.
        -11    1    4    4    0    0 -0.45780426282E+00 -0.30623849257E+01 -0.18953832738E+02  0.19205092082E+02  0.51100000000E-03 0.  1.
        -12    1    4    4    0    0  0.23060179132E+01  0.18079849824E+02 -0.18266193575E+02  0.25804118199E+02  0.00000000000E+00 0.  1.
</event>
<event>
 8    1  0.6016610E-012  0.9118800E+02  0.7816164E-02  0.1184000E+00
        -11   -1    0    0    0    0  0.00000000000E+00  0.00000000000E+00  0.45593999997E+02  0.45594000000E+02  0.51100000000E-03 0. -1.
         11   -1    0    0    0    0 -0.00000000000E+00 -0.00000000000E+00 -0.45593999997E+02  0.45594000000E+02  0.51100000000E-03 0.  1.
         23    2    1    2    0    0  0.44408920985E-15 -0.35527136788E-14  0.00000000000E+00  0.91188000000E+02  0.91188000000E+02 0.  0.
    9900012    2    3    3    0    0 -0.23005726651E+01  0.23008993609E+02 -0.33443374515E+02  0.50528859325E+02  0.29999998404E+02 0.  0.
         12    1    3    3    0    0  0.23005726651E+01 -0.23008993609E+02  0.33443374515E+02  0.40659140675E+02  0.00000000000E+00 0. -1.
         11    1    4    4    0    0 -0.22408229586E+01  0.17337029288E+02 -0.99759990923E+01  0.20127454639E+02  0.51100000000E-03 0. -1.
        -11    1    4    4    0    0 -0.76358171030E-01 -0.64410035168E+01 -0.43608726371E+01  0.77787895776E+01  0.51100000000E-03 0.  1.
        -12    1    4    4    0    0  0.16608464609E-01  0.12112967838E+02 -0.19106502785E+02  0.22622615109E+02  0.00000000000E+00 0.  1.
</event>
<event>
 8    1  0.6016610E-012  0.9118800E+02  0.7816164E-02  0.1184000E+00
        -11   -1    0    0    0    0  0.00000000000E+00  0.00000000000E+00  0.45593999997E+02  0.45594000000E+02  0.51100000000E-03 0. -1.
         11   -1    0    0    0    0 -0.00000000000E+00 -0.00000000000E+00 -0.45593999997E+02  0.45594000000E+02  0.51100000000E-03 0.  1.
         23    2    1    2    0    0  0.35527136788E-14  0.35527136788E-14  0.00000000000E+00  0.91188000000E+02  0.91188000000E+02 0.  0.
    9900012    2    3    3    0    0  0.18391889994E+02  0.19656129750E+02 -0.30471969504E+02  0.50528856137E+02  0.29999988713E+02 0.  0.
         12    1    3    3    0    0 -0.18391889994E+02 -0.19656129750E+02  0.30471969504E+02  0.40659143863E+02  0.00000000000E+00 0. -1.
         11    1    4    4    0    0  0.22164013844E+01  0.15953731388E+02 -0.39234998426E+01  0.16577932065E+02  0.51100000000E-03 0. -1.
        -11    1    4    4    0    0  0.90152831880E+01  0.37410832524E+01 -0.24695928839E+02  0.26554847700E+02  0.51100000000E-03 0.  1.
        -12    1    4    4    0    0  0.71602054214E+01 -0.38684890696E-01 -0.18525408219E+01  0.73960763716E+01  0.00000000000E+00 0.  1.
</event>
<event>
 8    1  0.1015928E-011  0.9118800E+02  0.7816164E-02  0.1184000E+00
        -11   -1    0    0    0    0  0.00000000000E+00  0.00000000000E+00  0.45593999997E+02  0.45594000000E+02  0.51100000000E-03 0. -1.
         11   -1    0    0    0    0 -0.00000000000E+00 -0.00000000000E+00 -0.45593999997E+02  0.45594000000E+02  0.51100000000E-03 0.  1.
         23    2    1    2    0    0 -0.35527136788E-14  0.00000000000E+00  0.00000000000E+00  0.91188000000E+02  0.91188000000E+02 0.  0.
    9900012    2    3    3    0    0  0.18325194294E+02 -0.18961963454E+02  0.30948286935E+02  0.50528864887E+02  0.30000015309E+02 0.  0.
        -12    1    3    3    0    0 -0.18325194294E+02  0.18961963454E+02 -0.30948286935E+02  0.40659135113E+02  0.00000000000E+00 0.  1.
         11    1    4    4    0    0  0.11241071866E+02 -0.16300143088E+02  0.15042193857E+02  0.24866120680E+02  0.51100000000E-03 0. -1.
        -11    1    4    4    0    0 -0.51744646383E+01  0.18669179662E+01  0.97997221617E+01  0.11238105788E+02  0.51100000000E-03 0.  1.
        -12    1    4    4    0    0  0.12258587066E+02 -0.45287383325E+01  0.61063709164E+01  0.14424638419E+02  0.00000000000E+00 0.  1.
</event>
<event>
 8    1  0.6016610E-012  0.9118800E+02  0.7816164E-02  0.1184000E+00
        -11   -1    0    0    0    0  0.00000000000E+00  0.00000000000E+00  0.45593999997E+02  0.45594000000E+02  0.51100000000E-03 0. -1.
         11   -1    0    0    0    0 -0.00000000000E+00 -0.00000000000E+00 -0.45593999997E+02  0.45594000000E+02  0.51100000000E-03 0.  1.
         23    2    1    2    0    0  0.00000000000E+00 -0.35527136788E-14  0.35527136788E-14  0.91188000000E+02  0.91188000000E+02 0.  0.
    9900012    2    3    3    0    0  0.19177853935E+02  0.25129419243E+02 -0.25571236386E+02  0.50528856829E+02  0.29999990818E+02 0.  0.
         12    1    3    3    0    0 -0.19177853935E+02 -0.25129419243E+02  0.25571236386E+02  0.40659143171E+02  0.00000000000E+00 0. -1.
         11    1    4    4    0    0  0.12902568124E+01  0.17321011000E+02 -0.12343421959E+02  0.21308267190E+02  0.51100000000E-03 0. -1.
        -11    1    4    4    0    0  0.10488226491E+02 -0.64440773858E+00  0.15880166880E+01  0.10627321089E+02  0.51100000000E-03 0.  1.
        -12    1    4    4    0    0  0.73993706315E+01  0.84528159813E+01 -0.14815831115E+02  0.18593268551E+02  0.00000000000E+00 0.  1.
</event>
<event>
 8    1  0.6016610E-012  0.9118800E+02  0.7816164E-02  0.1184000E+00
        -11   -1    0    0    0    0  0.00000000000E+00  0.00000000000E+00  0.45593999997E+02  0.45594000000E+02  0.51100000000E-03 0. -1.
         11   -1    0    0    0    0 -0.00000000000E+00 -0.00000000000E+00 -0.45593999997E+02  0.45594000000E+02  0.51100000000E-03 0.  1.
         23    2    1    2    0    0  0.00000000000E+00 -0.17763568394E-14  0.00000000000E+00  0.91188000000E+02  0.91188000000E+02 0.  0.
    9900012    2    3    3    0    0  0.35194802233E+02 -0.13560275850E+02 -0.15185880645E+02  0.50528853965E+02  0.29999982113E+02 0.  0.
         12    1    3    3    0    0 -0.35194802233E+02  0.13560275850E+02  0.15185880645E+02  0.40659146035E+02  0.00000000000E+00 0. -1.
         11    1    4    4    0    0  0.27801796215E+01  0.55225132261E+01  0.19639660092E+01  0.64872732182E+01  0.51100000000E-03 0. -1.
        -11    1    4    4    0    0  0.73660999130E+01 -0.77734659967E+00 -0.95753985426E+01  0.12105864413E+02  0.51100000000E-03 0.  1.
         12    1    4    4    0    0  0.25048522698E+02 -0.18305442476E+02 -0.75744481114E+01  0.31935716335E+02  0.00000000000E+00 0. -1.
</event>
<event>
 8    1  0.6016610E-012  0.9118800E+02  0.7816164E-02  0.1184000E+00
        -11   -1    0    0    0    0  0.00000000000E+00  0.00000000000E+00  0.45593999997E+02  0.45594000000E+02  0.51100000000E-03 0. -1.
         11   -1    0    0    0    0 -0.00000000000E+00 -0.00000000000E+00 -0.45593999997E+02  0.45594000000E+02  0.51100000000E-03 0.  1.
         23    2    1    2    0    0 -0.17763568394E-14 -0.35527136788E-14  0.71054273576E-14  0.91188000000E+02  0.91188000000E+02 0.  0.
    9900012    2    3    3    0    0 -0.12741457376E+02 -0.30527276700E+02  0.23641201915E+02  0.50528858509E+02  0.29999995924E+02 0.  0.
        -12    1    3    3    0    0  0.12741457376E+02  0.30527276700E+02 -0.23641201915E+02  0.40659141491E+02  0.00000000000E+00 0.  1.
         11    1    4    4    0    0 -0.17299411715E+02 -0.18395499458E+02  0.23199700163E+02  0.34291254482E+02  0.51100000000E-03 0. -1.
        -11    1    4    4    0    0  0.76222588484E+01 -0.83713850088E+01  0.94357237445E+00  0.11360864668E+02  0.51100000000E-03 0.  1.
        -12    1    4    4    0    0 -0.30643045089E+01 -0.37603922332E+01 -0.50207062225E+00  0.48767393595E+01  0.00000000000E+00 0.  1.
</event>
<event>
 8    1  0.6016610E-012  0.9118800E+02  0.7816164E-02  0.1184000E+00
        -11   -1    0    0    0    0  0.00000000000E+00  0.00000000000E+00  0.45593999997E+02  0.45594000000E+02  0.51100000000E-03 0. -1.
         11   -1    0    0    0    0 -0.00000000000E+00 -0.00000000000E+00 -0.45593999997E+02  0.45594000000E+02  0.51100000000E-03 0.  1.
         23    2    1    2    0    0  0.00000000000E+00  0.00000000000E+00  0.00000000000E+00  0.91188000000E+02  0.91188000000E+02 0.  0.
    9900012    2    3    3    0    0 -0.15904577948E+02 -0.20259925453E+02 -0.31460227089E+02  0.50528855056E+02  0.29999985429E+02 0.  0.
         12    1    3    3    0    0  0.15904577948E+02  0.20259925453E+02  0.31460227089E+02  0.40659144944E+02  0.00000000000E+00 0. -1.
         11    1    4    4    0    0 -0.72367863838E+00  0.27532367156E+01 -0.14376997874E+02  0.14656128115E+02  0.51100000000E-03 0. -1.
        -11    1    4    4    0    0 -0.13014624622E+02 -0.25255046004E+02 -0.15055403996E+02  0.32153739946E+02  0.51100000000E-03 0.  1.
        -12    1    4    4    0    0 -0.21662746880E+01  0.22418838362E+01 -0.20278252186E+01  0.37189869959E+01  0.00000000000E+00 0.  1.
</event>
<event>
 8    1  0.6016610E-012  0.9118800E+02  0.7816164E-02  0.1184000E+00
        -11   -1    0    0    0    0  0.00000000000E+00  0.00000000000E+00  0.45593999997E+02  0.45594000000E+02  0.51100000000E-03 0. -1.
         11   -1    0    0    0    0 -0.00000000000E+00 -0.00000000000E+00 -0.45593999997E+02  0.45594000000E+02  0.51100000000E-03 0.  1.
         23    2    1    2    0    0 -0.17763568394E-14  0.00000000000E+00  0.00000000000E+00  0.91188000000E+02  0.91188000000E+02 0.  0.
    9900012    2    3    3    0    0  0.14036134966E+02  0.49971665628E+01  0.37830948291E+02  0.50528863179E+02  0.30000010120E+02 0.  0.
        -12    1    3    3    0    0 -0.14036134966E+02 -0.49971665628E+01 -0.37830948291E+02  0.40659136821E+02  0.00000000000E+00 0.  1.
         11    1    4    4    0    0 -0.64872826949E+01 -0.12790510573E+01  0.44970679649E+01  0.79965260527E+01  0.51100000000E-03 0.  1.
        -11    1    4    4    0    0  0.18100774461E+02 -0.14509213342E+01  0.25137239267E+02  0.31010062996E+02  0.51100000000E-03 0. -1.
        -12    1    4    4    0    0  0.24226431994E+01  0.77271389542E+01  0.81966410592E+01  0.11522274131E+02  0.00000000000E+00 0.  1.
</event>
<event>
 8    1  0.6016610E-012  0.9118800E+02  0.7816164E-02  0.1184000E+00
        -11   -1    0    0    0    0  0.00000000000E+00  0.00000000000E+00  0.45593999997E+02  0.45594000000E+02  0.51100000000E-03 0. -1.
         11   -1    0    0    0    0 -0.00000000000E+00 -0.00000000000E+00 -0.45593999997E+02  0.45594000000E+02  0.51100000000E-03 0.  1.
         23    2    1    2    0    0 -0.35527136788E-14 -0.17763568394E-14  0.00000000000E+00  0.91188000000E+02  0.91188000000E+02 0.  0.
    9900012    2    3    3    0    0  0.18755299927E+02  0.86987938355E+01  0.35010507831E+02  0.50528856525E+02  0.29999989894E+02 0.  0.
        -12    1    3    3    0    0 -0.18755299927E+02 -0.86987938355E+01 -0.35010507831E+02  0.40659143475E+02  0.00000000000E+00 0.  1.
         11    1    4    4    0    0  0.56129379892E+00  0.16526826820E+02  0.17402791222E+02  0.24006419934E+02  0.51100000000E-03 0. -1.
        -11    1    4    4    0    0  0.74562022241E+01 -0.37444683391E+01  0.76289857307E+01  0.11305636572E+02  0.51100000000E-03 0.  1.
         12    1    4    4    0    0  0.10737803904E+02 -0.40835646454E+01  0.99787308775E+01  0.15216800019E+02  0.00000000000E+00 0. -1.
</event>
<event>
 8    1  0.6016610E-012  0.9118800E+02  0.7816164E-02  0.1184000E+00
        -11   -1    0    0    0    0  0.00000000000E+00  0.00000000000E+00  0.45593999997E+02  0.45594000000E+02  0.51100000000E-03 0. -1.
         11   -1    0    0    0    0 -0.00000000000E+00 -0.00000000000E+00 -0.45593999997E+02  0.45594000000E+02  0.51100000000E-03 0.  1.
         23    2    1    2    0    0 -0.17763568394E-14  0.00000000000E+00 -0.71054273576E-14  0.91188000000E+02  0.91188000000E+02 0.  0.
    9900012    2    3    3    0    0  0.10964145494E+02  0.86070361195E+01  0.38195187049E+02  0.50528857475E+02  0.29999992780E+02 0.  0.
        -12    1    3    3    0    0 -0.10964145494E+02 -0.86070361195E+01 -0.38195187049E+02  0.40659142525E+02  0.00000000000E+00 0.  1.
         11    1    4    4    0    0  0.39022609977E+01 -0.36420603946E+01  0.19375524984E+02  0.20097343443E+02  0.51100000000E-03 0. -1.
        -11    1    4    4    0    0  0.72023248003E+01  0.10484923379E+02  0.12596641175E+01  0.12782560571E+02  0.51100000000E-03 0.  1.
         12    1    4    4    0    0 -0.14044030366E+00  0.17641731349E+01  0.17559997948E+02  0.17648953461E+02  0.00000000000E+00 0. -1.
</event>
<event>
 8    1  0.6016610E-012  0.9118800E+02  0.7816164E-02  0.1184000E+00
        -11   -1    0    0    0    0  0.00000000000E+00  0.00000000000E+00  0.45593999997E+02  0.45594000000E+02  0.51100000000E-03 0. -1.
         11   -1    0    0    0    0 -0.00000000000E+00 -0.00000000000E+00 -0.45593999997E+02  0.45594000000E+02  0.51100000000E-03 0.  1.
         23    2    1    2    0    0  0.00000000000E+00  0.00000000000E+00  0.00000000000E+00  0.91188000000E+02  0.91188000000E+02 0.  0.
    9900012    2    3    3    0    0 -0.36923465881E+02  0.50333815468E+01  0.16263079467E+02  0.50528867985E+02  0.30000024726E+02 0.  0.
        -12    1    3    3    0    0  0.36923465881E+02 -0.50333815468E+01 -0.16263079467E+02  0.40659132015E+02  0.00000000000E+00 0.  1.
         11    1    4    4    0    0 -0.31578373646E+02  0.79491247419E+01  0.33971571336E+01  0.32740234317E+02  0.51100000000E-03 0. -1.
        -11    1    4    4    0    0 -0.58418789484E+01 -0.14484094066E+01  0.14400745533E+02  0.15607911828E+02  0.51100000000E-03 0.  1.
        -12    1    4    4    0    0  0.49678671281E+00 -0.14673337885E+01 -0.15348232002E+01  0.21807218394E+01  0.00000000000E+00 0.  1.
</event>
<event>
 8    1  0.6016610E-012  0.9118800E+02  0.7816164E-02  0.1184000E+00
        -11   -1    0    0    0    0  0.00000000000E+00  0.00000000000E+00  0.45593999997E+02  0.45594000000E+02  0.51100000000E-03 0. -1.
         11   -1    0    0    0    0 -0.00000000000E+00 -0.00000000000E+00 -0.45593999997E+02  0.45594000000E+02  0.51100000000E-03 0.  1.
         23    2    1    2    0    0  0.00000000000E+00  0.00000000000E+00  0.00000000000E+00  0.91188000000E+02  0.91188000000E+02 0.  0.
    9900012    2    3    3    0    0 -0.10528394696E+02 -0.23220805743E+01 -0.39203603700E+02  0.50528908813E+02  0.30000148828E+02 0.  0.
         12    1    3    3    0    0  0.10528394696E+02  0.23220805743E+01  0.39203603700E+02  0.40659091187E+02  0.00000000000E+00 0. -1.
         11    1    4    4    0    0  0.62178967615E+01  0.55128116433E+01 -0.26104522583E+01  0.87102120299E+01  0.51100000000E-03 0. -1.
        -11    1    4    4    0    0 -0.16170730660E+01  0.14564992231E+01 -0.20996372186E+01  0.30240357138E+01  0.51100000000E-03 0.  1.
         12    1    4    4    0    0 -0.15129218392E+02 -0.92913914407E+01 -0.34493514223E+02  0.38794661070E+02  0.00000000000E+00 0. -1.
</event>
<event>
 8    1  0.6016610E-012  0.9118800E+02  0.7816164E-02  0.1184000E+00
        -11   -1    0    0    0    0  0.00000000000E+00  0.00000000000E+00  0.45593999997E+02  0.45594000000E+02  0.51100000000E-03 0. -1.
         11   -1    0    0    0    0 -0.00000000000E+00 -0.00000000000E+00 -0.45593999997E+02  0.45594000000E+02  0.51100000000E-03 0.  1.
         23    2    1    2    0    0  0.00000000000E+00  0.00000000000E+00  0.35527136788E-14  0.91188000000E+02  0.91188000000E+02 0.  0.
    9900012    2    3    3    0    0 -0.72886030702E+01 -0.26543317538E+02  0.29924819132E+02  0.50528852926E+02  0.29999978954E+02 0.  0.
        -12    1    3    3    0    0  0.72886030702E+01  0.26543317538E+02 -0.29924819132E+02  0.40659147074E+02  0.00000000000E+00 0.  1.
         11    1    4    4    0    0 -0.72276803619E+01 -0.71629879772E+01  0.52012672047E+00  0.10189126177E+02  0.51100000000E-03 0. -1.
        -11    1    4    4    0    0  0.64823937988E+01 -0.23843056366E+01  0.16874897365E+02  0.18233718877E+02  0.51100000000E-03 0.  1.
         12    1    4    4    0    0 -0.65433165071E+01 -0.16996023925E+02  0.12529795047E+02  0.22106007873E+02  0.00000000000E+00 0. -1.
</event>
<event>
 8    1  0.6016610E-012  0.9118800E+02  0.7816164E-02  0.1184000E+00
        -11   -1    0    0    0    0  0.00000000000E+00  0.00000000000E+00  0.45593999997E+02  0.45594000000E+02  0.51100000000E-03 0. -1.
         11   -1    0    0    0    0 -0.00000000000E+00 -0.00000000000E+00 -0.45593999997E+02  0.45594000000E+02  0.51100000000E-03 0.  1.
         23    2    1    2    0    0  0.22204460493E-15  0.17763568394E-14  0.71054273576E-14  0.91188000000E+02  0.91188000000E+02 0.  0.
    9900012    2    3    3    0    0  0.18410566348E+01  0.12509461668E+02  0.38643100707E+02  0.50528863843E+02  0.30000012138E+02 0.  0.
        -12    1    3    3    0    0 -0.18410566348E+01 -0.12509461668E+02 -0.38643100707E+02  0.40659136157E+02  0.00000000000E+00 0.  1.
         11    1    4    4    0    0 -0.31760071038E+01  0.31839975353E+01  0.37703733817E+02  0.37970994265E+02  0.51100000000E-03 0. -1.
        -11    1    4    4    0    0  0.38319226134E+01  0.31555653856E+01  0.31712703116E+01  0.58905160612E+01  0.51100000000E-03 0.  1.
         12    1    4    4    0    0  0.11851411252E+01  0.61698987476E+01 -0.22319034220E+01  0.66673535175E+01  0.00000000000E+00 0. -1.
</event>
<event>
 8    1  0.6016610E-012  0.9118800E+02  0.7816164E-02  0.1184000E+00
        -11   -1    0    0    0    0  0.00000000000E+00  0.00000000000E+00  0.45593999997E+02  0.45594000000E+02  0.51100000000E-03 0. -1.
         11   -1    0    0    0    0 -0.00000000000E+00 -0.00000000000E+00 -0.45593999997E+02  0.45594000000E+02  0.51100000000E-03 0.  1.
         23    2    1    2    0    0  0.17763568394E-14 -0.35527136788E-14  0.00000000000E+00  0.91188000000E+02  0.91188000000E+02 0.  0.
    9900012    2    3    3    0    0  0.94748371834E+01  0.14523412400E+02  0.36775864888E+02  0.50528852374E+02  0.29999977276E+02 0.  0.
        -12    1    3    3    0    0 -0.94748371834E+01 -0.14523412400E+02 -0.36775864888E+02  0.40659147626E+02  0.00000000000E+00 0.  1.
         11    1    4    4    0    0  0.47613847714E+01  0.16084954091E+02  0.35911274637E+02  0.39636046465E+02  0.51100000000E-03 0. -1.
        -11    1    4    4    0    0 -0.74875461195E+00  0.22036639589E+01 -0.25324274622E+01  0.34394705152E+01  0.51100000000E-03 0.  1.
        -12    1    4    4    0    0  0.54622070239E+01 -0.37652056493E+01  0.33970177132E+01  0.74533353942E+01  0.00000000000E+00 0.  1.
</event>
<event>
 8    1  0.6016610E-012  0.9118800E+02  0.7816164E-02  0.1184000E+00
        -11   -1    0    0    0    0  0.00000000000E+00  0.00000000000E+00  0.45593999997E+02  0.45594000000E+02  0.51100000000E-03 0. -1.
         11   -1    0    0    0    0 -0.00000000000E+00 -0.00000000000E+00 -0.45593999997E+02  0.45594000000E+02  0.51100000000E-03 0.  1.
         23    2    1    2    0    0  0.00000000000E+00  0.00000000000E+00  0.00000000000E+00  0.91188000000E+02  0.91188000000E+02 0.  0.
    9900012    2    3    3    0    0  0.28160673059E+02 -0.20520156923E+02 -0.20953857865E+02  0.50528874251E+02  0.30000043773E+02 0.  0.
         12    1    3    3    0    0 -0.28160673059E+02  0.20520156923E+02  0.20953857865E+02  0.40659125749E+02  0.00000000000E+00 0. -1.
         11    1    4    4    0    0  0.45177838579E+01  0.57313905576E+01  0.20871602106E+01  0.75904839580E+01  0.51100000000E-03 0. -1.
        -11    1    4    4    0    0  0.87361704811E+01 -0.15004704070E+02 -0.88739376853E+01  0.19498938156E+02  0.51100000000E-03 0.  1.
         12    1    4    4    0    0  0.14906718720E+02 -0.11246843410E+02 -0.14167080390E+02  0.23439452137E+02  0.00000000000E+00 0. -1.
</event>
<event>
 8    1  0.6016610E-012  0.9118800E+02  0.7816164E-02  0.1184000E+00
        -11   -1    0    0    0    0  0.00000000000E+00  0.00000000000E+00  0.45593999997E+02  0.45594000000E+02  0.51100000000E-03 0. -1.
         11   -1    0    0    0    0 -0.00000000000E+00 -0.00000000000E+00 -0.45593999997E+02  0.45594000000E+02  0.51100000000E-03 0.  1.
         23    2    1    2    0    0  0.00000000000E+00  0.00000000000E+00  0.00000000000E+00  0.91188000000E+02  0.91188000000E+02 0.  0.
    9900012    2    3    3    0    0 -0.15166681300E+02  0.11961807960E+02  0.35777834683E+02  0.50528849420E+02  0.29999968297E+02 0.  0.
        -12    1    3    3    0    0  0.15166681300E+02 -0.11961807960E+02 -0.35777834683E+02  0.40659150580E+02  0.00000000000E+00 0.  1.
         11    1    4    4    0    0 -0.78654585506E+01  0.12626598339E+02  0.30929159980E+02  0.34320684159E+02  0.51100000000E-03 0. -1.
        -11    1    4    4    0    0 -0.76194802779E+01 -0.34317935613E+00 -0.31098180853E+01  0.82368210227E+01  0.51100000000E-03 0.  1.
        -12    1    4    4    0    0  0.31825752889E+00 -0.32161102248E+00  0.79584927877E+01  0.79713442377E+01  0.00000000000E+00 0.  1.
</event>
<event>
 8    1  0.6016610E-012  0.9118800E+02  0.7816164E-02  0.1184000E+00
        -11   -1    0    0    0    0  0.00000000000E+00  0.00000000000E+00  0.45593999997E+02  0.45594000000E+02  0.51100000000E-03 0. -1.
         11   -1    0    0    0    0 -0.00000000000E+00 -0.00000000000E+00 -0.45593999997E+02  0.45594000000E+02  0.51100000000E-03 0.  1.
         23    2    1    2    0    0  0.00000000000E+00 -0.44408920985E-15  0.00000000000E+00  0.91188000000E+02  0.91188000000E+02 0.  0.
    9900012    2    3    3    0    0 -0.35694962192E+02  0.35929527505E+01 -0.19134409534E+02  0.50528864943E+02  0.30000015481E+02 0.  0.
         12    1    3    3    0    0  0.35694962192E+02 -0.35929527505E+01  0.19134409534E+02  0.40659135057E+02  0.00000000000E+00 0. -1.
         11    1    4    4    0    0 -0.16357344765E+02  0.18739027325E+00  0.26404552110E+01  0.16570149271E+02  0.51100000000E-03 0. -1.
        -11    1    4    4    0    0 -0.19673818934E+02  0.78065672355E+01 -0.15276579488E+02  0.26103170776E+02  0.51100000000E-03 0.  1.
         12    1    4    4    0    0  0.33620150701E+00 -0.44010047583E+01 -0.64982852566E+01  0.78555448959E+01  0.00000000000E+00 0. -1.
</event>
<event>
 8    1  0.6016610E-012  0.9118800E+02  0.7816164E-02  0.1184000E+00
        -11   -1    0    0    0    0  0.00000000000E+00  0.00000000000E+00  0.45593999997E+02  0.45594000000E+02  0.51100000000E-03 0. -1.
         11   -1    0    0    0    0 -0.00000000000E+00 -0.00000000000E+00 -0.45593999997E+02  0.45594000000E+02  0.51100000000E-03 0.  1.
         23    2    1    2    0    0 -0.17763568394E-14  0.71054273576E-14 -0.35527136788E-14  0.91188000000E+02  0.91188000000E+02 0.  0.
    9900012    2    3    3    0    0 -0.52664756283E+01  0.27140555448E+02 -0.29813109367E+02  0.50528843519E+02  0.29999950361E+02 0.  0.
         12    1    3    3    0    0  0.52664756283E+01 -0.27140555448E+02  0.29813109367E+02  0.40659156481E+02  0.00000000000E+00 0. -1.
         11    1    4    4    0    0 -0.80322613970E+01  0.19829420882E+02 -0.12053419541E+02  0.24556222807E+02  0.51100000000E-03 0. -1.
        -11    1    4    4    0    0  0.98403949978E+01  0.23661508803E+01 -0.11443436352E+02  0.15276919830E+02  0.51100000000E-03 0.  1.
         12    1    4    4    0    0 -0.70746092291E+01  0.49449836864E+01 -0.63162534745E+01  0.10695700882E+02  0.00000000000E+00 0. -1.
</event>
<event>
 8    1  0.6016610E-012  0.9118800E+02  0.7816164E-02  0.1184000E+00
        -11   -1    0    0    0    0  0.00000000000E+00  0.00000000000E+00  0.45593999997E+02  0.45594000000E+02  0.51100000000E-03 0.  1.
         11   -1    0    0    0    0 -0.00000000000E+00 -0.00000000000E+00 -0.45593999997E+02  0.45594000000E+02  0.51100000000E-03 0. -1.
         23    2    1    2    0    0  0.00000000000E+00 -0.71054273576E-14 -0.88817841970E-15  0.91188000000E+02  0.91188000000E+02 0.  0.
    9900012    2    3    3    0    0 -0.18008136820E+02  0.36345733066E+02  0.28038025124E+01  0.50528848357E+02  0.29999965066E+02 0.  0.
        -12    1    3    3    0    0  0.18008136820E+02 -0.36345733066E+02 -0.28038025124E+01  0.40659151643E+02  0.00000000000E+00 0.  1.
         11    1    4    4    0    0  0.55677602227E+01  0.15038312189E+02 -0.36818194411E+01  0.16453163284E+02  0.51100000000E-03 0. -1.
        -11    1    4    4    0    0 -0.14722819979E+02  0.19469166361E+02  0.48831671253E+01  0.24892874249E+02  0.51100000000E-03 0.  1.
         12    1    4    4    0    0 -0.88530770632E+01  0.18382545148E+01  0.16024548282E+01  0.91828108237E+01  0.00000000000E+00 0. -1.
</event>
<event>
 8    1  0.6016610E-012  0.9118800E+02  0.7816164E-02  0.1184000E+00
        -11   -1    0    0    0    0  0.00000000000E+00  0.00000000000E+00  0.45593999997E+02  0.45594000000E+02  0.51100000000E-03 0. -1.
         11   -1    0    0    0    0 -0.00000000000E+00 -0.00000000000E+00 -0.45593999997E+02  0.45594000000E+02  0.51100000000E-03 0.  1.
         23    2    1    2    0    0  0.88817841970E-15  0.88817841970E-15  0.71054273576E-14  0.91188000000E+02  0.91188000000E+02 0.  0.
    9900012    2    3    3    0    0  0.41437973922E+01 -0.49749321895E+01 -0.40140317273E+02  0.50528854929E+02  0.29999985043E+02 0.  0.
         12    1    3    3    0    0 -0.41437973922E+01  0.49749321895E+01  0.40140317273E+02  0.40659145071E+02  0.00000000000E+00 0. -1.
         11    1    4    4    0    0  0.64298042536E+01  0.59631947386E+00  0.21607047230E+01  0.68093042828E+01  0.51100000000E-03 0.  1.
        -11    1    4    4    0    0  0.11764856814E+01 -0.13390069690E+01 -0.97175505353E+00  0.20301148654E+01  0.51100000000E-03 0. -1.
         12    1    4    4    0    0 -0.34624925429E+01 -0.42322446944E+01 -0.41329266942E+02  0.41689435781E+02  0.00000000000E+00 0. -1.
</event>
<event>
 8    1  0.8659782E-012  0.9118800E+02  0.7816164E-02  0.1184000E+00
        -11   -1    0    0    0    0  0.00000000000E+00  0.00000000000E+00  0.45593999997E+02  0.45594000000E+02  0.51100000000E-03 0. -1.
         11   -1    0    0    0    0 -0.00000000000E+00 -0.00000000000E+00 -0.45593999997E+02  0.45594000000E+02  0.51100000000E-03 0.  1.
         23    2    1    2    0    0 -0.88817841970E-15  0.44408920985E-15 -0.14210854715E-13  0.91188000000E+02  0.91188000000E+02 0.  0.
    9900012    2    3    3    0    0  0.63953666994E+01 -0.29771322941E+01  0.40042487555E+02  0.50528870134E+02  0.30000031258E+02 0.  0.
        -12    1    3    3    0    0 -0.63953666994E+01  0.29771322941E+01 -0.40042487555E+02  0.40659129866E+02  0.00000000000E+00 0.  1.
         11    1    4    4    0    0  0.98759329830E+01 -0.83649784883E+00  0.21618605591E+02  0.23782302010E+02  0.51100000000E-03 0. -1.
        -11    1    4    4    0    0 -0.19154569593E+00  0.84772058429E+00 -0.38943865001E+01  0.39901837571E+01  0.51100000000E-03 0.  1.
        -12    1    4    4    0    0 -0.32890205877E+01 -0.29883550296E+01  0.22318268464E+02  0.22756384366E+02  0.00000000000E+00 0.  1.
</event>
<event>
 8    1  0.6016610E-012  0.9118800E+02  0.7816164E-02  0.1184000E+00
        -11   -1    0    0    0    0  0.00000000000E+00  0.00000000000E+00  0.45593999997E+02  0.45594000000E+02  0.51100000000E-03 0. -1.
         11   -1    0    0    0    0 -0.00000000000E+00 -0.00000000000E+00 -0.45593999997E+02  0.45594000000E+02  0.51100000000E-03 0.  1.
         23    2    1    2    0    0  0.00000000000E+00 -0.88817841970E-15  0.00000000000E+00  0.91188000000E+02  0.91188000000E+02 0.  0.
    9900012    2    3    3    0    0  0.30003536530E+02  0.27434622387E+01  0.27302500203E+02  0.50528864413E+02  0.30000013868E+02 0.  0.
        -12    1    3    3    0    0 -0.30003536530E+02 -0.27434622387E+01 -0.27302500203E+02  0.40659135587E+02  0.00000000000E+00 0.  1.
         11    1    4    4    0    0  0.28938326180E+02 -0.30181293518E+01  0.24387778568E+02  0.37964451407E+02  0.51100000000E-03 0. -1.
        -11    1    4    4    0    0  0.33880401171E+01  0.10278530315E+01 -0.29999474674E+01  0.46405800023E+01  0.51100000000E-03 0.  1.
         12    1    4    4    0    0 -0.23228297669E+01  0.47337385590E+01  0.59146691030E+01  0.79238330036E+01  0.00000000000E+00 0. -1.
</event>
<event>
 8    1  0.6016610E-012  0.9118800E+02  0.7816164E-02  0.1184000E+00
        -11   -1    0    0    0    0  0.00000000000E+00  0.00000000000E+00  0.45593999997E+02  0.45594000000E+02  0.51100000000E-03 0. -1.
         11   -1    0    0    0    0 -0.00000000000E+00 -0.00000000000E+00 -0.45593999997E+02  0.45594000000E+02  0.51100000000E-03 0.  1.
         23    2    1    2    0    0  0.17763568394E-14 -0.35527136788E-14  0.35527136788E-14  0.91188000000E+02  0.91188000000E+02 0.  0.
    9900012    2    3    3    0    0  0.11539813638E+02 -0.28918379351E+02  0.26148147407E+02  0.50528861102E+02  0.30000003806E+02 0.  0.
        -12    1    3    3    0    0 -0.11539813638E+02  0.28918379351E+02 -0.26148147407E+02  0.40659138898E+02  0.00000000000E+00 0.  1.
         11    1    4    4    0    0  0.71720431895E+01  0.33463328312E+01  0.46194725105E+01  0.91638241726E+01  0.51100000000E-03 0. -1.
        -11    1    4    4    0    0 -0.20291313120E+00 -0.11220853214E+02  0.45070594384E+00  0.11231734358E+02  0.51100000000E-03 0.  1.
         12    1    4    4    0    0  0.45706835801E+01 -0.21043858969E+02  0.21077968953E+02  0.30133302571E+02  0.00000000000E+00 0. -1.
</event>
<event>
 8    1  0.6016610E-012  0.9118800E+02  0.7816164E-02  0.1184000E+00
        -11   -1    0    0    0    0  0.00000000000E+00  0.00000000000E+00  0.45593999997E+02  0.45594000000E+02  0.51100000000E-03 0. -1.
         11   -1    0    0    0    0 -0.00000000000E+00 -0.00000000000E+00 -0.45593999997E+02  0.45594000000E+02  0.51100000000E-03 0.  1.
         23    2    1    2    0    0  0.00000000000E+00  0.00000000000E+00 -0.35527136788E-14  0.91188000000E+02  0.91188000000E+02 0.  0.
    9900012    2    3    3    0    0  0.44048680765E+01 -0.24970967709E+02 -0.31783855450E+02  0.50528861318E+02  0.30000004462E+02 0.  0.
         12    1    3    3    0    0 -0.44048680765E+01  0.24970967709E+02  0.31783855450E+02  0.40659138682E+02  0.00000000000E+00 0. -1.
         11    1    4    4    0    0  0.26134841490E+01 -0.15682088822E+02 -0.96035303669E+01  0.18573798884E+02  0.51100000000E-03 0. -1.
        -11    1    4    4    0    0 -0.33574088909E+01  0.25957370051E+01  0.18710514101E+01  0.46379821799E+01  0.51100000000E-03 0.  1.
        -12    1    4    4    0    0  0.51487928185E+01 -0.11884615892E+02 -0.24051376493E+02  0.27317080254E+02  0.00000000000E+00 0.  1.
</event>
<event>
 8    1  0.6016610E-012  0.9118800E+02  0.7816164E-02  0.1184000E+00
        -11   -1    0    0    0    0  0.00000000000E+00  0.00000000000E+00  0.45593999997E+02  0.45594000000E+02  0.51100000000E-03 0. -1.
         11   -1    0    0    0    0 -0.00000000000E+00 -0.00000000000E+00 -0.45593999997E+02  0.45594000000E+02  0.51100000000E-03 0.  1.
         23    2    1    2    0    0  0.00000000000E+00  0.00000000000E+00  0.00000000000E+00  0.91188000000E+02  0.91188000000E+02 0.  0.
    9900012    2    3    3    0    0 -0.54532649731E+01  0.76185976662E+01 -0.39564936626E+02  0.50528864009E+02  0.30000012642E+02 0.  0.
         12    1    3    3    0    0  0.54532649731E+01 -0.76185976662E+01  0.39564936626E+02  0.40659135991E+02  0.00000000000E+00 0. -1.
         11    1    4    4    0    0 -0.25055581502E+01  0.13986843438E+02 -0.52880299743E+01  0.15161559032E+02  0.51100000000E-03 0. -1.
        -11    1    4    4    0    0 -0.26113650179E+01 -0.15308963569E+01 -0.64993743982E+01  0.71697098088E+01  0.51100000000E-03 0.  1.
         12    1    4    4    0    0 -0.33634180511E+00 -0.48373494150E+01 -0.27777532254E+02  0.28197595169E+02  0.00000000000E+00 0. -1.
</event>
<event>
 8    1  0.6016610E-012  0.9118800E+02  0.7816164E-02  0.1184000E+00
        -11   -1    0    0    0    0  0.00000000000E+00  0.00000000000E+00  0.45593999997E+02  0.45594000000E+02  0.51100000000E-03 0. -1.
         11   -1    0    0    0    0 -0.00000000000E+00 -0.00000000000E+00 -0.45593999997E+02  0.45594000000E+02  0.51100000000E-03 0.  1.
         23    2    1    2    0    0 -0.35527136788E-14  0.00000000000E+00  0.00000000000E+00  0.91188000000E+02  0.91188000000E+02 0.  0.
    9900012    2    3    3    0    0  0.28081019532E+02  0.42343894626E+01  0.29097979104E+02  0.50528854657E+02  0.29999984216E+02 0.  0.
        -12    1    3    3    0    0 -0.28081019532E+02 -0.42343894626E+01 -0.29097979104E+02  0.40659145343E+02  0.00000000000E+00 0.  1.
         11    1    4    4    0    0  0.10302649973E+02 -0.44329130622E+01  0.63612771006E+01  0.12894229768E+02  0.51100000000E-03 0. -1.
        -11    1    4    4    0    0 -0.54463764067E+00  0.42497244845E+01 -0.33588705094E+01  0.54441528004E+01  0.51100000000E-03 0.  1.
        -12    1    4    4    0    0  0.18323007200E+02  0.44175780403E+01  0.26095572513E+02  0.32190472089E+02  0.00000000000E+00 0.  1.
</event>
<event>
 8    1  0.6016610E-012  0.9118800E+02  0.7816164E-02  0.1184000E+00
        -11   -1    0    0    0    0  0.00000000000E+00  0.00000000000E+00  0.45593999997E+02  0.45594000000E+02  0.51100000000E-03 0.  1.
         11   -1    0    0    0    0 -0.00000000000E+00 -0.00000000000E+00 -0.45593999997E+02  0.45594000000E+02  0.51100000000E-03 0. -1.
         23    2    1    2    0    0 -0.71054273576E-14 -0.35527136788E-14 -0.35527136788E-14  0.91188000000E+02  0.91188000000E+02 0.  0.
    9900012    2    3    3    0    0 -0.33205589655E+02 -0.19887584962E+02 -0.12451411096E+02  0.50528869928E+02  0.30000030634E+02 0.  0.
         12    1    3    3    0    0  0.33205589655E+02  0.19887584962E+02  0.12451411096E+02  0.40659130072E+02  0.00000000000E+00 0. -1.
         11    1    4    4    0    0 -0.91784292775E+01 -0.38274936259E+00  0.73121476132E+01  0.11741276083E+02  0.51100000000E-03 0. -1.
        -11    1    4    4    0    0 -0.20548867818E+02 -0.10995547588E+02 -0.17951578291E+02  0.29417974076E+02  0.51100000000E-03 0.  1.
        -12    1    4    4    0    0 -0.34782925595E+01 -0.85092880106E+01 -0.18119804177E+01  0.93696197688E+01  0.00000000000E+00 0.  1.
</event>
<event>
 8    1  0.6016610E-012  0.9118800E+02  0.7816164E-02  0.1184000E+00
        -11   -1    0    0    0    0  0.00000000000E+00  0.00000000000E+00  0.45593999997E+02  0.45594000000E+02  0.51100000000E-03 0. -1.
         11   -1    0    0    0    0 -0.00000000000E+00 -0.00000000000E+00 -0.45593999997E+02  0.45594000000E+02  0.51100000000E-03 0.  1.
         23    2    1    2    0    0  0.44408920985E-15  0.00000000000E+00  0.00000000000E+00  0.91188000000E+02  0.91188000000E+02 0.  0.
    9900012    2    3    3    0    0  0.16876491673E+01  0.91728456818E+01 -0.39574945494E+02  0.50528861194E+02  0.30000004085E+02 0.  0.
         12    1    3    3    0    0 -0.16876491673E+01 -0.91728456818E+01  0.39574945494E+02  0.40659138806E+02  0.00000000000E+00 0. -1.
         11    1    4    4    0    0 -0.36842903372E+01 -0.31041544983E+01  0.27833117063E+01  0.55638650913E+01  0.51100000000E-03 0. -1.
        -11    1    4    4    0    0  0.22135777415E+01  0.52672266500E+01 -0.84792732363E+01  0.10224562479E+02  0.51100000000E-03 0.  1.
         12    1    4    4    0    0  0.31583617630E+01  0.70097735301E+01 -0.33878983964E+02  0.34740433624E+02  0.00000000000E+00 0. -1.
</event>
<event>
 8    1  0.6016610E-012  0.9118800E+02  0.7816164E-02  0.1184000E+00
        -11   -1    0    0    0    0  0.00000000000E+00  0.00000000000E+00  0.45593999997E+02  0.45594000000E+02  0.51100000000E-03 0. -1.
         11   -1    0    0    0    0 -0.00000000000E+00 -0.00000000000E+00 -0.45593999997E+02  0.45594000000E+02  0.51100000000E-03 0.  1.
         23    2    1    2    0    0 -0.44408920985E-15  0.00000000000E+00  0.00000000000E+00  0.91188000000E+02  0.91188000000E+02 0.  0.
    9900012    2    3    3    0    0 -0.12377288648E+01  0.24862582980E+02 -0.32147870758E+02  0.50528860812E+02  0.30000002924E+02 0.  0.
         12    1    3    3    0    0  0.12377288648E+01 -0.24862582980E+02  0.32147870758E+02  0.40659139188E+02  0.00000000000E+00 0. -1.
         11    1    4    4    0    0 -0.41259736249E+01  0.23961652884E+02 -0.13294572859E+02  0.27711552376E+02  0.51100000000E-03 0. -1.
        -11    1    4    4    0    0 -0.31003351456E+01  0.31986079404E+01 -0.14228870232E+02  0.14909859795E+02  0.51100000000E-03 0.  1.
         12    1    4    4    0    0  0.59885799057E+01 -0.22976778444E+01 -0.46244276677E+01  0.79074486414E+01  0.00000000000E+00 0. -1.
</event>
<event>
 8    1  0.6016610E-012  0.9118800E+02  0.7816164E-02  0.1184000E+00
        -11   -1    0    0    0    0  0.00000000000E+00  0.00000000000E+00  0.45593999997E+02  0.45594000000E+02  0.51100000000E-03 0. -1.
         11   -1    0    0    0    0 -0.00000000000E+00 -0.00000000000E+00 -0.45593999997E+02  0.45594000000E+02  0.51100000000E-03 0.  1.
         23    2    1    2    0    0  0.00000000000E+00  0.00000000000E+00 -0.35527136788E-14  0.91188000000E+02  0.91188000000E+02 0.  0.
    9900012    2    3    3    0    0 -0.24151764956E+02 -0.16762010823E+02 -0.28087240727E+02  0.50528857744E+02  0.29999993598E+02 0.  0.
         12    1    3    3    0    0  0.24151764956E+02  0.16762010823E+02  0.28087240727E+02  0.40659142256E+02  0.00000000000E+00 0. -1.
         11    1    4    4    0    0 -0.74174686419E+00 -0.69610407800E+01 -0.85567544403E+01  0.11055511022E+02  0.51100000000E-03 0. -1.
        -11    1    4    4    0    0 -0.21119455863E+02  0.28618898497E+01 -0.10546637459E+02  0.23779263896E+02  0.51100000000E-03 0.  1.
        -12    1    4    4    0    0 -0.22905622288E+01 -0.12662859892E+02 -0.89838488275E+01  0.15694082826E+02  0.00000000000E+00 0.  1.
</event>
<event>
 8    1  0.6016610E-012  0.9118800E+02  0.7816164E-02  0.1184000E+00
        -11   -1    0    0    0    0  0.00000000000E+00  0.00000000000E+00  0.45593999997E+02  0.45594000000E+02  0.51100000000E-03 0. -1.
         11   -1    0    0    0    0 -0.00000000000E+00 -0.00000000000E+00 -0.45593999997E+02  0.45594000000E+02  0.51100000000E-03 0.  1.
         23    2    1    2    0    0  0.00000000000E+00  0.35527136788E-14  0.00000000000E+00  0.91188000000E+02  0.91188000000E+02 0.  0.
    9900012    2    3    3    0    0  0.27870784991E+01  0.19367484288E+02  0.35641240856E+02  0.50528864446E+02  0.30000013972E+02 0.  0.
        -12    1    3    3    0    0 -0.27870784991E+01 -0.19367484288E+02 -0.35641240856E+02  0.40659135554E+02  0.00000000000E+00 0.  1.
         11    1    4    4    0    0  0.10303594586E+02 -0.27551788609E+01  0.13503504389E+02  0.17207547850E+02  0.51100000000E-03 0. -1.
        -11    1    4    4    0    0 -0.25831403781E+01  0.15259966972E+02  0.96392100948E+01  0.18233309566E+02  0.51100000000E-03 0.  1.
         12    1    4    4    0    0 -0.49333757088E+01  0.68626961766E+01  0.12498526372E+02  0.15088007031E+02  0.00000000000E+00 0. -1.
</event>
<event>
 8    1  0.6016610E-012  0.9118800E+02  0.7816164E-02  0.1184000E+00
        -11   -1    0    0    0    0  0.00000000000E+00  0.00000000000E+00  0.45593999997E+02  0.45594000000E+02  0.51100000000E-03 0. -1.
         11   -1    0    0    0    0 -0.00000000000E+00 -0.00000000000E+00 -0.45593999997E+02  0.45594000000E+02  0.51100000000E-03 0.  1.
         23    2    1    2    0    0  0.00000000000E+00  0.00000000000E+00  0.00000000000E+00  0.91188000000E+02  0.91188000000E+02 0.  0.
    9900012    2    3    3    0    0  0.22335528066E+02 -0.26068881936E+02  0.21787676212E+02  0.50528865060E+02  0.30000015836E+02 0.  0.
        -12    1    3    3    0    0 -0.22335528066E+02  0.26068881936E+02 -0.21787676212E+02  0.40659134940E+02  0.00000000000E+00 0.  1.
         11    1    4    4    0    0 -0.11484849755E+01 -0.73837249284E+01  0.13218519773E+02  0.15184455104E+02  0.51100000000E-03 0. -1.
        -11    1    4    4    0    0  0.11106203684E+02 -0.15894794253E+02 -0.10546036022E+01  0.19419176955E+02  0.51100000000E-03 0.  1.
         12    1    4    4    0    0  0.12377809357E+02 -0.27903627548E+01  0.96237600411E+01  0.15925233000E+02  0.00000000000E+00 0. -1.
</event>
<event>
 8    1  0.6016610E-012  0.9118800E+02  0.7816164E-02  0.1184000E+00
        -11   -1    0    0    0    0  0.00000000000E+00  0.00000000000E+00  0.45593999997E+02  0.45594000000E+02  0.51100000000E-03 0. -1.
         11   -1    0    0    0    0 -0.00000000000E+00 -0.00000000000E+00 -0.45593999997E+02  0.45594000000E+02  0.51100000000E-03 0.  1.
         23    2    1    2    0    0  0.44408920985E-15 -0.66613381478E-15  0.00000000000E+00  0.91188000000E+02  0.91188000000E+02 0.  0.
    9900012    2    3    3    0    0 -0.22054960861E+01 -0.14172010183E+01  0.40574477944E+02  0.50528918208E+02  0.30000177385E+02 0.  0.
        -12    1    3    3    0    0  0.22054960861E+01  0.14172010183E+01 -0.40574477944E+02  0.40659081792E+02  0.00000000000E+00 0.  1.
         11    1    4    4    0    0  0.66351386531E+01  0.89466785303E+01  0.80304874934E+01  0.13731600464E+02  0.51100000000E-03 0. -1.
        -11    1    4    4    0    0 -0.43106286885E+01 -0.11154621424E+02  0.18581264000E+02  0.22096843007E+02  0.51100000000E-03 0.  1.
        -12    1    4    4    0    0 -0.45300060507E+01  0.79074187511E+00  0.13962726451E+02  0.14700474737E+02  0.00000000000E+00 0.  1.
</event>
<event>
 8    1  0.6016610E-012  0.9118800E+02  0.7816164E-02  0.1184000E+00
        -11   -1    0    0    0    0  0.00000000000E+00  0.00000000000E+00  0.45593999997E+02  0.45594000000E+02  0.51100000000E-03 0. -1.
         11   -1    0    0    0    0 -0.00000000000E+00 -0.00000000000E+00 -0.45593999997E+02  0.45594000000E+02  0.51100000000E-03 0.  1.
         23    2    1    2    0    0  0.17763568394E-14  0.88817841970E-15  0.71054273576E-14  0.91188000000E+02  0.91188000000E+02 0.  0.
    9900012    2    3    3    0    0  0.14912187226E+02  0.52336263036E+01  0.37461993832E+02  0.50528866290E+02  0.30000019576E+02 0.  0.
        -12    1    3    3    0    0 -0.14912187226E+02 -0.52336263036E+01 -0.37461993832E+02  0.40659133710E+02  0.00000000000E+00 0.  1.
         11    1    4    4    0    0 -0.18599686212E+01 -0.12179545703E+01  0.30943661723E+02  0.31023428207E+02  0.51100000000E-03 0. -1.
        -11    1    4    4    0    0  0.56633649199E+01  0.32413043458E+01  0.70576387024E+00  0.65633725309E+01  0.51100000000E-03 0.  1.
         12    1    4    4    0    0  0.11108790927E+02  0.32102765281E+01  0.58125682389E+01  0.12942065553E+02  0.00000000000E+00 0. -1.
</event>
<event>
 8    1  0.6016610E-012  0.9118800E+02  0.7816164E-02  0.1184000E+00
        -11   -1    0    0    0    0  0.00000000000E+00  0.00000000000E+00  0.45593999997E+02  0.45594000000E+02  0.51100000000E-03 0. -1.
         11   -1    0    0    0    0 -0.00000000000E+00 -0.00000000000E+00 -0.45593999997E+02  0.45594000000E+02  0.51100000000E-03 0.  1.
         23    2    1    2    0    0  0.00000000000E+00 -0.17763568394E-14  0.00000000000E+00  0.91188000000E+02  0.91188000000E+02 0.  0.
    9900012    2    3    3    0    0  0.18718730738E+02 -0.11397443508E+02  0.34247233799E+02  0.50528860537E+02  0.30000002089E+02 0.  0.
        -12    1    3    3    0    0 -0.18718730738E+02  0.11397443508E+02 -0.34247233799E+02  0.40659139463E+02  0.00000000000E+00 0.  1.
         11    1    4    4    0    0  0.49407111168E+01  0.33648938217E+01  0.87088278453E+01  0.10562992922E+02  0.51100000000E-03 0. -1.
        -11    1    4    4    0    0  0.13974374662E+02 -0.17867966023E+02  0.11208048431E+02  0.25301535662E+02  0.51100000000E-03 0.  1.
        -12    1    4    4    0    0 -0.19635504048E+00  0.31056286936E+01  0.14330357523E+02  0.14664331953E+02  0.00000000000E+00 0.  1.
</event>
<event>
 8    1  0.6016610E-012  0.9118800E+02  0.7816164E-02  0.1184000E+00
        -11   -1    0    0    0    0  0.00000000000E+00  0.00000000000E+00  0.45593999997E+02  0.45594000000E+02  0.51100000000E-03 0. -1.
         11   -1    0    0    0    0 -0.00000000000E+00 -0.00000000000E+00 -0.45593999997E+02  0.45594000000E+02  0.51100000000E-03 0.  1.
         23    2    1    2    0    0  0.00000000000E+00  0.35527136788E-14 -0.71054273576E-14  0.91188000000E+02  0.91188000000E+02 0.  0.
    9900012    2    3    3    0    0  0.97350076543E+01 -0.72651158663E+01  0.38802243655E+02  0.50528851027E+02  0.29999973181E+02 0.  0.
        -12    1    3    3    0    0 -0.97350076543E+01  0.72651158663E+01 -0.38802243655E+02  0.40659148973E+02  0.00000000000E+00 0.  1.
         11    1    4    4    0    0 -0.24859049167E+01 -0.11606755016E+02  0.19710067076E+02  0.23008329571E+02  0.51100000000E-03 0. -1.
        -11    1    4    4    0    0  0.93710645542E+01  0.72416821695E+01  0.20101784764E+02  0.23331107185E+02  0.51100000000E-03 0.  1.
        -12    1    4    4    0    0  0.28498480169E+01 -0.29000430199E+01 -0.10096081859E+01  0.41894142700E+01  0.00000000000E+00 0.  1.
</event>
<event>
 8    1  0.6016610E-012  0.9118800E+02  0.7816164E-02  0.1184000E+00
        -11   -1    0    0    0    0  0.00000000000E+00  0.00000000000E+00  0.45593999997E+02  0.45594000000E+02  0.51100000000E-03 0. -1.
         11   -1    0    0    0    0 -0.00000000000E+00 -0.00000000000E+00 -0.45593999997E+02  0.45594000000E+02  0.51100000000E-03 0.  1.
         23    2    1    2    0    0  0.35527136788E-14 -0.35527136788E-14 -0.35527136788E-14  0.91188000000E+02  0.91188000000E+02 0.  0.
    9900012    2    3    3    0    0 -0.27449926924E+02  0.19612792857E+02  0.22693770555E+02  0.50528839239E+02  0.29999937351E+02 0.  0.
        -12    1    3    3    0    0  0.27449926924E+02 -0.19612792857E+02 -0.22693770555E+02  0.40659160761E+02  0.00000000000E+00 0.  1.
         11    1    4    4    0    0 -0.41857610389E+01  0.54300713547E+01  0.13156902206E+02  0.14836116281E+02  0.51100000000E-03 0. -1.
        -11    1    4    4    0    0 -0.37786489863E+01  0.10470988530E+02 -0.38311299513E+01  0.11772737402E+02  0.51100000000E-03 0.  1.
        -12    1    4    4    0    0 -0.19485516899E+02  0.37117329723E+01  0.13367998300E+02  0.23919985556E+02  0.00000000000E+00 0.  1.
</event>
<event>
 8    1  0.6016610E-012  0.9118800E+02  0.7816164E-02  0.1184000E+00
        -11   -1    0    0    0    0  0.00000000000E+00  0.00000000000E+00  0.45593999997E+02  0.45594000000E+02  0.51100000000E-03 0. -1.
         11   -1    0    0    0    0 -0.00000000000E+00 -0.00000000000E+00 -0.45593999997E+02  0.45594000000E+02  0.51100000000E-03 0.  1.
         23    2    1    2    0    0  0.00000000000E+00  0.17763568394E-14  0.00000000000E+00  0.91188000000E+02  0.91188000000E+02 0.  0.
    9900012    2    3    3    0    0  0.13505328731E+02  0.12810997462E+02  0.36147585238E+02  0.50528886893E+02  0.30000082199E+02 0.  0.
        -12    1    3    3    0    0 -0.13505328731E+02 -0.12810997462E+02 -0.36147585238E+02  0.40659113107E+02  0.00000000000E+00 0.  1.
         11    1    4    4    0    0  0.14832445670E+02  0.15136402157E+02  0.19471416710E+02  0.28779301308E+02  0.51100000000E-03 0. -1.
        -11    1    4    4    0    0 -0.54445379703E+01  0.93493432537E-02  0.16082607486E+02  0.16979203307E+02  0.51100000000E-03 0.  1.
         12    1    4    4    0    0  0.41174210314E+01 -0.23347540379E+01  0.59356104178E+00  0.47703822780E+01  0.00000000000E+00 0. -1.
</event>
<event>
 8    1  0.7264380E-012  0.9118800E+02  0.7816164E-02  0.1184000E+00
        -11   -1    0    0    0    0  0.00000000000E+00  0.00000000000E+00  0.45593999997E+02  0.45594000000E+02  0.51100000000E-03 0. -1.
         11   -1    0    0    0    0 -0.00000000000E+00 -0.00000000000E+00 -0.45593999997E+02  0.45594000000E+02  0.51100000000E-03 0.  1.
         23    2    1    2    0    0  0.44408920985E-15  0.00000000000E+00  0.71054273576E-14  0.91188000000E+02  0.91188000000E+02 0.  0.
    9900012    2    3    3    0    0 -0.25993681354E+01  0.22754417852E+02  0.33595315535E+02  0.50528862376E+02  0.30000007677E+02 0.  0.
        -12    1    3    3    0    0  0.25993681354E+01 -0.22754417852E+02 -0.33595315535E+02  0.40659137624E+02  0.00000000000E+00 0.  1.
         11    1    4    4    0    0 -0.10298871216E+01  0.79690915554E+01  0.20028862230E+02  0.21580602637E+02  0.51100000000E-03 0. -1.
        -11    1    4    4    0    0 -0.40909169463E+01  0.17461996175E+02  0.35562154266E+01  0.18283970584E+02  0.51100000000E-03 0.  1.
        -12    1    4    4    0    0  0.25214359326E+01 -0.26766698786E+01  0.10010237878E+02  0.10664289155E+02  0.00000000000E+00 0.  1.
</event>
<event>
 8    1  0.6016610E-012  0.9118800E+02  0.7816164E-02  0.1184000E+00
        -11   -1    0    0    0    0  0.00000000000E+00  0.00000000000E+00  0.45593999997E+02  0.45594000000E+02  0.51100000000E-03 0. -1.
         11   -1    0    0    0    0 -0.00000000000E+00 -0.00000000000E+00 -0.45593999997E+02  0.45594000000E+02  0.51100000000E-03 0.  1.
         23    2    1    2    0    0  0.22204460493E-15  0.00000000000E+00 -0.71054273576E-14  0.91188000000E+02  0.91188000000E+02 0.  0.
    9900012    2    3    3    0    0  0.16594425313E+01 -0.10543054483E+02 -0.39233353167E+02  0.50528858985E+02  0.29999997371E+02 0.  0.
         12    1    3    3    0    0 -0.16594425313E+01  0.10543054483E+02  0.39233353167E+02  0.40659141015E+02  0.00000000000E+00 0. -1.
         11    1    4    4    0    0 -0.12835389778E+01  0.52517609769E+01  0.22451894804E+01  0.58540021976E+01  0.51100000000E-03 0. -1.
        -11    1    4    4    0    0  0.77978423478E+00 -0.53316664875E+01 -0.19594131174E+02  0.20321533105E+02  0.51100000000E-03 0.  1.
         12    1    4    4    0    0  0.21631972743E+01 -0.10463148972E+02 -0.21884411473E+02  0.24353323683E+02  0.00000000000E+00 0. -1.
</event>
<event>
 8    1  0.6016610E-012  0.9118800E+02  0.7816164E-02  0.1184000E+00
        -11   -1    0    0    0    0  0.00000000000E+00  0.00000000000E+00  0.45593999997E+02  0.45594000000E+02  0.51100000000E-03 0. -1.
         11   -1    0    0    0    0 -0.00000000000E+00 -0.00000000000E+00 -0.45593999997E+02  0.45594000000E+02  0.51100000000E-03 0.  1.
         23    2    1    2    0    0  0.00000000000E+00 -0.35527136788E-14  0.35527136788E-14  0.91188000000E+02  0.91188000000E+02 0.  0.
    9900012    2    3    3    0    0  0.20749554355E+02 -0.14550410795E+02  0.31794806181E+02  0.50528829321E+02  0.29999907204E+02 0.  0.
        -12    1    3    3    0    0 -0.20749554355E+02  0.14550410795E+02 -0.31794806181E+02  0.40659170679E+02  0.00000000000E+00 0.  1.
         11    1    4    4    0    0  0.20890269576E+02 -0.70660058588E+01  0.28755490735E+02  0.36238240153E+02  0.51100000000E-03 0. -1.
        -11    1    4    4    0    0  0.27106467032E+01 -0.97225325282E+01  0.10290864814E+01  0.10145652446E+02  0.51100000000E-03 0.  1.
         12    1    4    4    0    0 -0.28513619239E+01  0.22381275916E+01  0.20102289647E+01  0.41449367218E+01  0.00000000000E+00 0. -1.
</event>
<event>
 8    1  0.6016610E-012  0.9118800E+02  0.7816164E-02  0.1184000E+00
        -11   -1    0    0    0    0  0.00000000000E+00  0.00000000000E+00  0.45593999997E+02  0.45594000000E+02  0.51100000000E-03 0. -1.
         11   -1    0    0    0    0 -0.00000000000E+00 -0.00000000000E+00 -0.45593999997E+02  0.45594000000E+02  0.51100000000E-03 0.  1.
         23    2    1    2    0    0  0.88817841970E-15  0.00000000000E+00  0.00000000000E+00  0.91188000000E+02  0.91188000000E+02 0.  0.
    9900012    2    3    3    0    0  0.75775700673E+01 -0.34822386222E+02  0.19574154999E+02  0.50528859647E+02  0.29999999384E+02 0.  0.
        -12    1    3    3    0    0 -0.75775700673E+01  0.34822386222E+02 -0.19574154999E+02  0.40659140353E+02  0.00000000000E+00 0.  1.
         11    1    4    4    0    0  0.42545243688E+01 -0.17906402087E+02  0.22837517800E+02  0.29330742112E+02  0.51100000000E-03 0. -1.
        -11    1    4    4    0    0  0.76575056856E+01 -0.88469846882E+01 -0.88074577235E+00  0.11733807770E+02  0.51100000000E-03 0.  1.
         12    1    4    4    0    0 -0.43344599871E+01 -0.80689994463E+01 -0.23826170281E+01  0.94643097660E+01  0.00000000000E+00 0. -1.
</event>
<event>
 8    1  0.6016610E-012  0.9118800E+02  0.7816164E-02  0.1184000E+00
        -11   -1    0    0    0    0  0.00000000000E+00  0.00000000000E+00  0.45593999997E+02  0.45594000000E+02  0.51100000000E-03 0. -1.
         11   -1    0    0    0    0 -0.00000000000E+00 -0.00000000000E+00 -0.45593999997E+02  0.45594000000E+02  0.51100000000E-03 0.  1.
         23    2    1    2    0    0 -0.13322676296E-14 -0.17763568394E-14 -0.71054273576E-14  0.91188000000E+02  0.91188000000E+02 0.  0.
    9900012    2    3    3    0    0  0.32915945018E+01  0.12514650188E+02  0.38544988553E+02  0.50528841054E+02  0.29999942867E+02 0.  0.
        -12    1    3    3    0    0 -0.32915945018E+01 -0.12514650188E+02 -0.38544988553E+02  0.40659158946E+02  0.00000000000E+00 0.  1.
         11    1    4    4    0    0 -0.47073783405E+01  0.45225327266E+01  0.29210296157E+02  0.29930822156E+02  0.51100000000E-03 0. -1.
        -11    1    4    4    0    0  0.11984424261E+02  0.54890883598E+01  0.88275714522E+01  0.15864505473E+02  0.51100000000E-03 0.  1.
         12    1    4    4    0    0 -0.39854514185E+01  0.25030291016E+01  0.50712094341E+00  0.47335134249E+01  0.00000000000E+00 0. -1.
</event>
<event>
 8    1  0.6016610E-012  0.9118800E+02  0.7816164E-02  0.1184000E+00
        -11   -1    0    0    0    0  0.00000000000E+00  0.00000000000E+00  0.45593999997E+02  0.45594000000E+02  0.51100000000E-03 0. -1.
         11   -1    0    0    0    0 -0.00000000000E+00 -0.00000000000E+00 -0.45593999997E+02  0.45594000000E+02  0.51100000000E-03 0.  1.
         23    2    1    2    0    0  0.00000000000E+00  0.00000000000E+00  0.00000000000E+00  0.91188000000E+02  0.91188000000E+02 0.  0.
    9900012    2    3    3    0    0 -0.19300657042E+02  0.80872361260E+01 -0.34860384584E+02  0.50528866171E+02  0.30000019213E+02 0.  0.
         12    1    3    3    0    0  0.19300657042E+02 -0.80872361260E+01  0.34860384584E+02  0.40659133829E+02  0.00000000000E+00 0. -1.
         11    1    4    4    0    0 -0.51567016565E+01  0.99007255394E+01  0.75316179180E+00  0.11188529444E+02  0.51100000000E-03 0. -1.
        -11    1    4    4    0    0 -0.31739058673E+01 -0.32562622286E+01 -0.48534580639E+01  0.66507877424E+01  0.51100000000E-03 0.  1.
         12    1    4    4    0    0 -0.10970049518E+02  0.14427728151E+01 -0.30760088312E+02  0.32689548984E+02  0.00000000000E+00 0. -1.
</event>
<event>
 8    1  0.8024766E-012  0.9118800E+02  0.7816164E-02  0.1184000E+00
        -11   -1    0    0    0    0  0.00000000000E+00  0.00000000000E+00  0.45593999997E+02  0.45594000000E+02  0.51100000000E-03 0. -1.
         11   -1    0    0    0    0 -0.00000000000E+00 -0.00000000000E+00 -0.45593999997E+02  0.45594000000E+02  0.51100000000E-03 0.  1.
         23    2    1    2    0    0  0.00000000000E+00  0.00000000000E+00  0.00000000000E+00  0.91188000000E+02  0.91188000000E+02 0.  0.
    9900012    2    3    3    0    0  0.20168365156E+02  0.16201003308E+02  0.31367657650E+02  0.50528863171E+02  0.30000010094E+02 0.  0.
        -12    1    3    3    0    0 -0.20168365156E+02 -0.16201003308E+02 -0.31367657650E+02  0.40659136829E+02  0.00000000000E+00 0.  1.
         11    1    4    4    0    0  0.77028005555E+01  0.22581674638E+01  0.19904597327E+02  0.21462186554E+02  0.51100000000E-03 0. -1.
        -11    1    4    4    0    0  0.11584060639E+02  0.16574358730E+02  0.33561414190E+01  0.20497890469E+02  0.51100000000E-03 0.  1.
        -12    1    4    4    0    0  0.88150396156E+00 -0.26315228850E+01  0.81069189037E+01  0.85687861473E+01  0.00000000000E+00 0.  1.
</event>
<event>
 8    1  0.6016610E-012  0.9118800E+02  0.7816164E-02  0.1184000E+00
        -11   -1    0    0    0    0  0.00000000000E+00  0.00000000000E+00  0.45593999997E+02  0.45594000000E+02  0.51100000000E-03 0. -1.
         11   -1    0    0    0    0 -0.00000000000E+00 -0.00000000000E+00 -0.45593999997E+02  0.45594000000E+02  0.51100000000E-03 0.  1.
         23    2    1    2    0    0  0.27755575616E-15 -0.71054273576E-14 -0.71054273576E-14  0.91188000000E+02  0.91188000000E+02 0.  0.
    9900012    2    3    3    0    0  0.12514924083E+00 -0.26762168673E+02 -0.30609410676E+02  0.50528863802E+02  0.30000012014E+02 0.  0.
         12    1    3    3    0    0 -0.12514924083E+00  0.26762168673E+02  0.30609410676E+02  0.40659136198E+02  0.00000000000E+00 0. -1.
         11    1    4    4    0    0 -0.45873499722E+00 -0.52466570269E+01 -0.24470895057E+02  0.25031231550E+02  0.51100000000E-03 0. -1.
        -11    1    4    4    0    0  0.43808957513E+01 -0.11042197562E+02  0.15234556790E+01  0.11976781373E+02  0.51100000000E-03 0.  1.
        -12    1    4    4    0    0 -0.37970115132E+01 -0.10473314084E+02 -0.76619712974E+01  0.13520850879E+02  0.00000000000E+00 0.  1.
</event>
<event>
 8    1  0.6016610E-012  0.9118800E+02  0.7816164E-02  0.1184000E+00
        -11   -1    0    0    0    0  0.00000000000E+00  0.00000000000E+00  0.45593999997E+02  0.45594000000E+02  0.51100000000E-03 0.  1.
         11   -1    0    0    0    0 -0.00000000000E+00 -0.00000000000E+00 -0.45593999997E+02  0.45594000000E+02  0.51100000000E-03 0. -1.
         23    2    1    2    0    0  0.88817841970E-15  0.35527136788E-14  0.00000000000E+00  0.91188000000E+02  0.91188000000E+02 0.  0.
    9900012    2    3    3    0    0  0.59681428296E+01 -0.28528199489E+02 -0.28349445160E+02  0.50528832082E+02  0.29999915597E+02 0.  0.
         12    1    3    3    0    0 -0.59681428296E+01  0.28528199489E+02  0.28349445160E+02  0.40659167918E+02  0.00000000000E+00 0. -1.
         11    1    4    4    0    0  0.76535910096E+01 -0.15212001472E+01 -0.55281717898E+01  0.95630637784E+01  0.51100000000E-03 0. -1.
        -11    1    4    4    0    0 -0.20712801447E+01 -0.29121441016E+02 -0.24598851741E+02  0.38176590151E+02  0.51100000000E-03 0.  1.
        -12    1    4    4    0    0  0.38583196462E+00  0.21144416750E+01  0.17775783712E+01  0.27891781527E+01  0.00000000000E+00 0.  1.
</event>
<event>
 8    1  0.6016610E-012  0.9118800E+02  0.7816164E-02  0.1184000E+00
        -11   -1    0    0    0    0  0.00000000000E+00  0.00000000000E+00  0.45593999997E+02  0.45594000000E+02  0.51100000000E-03 0. -1.
         11   -1    0    0    0    0 -0.00000000000E+00 -0.00000000000E+00 -0.45593999997E+02  0.45594000000E+02  0.51100000000E-03 0.  1.
         23    2    1    2    0    0 -0.44408920985E-15 -0.88817841970E-15  0.00000000000E+00  0.91188000000E+02  0.91188000000E+02 0.  0.
    9900012    2    3    3    0    0  0.30822552562E+01 -0.73153070331E+01 -0.39876704061E+02  0.50528861529E+02  0.30000005102E+02 0.  0.
         12    1    3    3    0    0 -0.30822552562E+01  0.73153070331E+01  0.39876704061E+02  0.40659138471E+02  0.00000000000E+00 0. -1.
         11    1    4    4    0    0 -0.12295696621E+02  0.57058435070E-01 -0.24345428278E+02  0.27274297230E+02  0.51100000000E-03 0. -1.
        -11    1    4    4    0    0  0.66245162900E+01 -0.17693515577E+01 -0.71137077040E+01  0.98802661184E+01  0.51100000000E-03 0.  1.
         12    1    4    4    0    0  0.87534355871E+01 -0.56030139105E+01 -0.84175680791E+01  0.13374298181E+02  0.00000000000E+00 0. -1.
</event>
<event>
 8    1  0.6016610E-012  0.9118800E+02  0.7816164E-02  0.1184000E+00
        -11   -1    0    0    0    0  0.00000000000E+00  0.00000000000E+00  0.45593999997E+02  0.45594000000E+02  0.51100000000E-03 0. -1.
         11   -1    0    0    0    0 -0.00000000000E+00 -0.00000000000E+00 -0.45593999997E+02  0.45594000000E+02  0.51100000000E-03 0.  1.
         23    2    1    2    0    0  0.00000000000E+00  0.00000000000E+00  0.00000000000E+00  0.91188000000E+02  0.91188000000E+02 0.  0.
    9900012    2    3    3    0    0  0.15261032303E+02  0.19347414368E+02 -0.32341053438E+02  0.50528864653E+02  0.30000014600E+02 0.  0.
         12    1    3    3    0    0 -0.15261032303E+02 -0.19347414368E+02  0.32341053438E+02  0.40659135347E+02  0.00000000000E+00 0. -1.
         11    1    4    4    0    0  0.19473239129E+01  0.18446174652E+01  0.44364202869E+01  0.51842559002E+01  0.51100000000E-03 0. -1.
        -11    1    4    4    0    0  0.10791940430E+02  0.19708826451E+02 -0.34888415093E+02  0.41498256906E+02  0.51100000000E-03 0.  1.
        -12    1    4    4    0    0  0.25217679601E+01 -0.22060295488E+01 -0.18890586323E+01  0.38463518470E+01  0.00000000000E+00 0.  1.
</event>
<event>
 8    1  0.6016610E-012  0.9118800E+02  0.7816164E-02  0.1184000E+00
        -11   -1    0    0    0    0  0.00000000000E+00  0.00000000000E+00  0.45593999997E+02  0.45594000000E+02  0.51100000000E-03 0. -1.
         11   -1    0    0    0    0 -0.00000000000E+00 -0.00000000000E+00 -0.45593999997E+02  0.45594000000E+02  0.51100000000E-03 0.  1.
         23    2    1    2    0    0  0.35527136788E-14  0.00000000000E+00  0.00000000000E+00  0.91188000000E+02  0.91188000000E+02 0.  0.
    9900012    2    3    3    0    0  0.18396213423E+02 -0.24564852718E+02 -0.26670477246E+02  0.50528843419E+02  0.29999950056E+02 0.  0.
         12    1    3    3    0    0 -0.18396213423E+02  0.24564852718E+02  0.26670477246E+02  0.40659156581E+02  0.00000000000E+00 0. -1.
         11    1    4    4    0    0 -0.35265537999E+01 -0.25401674256E+01  0.22720180692E+01  0.49041919437E+01  0.51100000000E-03 0. -1.
        -11    1    4    4    0    0  0.21881911164E+02 -0.11898573783E+02 -0.18105423579E+02  0.30792863743E+02  0.51100000000E-03 0.  1.
        -12    1    4    4    0    0  0.40856058992E-01 -0.10126111510E+02 -0.10837071736E+02  0.14831787733E+02  0.00000000000E+00 0.  1.
</event>
<event>
 8    1  0.6016610E-012  0.9118800E+02  0.7816164E-02  0.1184000E+00
        -11   -1    0    0    0    0  0.00000000000E+00  0.00000000000E+00  0.45593999997E+02  0.45594000000E+02  0.51100000000E-03 0.  1.
         11   -1    0    0    0    0 -0.00000000000E+00 -0.00000000000E+00 -0.45593999997E+02  0.45594000000E+02  0.51100000000E-03 0. -1.
         23    2    1    2    0    0 -0.35527136788E-14 -0.35527136788E-14  0.00000000000E+00  0.91188000000E+02  0.91188000000E+02 0.  0.
    9900012    2    3    3    0    0  0.27199358045E+02 -0.28216448398E+02 -0.10825587302E+02  0.50528851230E+02  0.29999973799E+02 0.  0.
         12    1    3    3    0    0 -0.27199358045E+02  0.28216448398E+02  0.10825587302E+02  0.40659148770E+02  0.00000000000E+00 0. -1.
         11    1    4    4    0    0  0.21408684649E+02 -0.29536403542E+02 -0.13554997054E+02  0.38916177330E+02  0.51100000000E-03 0. -1.
        -11    1    4    4    0    0  0.46284423023E+01  0.37374952032E+01 -0.19146673787E+01  0.62495839839E+01  0.51100000000E-03 0.  1.
        -12    1    4    4    0    0  0.11622310933E+01 -0.24175400599E+01  0.46440771304E+01  0.53630899162E+01  0.00000000000E+00 0.  1.
</event>
<event>
 8    1  0.6016610E-012  0.9118800E+02  0.7816164E-02  0.1184000E+00
        -11   -1    0    0    0    0  0.00000000000E+00  0.00000000000E+00  0.45593999997E+02  0.45594000000E+02  0.51100000000E-03 0. -1.
         11   -1    0    0    0    0 -0.00000000000E+00 -0.00000000000E+00 -0.45593999997E+02  0.45594000000E+02  0.51100000000E-03 0.  1.
         23    2    1    2    0    0  0.00000000000E+00 -0.35527136788E-14  0.71054273576E-14  0.91188000000E+02  0.91188000000E+02 0.  0.
    9900012    2    3    3    0    0 -0.19364910071E+02 -0.14780746982E+02  0.32552975740E+02  0.50528850318E+02  0.29999971025E+02 0.  0.
        -12    1    3    3    0    0  0.19364910071E+02  0.14780746982E+02 -0.32552975740E+02  0.40659149682E+02  0.00000000000E+00 0.  1.
         11    1    4    4    0    0  0.33345178696E+00  0.40049469967E+01 -0.11037110163E+01  0.41676094838E+01  0.51100000000E-03 0.  1.
        -11    1    4    4    0    0 -0.20356555556E+02 -0.10465124966E+02  0.20208483670E+02  0.30533440801E+02  0.51100000000E-03 0. -1.
        -12    1    4    4    0    0  0.65819369806E+00 -0.83205690123E+01  0.13448203086E+02  0.15827800033E+02  0.00000000000E+00 0.  1.
</event>
<event>
 8    1  0.6016610E-012  0.9118800E+02  0.7816164E-02  0.1184000E+00
        -11   -1    0    0    0    0  0.00000000000E+00  0.00000000000E+00  0.45593999997E+02  0.45594000000E+02  0.51100000000E-03 0. -1.
         11   -1    0    0    0    0 -0.00000000000E+00 -0.00000000000E+00 -0.45593999997E+02  0.45594000000E+02  0.51100000000E-03 0.  1.
         23    2    1    2    0    0  0.00000000000E+00  0.00000000000E+00  0.00000000000E+00  0.91188000000E+02  0.91188000000E+02 0.  0.
    9900012    2    3    3    0    0  0.20497961504E+02  0.34233235045E+02  0.78157377607E+01  0.50528848949E+02  0.29999966864E+02 0.  0.
        -12    1    3    3    0    0 -0.20497961504E+02 -0.34233235045E+02 -0.78157377607E+01  0.40659151051E+02  0.00000000000E+00 0.  1.
         11    1    4    4    0    0 -0.46330926109E+01  0.16000707132E+02 -0.21250862436E+01  0.16792979714E+02  0.51100000000E-03 0.  1.
        -11    1    4    4    0    0  0.24357919412E+02  0.14508212294E+02  0.79613556565E+01  0.29447914123E+02  0.51100000000E-03 0. -1.
        -12    1    4    4    0    0  0.77313470320E+00  0.37243156191E+01  0.19794683479E+01  0.42879551118E+01  0.00000000000E+00 0.  1.
</event>
<event>
 8    1  0.6016610E-012  0.9118800E+02  0.7816164E-02  0.1184000E+00
        -11   -1    0    0    0    0  0.00000000000E+00  0.00000000000E+00  0.45593999997E+02  0.45594000000E+02  0.51100000000E-03 0. -1.
         11   -1    0    0    0    0 -0.00000000000E+00 -0.00000000000E+00 -0.45593999997E+02  0.45594000000E+02  0.51100000000E-03 0.  1.
         23    2    1    2    0    0  0.00000000000E+00  0.71054273576E-14  0.00000000000E+00  0.91188000000E+02  0.91188000000E+02 0.  0.
    9900012    2    3    3    0    0  0.15934598118E+02 -0.33111261363E+02 -0.17403971071E+02  0.50528865045E+02  0.30000015792E+02 0.  0.
         12    1    3    3    0    0 -0.15934598118E+02  0.33111261363E+02  0.17403971071E+02  0.40659134955E+02  0.00000000000E+00 0. -1.
         11    1    4    4    0    0  0.19993837627E+02 -0.97781725693E+01 -0.89300327639E+01  0.23981486344E+02  0.51100000000E-03 0. -1.
        -11    1    4    4    0    0  0.25316695254E+01 -0.42003123764E+01 -0.12571677869E+01  0.50628495683E+01  0.51100000000E-03 0.  1.
         12    1    4    4    0    0 -0.65909090344E+01 -0.19132776417E+02 -0.72167705205E+01  0.21484529133E+02  0.00000000000E+00 0. -1.
</event>
<event>
 8    1  0.6891766E-012  0.9118800E+02  0.7816164E-02  0.1184000E+00
        -11   -1    0    0    0    0  0.00000000000E+00  0.00000000000E+00  0.45593999997E+02  0.45594000000E+02  0.51100000000E-03 0. -1.
         11   -1    0    0    0    0 -0.00000000000E+00 -0.00000000000E+00 -0.45593999997E+02  0.45594000000E+02  0.51100000000E-03 0.  1.
         23    2    1    2    0    0 -0.35527136788E-14  0.00000000000E+00  0.35527136788E-14  0.91188000000E+02  0.91188000000E+02 0.  0.
    9900012    2    3    3    0    0 -0.14297086655E+02  0.26233001735E+02  0.27578774891E+02  0.50528857224E+02  0.29999992017E+02 0.  0.
        -12    1    3    3    0    0  0.14297086655E+02 -0.26233001735E+02 -0.27578774891E+02  0.40659142776E+02  0.00000000000E+00 0.  1.
         11    1    4    4    0    0  0.85386442383E+00  0.10385650378E+02  0.21235901316E+02  0.23654900617E+02  0.51100000000E-03 0.  1.
        -11    1    4    4    0    0 -0.19406213719E+01  0.74898407092E+00 -0.38464863750E+01  0.43729219226E+01  0.51100000000E-03 0. -1.
         12    1    4    4    0    0 -0.13210329707E+02  0.15098367286E+02  0.10189359949E+02  0.22501034684E+02  0.00000000000E+00 0. -1.
</event>
<event>
 8    1  0.6733227E-012  0.9118800E+02  0.7816164E-02  0.1184000E+00
        -11   -1    0    0    0    0  0.00000000000E+00  0.00000000000E+00  0.45593999997E+02  0.45594000000E+02  0.51100000000E-03 0. -1.
         11   -1    0    0    0    0 -0.00000000000E+00 -0.00000000000E+00 -0.45593999997E+02  0.45594000000E+02  0.51100000000E-03 0.  1.
         23    2    1    2    0    0 -0.35527136788E-14  0.00000000000E+00  0.00000000000E+00  0.91188000000E+02  0.91188000000E+02 0.  0.
    9900012    2    3    3    0    0  0.22517613863E+02 -0.24230638290E+02  0.23643155415E+02  0.50528861248E+02  0.30000004250E+02 0.  0.
        -12    1    3    3    0    0 -0.22517613863E+02  0.24230638290E+02 -0.23643155415E+02  0.40659138752E+02  0.00000000000E+00 0.  1.
         11    1    4    4    0    0  0.18526588018E+02 -0.79874760076E+01  0.20128023544E+02  0.28498623978E+02  0.51100000000E-03 0. -1.
        -11    1    4    4    0    0 -0.59649922780E+00 -0.15389341864E+02  0.62508790253E+01  0.16621105354E+02  0.51100000000E-03 0.  1.
        -12    1    4    4    0    0  0.45875250733E+01 -0.85382041857E+00 -0.27357471542E+01  0.54091319172E+01  0.00000000000E+00 0.  1.
</event>
<event>
 8    1  0.6016610E-012  0.9118800E+02  0.7816164E-02  0.1184000E+00
        -11   -1    0    0    0    0  0.00000000000E+00  0.00000000000E+00  0.45593999997E+02  0.45594000000E+02  0.51100000000E-03 0. -1.
         11   -1    0    0    0    0 -0.00000000000E+00 -0.00000000000E+00 -0.45593999997E+02  0.45594000000E+02  0.51100000000E-03 0.  1.
         23    2    1    2    0    0  0.71054273576E-14 -0.88817841970E-15  0.00000000000E+00  0.91188000000E+02  0.91188000000E+02 0.  0.
    9900012    2    3    3    0    0  0.24232922403E+02 -0.25862700144E+01 -0.32545990122E+02  0.50528870720E+02  0.30000033041E+02 0.  0.
         12    1    3    3    0    0 -0.24232922403E+02  0.25862700144E+01  0.32545990122E+02  0.40659129280E+02  0.00000000000E+00 0. -1.
         11    1    4    4    0    0  0.18840214984E+02  0.59733473686E+01 -0.12405254564E+02  0.23335057757E+02  0.51100000000E-03 0. -1.
        -11    1    4    4    0    0  0.46167441402E+01 -0.12981112488E+02 -0.14915513676E+02  0.20305077108E+02  0.51100000000E-03 0.  1.
        -12    1    4    4    0    0  0.77596327889E+00  0.44214951052E+01 -0.52252218816E+01  0.68887358555E+01  0.00000000000E+00 0.  1.
</event>
<event>
 8    1  0.6016610E-012  0.9118800E+02  0.7816164E-02  0.1184000E+00
        -11   -1    0    0    0    0  0.00000000000E+00  0.00000000000E+00  0.45593999997E+02  0.45594000000E+02  0.51100000000E-03 0. -1.
         11   -1    0    0    0    0 -0.00000000000E+00 -0.00000000000E+00 -0.45593999997E+02  0.45594000000E+02  0.51100000000E-03 0.  1.
         23    2    1    2    0    0 -0.17763568394E-14 -0.35527136788E-14  0.71054273576E-14  0.91188000000E+02  0.91188000000E+02 0.  0.
    9900012    2    3    3    0    0  0.12498490314E+02  0.20319110021E+02 -0.32925475852E+02  0.50528862623E+02  0.30000008428E+02 0.  0.
         12    1    3    3    0    0 -0.12498490314E+02 -0.20319110021E+02  0.32925475852E+02  0.40659137377E+02  0.00000000000E+00 0. -1.
         11    1    4    4    0    0  0.12195967805E+02  0.26977739319E+01 -0.11979120949E+02  0.17306615899E+02  0.51100000000E-03 0. -1.
        -11    1    4    4    0    0  0.10555798090E+01  0.16616693394E+02 -0.24404442734E+02  0.29543283052E+02  0.51100000000E-03 0.  1.
        -12    1    4    4    0    0 -0.75305730048E+00  0.10046426952E+01  0.34580878315E+01  0.36789636711E+01  0.00000000000E+00 0.  1.
</event>
<event>
 8    1  0.6016610E-012  0.9118800E+02  0.7816164E-02  0.1184000E+00
        -11   -1    0    0    0    0  0.00000000000E+00  0.00000000000E+00  0.45593999997E+02  0.45594000000E+02  0.51100000000E-03 0. -1.
         11   -1    0    0    0    0 -0.00000000000E+00 -0.00000000000E+00 -0.45593999997E+02  0.45594000000E+02  0.51100000000E-03 0.  1.
         23    2    1    2    0    0  0.88817841970E-15  0.00000000000E+00  0.00000000000E+00  0.91188000000E+02  0.91188000000E+02 0.  0.
    9900012    2    3    3    0    0  0.25071548226E+01 -0.28964109780E+02 -0.28424626222E+02  0.50528869949E+02  0.30000030696E+02 0.  0.
         12    1    3    3    0    0 -0.25071548226E+01  0.28964109780E+02  0.28424626222E+02  0.40659130051E+02  0.00000000000E+00 0. -1.
         11    1    4    4    0    0 -0.37943054627E+01  0.21550134858E+00  0.12434585649E+01  0.39986728097E+01  0.51100000000E-03 0. -1.
        -11    1    4    4    0    0  0.12589576335E+02 -0.11540155259E+02 -0.15248007589E+02  0.22894854256E+02  0.51100000000E-03 0.  1.
        -12    1    4    4    0    0 -0.62881160495E+01 -0.17639455869E+02 -0.14420077198E+02  0.23635342883E+02  0.00000000000E+00 0.  1.
</event>
<event>
 8    1  0.6016610E-012  0.9118800E+02  0.7816164E-02  0.1184000E+00
        -11   -1    0    0    0    0  0.00000000000E+00  0.00000000000E+00  0.45593999997E+02  0.45594000000E+02  0.51100000000E-03 0. -1.
         11   -1    0    0    0    0 -0.00000000000E+00 -0.00000000000E+00 -0.45593999997E+02  0.45594000000E+02  0.51100000000E-03 0.  1.
         23    2    1    2    0    0 -0.44408920985E-15 -0.88817841970E-15  0.00000000000E+00  0.91188000000E+02  0.91188000000E+02 0.  0.
    9900012    2    3    3    0    0  0.15322695841E+01 -0.16934703891E+01 -0.40594953948E+02  0.50528856156E+02  0.29999988773E+02 0.  0.
         12    1    3    3    0    0 -0.15322695841E+01  0.16934703891E+01  0.40594953948E+02  0.40659143844E+02  0.00000000000E+00 0. -1.
         11    1    4    4    0    0  0.22919080214E+01  0.11950222079E+02 -0.15073286721E+02  0.19371748061E+02  0.51100000000E-03 0. -1.
        -11    1    4    4    0    0 -0.39867340682E+01 -0.12444091661E+02 -0.14082606111E+02  0.19211175418E+02  0.51100000000E-03 0.  1.
        -12    1    4    4    0    0  0.32270956309E+01 -0.11996008073E+01 -0.11439061116E+02  0.11945932677E+02  0.00000000000E+00 0.  1.
</event>
<event>
 8    1  0.6016610E-012  0.9118800E+02  0.7816164E-02  0.1184000E+00
        -11   -1    0    0    0    0  0.00000000000E+00  0.00000000000E+00  0.45593999997E+02  0.45594000000E+02  0.51100000000E-03 0. -1.
         11   -1    0    0    0    0 -0.00000000000E+00 -0.00000000000E+00 -0.45593999997E+02  0.45594000000E+02  0.51100000000E-03 0.  1.
         23    2    1    2    0    0  0.44408920985E-15  0.26645352591E-14 -0.71054273576E-14  0.91188000000E+02  0.91188000000E+02 0.  0.
    9900012    2    3    3    0    0  0.24996087073E+01  0.73253401386E+01 -0.39915624149E+02  0.50528859539E+02  0.29999999054E+02 0.  0.
         12    1    3    3    0    0 -0.24996087073E+01 -0.73253401386E+01  0.39915624149E+02  0.40659140461E+02  0.00000000000E+00 0. -1.
         11    1    4    4    0    0  0.25049117471E+01  0.10251084429E+01  0.21180585920E+00  0.27148282015E+01  0.51100000000E-03 0. -1.
        -11    1    4    4    0    0  0.29433177838E+01 -0.77809745613E+01 -0.27299480306E+02  0.28538891183E+02  0.51100000000E-03 0.  1.
        -12    1    4    4    0    0 -0.29486208236E+01  0.14081206257E+02 -0.12827949702E+02  0.19275140154E+02  0.00000000000E+00 0.  1.
</event>
<event>
 8    1  0.6016610E-012  0.9118800E+02  0.7816164E-02  0.1184000E+00
        -11   -1    0    0    0    0  0.00000000000E+00  0.00000000000E+00  0.45593999997E+02  0.45594000000E+02  0.51100000000E-03 0. -1.
         11   -1    0    0    0    0 -0.00000000000E+00 -0.00000000000E+00 -0.45593999997E+02  0.45594000000E+02  0.51100000000E-03 0.  1.
         23    2    1    2    0    0  0.00000000000E+00 -0.35527136788E-14  0.35527136788E-14  0.91188000000E+02  0.91188000000E+02 0.  0.
    9900012    2    3    3    0    0  0.22788125647E+02 -0.25487203110E+02  0.22006122724E+02  0.50528860434E+02  0.30000001776E+02 0.  0.
        -12    1    3    3    0    0 -0.22788125647E+02  0.25487203110E+02 -0.22006122724E+02  0.40659139566E+02  0.00000000000E+00 0.  1.
         11    1    4    4    0    0 -0.10455993059E+01  0.36415418552E+01  0.79387809734E+01  0.87964963819E+01  0.51100000000E-03 0. -1.
        -11    1    4    4    0    0  0.16804723859E+02 -0.17224668997E+02  0.34692745707E+01  0.24313038320E+02  0.51100000000E-03 0.  1.
         12    1    4    4    0    0  0.70290010943E+01 -0.11904075967E+02  0.10598067180E+02  0.17419325732E+02  0.00000000000E+00 0. -1.
</event>
<event>
 8    1  0.6016610E-012  0.9118800E+02  0.7816164E-02  0.1184000E+00
        -11   -1    0    0    0    0  0.00000000000E+00  0.00000000000E+00  0.45593999997E+02  0.45594000000E+02  0.51100000000E-03 0. -1.
         11   -1    0    0    0    0 -0.00000000000E+00 -0.00000000000E+00 -0.45593999997E+02  0.45594000000E+02  0.51100000000E-03 0.  1.
         23    2    1    2    0    0  0.00000000000E+00  0.00000000000E+00  0.00000000000E+00  0.91188000000E+02  0.91188000000E+02 0.  0.
    9900012    2    3    3    0    0  0.17730840644E+02 -0.24395233735E+02 -0.27270060868E+02  0.50528851476E+02  0.29999974546E+02 0.  0.
         12    1    3    3    0    0 -0.17730840644E+02  0.24395233735E+02  0.27270060868E+02  0.40659148524E+02  0.00000000000E+00 0. -1.
         11    1    4    4    0    0 -0.38259423975E+01  0.59886110688E+00 -0.55316694470E+01  0.67524689548E+01  0.51100000000E-03 0. -1.
        -11    1    4    4    0    0  0.22813205918E+02 -0.27120605585E+02 -0.21018227077E+02  0.41203585782E+02  0.51100000000E-03 0.  1.
        -12    1    4    4    0    0 -0.12564228759E+01  0.21265107423E+01 -0.72016434387E+00  0.25727967395E+01  0.00000000000E+00 0.  1.
</event>
<event>
 8    1  0.6016610E-012  0.9118800E+02  0.7816164E-02  0.1184000E+00
        -11   -1    0    0    0    0  0.00000000000E+00  0.00000000000E+00  0.45593999997E+02  0.45594000000E+02  0.51100000000E-03 0. -1.
         11   -1    0    0    0    0 -0.00000000000E+00 -0.00000000000E+00 -0.45593999997E+02  0.45594000000E+02  0.51100000000E-03 0.  1.
         23    2    1    2    0    0  0.35527136788E-14 -0.35527136788E-14  0.00000000000E+00  0.91188000000E+02  0.91188000000E+02 0.  0.
    9900012    2    3    3    0    0 -0.17012841499E+02  0.27775268171E+02  0.24336476482E+02  0.50528851147E+02  0.29999973547E+02 0.  0.
        -12    1    3    3    0    0  0.17012841499E+02 -0.27775268171E+02 -0.24336476482E+02  0.40659148853E+02  0.00000000000E+00 0.  1.
         11    1    4    4    0    0 -0.77036264195E+01  0.43817960525E+01  0.11704000938E+02  0.14680927589E+02  0.51100000000E-03 0. -1.
        -11    1    4    4    0    0  0.20505636970E+01  0.21731618776E+02  0.62166066330E+01  0.22696128841E+02  0.51100000000E-03 0.  1.
        -12    1    4    4    0    0 -0.11359778777E+02  0.16618533429E+01  0.64158689111E+01  0.13151794717E+02  0.00000000000E+00 0.  1.
</event>
<event>
 8    1  0.6016610E-012  0.9118800E+02  0.7816164E-02  0.1184000E+00
        -11   -1    0    0    0    0  0.00000000000E+00  0.00000000000E+00  0.45593999997E+02  0.45594000000E+02  0.51100000000E-03 0. -1.
         11   -1    0    0    0    0 -0.00000000000E+00 -0.00000000000E+00 -0.45593999997E+02  0.45594000000E+02  0.51100000000E-03 0.  1.
         23    2    1    2    0    0  0.00000000000E+00  0.00000000000E+00  0.00000000000E+00  0.91188000000E+02  0.91188000000E+02 0.  0.
    9900012    2    3    3    0    0  0.26822507427E+02 -0.28965719718E+02 -0.97317040093E+01  0.50528857284E+02  0.29999992201E+02 0.  0.
        -12    1    3    3    0    0 -0.26822507427E+02  0.28965719718E+02  0.97317040093E+01  0.40659142716E+02  0.00000000000E+00 0.  1.
         11    1    4    4    0    0  0.11945663045E+02 -0.19100475892E+02 -0.33781165516E+01  0.22780226438E+02  0.51100000000E-03 0. -1.
        -11    1    4    4    0    0 -0.43371096934E+01 -0.10009901546E+01  0.21507242165E+01  0.49434923585E+01  0.51100000000E-03 0.  1.
        -12    1    4    4    0    0  0.19213954076E+02 -0.88642536720E+01 -0.85043116742E+01  0.22805138488E+02  0.00000000000E+00 0.  1.
</event>
<event>
 8    1  0.6016610E-012  0.9118800E+02  0.7816164E-02  0.1184000E+00
        -11   -1    0    0    0    0  0.00000000000E+00  0.00000000000E+00  0.45593999997E+02  0.45594000000E+02  0.51100000000E-03 0. -1.
         11   -1    0    0    0    0 -0.00000000000E+00 -0.00000000000E+00 -0.45593999997E+02  0.45594000000E+02  0.51100000000E-03 0.  1.
         23    2    1    2    0    0 -0.17763568394E-14  0.00000000000E+00  0.00000000000E+00  0.91188000000E+02  0.91188000000E+02 0.  0.
    9900012    2    3    3    0    0 -0.67523589136E+01  0.31377876475E+01 -0.39971512116E+02  0.50528907006E+02  0.30000143335E+02 0.  0.
         12    1    3    3    0    0  0.67523589136E+01 -0.31377876475E+01  0.39971512116E+02  0.40659092994E+02  0.00000000000E+00 0. -1.
         11    1    4    4    0    0  0.92849849764E+01  0.43960151969E+01 -0.28524252263E+02  0.30317797794E+02  0.51100000000E-03 0. -1.
        -11    1    4    4    0    0 -0.83803456571E+01  0.10738858455E+01 -0.74494182268E+01  0.11263980483E+02  0.51100000000E-03 0.  1.
         12    1    4    4    0    0 -0.76569982330E+01 -0.23321133949E+01 -0.39978416263E+01  0.89471287291E+01  0.00000000000E+00 0. -1.
</event>
<event>
 8    1  0.6016610E-012  0.9118800E+02  0.7816164E-02  0.1184000E+00
        -11   -1    0    0    0    0  0.00000000000E+00  0.00000000000E+00  0.45593999997E+02  0.45594000000E+02  0.51100000000E-03 0. -1.
         11   -1    0    0    0    0 -0.00000000000E+00 -0.00000000000E+00 -0.45593999997E+02  0.45594000000E+02  0.51100000000E-03 0.  1.
         23    2    1    2    0    0  0.17763568394E-14  0.00000000000E+00  0.00000000000E+00  0.91188000000E+02  0.91188000000E+02 0.  0.
    9900012    2    3    3    0    0  0.10867468175E+02 -0.22439447867E+02  0.32117521326E+02  0.50528857593E+02  0.29999993140E+02 0.  0.
        -12    1    3    3    0    0 -0.10867468175E+02  0.22439447867E+02 -0.32117521326E+02  0.40659142407E+02  0.00000000000E+00 0.  1.
         11    1    4    4    0    0 -0.40924697543E+01 -0.17172669145E+02  0.25104417517E+02  0.30690074183E+02  0.51100000000E-03 0. -1.
        -11    1    4    4    0    0  0.97443770916E+01 -0.78560057396E+01  0.33420617765E+01  0.12955272605E+02  0.51100000000E-03 0.  1.
         12    1    4    4    0    0  0.52155608376E+01  0.25892270172E+01  0.36710420330E+01  0.68835108052E+01  0.00000000000E+00 0. -1.
</event>
<event>
 8    1  0.6016610E-012  0.9118800E+02  0.7816164E-02  0.1184000E+00
        -11   -1    0    0    0    0  0.00000000000E+00  0.00000000000E+00  0.45593999997E+02  0.45594000000E+02  0.51100000000E-03 0. -1.
         11   -1    0    0    0    0 -0.00000000000E+00 -0.00000000000E+00 -0.45593999997E+02  0.45594000000E+02  0.51100000000E-03 0.  1.
         23    2    1    2    0    0  0.00000000000E+00  0.00000000000E+00 -0.94368957093E-15  0.91188000000E+02  0.91188000000E+02 0.  0.
    9900012    2    3    3    0    0 -0.34336785679E+02  0.21772296041E+02 -0.34569049891E+00  0.50528840790E+02  0.29999942066E+02 0.  0.
         12    1    3    3    0    0  0.34336785679E+02 -0.21772296041E+02  0.34569049891E+00  0.40659159210E+02  0.00000000000E+00 0. -1.
         11    1    4    4    0    0 -0.17008926683E+02  0.18264132811E+02  0.75812130123E+01  0.26083652452E+02  0.51100000000E-03 0. -1.
        -11    1    4    4    0    0 -0.13804021878E+02  0.72326382119E+01 -0.10417189017E+02  0.18745130108E+02  0.51100000000E-03 0.  1.
         12    1    4    4    0    0 -0.35238371191E+01 -0.37244749812E+01  0.24902855058E+01  0.57000582303E+01  0.00000000000E+00 0. -1.
</event>
<event>
 8    1  0.6016610E-012  0.9118800E+02  0.7816164E-02  0.1184000E+00
        -11   -1    0    0    0    0  0.00000000000E+00  0.00000000000E+00  0.45593999997E+02  0.45594000000E+02  0.51100000000E-03 0. -1.
         11   -1    0    0    0    0 -0.00000000000E+00 -0.00000000000E+00 -0.45593999997E+02  0.45594000000E+02  0.51100000000E-03 0.  1.
         23    2    1    2    0    0 -0.35527136788E-14  0.00000000000E+00  0.35527136788E-14  0.91188000000E+02  0.91188000000E+02 0.  0.
    9900012    2    3    3    0    0 -0.28885811743E+02  0.68248457657E+01  0.27788430534E+02  0.50528861897E+02  0.30000006221E+02 0.  0.
        -12    1    3    3    0    0  0.28885811743E+02 -0.68248457657E+01 -0.27788430534E+02  0.40659138103E+02  0.00000000000E+00 0.  1.
         11    1    4    4    0    0  0.58274940937E+01  0.34812719107E+01  0.35986732075E+01  0.76830586776E+01  0.51100000000E-03 0. -1.
        -11    1    4    4    0    0 -0.14726346840E+01 -0.94580144248E+00  0.19595472721E+01  0.26273597115E+01  0.51100000000E-03 0.  1.
         12    1    4    4    0    0 -0.33240671153E+02  0.42893752974E+01  0.22230210054E+02  0.40218443508E+02  0.00000000000E+00 0. -1.
</event>
<event>
 8    1  0.6016610E-012  0.9118800E+02  0.7816164E-02  0.1184000E+00
        -11   -1    0    0    0    0  0.00000000000E+00  0.00000000000E+00  0.45593999997E+02  0.45594000000E+02  0.51100000000E-03 0. -1.
         11   -1    0    0    0    0 -0.00000000000E+00 -0.00000000000E+00 -0.45593999997E+02  0.45594000000E+02  0.51100000000E-03 0.  1.
         23    2    1    2    0    0 -0.88817841970E-15  0.00000000000E+00  0.00000000000E+00  0.91188000000E+02  0.91188000000E+02 0.  0.
    9900012    2    3    3    0    0  0.40538577895E+01  0.17474163123E+02 -0.36488153982E+02  0.50528861779E+02  0.30000005865E+02 0.  0.
         12    1    3    3    0    0 -0.40538577895E+01 -0.17474163123E+02  0.36488153982E+02  0.40659138221E+02  0.00000000000E+00 0. -1.
         11    1    4    4    0    0  0.65634785789E+01 -0.56239887122E+01 -0.14137587249E+02  0.16570451822E+02  0.51100000000E-03 0. -1.
        -11    1    4    4    0    0  0.67916112163E+00  0.20916783365E+02 -0.21497333529E+02  0.30001807200E+02  0.51100000000E-03 0.  1.
        -12    1    4    4    0    0 -0.31887819110E+01  0.21813684709E+01 -0.85323320375E+00  0.39566027576E+01  0.00000000000E+00 0.  1.
</event>
<event>
 8    1  0.6016610E-012  0.9118800E+02  0.7816164E-02  0.1184000E+00
        -11   -1    0    0    0    0  0.00000000000E+00  0.00000000000E+00  0.45593999997E+02  0.45594000000E+02  0.51100000000E-03 0. -1.
         11   -1    0    0    0    0 -0.00000000000E+00 -0.00000000000E+00 -0.45593999997E+02  0.45594000000E+02  0.51100000000E-03 0.  1.
         23    2    1    2    0    0  0.71054273576E-14  0.00000000000E+00  0.00000000000E+00  0.91188000000E+02  0.91188000000E+02 0.  0.
    9900012    2    3    3    0    0 -0.36424086328E+02 -0.12040184791E+02  0.13471708248E+02  0.50528843126E+02  0.29999949165E+02 0.  0.
        -12    1    3    3    0    0  0.36424086328E+02  0.12040184791E+02 -0.13471708248E+02  0.40659156874E+02  0.00000000000E+00 0.  1.
         11    1    4    4    0    0 -0.16274654793E+02 -0.16928708829E+02 -0.27212202619E+01  0.23640021388E+02  0.51100000000E-03 0. -1.
        -11    1    4    4    0    0 -0.41854536399E+01  0.33543113927E+01  0.31760233504E+01  0.62335023602E+01  0.51100000000E-03 0.  1.
         12    1    4    4    0    0 -0.15963977895E+02  0.15342126453E+01  0.13016905160E+02  0.20655319378E+02  0.00000000000E+00 0. -1.
</event>
<event>
 8    1  0.6016610E-012  0.9118800E+02  0.7816164E-02  0.1184000E+00
        -11   -1    0    0    0    0  0.00000000000E+00  0.00000000000E+00  0.45593999997E+02  0.45594000000E+02  0.51100000000E-03 0. -1.
         11   -1    0    0    0    0 -0.00000000000E+00 -0.00000000000E+00 -0.45593999997E+02  0.45594000000E+02  0.51100000000E-03 0.  1.
         23    2    1    2    0    0 -0.17763568394E-14 -0.88817841970E-15 -0.14210854715E-13  0.91188000000E+02  0.91188000000E+02 0.  0.
    9900012    2    3    3    0    0 -0.70529047873E+01 -0.50492382171E+01 -0.39723142628E+02  0.50528851795E+02  0.29999975515E+02 0.  0.
         12    1    3    3    0    0  0.70529047873E+01  0.50492382171E+01  0.39723142628E+02  0.40659148205E+02  0.00000000000E+00 0. -1.
         11    1    4    4    0    0  0.37223659878E+01 -0.74222147085E+01 -0.18564178852E+01  0.85083234161E+01  0.51100000000E-03 0. -1.
        -11    1    4    4    0    0 -0.74554604953E+01  0.66634480760E+01 -0.33779157228E+02  0.35228069700E+02  0.51100000000E-03 0.  1.
         12    1    4    4    0    0 -0.33198102799E+01 -0.42904715846E+01 -0.40875675147E+01  0.67924586785E+01  0.00000000000E+00 0. -1.
</event>
<event>
 8    1  0.6016610E-012  0.9118800E+02  0.7816164E-02  0.1184000E+00
        -11   -1    0    0    0    0  0.00000000000E+00  0.00000000000E+00  0.45593999997E+02  0.45594000000E+02  0.51100000000E-03 0. -1.
         11   -1    0    0    0    0 -0.00000000000E+00 -0.00000000000E+00 -0.45593999997E+02  0.45594000000E+02  0.51100000000E-03 0.  1.
         23    2    1    2    0    0  0.00000000000E+00  0.00000000000E+00  0.71054273576E-14  0.91188000000E+02  0.91188000000E+02 0.  0.
    9900012    2    3    3    0    0 -0.10035659093E+02  0.20401688776E+02  0.33707918432E+02  0.50528842073E+02  0.29999945964E+02 0.  0.
        -12    1    3    3    0    0  0.10035659093E+02 -0.20401688776E+02 -0.33707918432E+02  0.40659157927E+02  0.00000000000E+00 0.  1.
         11    1    4    4    0    0 -0.39467003082E+01  0.14440697181E+02  0.19037543947E+02  0.24218551943E+02  0.51100000000E-03 0. -1.
        -11    1    4    4    0    0  0.24557984634E+01  0.46706662770E+01 -0.34017186705E+01  0.62783564520E+01  0.51100000000E-03 0.  1.
         12    1    4    4    0    0 -0.85447572482E+01  0.12903253178E+01  0.18072093155E+02  0.20031933678E+02  0.00000000000E+00 0. -1.
</event>
<event>
 8    1  0.6016610E-012  0.9118800E+02  0.7816164E-02  0.1184000E+00
        -11   -1    0    0    0    0  0.00000000000E+00  0.00000000000E+00  0.45593999997E+02  0.45594000000E+02  0.51100000000E-03 0. -1.
         11   -1    0    0    0    0 -0.00000000000E+00 -0.00000000000E+00 -0.45593999997E+02  0.45594000000E+02  0.51100000000E-03 0.  1.
         23    2    1    2    0    0 -0.35527136788E-14  0.71054273576E-14 -0.35527136788E-14  0.91188000000E+02  0.91188000000E+02 0.  0.
    9900012    2    3    3    0    0 -0.22373405124E+02  0.27545779496E+02 -0.19845066386E+02  0.50528857304E+02  0.29999992263E+02 0.  0.
         12    1    3    3    0    0  0.22373405124E+02 -0.27545779496E+02  0.19845066386E+02  0.40659142696E+02  0.00000000000E+00 0. -1.
         11    1    4    4    0    0 -0.18806935663E+02  0.12953448244E+02 -0.14323019145E+02  0.26956289213E+02  0.51100000000E-03 0. -1.
        -11    1    4    4    0    0  0.14159286049E+01  0.13651278369E+02 -0.98603992482E+01  0.16899400241E+02  0.51100000000E-03 0.  1.
        -12    1    4    4    0    0 -0.49823980660E+01  0.94105288276E+00  0.43383520073E+01  0.66731678501E+01  0.00000000000E+00 0.  1.
</event>
<event>
 8    1  0.6016610E-012  0.9118800E+02  0.7816164E-02  0.1184000E+00
        -11   -1    0    0    0    0  0.00000000000E+00  0.00000000000E+00  0.45593999997E+02  0.45594000000E+02  0.51100000000E-03 0. -1.
         11   -1    0    0    0    0 -0.00000000000E+00 -0.00000000000E+00 -0.45593999997E+02  0.45594000000E+02  0.51100000000E-03 0.  1.
         23    2    1    2    0    0  0.00000000000E+00 -0.17763568394E-14  0.00000000000E+00  0.91188000000E+02  0.91188000000E+02 0.  0.
    9900012    2    3    3    0    0 -0.32859648210E+02  0.85502892442E+01  0.22367416919E+02  0.50528864910E+02  0.30000015379E+02 0.  0.
        -12    1    3    3    0    0  0.32859648210E+02 -0.85502892442E+01 -0.22367416919E+02  0.40659135090E+02  0.00000000000E+00 0.  1.
         11    1    4    4    0    0 -0.16777978737E+02  0.15164594865E+02  0.13657217726E+02  0.26419407718E+02  0.51100000000E-03 0. -1.
        -11    1    4    4    0    0  0.21543417769E+01 -0.30993730976E+01  0.24982327079E+01  0.45264190055E+01  0.51100000000E-03 0.  1.
         12    1    4    4    0    0 -0.18236011250E+02 -0.35149325234E+01  0.62119664858E+01  0.19583038186E+02  0.00000000000E+00 0. -1.
</event>
<event>
 8    1  0.6395764E-012  0.9118800E+02  0.7816164E-02  0.1184000E+00
        -11   -1    0    0    0    0  0.00000000000E+00  0.00000000000E+00  0.45593999997E+02  0.45594000000E+02  0.51100000000E-03 0. -1.
         11   -1    0    0    0    0 -0.00000000000E+00 -0.00000000000E+00 -0.45593999997E+02  0.45594000000E+02  0.51100000000E-03 0.  1.
         23    2    1    2    0    0 -0.88817841970E-15 -0.35527136788E-14 -0.35527136788E-14  0.91188000000E+02  0.91188000000E+02 0.  0.
    9900012    2    3    3    0    0 -0.43492104747E+01  0.31750250567E+02  0.25023419650E+02  0.50528861128E+02  0.30000003884E+02 0.  0.
        -12    1    3    3    0    0  0.43492104747E+01 -0.31750250567E+02 -0.25023419650E+02  0.40659138872E+02  0.00000000000E+00 0.  1.
         11    1    4    4    0    0 -0.39407118445E+01  0.19510237314E+02  0.86490366990E+01  0.21702175144E+02  0.51100000000E-03 0. -1.
        -11    1    4    4    0    0  0.76007445111E+01  0.74161564836E+01  0.16327162266E+02  0.19476830390E+02  0.51100000000E-03 0.  1.
        -12    1    4    4    0    0 -0.80092431413E+01  0.48238567694E+01  0.47220685180E-01  0.93498555936E+01  0.00000000000E+00 0.  1.
</event>
<event>
 8    1  0.6016610E-012  0.9118800E+02  0.7816164E-02  0.1184000E+00
        -11   -1    0    0    0    0  0.00000000000E+00  0.00000000000E+00  0.45593999997E+02  0.45594000000E+02  0.51100000000E-03 0.  1.
         11   -1    0    0    0    0 -0.00000000000E+00 -0.00000000000E+00 -0.45593999997E+02  0.45594000000E+02  0.51100000000E-03 0. -1.
         23    2    1    2    0    0  0.35527136788E-14  0.35527136788E-14  0.00000000000E+00  0.91188000000E+02  0.91188000000E+02 0.  0.
    9900012    2    3    3    0    0  0.18742667421E+02  0.30798111024E+02 -0.18797722932E+02  0.50528860656E+02  0.30000002451E+02 0.  0.
         12    1    3    3    0    0 -0.18742667421E+02 -0.30798111024E+02  0.18797722932E+02  0.40659139344E+02  0.00000000000E+00 0. -1.
         11    1    4    4    0    0 -0.48348662327E+01  0.26235477170E+01 -0.11596909704E+02  0.12835390491E+02  0.51100000000E-03 0. -1.
        -11    1    4    4    0    0  0.15381291340E+02  0.17428076510E+02 -0.24773357986E+01  0.23376466093E+02  0.51100000000E-03 0.  1.
         12    1    4    4    0    0  0.81962423142E+01  0.10746486798E+02 -0.47234774293E+01  0.14317004072E+02  0.00000000000E+00 0. -1.
</event>
<event>
 8    1  0.6016610E-012  0.9118800E+02  0.7816164E-02  0.1184000E+00
        -11   -1    0    0    0    0  0.00000000000E+00  0.00000000000E+00  0.45593999997E+02  0.45594000000E+02  0.51100000000E-03 0. -1.
         11   -1    0    0    0    0 -0.00000000000E+00 -0.00000000000E+00 -0.45593999997E+02  0.45594000000E+02  0.51100000000E-03 0.  1.
         23    2    1    2    0    0  0.88817841970E-15  0.13322676296E-14  0.00000000000E+00  0.91188000000E+02  0.91188000000E+02 0.  0.
    9900012    2    3    3    0    0  0.76833619747E+01 -0.23280177701E+01  0.39858648510E+02  0.50528861064E+02  0.30000003691E+02 0.  0.
        -12    1    3    3    0    0 -0.76833619747E+01  0.23280177701E+01 -0.39858648510E+02  0.40659138936E+02  0.00000000000E+00 0.  1.
         11    1    4    4    0    0 -0.23073573635E-01 -0.12973045626E+02  0.17440471039E+02  0.21736385981E+02  0.51100000000E-03 0. -1.
        -11    1    4    4    0    0  0.99456896369E+01  0.11751397411E+02  0.20531514325E+02  0.25662329672E+02  0.51100000000E-03 0.  1.
        -12    1    4    4    0    0 -0.22392540886E+01 -0.11063695553E+01  0.18866631462E+01  0.31301454109E+01  0.00000000000E+00 0.  1.
</event>
<event>
 8    1  0.6016610E-012  0.9118800E+02  0.7816164E-02  0.1184000E+00
        -11   -1    0    0    0    0  0.00000000000E+00  0.00000000000E+00  0.45593999997E+02  0.45594000000E+02  0.51100000000E-03 0. -1.
         11   -1    0    0    0    0 -0.00000000000E+00 -0.00000000000E+00 -0.45593999997E+02  0.45594000000E+02  0.51100000000E-03 0.  1.
         23    2    1    2    0    0 -0.17763568394E-14  0.00000000000E+00  0.00000000000E+00  0.91188000000E+02  0.91188000000E+02 0.  0.
    9900012    2    3    3    0    0 -0.44980564585E+01 -0.22904040549E+02  0.33291710772E+02  0.50528860911E+02  0.30000003224E+02 0.  0.
        -12    1    3    3    0    0  0.44980564585E+01  0.22904040549E+02 -0.33291710772E+02  0.40659139089E+02  0.00000000000E+00 0.  1.
         11    1    4    4    0    0  0.81973276018E+00 -0.16455976864E+02  0.24804995041E+01  0.16662053127E+02  0.51100000000E-03 0. -1.
        -11    1    4    4    0    0 -0.50793427971E+01  0.82617249114E+00  0.55091481543E+01  0.75387663369E+01  0.51100000000E-03 0.  1.
         12    1    4    4    0    0 -0.23844642154E+00 -0.72742361757E+01  0.25302063114E+02  0.26328041447E+02  0.00000000000E+00 0. -1.
</event>
<event>
 8    1  0.6016610E-012  0.9118800E+02  0.7816164E-02  0.1184000E+00
        -11   -1    0    0    0    0  0.00000000000E+00  0.00000000000E+00  0.45593999997E+02  0.45594000000E+02  0.51100000000E-03 0. -1.
         11   -1    0    0    0    0 -0.00000000000E+00 -0.00000000000E+00 -0.45593999997E+02  0.45594000000E+02  0.51100000000E-03 0.  1.
         23    2    1    2    0    0 -0.35527136788E-14 -0.44408920985E-15  0.00000000000E+00  0.91188000000E+02  0.91188000000E+02 0.  0.
    9900012    2    3    3    0    0 -0.22141748672E+02  0.26982949383E+01 -0.33994510169E+02  0.50528873701E+02  0.30000042100E+02 0.  0.
         12    1    3    3    0    0  0.22141748672E+02 -0.26982949383E+01  0.33994510169E+02  0.40659126299E+02  0.00000000000E+00 0. -1.
         11    1    4    4    0    0  0.51391273912E+01  0.91697510711E+00 -0.10343920099E+02  0.11586550693E+02  0.51100000000E-03 0.  1.
        -11    1    4    4    0    0 -0.20059477428E+02 -0.51039032081E+01 -0.13518382333E+02  0.24722037210E+02  0.51100000000E-03 0. -1.
        -12    1    4    4    0    0 -0.72213986344E+01  0.68852230392E+01 -0.10132207738E+02  0.14220285798E+02  0.00000000000E+00 0.  1.
</event>
<event>
 8    1  0.6016610E-012  0.9118800E+02  0.7816164E-02  0.1184000E+00
        -11   -1    0    0    0    0  0.00000000000E+00  0.00000000000E+00  0.45593999997E+02  0.45594000000E+02  0.51100000000E-03 0. -1.
         11   -1    0    0    0    0 -0.00000000000E+00 -0.00000000000E+00 -0.45593999997E+02  0.45594000000E+02  0.51100000000E-03 0.  1.
         23    2    1    2    0    0 -0.88817841970E-15  0.35527136788E-14  0.00000000000E+00  0.91188000000E+02  0.91188000000E+02 0.  0.
    9900012    2    3    3    0    0  0.41388586446E+01  0.21753704581E+02  0.34100033306E+02  0.50528854838E+02  0.29999984765E+02 0.  0.
        -12    1    3    3    0    0 -0.41388586446E+01 -0.21753704581E+02 -0.34100033306E+02  0.40659145162E+02  0.00000000000E+00 0.  1.
         11    1    4    4    0    0  0.10196748264E+02  0.85514394038E+01  0.15111512492E+02  0.20136002609E+02  0.51100000000E-03 0.  1.
        -11    1    4    4    0    0 -0.36591087051E+01 -0.23148989101E+01  0.12805700066E+02  0.13517906196E+02  0.51100000000E-03 0. -1.
         12    1    4    4    0    0 -0.23987809144E+01  0.15517164087E+02  0.61828207481E+01  0.16874946032E+02  0.00000000000E+00 0. -1.
</event>
<event>
 8    1  0.6016610E-012  0.9118800E+02  0.7816164E-02  0.1184000E+00
        -11   -1    0    0    0    0  0.00000000000E+00  0.00000000000E+00  0.45593999997E+02  0.45594000000E+02  0.51100000000E-03 0.  1.
         11   -1    0    0    0    0 -0.00000000000E+00 -0.00000000000E+00 -0.45593999997E+02  0.45594000000E+02  0.51100000000E-03 0. -1.
         23    2    1    2    0    0  0.22204460493E-15  0.71054273576E-14  0.22204460493E-15  0.91188000000E+02  0.91188000000E+02 0.  0.
    9900012    2    3    3    0    0 -0.10576651063E+01 -0.40639045455E+02 -0.71821588514E+00  0.50528849677E+02  0.29999969078E+02 0.  0.
        -12    1    3    3    0    0  0.10576651063E+01  0.40639045455E+02  0.71821588514E+00  0.40659150323E+02  0.00000000000E+00 0.  1.
         11    1    4    4    0    0  0.47522169584E+00 -0.72841681510E+01  0.11950016444E+02  0.14003136598E+02  0.51100000000E-03 0. -1.
        -11    1    4    4    0    0 -0.38011507873E+01 -0.23832947752E+02 -0.11277387865E+02  0.26639024441E+02  0.51100000000E-03 0.  1.
         12    1    4    4    0    0  0.22682639852E+01 -0.95219295519E+01 -0.13908444645E+01  0.98866886379E+01  0.00000000000E+00 0. -1.
</event>
<event>
 8    1  0.6016610E-012  0.9118800E+02  0.7816164E-02  0.1184000E+00
        -11   -1    0    0    0    0  0.00000000000E+00  0.00000000000E+00  0.45593999997E+02  0.45594000000E+02  0.51100000000E-03 0. -1.
         11   -1    0    0    0    0 -0.00000000000E+00 -0.00000000000E+00 -0.45593999997E+02  0.45594000000E+02  0.51100000000E-03 0.  1.
         23    2    1    2    0    0  0.00000000000E+00  0.00000000000E+00  0.00000000000E+00  0.91188000000E+02  0.91188000000E+02 0.  0.
    9900012    2    3    3    0    0 -0.28270569065E+02  0.91526553237E+01 -0.27751931168E+02  0.50528857630E+02  0.29999993251E+02 0.  0.
         12    1    3    3    0    0  0.28270569065E+02 -0.91526553237E+01  0.27751931168E+02  0.40659142370E+02  0.00000000000E+00 0. -1.
         11    1    4    4    0    0 -0.27062791925E+01 -0.69909003581E+01 -0.12558895612E+02  0.14626089503E+02  0.51100000000E-03 0. -1.
        -11    1    4    4    0    0 -0.52972058352E+01  0.75265308609E+01 -0.99969497478E-01  0.92042952268E+01  0.51100000000E-03 0.  1.
         12    1    4    4    0    0 -0.20267084037E+02  0.86170248210E+01 -0.15093066059E+02  0.26698472900E+02  0.00000000000E+00 0. -1.
</event>
<event>
 8    1  0.6016610E-012  0.9118800E+02  0.7816164E-02  0.1184000E+00
        -11   -1    0    0    0    0  0.00000000000E+00  0.00000000000E+00  0.45593999997E+02  0.45594000000E+02  0.51100000000E-03 0. -1.
         11   -1    0    0    0    0 -0.00000000000E+00 -0.00000000000E+00 -0.45593999997E+02  0.45594000000E+02  0.51100000000E-03 0.  1.
         23    2    1    2    0    0  0.00000000000E+00  0.88817841970E-15  0.00000000000E+00  0.91188000000E+02  0.91188000000E+02 0.  0.
    9900012    2    3    3    0    0  0.16769451648E+02 -0.44421792772E+01 -0.36772514348E+02  0.50528864781E+02  0.30000014989E+02 0.  0.
         12    1    3    3    0    0 -0.16769451648E+02  0.44421792772E+01  0.36772514348E+02  0.40659135219E+02  0.00000000000E+00 0. -1.
         11    1    4    4    0    0 -0.42335034674E+01 -0.36579872236E+01 -0.10845593797E+02  0.12203701374E+02  0.51100000000E-03 0.  1.
        -11    1    4    4    0    0  0.11925226516E+02  0.86777417671E+01 -0.16766147159E+02  0.22329754151E+02  0.51100000000E-03 0. -1.
         12    1    4    4    0    0  0.90777285998E+01 -0.94619338207E+01 -0.91607733912E+01  0.15995409256E+02  0.00000000000E+00 0. -1.
</event>
<event>
 8    1  0.6016610E-012  0.9118800E+02  0.7816164E-02  0.1184000E+00
        -11   -1    0    0    0    0  0.00000000000E+00  0.00000000000E+00  0.45593999997E+02  0.45594000000E+02  0.51100000000E-03 0. -1.
         11   -1    0    0    0    0 -0.00000000000E+00 -0.00000000000E+00 -0.45593999997E+02  0.45594000000E+02  0.51100000000E-03 0.  1.
         23    2    1    2    0    0  0.00000000000E+00  0.88817841970E-15  0.00000000000E+00  0.91188000000E+02  0.91188000000E+02 0.  0.
    9900012    2    3    3    0    0  0.22735713784E+02  0.29193272411E+01 -0.33581695034E+02  0.50528863337E+02  0.30000010600E+02 0.  0.
         12    1    3    3    0    0 -0.22735713784E+02 -0.29193272411E+01  0.33581695034E+02  0.40659136663E+02  0.00000000000E+00 0. -1.
         11    1    4    4    0    0  0.14232503615E+02 -0.10460250356E+02 -0.12627796677E+02  0.21712720830E+02  0.51100000000E-03 0. -1.
        -11    1    4    4    0    0  0.10369413205E+02  0.56599094363E+01 -0.11802653966E+02  0.16699160037E+02  0.51100000000E-03 0.  1.
         12    1    4    4    0    0 -0.18662030361E+01  0.77196681605E+01 -0.91512443911E+01  0.12116982470E+02  0.00000000000E+00 0. -1.
</event>
<event>
 8    1  0.6016610E-012  0.9118800E+02  0.7816164E-02  0.1184000E+00
        -11   -1    0    0    0    0  0.00000000000E+00  0.00000000000E+00  0.45593999997E+02  0.45594000000E+02  0.51100000000E-03 0. -1.
         11   -1    0    0    0    0 -0.00000000000E+00 -0.00000000000E+00 -0.45593999997E+02  0.45594000000E+02  0.51100000000E-03 0.  1.
         23    2    1    2    0    0  0.00000000000E+00  0.00000000000E+00  0.00000000000E+00  0.91188000000E+02  0.91188000000E+02 0.  0.
    9900012    2    3    3    0    0  0.88622223847E+01  0.22612806644E+02  0.32608017972E+02  0.50528919268E+02  0.30000180607E+02 0.  0.
        -12    1    3    3    0    0 -0.88622223847E+01 -0.22612806644E+02 -0.32608017972E+02  0.40659080732E+02  0.00000000000E+00 0.  1.
         11    1    4    4    0    0  0.47329126950E+01  0.19109604047E+02  0.32752647106E+02  0.38214046136E+02  0.51100000000E-03 0. -1.
        -11    1    4    4    0    0  0.15552017794E+01 -0.40424967916E+01 -0.28810930209E+00  0.43409031452E+01  0.51100000000E-03 0.  1.
        -12    1    4    4    0    0  0.25741079103E+01  0.75456993882E+01  0.14348016802E+00  0.79739699867E+01  0.00000000000E+00 0.  1.
</event>
<event>
 8    1  0.1114703E-011  0.9118800E+02  0.7816164E-02  0.1184000E+00
        -11   -1    0    0    0    0  0.00000000000E+00  0.00000000000E+00  0.45593999997E+02  0.45594000000E+02  0.51100000000E-03 0. -1.
         11   -1    0    0    0    0 -0.00000000000E+00 -0.00000000000E+00 -0.45593999997E+02  0.45594000000E+02  0.51100000000E-03 0.  1.
         23    2    1    2    0    0  0.17763568394E-14  0.11102230246E-15  0.71054273576E-14  0.91188000000E+02  0.91188000000E+02 0.  0.
    9900012    2    3    3    0    0  0.12186423575E+02  0.60044566144E-01  0.38789865468E+02  0.50528853576E+02  0.29999980930E+02 0.  0.
        -12    1    3    3    0    0 -0.12186423575E+02 -0.60044566144E-01 -0.38789865468E+02  0.40659146424E+02  0.00000000000E+00 0.  1.
         11    1    4    4    0    0  0.13399068552E+02 -0.35431786229E+01  0.26952676575E+02  0.30307357649E+02  0.51100000000E-03 0. -1.
        -11    1    4    4    0    0 -0.21182056599E+01 -0.43201680269E+01 -0.11813864602E+01  0.49544244094E+01  0.51100000000E-03 0.  1.
        -12    1    4    4    0    0  0.90556068284E+00  0.79233912159E+01  0.13018575353E+02  0.15267071518E+02  0.00000000000E+00 0.  1.
</event>
<event>
 8    1  0.6016610E-012  0.9118800E+02  0.7816164E-02  0.1184000E+00
        -11   -1    0    0    0    0  0.00000000000E+00  0.00000000000E+00  0.45593999997E+02  0.45594000000E+02  0.51100000000E-03 0. -1.
         11   -1    0    0    0    0 -0.00000000000E+00 -0.00000000000E+00 -0.45593999997E+02  0.45594000000E+02  0.51100000000E-03 0.  1.
         23    2    1    2    0    0  0.00000000000E+00  0.49960036108E-15  0.00000000000E+00  0.91188000000E+02  0.91188000000E+02 0.  0.
    9900012    2    3    3    0    0  0.36039095999E+02 -0.37312368631E+00  0.18820459989E+02  0.50528863561E+02  0.30000011281E+02 0.  0.
        -12    1    3    3    0    0 -0.36039095999E+02  0.37312368631E+00 -0.18820459989E+02  0.40659136439E+02  0.00000000000E+00 0.  1.
         11    1    4    4    0    0 -0.42355024077E+00  0.54408311383E+01 -0.32208846301E+01  0.63368869599E+01  0.51100000000E-03 0. -1.
        -11    1    4    4    0    0  0.22826160695E+02 -0.79815036918E+01  0.16698228311E+02  0.29386541856E+02  0.51100000000E-03 0.  1.
         12    1    4    4    0    0  0.13636485545E+02  0.21675488672E+01  0.53431163079E+01  0.14805434745E+02  0.00000000000E+00 0. -1.
</event>
<event>
 8    1  0.6016610E-012  0.9118800E+02  0.7816164E-02  0.1184000E+00
        -11   -1    0    0    0    0  0.00000000000E+00  0.00000000000E+00  0.45593999997E+02  0.45594000000E+02  0.51100000000E-03 0. -1.
         11   -1    0    0    0    0 -0.00000000000E+00 -0.00000000000E+00 -0.45593999997E+02  0.45594000000E+02  0.51100000000E-03 0.  1.
         23    2    1    2    0    0  0.00000000000E+00 -0.88817841970E-15  0.00000000000E+00  0.91188000000E+02  0.91188000000E+02 0.  0.
    9900012    2    3    3    0    0 -0.77541929593E+01  0.69674146931E+01 -0.39300042334E+02  0.50528859534E+02  0.29999999041E+02 0.  0.
         12    1    3    3    0    0  0.77541929593E+01 -0.69674146931E+01  0.39300042334E+02  0.40659140466E+02  0.00000000000E+00 0. -1.
         11    1    4    4    0    0 -0.12059425201E+02  0.59300312939E+01 -0.37201639868E+02  0.39554481623E+02  0.51100000000E-03 0. -1.
        -11    1    4    4    0    0  0.51517763475E+00 -0.41103512968E+01  0.28437052798E+00  0.41522599433E+01  0.51100000000E-03 0.  1.
         12    1    4    4    0    0  0.37900546074E+01  0.51477346961E+01 -0.23827729936E+01  0.68221179679E+01  0.00000000000E+00 0. -1.
</event>
<event>
 8    1  0.6016610E-012  0.9118800E+02  0.7816164E-02  0.1184000E+00
        -11   -1    0    0    0    0  0.00000000000E+00  0.00000000000E+00  0.45593999997E+02  0.45594000000E+02  0.51100000000E-03 0.  1.
         11   -1    0    0    0    0 -0.00000000000E+00 -0.00000000000E+00 -0.45593999997E+02  0.45594000000E+02  0.51100000000E-03 0. -1.
         23    2    1    2    0    0  0.00000000000E+00  0.00000000000E+00  0.00000000000E+00  0.91188000000E+02  0.91188000000E+02 0.  0.
    9900012    2    3    3    0    0 -0.23729640992E+02  0.26014892192E+02  0.20329663147E+02  0.50528859809E+02  0.29999999877E+02 0.  0.
        -12    1    3    3    0    0  0.23729640992E+02 -0.26014892192E+02 -0.20329663147E+02  0.40659140191E+02  0.00000000000E+00 0.  1.
         11    1    4    4    0    0 -0.24631553232E+01  0.10369109909E+02 -0.23292635202E+01  0.10909218270E+02  0.51100000000E-03 0. -1.
        -11    1    4    4    0    0 -0.24376900296E+02  0.11449042465E+02  0.20959444865E+02  0.34126414560E+02  0.51100000000E-03 0.  1.
        -12    1    4    4    0    0  0.31104146271E+01  0.41967398183E+01  0.16994818018E+01  0.54932269796E+01  0.00000000000E+00 0.  1.
</event>
<event>
 8    1  0.6016610E-012  0.9118800E+02  0.7816164E-02  0.1184000E+00
        -11   -1    0    0    0    0  0.00000000000E+00  0.00000000000E+00  0.45593999997E+02  0.45594000000E+02  0.51100000000E-03 0. -1.
         11   -1    0    0    0    0 -0.00000000000E+00 -0.00000000000E+00 -0.45593999997E+02  0.45594000000E+02  0.51100000000E-03 0.  1.
         23    2    1    2    0    0  0.35527136788E-14 -0.35527136788E-14  0.26645352591E-14  0.91188000000E+02  0.91188000000E+02 0.  0.
    9900012    2    3    3    0    0 -0.31919174968E+02 -0.24672353766E+02  0.50603943050E+01  0.50528851441E+02  0.29999974441E+02 0.  0.
        -12    1    3    3    0    0  0.31919174968E+02  0.24672353766E+02 -0.50603943050E+01  0.40659148559E+02  0.00000000000E+00 0.  1.
         11    1    4    4    0    0 -0.11454540913E+02 -0.42057867107E+01 -0.16541712038E+01  0.12313871528E+02  0.51100000000E-03 0. -1.
        -11    1    4    4    0    0  0.36426049344E+01 -0.14816869510E+01 -0.40988218519E+01  0.56801679345E+01  0.51100000000E-03 0.  1.
        -12    1    4    4    0    0 -0.24107238990E+02 -0.18984880104E+02  0.10813387361E+02  0.32534811979E+02  0.00000000000E+00 0.  1.
</event>
<event>
 8    1  0.6016610E-012  0.9118800E+02  0.7816164E-02  0.1184000E+00
        -11   -1    0    0    0    0  0.00000000000E+00  0.00000000000E+00  0.45593999997E+02  0.45594000000E+02  0.51100000000E-03 0. -1.
         11   -1    0    0    0    0 -0.00000000000E+00 -0.00000000000E+00 -0.45593999997E+02  0.45594000000E+02  0.51100000000E-03 0.  1.
         23    2    1    2    0    0  0.00000000000E+00  0.00000000000E+00  0.00000000000E+00  0.91188000000E+02  0.91188000000E+02 0.  0.
    9900012    2    3    3    0    0 -0.24654447411E+02  0.97459770202E+01 -0.30827599992E+02  0.50528846462E+02  0.29999959305E+02 0.  0.
         12    1    3    3    0    0  0.24654447411E+02 -0.97459770202E+01  0.30827599992E+02  0.40659153538E+02  0.00000000000E+00 0. -1.
         11    1    4    4    0    0 -0.15841823948E+02  0.32603989697E+01 -0.35266550799E-01  0.16173893515E+02  0.51100000000E-03 0. -1.
        -11    1    4    4    0    0  0.94873355311E+00  0.48938017108E+01 -0.14067619001E+02  0.14924720941E+02  0.51100000000E-03 0.  1.
         12    1    4    4    0    0 -0.97613570158E+01  0.15917763397E+01 -0.16724714440E+02  0.19430232006E+02  0.00000000000E+00 0. -1.
</event>
<event>
 8    1  0.6016610E-012  0.9118800E+02  0.7816164E-02  0.1184000E+00
        -11   -1    0    0    0    0  0.00000000000E+00  0.00000000000E+00  0.45593999997E+02  0.45594000000E+02  0.51100000000E-03 0. -1.
         11   -1    0    0    0    0 -0.00000000000E+00 -0.00000000000E+00 -0.45593999997E+02  0.45594000000E+02  0.51100000000E-03 0.  1.
         23    2    1    2    0    0  0.88817841970E-15  0.35527136788E-14  0.71054273576E-14  0.91188000000E+02  0.91188000000E+02 0.  0.
    9900012    2    3    3    0    0 -0.68890704792E+01 -0.12522140934E+02 -0.38064453718E+02  0.50528856594E+02  0.29999990104E+02 0.  0.
         12    1    3    3    0    0  0.68890704792E+01  0.12522140934E+02  0.38064453718E+02  0.40659143406E+02  0.00000000000E+00 0. -1.
         11    1    4    4    0    0 -0.43009647604E+01  0.21964363547E+01 -0.58094683941E+01  0.75546379009E+01  0.51100000000E-03 0. -1.
        -11    1    4    4    0    0 -0.78615576806E+01 -0.19549951195E+02 -0.26052819748E+02  0.33507523006E+02  0.51100000000E-03 0.  1.
        -12    1    4    4    0    0  0.52734519618E+01  0.48313739060E+01 -0.62021655759E+01  0.94666956877E+01  0.00000000000E+00 0.  1.
</event>
<event>
 8    1  0.6016610E-012  0.9118800E+02  0.7816164E-02  0.1184000E+00
        -11   -1    0    0    0    0  0.00000000000E+00  0.00000000000E+00  0.45593999997E+02  0.45594000000E+02  0.51100000000E-03 0.  1.
         11   -1    0    0    0    0 -0.00000000000E+00 -0.00000000000E+00 -0.45593999997E+02  0.45594000000E+02  0.51100000000E-03 0. -1.
         23    2    1    2    0    0  0.00000000000E+00  0.00000000000E+00  0.17763568394E-14  0.91188000000E+02  0.91188000000E+02 0.  0.
    9900012    2    3    3    0    0 -0.23099139958E+02  0.31106991363E+02  0.12326825223E+02  0.50528858365E+02  0.29999995485E+02 0.  0.
        -12    1    3    3    0    0  0.23099139958E+02 -0.31106991363E+02 -0.12326825223E+02  0.40659141635E+02  0.00000000000E+00 0.  1.
         11    1    4    4    0    0 -0.23285327021E+02  0.17169978214E+02 -0.22973354965E+01  0.29022273464E+02  0.51100000000E-03 0. -1.
        -11    1    4    4    0    0  0.29878934337E+01  0.10688532411E+02  0.12512366618E+02  0.16725177157E+02  0.51100000000E-03 0.  1.
        -12    1    4    4    0    0 -0.28017063713E+01  0.32484807372E+01  0.21117941011E+01  0.47814077442E+01  0.00000000000E+00 0.  1.
</event>
<event>
 8    1  0.6016610E-012  0.9118800E+02  0.7816164E-02  0.1184000E+00
        -11   -1    0    0    0    0  0.00000000000E+00  0.00000000000E+00  0.45593999997E+02  0.45594000000E+02  0.51100000000E-03 0. -1.
         11   -1    0    0    0    0 -0.00000000000E+00 -0.00000000000E+00 -0.45593999997E+02  0.45594000000E+02  0.51100000000E-03 0.  1.
         23    2    1    2    0    0  0.00000000000E+00  0.00000000000E+00  0.00000000000E+00  0.91188000000E+02  0.91188000000E+02 0.  0.
    9900012    2    3    3    0    0 -0.23633553733E+02 -0.23376414693E+02  0.23412913107E+02  0.50528854336E+02  0.29999983241E+02 0.  0.
        -12    1    3    3    0    0  0.23633553733E+02  0.23376414693E+02 -0.23412913107E+02  0.40659145664E+02  0.00000000000E+00 0.  1.
         11    1    4    4    0    0 -0.14989281854E+02 -0.22599995386E+02  0.32840490572E+01  0.27317088798E+02  0.51100000000E-03 0. -1.
        -11    1    4    4    0    0 -0.31887072191E+00 -0.14322568327E+01  0.53093315833E-01  0.14682838055E+01  0.51100000000E-03 0.  1.
         12    1    4    4    0    0 -0.83254011573E+01  0.65583752572E+00  0.20075770734E+02  0.21743481733E+02  0.00000000000E+00 0. -1.
</event>
<event>
 8    1  0.6016610E-012  0.9118800E+02  0.7816164E-02  0.1184000E+00
        -11   -1    0    0    0    0  0.00000000000E+00  0.00000000000E+00  0.45593999997E+02  0.45594000000E+02  0.51100000000E-03 0. -1.
         11   -1    0    0    0    0 -0.00000000000E+00 -0.00000000000E+00 -0.45593999997E+02  0.45594000000E+02  0.51100000000E-03 0.  1.
         23    2    1    2    0    0  0.88817841970E-15  0.44408920985E-15  0.00000000000E+00  0.91188000000E+02  0.91188000000E+02 0.  0.
    9900012    2    3    3    0    0 -0.66616531444E+01  0.30121972729E+01 -0.39996435476E+02  0.50528858275E+02  0.29999995212E+02 0.  0.
         12    1    3    3    0    0  0.66616531444E+01 -0.30121972729E+01  0.39996435476E+02  0.40659141725E+02  0.00000000000E+00 0. -1.
         11    1    4    4    0    0 -0.34311394723E+01 -0.48045924439E+01 -0.30652230039E+00  0.59119187082E+01  0.51100000000E-03 0. -1.
        -11    1    4    4    0    0  0.67374646104E+01  0.78302272319E+01 -0.22207822688E+02  0.24492718850E+02  0.51100000000E-03 0.  1.
        -12    1    4    4    0    0 -0.99679782825E+01 -0.13437515142E-01 -0.17482090488E+02  0.20124220716E+02  0.00000000000E+00 0.  1.
</event>
<event>
 8    1  0.6016610E-012  0.9118800E+02  0.7816164E-02  0.1184000E+00
        -11   -1    0    0    0    0  0.00000000000E+00  0.00000000000E+00  0.45593999997E+02  0.45594000000E+02  0.51100000000E-03 0. -1.
         11   -1    0    0    0    0 -0.00000000000E+00 -0.00000000000E+00 -0.45593999997E+02  0.45594000000E+02  0.51100000000E-03 0.  1.
         23    2    1    2    0    0  0.00000000000E+00  0.00000000000E+00  0.00000000000E+00  0.91188000000E+02  0.91188000000E+02 0.  0.
    9900012    2    3    3    0    0  0.22813341537E+02  0.55576689073E+01  0.33193804754E+02  0.50528869293E+02  0.30000028704E+02 0.  0.
        -12    1    3    3    0    0 -0.22813341537E+02 -0.55576689073E+01 -0.33193804754E+02  0.40659130707E+02  0.00000000000E+00 0.  1.
         11    1    4    4    0    0  0.74113415730E+01 -0.49714716354E+01  0.57944292282E+01  0.10640438171E+02  0.51100000000E-03 0. -1.
        -11    1    4    4    0    0  0.18461601680E+02  0.14748478645E+02  0.20806470407E+02  0.31484243202E+02  0.51100000000E-03 0.  1.
        -12    1    4    4    0    0 -0.30596017166E+01 -0.42193381026E+01  0.65929051195E+01  0.84041879205E+01  0.00000000000E+00 0.  1.
</event>
<event>
 8    1  0.6016610E-012  0.9118800E+02  0.7816164E-02  0.1184000E+00
        -11   -1    0    0    0    0  0.00000000000E+00  0.00000000000E+00  0.45593999997E+02  0.45594000000E+02  0.51100000000E-03 0. -1.
         11   -1    0    0    0    0 -0.00000000000E+00 -0.00000000000E+00 -0.45593999997E+02  0.45594000000E+02  0.51100000000E-03 0.  1.
         23    2    1    2    0    0  0.17763568394E-14  0.00000000000E+00  0.00000000000E+00  0.91188000000E+02  0.91188000000E+02 0.  0.
    9900012    2    3    3    0    0 -0.11015731028E+02  0.81254694667E+01 -0.38285714756E+02  0.50528861562E+02  0.30000005203E+02 0.  0.
         12    1    3    3    0    0  0.11015731028E+02 -0.81254694667E+01  0.38285714756E+02  0.40659138438E+02  0.00000000000E+00 0. -1.
         11    1    4    4    0    0 -0.91749488869E+01  0.17471615026E+01  0.67750184432E+00  0.93643616656E+01  0.51100000000E-03 0. -1.
        -11    1    4    4    0    0 -0.23732788994E+01  0.94877070758E+01 -0.24900142918E+02  0.26751937423E+02  0.51100000000E-03 0.  1.
        -12    1    4    4    0    0  0.53249675840E+00 -0.31093991118E+01 -0.14063073682E+02  0.14412562473E+02  0.00000000000E+00 0.  1.
</event>
<event>
 8    1  0.6016610E-012  0.9118800E+02  0.7816164E-02  0.1184000E+00
        -11   -1    0    0    0    0  0.00000000000E+00  0.00000000000E+00  0.45593999997E+02  0.45594000000E+02  0.51100000000E-03 0.  1.
         11   -1    0    0    0    0 -0.00000000000E+00 -0.00000000000E+00 -0.45593999997E+02  0.45594000000E+02  0.51100000000E-03 0. -1.
         23    2    1    2    0    0  0.00000000000E+00 -0.35527136788E-14 -0.17763568394E-14  0.91188000000E+02  0.91188000000E+02 0.  0.
    9900012    2    3    3    0    0  0.33950780237E+02  0.21253909149E+02  0.69843974580E+01  0.50528856617E+02  0.29999990173E+02 0.  0.
        -12    1    3    3    0    0 -0.33950780237E+02 -0.21253909149E+02 -0.69843974580E+01  0.40659143383E+02  0.00000000000E+00 0.  1.
         11    1    4    4    0    0  0.14456311635E+02  0.84196729730E+01  0.34511453459E+01  0.17081751769E+02  0.51100000000E-03 0. -1.
        -11    1    4    4    0    0  0.15471208696E+00  0.78703984325E+01  0.97536352876E+01  0.12533974186E+02  0.51100000000E-03 0.  1.
        -12    1    4    4    0    0  0.19339756515E+02  0.49638377431E+01 -0.62203831755E+01  0.20913130662E+02  0.00000000000E+00 0.  1.
</event>
<event>
 8    1  0.6016610E-012  0.9118800E+02  0.7816164E-02  0.1184000E+00
        -11   -1    0    0    0    0  0.00000000000E+00  0.00000000000E+00  0.45593999997E+02  0.45594000000E+02  0.51100000000E-03 0. -1.
         11   -1    0    0    0    0 -0.00000000000E+00 -0.00000000000E+00 -0.45593999997E+02  0.45594000000E+02  0.51100000000E-03 0.  1.
         23    2    1    2    0    0  0.17763568394E-14  0.35527136788E-14  0.71054273576E-14  0.91188000000E+02  0.91188000000E+02 0.  0.
    9900012    2    3    3    0    0 -0.13797391534E+02 -0.19252003357E+02 -0.33047808453E+02  0.50528864619E+02  0.30000014496E+02 0.  0.
         12    1    3    3    0    0  0.13797391534E+02  0.19252003357E+02  0.33047808453E+02  0.40659135381E+02  0.00000000000E+00 0. -1.
         11    1    4    4    0    0 -0.78201524247E+01  0.42327761322E+01 -0.33599129022E+01  0.95057978467E+01  0.51100000000E-03 0. -1.
        -11    1    4    4    0    0  0.29176788559E+00 -0.66320674675E+01 -0.18951729448E+02  0.20080774306E+02  0.51100000000E-03 0.  1.
         12    1    4    4    0    0 -0.62690069953E+01 -0.16852712021E+02 -0.10736166103E+02  0.20942292467E+02  0.00000000000E+00 0. -1.
</event>
<event>
 8    1  0.6016610E-012  0.9118800E+02  0.7816164E-02  0.1184000E+00
        -11   -1    0    0    0    0  0.00000000000E+00  0.00000000000E+00  0.45593999997E+02  0.45594000000E+02  0.51100000000E-03 0. -1.
         11   -1    0    0    0    0 -0.00000000000E+00 -0.00000000000E+00 -0.45593999997E+02  0.45594000000E+02  0.51100000000E-03 0.  1.
         23    2    1    2    0    0  0.00000000000E+00  0.00000000000E+00  0.00000000000E+00  0.91188000000E+02  0.91188000000E+02 0.  0.
    9900012    2    3    3    0    0 -0.14776213495E+02 -0.15977539042E+02 -0.34344516459E+02  0.50528879868E+02  0.30000060846E+02 0.  0.
         12    1    3    3    0    0  0.14776213495E+02  0.15977539042E+02  0.34344516459E+02  0.40659120132E+02  0.00000000000E+00 0. -1.
         11    1    4    4    0    0  0.62986557580E+01 -0.81014248388E+01 -0.95928269114E+01  0.14047365489E+02  0.51100000000E-03 0. -1.
        -11    1    4    4    0    0 -0.17468142626E+02 -0.37500213160E+01 -0.25301657479E+02  0.30973739492E+02  0.51100000000E-03 0.  1.
        -12    1    4    4    0    0 -0.36067266275E+01 -0.41260928873E+01  0.54996793061E+00  0.55077748869E+01  0.00000000000E+00 0.  1.
</event>
<event>
 8    1  0.6016610E-012  0.9118800E+02  0.7816164E-02  0.1184000E+00
        -11   -1    0    0    0    0  0.00000000000E+00  0.00000000000E+00  0.45593999997E+02  0.45594000000E+02  0.51100000000E-03 0.  1.
         11   -1    0    0    0    0 -0.00000000000E+00 -0.00000000000E+00 -0.45593999997E+02  0.45594000000E+02  0.51100000000E-03 0. -1.
         23    2    1    2    0    0  0.44408920985E-15  0.00000000000E+00  0.00000000000E+00  0.91188000000E+02  0.91188000000E+02 0.  0.
    9900012    2    3    3    0    0  0.22462110282E+01 -0.39976048978E+02  0.70736193091E+01  0.50528855321E+02  0.29999986235E+02 0.  0.
        -12    1    3    3    0    0 -0.22462110282E+01  0.39976048978E+02 -0.70736193091E+01  0.40659144679E+02  0.00000000000E+00 0.  1.
         11    1    4    4    0    0 -0.91832059253E+01 -0.12695174371E+02  0.88341686085E+01  0.17987252670E+02  0.51100000000E-03 0. -1.
        -11    1    4    4    0    0  0.13059063053E+02 -0.16046451008E+02 -0.37232199722E+01  0.21021181817E+02  0.51100000000E-03 0.  1.
         12    1    4    4    0    0 -0.16296460994E+01 -0.11234423599E+02  0.19626706729E+01  0.11520420834E+02  0.00000000000E+00 0. -1.
</event>
<event>
 8    1  0.6016610E-012  0.9118800E+02  0.7816164E-02  0.1184000E+00
        -11   -1    0    0    0    0  0.00000000000E+00  0.00000000000E+00  0.45593999997E+02  0.45594000000E+02  0.51100000000E-03 0. -1.
         11   -1    0    0    0    0 -0.00000000000E+00 -0.00000000000E+00 -0.45593999997E+02  0.45594000000E+02  0.51100000000E-03 0.  1.
         23    2    1    2    0    0  0.00000000000E+00 -0.17763568394E-14  0.00000000000E+00  0.91188000000E+02  0.91188000000E+02 0.  0.
    9900012    2    3    3    0    0  0.19570297536E+02 -0.40682784623E+01  0.35406472225E+02  0.50528859445E+02  0.29999998768E+02 0.  0.
        -12    1    3    3    0    0 -0.19570297536E+02  0.40682784623E+01 -0.35406472225E+02  0.40659140555E+02  0.00000000000E+00 0.  1.
         11    1    4    4    0    0  0.10068315976E+01  0.97397248799E+01  0.20152263669E+02  0.22405126240E+02  0.51100000000E-03 0. -1.
        -11    1    4    4    0    0  0.58632682191E+01 -0.23090651210E+01  0.25637508636E+01  0.68031253622E+01  0.51100000000E-03 0.  1.
         12    1    4    4    0    0  0.12700197719E+02 -0.11498938221E+02  0.12690457693E+02  0.21320607842E+02  0.00000000000E+00 0. -1.
</event>
<event>
 8    1  0.6016610E-012  0.9118800E+02  0.7816164E-02  0.1184000E+00
        -11   -1    0    0    0    0  0.00000000000E+00  0.00000000000E+00  0.45593999997E+02  0.45594000000E+02  0.51100000000E-03 0. -1.
         11   -1    0    0    0    0 -0.00000000000E+00 -0.00000000000E+00 -0.45593999997E+02  0.45594000000E+02  0.51100000000E-03 0.  1.
         23    2    1    2    0    0  0.00000000000E+00  0.13322676296E-14  0.00000000000E+00  0.91188000000E+02  0.91188000000E+02 0.  0.
    9900012    2    3    3    0    0 -0.26789482489E+02 -0.20148676160E+01 -0.30519328458E+02  0.50528862367E+02  0.30000007652E+02 0.  0.
         12    1    3    3    0    0  0.26789482489E+02  0.20148676160E+01  0.30519328458E+02  0.40659137633E+02  0.00000000000E+00 0. -1.
         11    1    4    4    0    0  0.46258233560E+01  0.12501618675E+01 -0.13953912551E+01  0.49908179121E+01  0.51100000000E-03 0. -1.
        -11    1    4    4    0    0 -0.18575694903E+02  0.55836501730E+01 -0.15435473819E+02  0.24788857228E+02  0.51100000000E-03 0.  1.
         12    1    4    4    0    0 -0.12839610942E+02 -0.88486796565E+01 -0.13688463384E+02  0.20749187228E+02  0.00000000000E+00 0. -1.
</event>
<event>
 8    1  0.6016610E-012  0.9118800E+02  0.7816164E-02  0.1184000E+00
        -11   -1    0    0    0    0  0.00000000000E+00  0.00000000000E+00  0.45593999997E+02  0.45594000000E+02  0.51100000000E-03 0. -1.
         11   -1    0    0    0    0 -0.00000000000E+00 -0.00000000000E+00 -0.45593999997E+02  0.45594000000E+02  0.51100000000E-03 0.  1.
         23    2    1    2    0    0  0.00000000000E+00 -0.88817841970E-15  0.00000000000E+00  0.91188000000E+02  0.91188000000E+02 0.  0.
    9900012    2    3    3    0    0 -0.21026529491E+02  0.72112131415E+01 -0.34044816985E+02  0.50528854646E+02  0.29999984181E+02 0.  0.
         12    1    3    3    0    0  0.21026529491E+02 -0.72112131415E+01  0.34044816985E+02  0.40659145354E+02  0.00000000000E+00 0. -1.
         11    1    4    4    0    0 -0.12204037998E+02  0.15648272105E+02 -0.79110105662E+01  0.21363310880E+02  0.51100000000E-03 0. -1.
        -11    1    4    4    0    0 -0.55560300003E+01 -0.67163404661E+01 -0.14087004421E+02  0.16565699274E+02  0.51100000000E-03 0.  1.
         12    1    4    4    0    0 -0.32664614925E+01 -0.17207184975E+01 -0.12046801998E+02  0.12599844492E+02  0.00000000000E+00 0. -1.
</event>
<event>
 8    1  0.6016610E-012  0.9118800E+02  0.7816164E-02  0.1184000E+00
        -11   -1    0    0    0    0  0.00000000000E+00  0.00000000000E+00  0.45593999997E+02  0.45594000000E+02  0.51100000000E-03 0. -1.
         11   -1    0    0    0    0 -0.00000000000E+00 -0.00000000000E+00 -0.45593999997E+02  0.45594000000E+02  0.51100000000E-03 0.  1.
         23    2    1    2    0    0  0.00000000000E+00  0.00000000000E+00  0.71054273576E-14  0.91188000000E+02  0.91188000000E+02 0.  0.
    9900012    2    3    3    0    0  0.18896603674E+02 -0.99983374648E+01 -0.34584883188E+02  0.50528898588E+02  0.30000117748E+02 0.  0.
         12    1    3    3    0    0 -0.18896603674E+02  0.99983374648E+01  0.34584883188E+02  0.40659101412E+02  0.00000000000E+00 0. -1.
         11    1    4    4    0    0 -0.47374302004E+01 -0.10152896354E+01 -0.15639666816E+01  0.50911737340E+01  0.51100000000E-03 0. -1.
        -11    1    4    4    0    0  0.15480911078E+02 -0.62212343747E+01 -0.71130383599E+01  0.18137190519E+02  0.51100000000E-03 0.  1.
        -12    1    4    4    0    0  0.81531227963E+01 -0.27618134547E+01 -0.25907878147E+02  0.27300534335E+02  0.00000000000E+00 0.  1.
</event>
<event>
 8    1  0.6372767E-012  0.9118800E+02  0.7816164E-02  0.1184000E+00
        -11   -1    0    0    0    0  0.00000000000E+00  0.00000000000E+00  0.45593999997E+02  0.45594000000E+02  0.51100000000E-03 0. -1.
         11   -1    0    0    0    0 -0.00000000000E+00 -0.00000000000E+00 -0.45593999997E+02  0.45594000000E+02  0.51100000000E-03 0.  1.
         23    2    1    2    0    0  0.00000000000E+00  0.35527136788E-14 -0.35527136788E-14  0.91188000000E+02  0.91188000000E+02 0.  0.
    9900012    2    3    3    0    0 -0.28575597735E+01 -0.24995002807E+02  0.31941345113E+02  0.50528863993E+02  0.30000012594E+02 0.  0.
        -12    1    3    3    0    0  0.28575597735E+01  0.24995002807E+02 -0.31941345113E+02  0.40659136007E+02  0.00000000000E+00 0.  1.
         11    1    4    4    0    0  0.15978977138E+01 -0.94579333968E+01  0.10895007176E+02  0.14515748788E+02  0.51100000000E-03 0. -1.
        -11    1    4    4    0    0 -0.11664424654E+02 -0.13310268100E+02  0.51742394395E+01  0.18438947731E+02  0.51100000000E-03 0.  1.
        -12    1    4    4    0    0  0.72089671666E+01 -0.22268013101E+01  0.15872098498E+02  0.17574167474E+02  0.00000000000E+00 0.  1.
</event>
<event>
 8    1  0.7995193E-012  0.9118800E+02  0.7816164E-02  0.1184000E+00
        -11   -1    0    0    0    0  0.00000000000E+00  0.00000000000E+00  0.45593999997E+02  0.45594000000E+02  0.51100000000E-03 0. -1.
         11   -1    0    0    0    0 -0.00000000000E+00 -0.00000000000E+00 -0.45593999997E+02  0.45594000000E+02  0.51100000000E-03 0.  1.
         23    2    1    2    0    0  0.88817841970E-15  0.00000000000E+00  0.00000000000E+00  0.91188000000E+02  0.91188000000E+02 0.  0.
    9900012    2    3    3    0    0 -0.47984395162E+01  0.91630181640E+01  0.39321493239E+02  0.50528858909E+02  0.29999997141E+02 0.  0.
        -12    1    3    3    0    0  0.47984395162E+01 -0.91630181640E+01 -0.39321493239E+02  0.40659141091E+02  0.00000000000E+00 0.  1.
         11    1    4    4    0    0 -0.66065805177E+01  0.12176430147E+02  0.14135042220E+02  0.19791709782E+02  0.51100000000E-03 0. -1.
        -11    1    4    4    0    0  0.92130789731E+01  0.87512024616E+00  0.13154486860E+02  0.16083755296E+02  0.51100000000E-03 0.  1.
        -12    1    4    4    0    0 -0.74049379717E+01 -0.38885322291E+01  0.12031964159E+02  0.14653393832E+02  0.00000000000E+00 0.  1.
</event>
<event>
 8    1  0.6016610E-012  0.9118800E+02  0.7816164E-02  0.1184000E+00
        -11   -1    0    0    0    0  0.00000000000E+00  0.00000000000E+00  0.45593999997E+02  0.45594000000E+02  0.51100000000E-03 0. -1.
         11   -1    0    0    0    0 -0.00000000000E+00 -0.00000000000E+00 -0.45593999997E+02  0.45594000000E+02  0.51100000000E-03 0.  1.
         23    2    1    2    0    0 -0.18873791419E-14  0.00000000000E+00  0.00000000000E+00  0.91188000000E+02  0.91188000000E+02 0.  0.
    9900012    2    3    3    0    0 -0.35646009266E+00  0.53454398336E+01 -0.40304650779E+02  0.50528860004E+02  0.30000000469E+02 0.  0.
         12    1    3    3    0    0  0.35646009266E+00 -0.53454398336E+01  0.40304650779E+02  0.40659139996E+02  0.00000000000E+00 0. -1.
         11    1    4    4    0    0 -0.39441553667E+01 -0.13105635921E+01 -0.49328671713E+01  0.64503579184E+01  0.51100000000E-03 0. -1.
        -11    1    4    4    0    0  0.98771929394E+01  0.29598808206E+00 -0.33517267417E+02  0.34943579735E+02  0.51100000000E-03 0.  1.
        -12    1    4    4    0    0 -0.62894976653E+01  0.63600153436E+01 -0.18545161899E+01  0.91349223506E+01  0.00000000000E+00 0.  1.
</event>
<event>
 8    1  0.6016610E-012  0.9118800E+02  0.7816164E-02  0.1184000E+00
        -11   -1    0    0    0    0  0.00000000000E+00  0.00000000000E+00  0.45593999997E+02  0.45594000000E+02  0.51100000000E-03 0. -1.
         11   -1    0    0    0    0 -0.00000000000E+00 -0.00000000000E+00 -0.45593999997E+02  0.45594000000E+02  0.51100000000E-03 0.  1.
         23    2    1    2    0    0  0.00000000000E+00  0.35527136788E-14 -0.35527136788E-14  0.91188000000E+02  0.91188000000E+02 0.  0.
    9900012    2    3    3    0    0  0.32366658837E+02  0.13021693380E+02 -0.20880634837E+02  0.50528855716E+02  0.29999987433E+02 0.  0.
         12    1    3    3    0    0 -0.32366658837E+02 -0.13021693380E+02  0.20880634837E+02  0.40659144284E+02  0.00000000000E+00 0. -1.
         11    1    4    4    0    0  0.66102070804E+01  0.25151168576E+01  0.20091315478E+01  0.73523642653E+01  0.51100000000E-03 0. -1.
        -11    1    4    4    0    0  0.23034320533E+02 -0.16158860004E+00 -0.22438435458E+02  0.32157260757E+02  0.51100000000E-03 0.  1.
        -12    1    4    4    0    0  0.27221312240E+01  0.10668165122E+02 -0.45133092618E+00  0.11019230694E+02  0.00000000000E+00 0.  1.
</event>
<event>
 8    1  0.6016610E-012  0.9118800E+02  0.7816164E-02  0.1184000E+00
        -11   -1    0    0    0    0  0.00000000000E+00  0.00000000000E+00  0.45593999997E+02  0.45594000000E+02  0.51100000000E-03 0. -1.
         11   -1    0    0    0    0 -0.00000000000E+00 -0.00000000000E+00 -0.45593999997E+02  0.45594000000E+02  0.51100000000E-03 0.  1.
         23    2    1    2    0    0 -0.19984014443E-14  0.35527136788E-14 -0.71054273576E-14  0.91188000000E+02  0.91188000000E+02 0.  0.
    9900012    2    3    3    0    0 -0.11381461585E+01  0.31545253721E+02 -0.25627481224E+02  0.50528853392E+02  0.29999980371E+02 0.  0.
         12    1    3    3    0    0  0.11381461585E+01 -0.31545253721E+02  0.25627481224E+02  0.40659146608E+02  0.00000000000E+00 0. -1.
         11    1    4    4    0    0  0.76659621537E+01  0.91539024615E+01  0.25991110034E+01  0.12219504257E+02  0.51100000000E-03 0. -1.
        -11    1    4    4    0    0 -0.10438072310E+02  0.15090692018E+02 -0.18733209689E+02  0.26222423318E+02  0.51100000000E-03 0.  1.
        -12    1    4    4    0    0  0.16339639983E+01  0.73006592413E+01 -0.94933825381E+01  0.12086925818E+02  0.00000000000E+00 0.  1.
</event>
<event>
 8    1  0.6016610E-012  0.9118800E+02  0.7816164E-02  0.1184000E+00
        -11   -1    0    0    0    0  0.00000000000E+00  0.00000000000E+00  0.45593999997E+02  0.45594000000E+02  0.51100000000E-03 0. -1.
         11   -1    0    0    0    0 -0.00000000000E+00 -0.00000000000E+00 -0.45593999997E+02  0.45594000000E+02  0.51100000000E-03 0.  1.
         23    2    1    2    0    0 -0.17763568394E-14  0.00000000000E+00  0.71054273576E-14  0.91188000000E+02  0.91188000000E+02 0.  0.
    9900012    2    3    3    0    0 -0.12620902348E+02 -0.19003810218E+02  0.33656108219E+02  0.50528860814E+02  0.30000002930E+02 0.  0.
        -12    1    3    3    0    0  0.12620902348E+02  0.19003810218E+02 -0.33656108219E+02  0.40659139186E+02  0.00000000000E+00 0.  1.
         11    1    4    4    0    0 -0.21042777733E+02 -0.10635221324E+02  0.16383221175E+02  0.28710910185E+02  0.51100000000E-03 0. -1.
        -11    1    4    4    0    0  0.62885537297E+01 -0.77535890855E+01  0.96743343083E+01  0.13901683218E+02  0.51100000000E-03 0.  1.
         12    1    4    4    0    0  0.21333216549E+01 -0.61499980864E+00  0.75985527355E+01  0.79162674109E+01  0.00000000000E+00 0. -1.
</event>
<event>
 8    1  0.6016610E-012  0.9118800E+02  0.7816164E-02  0.1184000E+00
        -11   -1    0    0    0    0  0.00000000000E+00  0.00000000000E+00  0.45593999997E+02  0.45594000000E+02  0.51100000000E-03 0. -1.
         11   -1    0    0    0    0 -0.00000000000E+00 -0.00000000000E+00 -0.45593999997E+02  0.45594000000E+02  0.51100000000E-03 0.  1.
         23    2    1    2    0    0 -0.35527136788E-14  0.44408920985E-15  0.00000000000E+00  0.91188000000E+02  0.91188000000E+02 0.  0.
    9900012    2    3    3    0    0  0.24904414467E+02  0.82870320125E+00 -0.32128629628E+02  0.50528862642E+02  0.30000008486E+02 0.  0.
         12    1    3    3    0    0 -0.24904414467E+02 -0.82870320125E+00  0.32128629628E+02  0.40659137358E+02  0.00000000000E+00 0. -1.
         11    1    4    4    0    0  0.13425042367E+02  0.27217249023E+01  0.17460725447E+01  0.13808994120E+02  0.51100000000E-03 0. -1.
        -11    1    4    4    0    0  0.72049678561E+01 -0.45368000666E+01 -0.15665718357E+02  0.17829998557E+02  0.51100000000E-03 0.  1.
         12    1    4    4    0    0  0.42744042441E+01  0.26437783655E+01 -0.18208983816E+02  0.18889869965E+02  0.00000000000E+00 0. -1.
</event>
<event>
 8    1  0.6016610E-012  0.9118800E+02  0.7816164E-02  0.1184000E+00
        -11   -1    0    0    0    0  0.00000000000E+00  0.00000000000E+00  0.45593999997E+02  0.45594000000E+02  0.51100000000E-03 0. -1.
         11   -1    0    0    0    0 -0.00000000000E+00 -0.00000000000E+00 -0.45593999997E+02  0.45594000000E+02  0.51100000000E-03 0.  1.
         23    2    1    2    0    0  0.00000000000E+00  0.00000000000E+00  0.00000000000E+00  0.91188000000E+02  0.91188000000E+02 0.  0.
    9900012    2    3    3    0    0 -0.29396930013E+02 -0.59536492699E+01  0.27450905906E+02  0.50528712391E+02  0.29999551780E+02 0.  0.
        -12    1    3    3    0    0  0.29396930013E+02  0.59536492699E+01 -0.27450905906E+02  0.40659287609E+02  0.00000000000E+00 0.  1.
         11    1    4    4    0    0 -0.28037973776E+02 -0.17324840069E+01  0.18586750894E+02  0.33683776263E+02  0.51100000000E-03 0. -1.
        -11    1    4    4    0    0  0.55435508125E-01 -0.75076121124E+01  0.24403118560E+00  0.75117816932E+01  0.51100000000E-03 0.  1.
         12    1    4    4    0    0 -0.14143917444E+01  0.32864468494E+01  0.86201238270E+01  0.93331544343E+01  0.00000000000E+00 0. -1.
</event>
<event>
 8    1  0.6016610E-012  0.9118800E+02  0.7816164E-02  0.1184000E+00
        -11   -1    0    0    0    0  0.00000000000E+00  0.00000000000E+00  0.45593999997E+02  0.45594000000E+02  0.51100000000E-03 0. -1.
         11   -1    0    0    0    0 -0.00000000000E+00 -0.00000000000E+00 -0.45593999997E+02  0.45594000000E+02  0.51100000000E-03 0.  1.
         23    2    1    2    0    0  0.00000000000E+00  0.00000000000E+00  0.00000000000E+00  0.91188000000E+02  0.91188000000E+02 0.  0.
    9900012    2    3    3    0    0 -0.35040260082E+01 -0.34022264270E+02  0.21985742166E+02  0.50528861754E+02  0.30000005788E+02 0.  0.
        -12    1    3    3    0    0  0.35040260082E+01  0.34022264270E+02 -0.21985742166E+02  0.40659138246E+02  0.00000000000E+00 0.  1.
         11    1    4    4    0    0 -0.73218625202E+00 -0.36344266111E+02  0.21237505760E+02  0.42100753283E+02  0.51100000000E-03 0. -1.
        -11    1    4    4    0    0 -0.17655093917E+01 -0.17865639744E+01 -0.21452272450E+01  0.33031552250E+01  0.51100000000E-03 0.  1.
         12    1    4    4    0    0 -0.10063303645E+01  0.41085658160E+01  0.28934636514E+01  0.51249532456E+01  0.00000000000E+00 0. -1.
</event>
<event>
 8    1  0.6016610E-012  0.9118800E+02  0.7816164E-02  0.1184000E+00
        -11   -1    0    0    0    0  0.00000000000E+00  0.00000000000E+00  0.45593999997E+02  0.45594000000E+02  0.51100000000E-03 0. -1.
         11   -1    0    0    0    0 -0.00000000000E+00 -0.00000000000E+00 -0.45593999997E+02  0.45594000000E+02  0.51100000000E-03 0.  1.
         23    2    1    2    0    0 -0.17763568394E-14 -0.17763568394E-14  0.71054273576E-14  0.91188000000E+02  0.91188000000E+02 0.  0.
    9900012    2    3    3    0    0 -0.14830422652E+02 -0.13415027023E+02  0.35401433103E+02  0.50528857709E+02  0.29999993493E+02 0.  0.
        -12    1    3    3    0    0  0.14830422652E+02  0.13415027023E+02 -0.35401433103E+02  0.40659142291E+02  0.00000000000E+00 0.  1.
         11    1    4    4    0    0 -0.38328149713E+00 -0.25163000862E+01  0.23744937111E+00  0.25563750302E+01  0.51100000000E-03 0. -1.
        -11    1    4    4    0    0  0.58465278929E+01 -0.55289231123E+01  0.13309371758E+01  0.81561187591E+01  0.51100000000E-03 0.  1.
        -12    1    4    4    0    0 -0.20293669047E+02 -0.53698038243E+01  0.33833046556E+02  0.39816363920E+02  0.00000000000E+00 0.  1.
</event>
<event>
 8    1  0.6016610E-012  0.9118800E+02  0.7816164E-02  0.1184000E+00
        -11   -1    0    0    0    0  0.00000000000E+00  0.00000000000E+00  0.45593999997E+02  0.45594000000E+02  0.51100000000E-03 0. -1.
         11   -1    0    0    0    0 -0.00000000000E+00 -0.00000000000E+00 -0.45593999997E+02  0.45594000000E+02  0.51100000000E-03 0.  1.
         23    2    1    2    0    0 -0.44408920985E-15  0.00000000000E+00  0.00000000000E+00  0.91188000000E+02  0.91188000000E+02 0.  0.
    9900012    2    3    3    0    0 -0.39057340222E+01  0.65195943959E+01 -0.39942536224E+02  0.50528855034E+02  0.29999985363E+02 0.  0.
         12    1    3    3    0    0  0.39057340222E+01 -0.65195943959E+01  0.39942536224E+02  0.40659144966E+02  0.00000000000E+00 0. -1.
         11    1    4    4    0    0  0.69537104514E+01 -0.60227903436E+01 -0.38163837985E+01  0.99595621451E+01  0.51100000000E-03 0. -1.
        -11    1    4    4    0    0 -0.11220454656E+02  0.10282585247E+02 -0.25474427238E+02  0.29674511039E+02  0.51100000000E-03 0.  1.
        -12    1    4    4    0    0  0.36101018222E+00  0.22597994920E+01 -0.10651725187E+02  0.10894781850E+02  0.00000000000E+00 0.  1.
</event>
<event>
 8    1  0.6016610E-012  0.9118800E+02  0.7816164E-02  0.1184000E+00
        -11   -1    0    0    0    0  0.00000000000E+00  0.00000000000E+00  0.45593999997E+02  0.45594000000E+02  0.51100000000E-03 0. -1.
         11   -1    0    0    0    0 -0.00000000000E+00 -0.00000000000E+00 -0.45593999997E+02  0.45594000000E+02  0.51100000000E-03 0.  1.
         23    2    1    2    0    0 -0.83266726847E-15  0.00000000000E+00  0.71054273576E-14  0.91188000000E+02  0.91188000000E+02 0.  0.
    9900012    2    3    3    0    0  0.29234651952E+00  0.42129477491E+01 -0.40439227700E+02  0.50528861640E+02  0.30000005440E+02 0.  0.
         12    1    3    3    0    0 -0.29234651952E+00 -0.42129477491E+01  0.40439227700E+02  0.40659138360E+02  0.00000000000E+00 0. -1.
         11    1    4    4    0    0  0.83863883302E+01 -0.52039110142E+00 -0.23793311770E+02  0.25233390604E+02  0.51100000000E-03 0.  1.
        -11    1    4    4    0    0 -0.65905606406E+01  0.52488687142E+01  0.14788625552E+00  0.84266234603E+01  0.51100000000E-03 0. -1.
        -12    1    4    4    0    0 -0.15034811700E+01 -0.51552986363E+00 -0.16793802186E+02  0.16868847576E+02  0.00000000000E+00 0.  1.
</event>
<event>
 8    1  0.6016610E-012  0.9118800E+02  0.7816164E-02  0.1184000E+00
        -11   -1    0    0    0    0  0.00000000000E+00  0.00000000000E+00  0.45593999997E+02  0.45594000000E+02  0.51100000000E-03 0. -1.
         11   -1    0    0    0    0 -0.00000000000E+00 -0.00000000000E+00 -0.45593999997E+02  0.45594000000E+02  0.51100000000E-03 0.  1.
         23    2    1    2    0    0  0.17763568394E-14  0.00000000000E+00  0.00000000000E+00  0.91188000000E+02  0.91188000000E+02 0.  0.
    9900012    2    3    3    0    0  0.10784172190E+02 -0.41672742698E+01 -0.38980764081E+02  0.50528874173E+02  0.30000043538E+02 0.  0.
         12    1    3    3    0    0 -0.10784172190E+02  0.41672742698E+01  0.38980764081E+02  0.40659125827E+02  0.00000000000E+00 0. -1.
         11    1    4    4    0    0  0.29101742615E+01 -0.93912584662E+01 -0.84700177780E-01  0.98321932544E+01  0.51100000000E-03 0. -1.
        -11    1    4    4    0    0  0.85053553666E+01  0.20697422058E+01 -0.28685842333E+02  0.29991706409E+02  0.51100000000E-03 0.  1.
        -12    1    4    4    0    0 -0.63135743854E+00  0.31542419906E+01 -0.10210221570E+02  0.10704974510E+02  0.00000000000E+00 0.  1.
</event>
<event>
 8    1  0.6016610E-012  0.9118800E+02  0.7816164E-02  0.1184000E+00
        -11   -1    0    0    0    0  0.00000000000E+00  0.00000000000E+00  0.45593999997E+02  0.45594000000E+02  0.51100000000E-03 0.  1.
         11   -1    0    0    0    0 -0.00000000000E+00 -0.00000000000E+00 -0.45593999997E+02  0.45594000000E+02  0.51100000000E-03 0. -1.
         23    2    1    2    0    0 -0.17763568394E-14  0.00000000000E+00  0.00000000000E+00  0.91188000000E+02  0.91188000000E+02 0.  0.
    9900012    2    3    3    0    0 -0.13842414488E+02  0.33256705669E+02  0.18855886301E+02  0.50528863770E+02  0.30000011914E+02 0.  0.
        -12    1    3    3    0    0  0.13842414488E+02 -0.33256705669E+02 -0.18855886301E+02  0.40659136230E+02  0.00000000000E+00 0.  1.
         11    1    4    4    0    0  0.28981033040E+01  0.10322672714E+02  0.13132987590E+02  0.16953817801E+02  0.51100000000E-03 0. -1.
        -11    1    4    4    0    0 -0.16032009157E+02  0.23363243374E+02  0.93630708738E+01  0.29841808842E+02  0.51100000000E-03 0.  1.
        -12    1    4    4    0    0 -0.70850863522E+00 -0.42921041883E+00 -0.36401721626E+01  0.37332371266E+01  0.00000000000E+00 0.  1.
</event>
<event>
 8    1  0.6016610E-012  0.9118800E+02  0.7816164E-02  0.1184000E+00
        -11   -1    0    0    0    0  0.00000000000E+00  0.00000000000E+00  0.45593999997E+02  0.45594000000E+02  0.51100000000E-03 0.  1.
         11   -1    0    0    0    0 -0.00000000000E+00 -0.00000000000E+00 -0.45593999997E+02  0.45594000000E+02  0.51100000000E-03 0. -1.
         23    2    1    2    0    0  0.00000000000E+00  0.22204460493E-15  0.00000000000E+00  0.91188000000E+02  0.91188000000E+02 0.  0.
    9900012    2    3    3    0    0  0.37634272014E+02  0.11938931898E+01 -0.15342805086E+02  0.50528862295E+02  0.30000007433E+02 0.  0.
         12    1    3    3    0    0 -0.37634272014E+02 -0.11938931898E+01  0.15342805086E+02  0.40659137705E+02  0.00000000000E+00 0. -1.
         11    1    4    4    0    0  0.12204235754E+02 -0.11320153478E+02 -0.12034317383E+02  0.20540546250E+02  0.51100000000E-03 0. -1.
        -11    1    4    4    0    0  0.17533781845E+02  0.79219436435E+01  0.21292988918E+01  0.19357804909E+02  0.51100000000E-03 0.  1.
         12    1    4    4    0    0  0.78962544152E+01  0.45921030240E+01 -0.54377865950E+01  0.10630511137E+02  0.00000000000E+00 0. -1.
</event>
<event>
 8    1  0.6016610E-012  0.9118800E+02  0.7816164E-02  0.1184000E+00
        -11   -1    0    0    0    0  0.00000000000E+00  0.00000000000E+00  0.45593999997E+02  0.45594000000E+02  0.51100000000E-03 0. -1.
         11   -1    0    0    0    0 -0.00000000000E+00 -0.00000000000E+00 -0.45593999997E+02  0.45594000000E+02  0.51100000000E-03 0.  1.
         23    2    1    2    0    0  0.00000000000E+00  0.13322676296E-14  0.00000000000E+00  0.91188000000E+02  0.91188000000E+02 0.  0.
    9900012    2    3    3    0    0  0.38032855348E+02 -0.10797734734E+01  0.14335289079E+02  0.50528874215E+02  0.30000043663E+02 0.  0.
        -12    1    3    3    0    0 -0.38032855348E+02  0.10797734734E+01 -0.14335289079E+02  0.40659125785E+02  0.00000000000E+00 0.  1.
         11    1    4    4    0    0  0.99742187177E+01  0.17224589251E+01  0.10953600620E+00  0.10122445464E+02  0.51100000000E-03 0. -1.
        -11    1    4    4    0    0  0.11636855474E+02  0.84127427921E+01  0.14653037334E+02  0.20515899931E+02  0.51100000000E-03 0.  1.
        -12    1    4    4    0    0  0.16421781156E+02 -0.11214975191E+02 -0.42728426129E+00  0.19890528819E+02  0.00000000000E+00 0.  1.
</event>
<event>
 8    1  0.6016610E-012  0.9118800E+02  0.7816164E-02  0.1184000E+00
        -11   -1    0    0    0    0  0.00000000000E+00  0.00000000000E+00  0.45593999997E+02  0.45594000000E+02  0.51100000000E-03 0. -1.
         11   -1    0    0    0    0 -0.00000000000E+00 -0.00000000000E+00 -0.45593999997E+02  0.45594000000E+02  0.51100000000E-03 0.  1.
         23    2    1    2    0    0  0.00000000000E+00  0.88817841970E-15  0.00000000000E+00  0.91188000000E+02  0.91188000000E+02 0.  0.
    9900012    2    3    3    0    0  0.38613269885E+02 -0.51728784044E+01  0.11637100066E+02  0.50528863509E+02  0.30000011122E+02 0.  0.
        -12    1    3    3    0    0 -0.38613269885E+02  0.51728784044E+01 -0.11637100066E+02  0.40659136491E+02  0.00000000000E+00 0.  1.
         11    1    4    4    0    0  0.40609619651E+02 -0.95853401457E+01  0.11601442439E+02  0.43308352784E+02  0.51100000000E-03 0. -1.
        -11    1    4    4    0    0 -0.27495729256E+01  0.17254532564E+01 -0.19580046370E+01  0.37909263555E+01  0.51100000000E-03 0.  1.
         12    1    4    4    0    0  0.75322316014E+00  0.26870084849E+01  0.19936622644E+01  0.34295843701E+01  0.00000000000E+00 0. -1.
</event>
<event>
 8    1  0.6016610E-012  0.9118800E+02  0.7816164E-02  0.1184000E+00
        -11   -1    0    0    0    0  0.00000000000E+00  0.00000000000E+00  0.45593999997E+02  0.45594000000E+02  0.51100000000E-03 0. -1.
         11   -1    0    0    0    0 -0.00000000000E+00 -0.00000000000E+00 -0.45593999997E+02  0.45594000000E+02  0.51100000000E-03 0.  1.
         23    2    1    2    0    0  0.35527136788E-14  0.00000000000E+00 -0.71054273576E-14  0.91188000000E+02  0.91188000000E+02 0.  0.
    9900012    2    3    3    0    0  0.24985930547E+02  0.16260872851E+02 -0.27648743565E+02  0.50528859184E+02  0.29999997976E+02 0.  0.
         12    1    3    3    0    0 -0.24985930547E+02 -0.16260872851E+02  0.27648743565E+02  0.40659140816E+02  0.00000000000E+00 0. -1.
         11    1    4    4    0    0  0.26377486775E+02  0.12840617837E+02 -0.16833650304E+02  0.33823439473E+02  0.51100000000E-03 0. -1.
        -11    1    4    4    0    0 -0.13381838801E+00  0.65102177474E+01 -0.11577712774E+02  0.13283232883E+02  0.51100000000E-03 0.  1.
         12    1    4    4    0    0 -0.12577378404E+01 -0.30899627325E+01  0.76261951272E+00  0.34221868279E+01  0.00000000000E+00 0. -1.
</event>
<event>
 8    1  0.6016610E-012  0.9118800E+02  0.7816164E-02  0.1184000E+00
        -11   -1    0    0    0    0  0.00000000000E+00  0.00000000000E+00  0.45593999997E+02  0.45594000000E+02  0.51100000000E-03 0. -1.
         11   -1    0    0    0    0 -0.00000000000E+00 -0.00000000000E+00 -0.45593999997E+02  0.45594000000E+02  0.51100000000E-03 0.  1.
         23    2    1    2    0    0  0.00000000000E+00  0.00000000000E+00  0.00000000000E+00  0.91188000000E+02  0.91188000000E+02 0.  0.
    9900012    2    3    3    0    0 -0.20682354340E+02  0.24781410677E+02  0.24724249594E+02  0.50528848335E+02  0.29999964998E+02 0.  0.
        -12    1    3    3    0    0  0.20682354340E+02 -0.24781410677E+02 -0.24724249594E+02  0.40659151665E+02  0.00000000000E+00 0.  1.
         11    1    4    4    0    0 -0.24103303777E+02  0.24887465665E+02  0.16602952458E+02  0.38418917616E+02  0.51100000000E-03 0. -1.
        -11    1    4    4    0    0 -0.22543889349E+01 -0.19854304945E+01  0.27813967683E+01  0.40939433267E+01  0.51100000000E-03 0.  1.
         12    1    4    4    0    0  0.56753383723E+01  0.18793755059E+01  0.53399003672E+01  0.80159873917E+01  0.00000000000E+00 0. -1.
</event>
<event>
 8    1  0.6016610E-012  0.9118800E+02  0.7816164E-02  0.1184000E+00
        -11   -1    0    0    0    0  0.00000000000E+00  0.00000000000E+00  0.45593999997E+02  0.45594000000E+02  0.51100000000E-03 0. -1.
         11   -1    0    0    0    0 -0.00000000000E+00 -0.00000000000E+00 -0.45593999997E+02  0.45594000000E+02  0.51100000000E-03 0.  1.
         23    2    1    2    0    0 -0.71054273576E-14  0.00000000000E+00  0.00000000000E+00  0.91188000000E+02  0.91188000000E+02 0.  0.
    9900012    2    3    3    0    0 -0.26873027224E+02  0.99737958254E+01  0.28836245933E+02  0.50528864805E+02  0.30000015060E+02 0.  0.
        -12    1    3    3    0    0  0.26873027224E+02 -0.99737958254E+01 -0.28836245933E+02  0.40659135195E+02  0.00000000000E+00 0.  1.
         11    1    4    4    0    0 -0.25620339586E+02  0.30926952340E+01  0.93532897581E+01  0.27449054517E+02  0.51100000000E-03 0. -1.
        -11    1    4    4    0    0  0.35758953666E+01  0.17713517442E+01  0.12694661892E+02  0.13307109209E+02  0.51100000000E-03 0.  1.
        -12    1    4    4    0    0 -0.48285830050E+01  0.51097488473E+01  0.67882942822E+01  0.97727010791E+01  0.00000000000E+00 0.  1.
</event>
<event>
 8    1  0.6016610E-012  0.9118800E+02  0.7816164E-02  0.1184000E+00
        -11   -1    0    0    0    0  0.00000000000E+00  0.00000000000E+00  0.45593999997E+02  0.45594000000E+02  0.51100000000E-03 0. -1.
         11   -1    0    0    0    0 -0.00000000000E+00 -0.00000000000E+00 -0.45593999997E+02  0.45594000000E+02  0.51100000000E-03 0.  1.
         23    2    1    2    0    0  0.22204460493E-14  0.00000000000E+00  0.71054273576E-14  0.91188000000E+02  0.91188000000E+02 0.  0.
    9900012    2    3    3    0    0  0.29693439612E+01  0.12567446600E+02 -0.38553959673E+02  0.50528861739E+02  0.30000005743E+02 0.  0.
         12    1    3    3    0    0 -0.29693439612E+01 -0.12567446600E+02  0.38553959673E+02  0.40659138261E+02  0.00000000000E+00 0. -1.
         11    1    4    4    0    0 -0.10475290129E+02  0.14420665898E+02 -0.19471001576E+02  0.26397106108E+02  0.51100000000E-03 0. -1.
        -11    1    4    4    0    0  0.11909626857E+02  0.52851931370E+00 -0.14961281576E+02  0.19130041589E+02  0.51100000000E-03 0.  1.
         12    1    4    4    0    0  0.15350072337E+01 -0.23817386113E+01 -0.41216765211E+01  0.50017140427E+01  0.00000000000E+00 0. -1.
</event>
<event>
 8    1  0.6016610E-012  0.9118800E+02  0.7816164E-02  0.1184000E+00
        -11   -1    0    0    0    0  0.00000000000E+00  0.00000000000E+00  0.45593999997E+02  0.45594000000E+02  0.51100000000E-03 0. -1.
         11   -1    0    0    0    0 -0.00000000000E+00 -0.00000000000E+00 -0.45593999997E+02  0.45594000000E+02  0.51100000000E-03 0.  1.
         23    2    1    2    0    0 -0.35527136788E-14 -0.35527136788E-14  0.35527136788E-14  0.91188000000E+02  0.91188000000E+02 0.  0.
    9900012    2    3    3    0    0  0.15884861082E+02  0.19948048318E+02 -0.31668795075E+02  0.50528855582E+02  0.29999987026E+02 0.  0.
         12    1    3    3    0    0 -0.15884861082E+02 -0.19948048318E+02  0.31668795075E+02  0.40659144418E+02  0.00000000000E+00 0. -1.
         11    1    4    4    0    0  0.54092389309E+01 -0.70123413097E+00  0.20543902406E+01  0.58285602545E+01  0.51100000000E-03 0. -1.
        -11    1    4    4    0    0 -0.34560460735E+01  0.12990514416E+02 -0.15417898289E+02  0.20455055785E+02  0.51100000000E-03 0.  1.
        -12    1    4    4    0    0  0.13931668225E+02  0.76587680333E+01 -0.18305287027E+02  0.24245239542E+02  0.00000000000E+00 0.  1.
</event>
<event>
 8    1  0.6016610E-012  0.9118800E+02  0.7816164E-02  0.1184000E+00
        -11   -1    0    0    0    0  0.00000000000E+00  0.00000000000E+00  0.45593999997E+02  0.45594000000E+02  0.51100000000E-03 0. -1.
         11   -1    0    0    0    0 -0.00000000000E+00 -0.00000000000E+00 -0.45593999997E+02  0.45594000000E+02  0.51100000000E-03 0.  1.
         23    2    1    2    0    0  0.17347234760E-15  0.17763568394E-14  0.00000000000E+00  0.91188000000E+02  0.91188000000E+02 0.  0.
    9900012    2    3    3    0    0 -0.41530645127E-01 -0.14896310911E+02 -0.37832108231E+02  0.50528804032E+02  0.29999830337E+02 0.  0.
         12    1    3    3    0    0  0.41530645127E-01  0.14896310911E+02  0.37832108231E+02  0.40659195968E+02  0.00000000000E+00 0. -1.
         11    1    4    4    0    0  0.54957556878E+01  0.27595884841E+01 -0.25456100575E+01  0.66557336191E+01  0.51100000000E-03 0. -1.
        -11    1    4    4    0    0 -0.10888055048E+02 -0.51306085371E+01 -0.12699041000E+02  0.17496814832E+02  0.51100000000E-03 0.  1.
         12    1    4    4    0    0  0.53507687155E+01 -0.12525290858E+02 -0.22587457173E+02  0.26376255581E+02  0.00000000000E+00 0. -1.
</event>
<event>
 8    1  0.6016610E-012  0.9118800E+02  0.7816164E-02  0.1184000E+00
        -11   -1    0    0    0    0  0.00000000000E+00  0.00000000000E+00  0.45593999997E+02  0.45594000000E+02  0.51100000000E-03 0. -1.
         11   -1    0    0    0    0 -0.00000000000E+00 -0.00000000000E+00 -0.45593999997E+02  0.45594000000E+02  0.51100000000E-03 0.  1.
         23    2    1    2    0    0  0.00000000000E+00  0.00000000000E+00  0.00000000000E+00  0.91188000000E+02  0.91188000000E+02 0.  0.
    9900012    2    3    3    0    0  0.23850113202E+02  0.14389904235E+02 -0.29618716170E+02  0.50528860914E+02  0.30000003235E+02 0.  0.
         12    1    3    3    0    0 -0.23850113202E+02 -0.14389904235E+02  0.29618716170E+02  0.40659139086E+02  0.00000000000E+00 0. -1.
         11    1    4    4    0    0 -0.64936881087E+01  0.26710923354E+01 -0.15338476019E+01  0.71871696963E+01  0.51100000000E-03 0. -1.
        -11    1    4    4    0    0  0.20570696698E+02  0.10480350477E+02 -0.20982989334E+02  0.31197390122E+02  0.51100000000E-03 0.  1.
         12    1    4    4    0    0  0.97731046125E+01  0.12384614225E+01 -0.71018792342E+01  0.12144301096E+02  0.00000000000E+00 0. -1.
</event>
<event>
 8    1  0.6016610E-012  0.9118800E+02  0.7816164E-02  0.1184000E+00
        -11   -1    0    0    0    0  0.00000000000E+00  0.00000000000E+00  0.45593999997E+02  0.45594000000E+02  0.51100000000E-03 0. -1.
         11   -1    0    0    0    0 -0.00000000000E+00 -0.00000000000E+00 -0.45593999997E+02  0.45594000000E+02  0.51100000000E-03 0.  1.
         23    2    1    2    0    0  0.88817841970E-15 -0.17763568394E-14  0.00000000000E+00  0.91188000000E+02  0.91188000000E+02 0.  0.
    9900012    2    3    3    0    0  0.25456964231E+01  0.13637552314E+02  0.38219046232E+02  0.50528943220E+02  0.30000253410E+02 0.  0.
        -12    1    3    3    0    0 -0.25456964231E+01 -0.13637552314E+02 -0.38219046232E+02  0.40659056780E+02  0.00000000000E+00 0.  1.
         11    1    4    4    0    0 -0.45772138084E+01 -0.99153092475E+00  0.87317074474E+01  0.99084173827E+01  0.51100000000E-03 0. -1.
        -11    1    4    4    0    0  0.10100473909E+02  0.15001978493E+02  0.95371860038E+01  0.20445949453E+02  0.51100000000E-03 0.  1.
        -12    1    4    4    0    0 -0.29775636778E+01 -0.37289525460E+00  0.19950152780E+02  0.20174576384E+02  0.00000000000E+00 0.  1.
</event>
<event>
 8    1  0.6016610E-012  0.9118800E+02  0.7816164E-02  0.1184000E+00
        -11   -1    0    0    0    0  0.00000000000E+00  0.00000000000E+00  0.45593999997E+02  0.45594000000E+02  0.51100000000E-03 0.  1.
         11   -1    0    0    0    0 -0.00000000000E+00 -0.00000000000E+00 -0.45593999997E+02  0.45594000000E+02  0.51100000000E-03 0. -1.
         23    2    1    2    0    0 -0.11102230246E-15  0.00000000000E+00 -0.35527136788E-14  0.91188000000E+02  0.91188000000E+02 0.  0.
    9900012    2    3    3    0    0  0.86748476299E+00 -0.35930698325E+02  0.19010473636E+02  0.50528859332E+02  0.29999998427E+02 0.  0.
         12    1    3    3    0    0 -0.86748476299E+00  0.35930698325E+02 -0.19010473636E+02  0.40659140668E+02  0.00000000000E+00 0. -1.
         11    1    4    4    0    0  0.98416764012E+00  0.89760447488E+00  0.14418041571E+01  0.19629261896E+01  0.51100000000E-03 0. -1.
        -11    1    4    4    0    0 -0.29396029816E+00 -0.26597306905E+02 -0.18007213328E+01  0.26659815168E+02  0.51100000000E-03 0.  1.
        -12    1    4    4    0    0  0.17727742103E+00 -0.10230995896E+02  0.19369390812E+02  0.21906117974E+02  0.00000000000E+00 0.  1.
</event>
<event>
 8    1  0.6016610E-012  0.9118800E+02  0.7816164E-02  0.1184000E+00
        -11   -1    0    0    0    0  0.00000000000E+00  0.00000000000E+00  0.45593999997E+02  0.45594000000E+02  0.51100000000E-03 0. -1.
         11   -1    0    0    0    0 -0.00000000000E+00 -0.00000000000E+00 -0.45593999997E+02  0.45594000000E+02  0.51100000000E-03 0.  1.
         23    2    1    2    0    0  0.00000000000E+00  0.00000000000E+00  0.71054273576E-14  0.91188000000E+02  0.91188000000E+02 0.  0.
    9900012    2    3    3    0    0  0.13961986806E+02 -0.13745052166E+02  0.35627260245E+02  0.50528865637E+02  0.30000017590E+02 0.  0.
        -12    1    3    3    0    0 -0.13961986806E+02  0.13745052166E+02 -0.35627260245E+02  0.40659134363E+02  0.00000000000E+00 0.  1.
         11    1    4    4    0    0  0.10779660851E+02 -0.17296706748E+01  0.32342430361E+01  0.11386534898E+02  0.51100000000E-03 0. -1.
        -11    1    4    4    0    0 -0.56395000903E+01 -0.60637610062E+01  0.24588521666E+02  0.25945492032E+02  0.51100000000E-03 0.  1.
        -12    1    4    4    0    0  0.88218260449E+01 -0.59516204853E+01  0.78044955427E+01  0.13196838706E+02  0.00000000000E+00 0.  1.
</event>
<event>
 8    1  0.6016610E-012  0.9118800E+02  0.7816164E-02  0.1184000E+00
        -11   -1    0    0    0    0  0.00000000000E+00  0.00000000000E+00  0.45593999997E+02  0.45594000000E+02  0.51100000000E-03 0. -1.
         11   -1    0    0    0    0 -0.00000000000E+00 -0.00000000000E+00 -0.45593999997E+02  0.45594000000E+02  0.51100000000E-03 0.  1.
         23    2    1    2    0    0 -0.44408920985E-15 -0.35527136788E-14  0.00000000000E+00  0.91188000000E+02  0.91188000000E+02 0.  0.
    9900012    2    3    3    0    0 -0.25249498574E+01  0.17349630241E+02  0.36684860067E+02  0.50528880489E+02  0.30000062734E+02 0.  0.
        -12    1    3    3    0    0  0.25249498574E+01 -0.17349630241E+02 -0.36684860067E+02  0.40659119511E+02  0.00000000000E+00 0.  1.
         11    1    4    4    0    0 -0.40883546290E+01  0.13120335781E+02  0.10274204537E+02  0.17158587754E+02  0.51100000000E-03 0. -1.
        -11    1    4    4    0    0  0.72167830418E+01 -0.20498989953E+01  0.23383493203E+01  0.78582390628E+01  0.51100000000E-03 0.  1.
        -12    1    4    4    0    0 -0.56533782702E+01  0.62791934550E+01  0.24072306209E+02  0.25512053672E+02  0.00000000000E+00 0.  1.
</event>
<event>
 8    1  0.6016610E-012  0.9118800E+02  0.7816164E-02  0.1184000E+00
        -11   -1    0    0    0    0  0.00000000000E+00  0.00000000000E+00  0.45593999997E+02  0.45594000000E+02  0.51100000000E-03 0.  1.
         11   -1    0    0    0    0 -0.00000000000E+00 -0.00000000000E+00 -0.45593999997E+02  0.45594000000E+02  0.51100000000E-03 0. -1.
         23    2    1    2    0    0  0.00000000000E+00 -0.17763568394E-14  0.00000000000E+00  0.91188000000E+02  0.91188000000E+02 0.  0.
    9900012    2    3    3    0    0 -0.25754108582E+02  0.10384425416E+02 -0.29699424309E+02  0.50528853374E+02  0.29999980317E+02 0.  0.
         12    1    3    3    0    0  0.25754108582E+02 -0.10384425416E+02  0.29699424309E+02  0.40659146626E+02  0.00000000000E+00 0. -1.
         11    1    4    4    0    0 -0.55155718347E+01 -0.24589597635E+01 -0.58554555743E+01  0.84115620443E+01  0.51100000000E-03 0. -1.
        -11    1    4    4    0    0 -0.25420990806E+01  0.14760196343E+02 -0.17925621776E+02  0.23359229014E+02  0.51100000000E-03 0.  1.
        -12    1    4    4    0    0 -0.17696437666E+02 -0.19168111640E+01 -0.59183469586E+01  0.18758062316E+02  0.00000000000E+00 0.  1.
</event>
<event>
 8    1  0.6016610E-012  0.9118800E+02  0.7816164E-02  0.1184000E+00
        -11   -1    0    0    0    0  0.00000000000E+00  0.00000000000E+00  0.45593999997E+02  0.45594000000E+02  0.51100000000E-03 0. -1.
         11   -1    0    0    0    0 -0.00000000000E+00 -0.00000000000E+00 -0.45593999997E+02  0.45594000000E+02  0.51100000000E-03 0.  1.
         23    2    1    2    0    0  0.00000000000E+00  0.35527136788E-14  0.35527136788E-14  0.91188000000E+02  0.91188000000E+02 0.  0.
    9900012    2    3    3    0    0  0.22348321847E+02  0.24188963280E+02  0.23845595642E+02  0.50528857542E+02  0.29999992984E+02 0.  0.
        -12    1    3    3    0    0 -0.22348321847E+02 -0.24188963280E+02 -0.23845595642E+02  0.40659142458E+02  0.00000000000E+00 0.  1.
         11    1    4    4    0    0  0.23392589982E+02  0.17908890102E+02  0.25207046803E+02  0.38772887687E+02  0.51100000000E-03 0. -1.
        -11    1    4    4    0    0  0.38202435776E+01  0.74939243217E+00 -0.19740630474E+01  0.43649484746E+01  0.51100000000E-03 0.  1.
         12    1    4    4    0    0 -0.48645117134E+01  0.55306807461E+01  0.61261188622E+00  0.73910213806E+01  0.00000000000E+00 0. -1.
</event>
<event>
 8    1  0.6016610E-012  0.9118800E+02  0.7816164E-02  0.1184000E+00
        -11   -1    0    0    0    0  0.00000000000E+00  0.00000000000E+00  0.45593999997E+02  0.45594000000E+02  0.51100000000E-03 0. -1.
         11   -1    0    0    0    0 -0.00000000000E+00 -0.00000000000E+00 -0.45593999997E+02  0.45594000000E+02  0.51100000000E-03 0.  1.
         23    2    1    2    0    0 -0.35527136788E-14  0.00000000000E+00  0.00000000000E+00  0.91188000000E+02  0.91188000000E+02 0.  0.
    9900012    2    3    3    0    0 -0.23781550654E+02 -0.27885451277E+02 -0.17606916271E+02  0.50528879929E+02  0.30000061031E+02 0.  0.
         12    1    3    3    0    0  0.23781550654E+02  0.27885451277E+02  0.17606916271E+02  0.40659120071E+02  0.00000000000E+00 0. -1.
         11    1    4    4    0    0 -0.20900920452E+02 -0.26740356980E+02 -0.12550905653E+02  0.36185914389E+02  0.51100000000E-03 0. -1.
        -11    1    4    4    0    0 -0.89907594671E+00  0.40592268001E+00 -0.93306482194E+01  0.93826492653E+01  0.51100000000E-03 0.  1.
         12    1    4    4    0    0 -0.19815542546E+01 -0.15510169764E+01  0.42746376009E+01  0.49603162746E+01  0.00000000000E+00 0. -1.
</event>
<event>
 8    1  0.6016610E-012  0.9118800E+02  0.7816164E-02  0.1184000E+00
        -11   -1    0    0    0    0  0.00000000000E+00  0.00000000000E+00  0.45593999997E+02  0.45594000000E+02  0.51100000000E-03 0.  1.
         11   -1    0    0    0    0 -0.00000000000E+00 -0.00000000000E+00 -0.45593999997E+02  0.45594000000E+02  0.51100000000E-03 0. -1.
         23    2    1    2    0    0  0.00000000000E+00  0.00000000000E+00  0.88817841970E-15  0.91188000000E+02  0.91188000000E+02 0.  0.
    9900012    2    3    3    0    0 -0.18630393610E+02 -0.36033743548E+02 -0.27643931847E+01  0.50528879131E+02  0.30000058607E+02 0.  0.
         12    1    3    3    0    0  0.18630393610E+02  0.36033743548E+02  0.27643931847E+01  0.40659120869E+02  0.00000000000E+00 0. -1.
         11    1    4    4    0    0 -0.77766259045E+01 -0.17967319415E+02  0.11706361348E+02  0.22810948549E+02  0.51100000000E-03 0. -1.
        -11    1    4    4    0    0 -0.36174941165E+01 -0.15009861019E+02 -0.11759253187E+02  0.19407787800E+02  0.51100000000E-03 0.  1.
        -12    1    4    4    0    0 -0.72362735885E+01 -0.30565631135E+01 -0.27115013455E+01  0.83101427823E+01  0.00000000000E+00 0.  1.
</event>
<event>
 8    1  0.6016610E-012  0.9118800E+02  0.7816164E-02  0.1184000E+00
        -11   -1    0    0    0    0  0.00000000000E+00  0.00000000000E+00  0.45593999997E+02  0.45594000000E+02  0.51100000000E-03 0. -1.
         11   -1    0    0    0    0 -0.00000000000E+00 -0.00000000000E+00 -0.45593999997E+02  0.45594000000E+02  0.51100000000E-03 0.  1.
         23    2    1    2    0    0  0.00000000000E+00  0.00000000000E+00  0.00000000000E+00  0.91188000000E+02  0.91188000000E+02 0.  0.
    9900012    2    3    3    0    0  0.23262701541E+02  0.12747700299E+02  0.30814085586E+02  0.50528867983E+02  0.30000024720E+02 0.  0.
        -12    1    3    3    0    0 -0.23262701541E+02 -0.12747700299E+02 -0.30814085586E+02  0.40659132017E+02  0.00000000000E+00 0.  1.
         11    1    4    4    0    0  0.13980945386E+02 -0.62927762920E+00  0.67840745992E+01  0.15552700494E+02  0.51100000000E-03 0. -1.
        -11    1    4    4    0    0 -0.11160240374E+01  0.13695198802E+02  0.80999196060E+01  0.15950319049E+02  0.51100000000E-03 0.  1.
        -12    1    4    4    0    0  0.10397780193E+02 -0.31822087400E+00  0.15930091381E+02  0.19025848440E+02  0.00000000000E+00 0.  1.
</event>
<event>
 8    1  0.6016610E-012  0.9118800E+02  0.7816164E-02  0.1184000E+00
        -11   -1    0    0    0    0  0.00000000000E+00  0.00000000000E+00  0.45593999997E+02  0.45594000000E+02  0.51100000000E-03 0. -1.
         11   -1    0    0    0    0 -0.00000000000E+00 -0.00000000000E+00 -0.45593999997E+02  0.45594000000E+02  0.51100000000E-03 0.  1.
         23    2    1    2    0    0  0.00000000000E+00  0.17763568394E-14  0.00000000000E+00  0.91188000000E+02  0.91188000000E+02 0.  0.
    9900012    2    3    3    0    0 -0.29572908878E+02  0.68646344850E+01 -0.27045966152E+02  0.50528875179E+02  0.30000046593E+02 0.  0.
         12    1    3    3    0    0  0.29572908878E+02 -0.68646344850E+01  0.27045966152E+02  0.40659124821E+02  0.00000000000E+00 0. -1.
         11    1    4    4    0    0  0.27784246501E+01 -0.52345931183E+00 -0.25944791662E+01  0.38373135906E+01  0.51100000000E-03 0. -1.
        -11    1    4    4    0    0 -0.28538189525E+02  0.97433027075E+01 -0.10329883793E+02  0.31875801299E+02  0.51100000000E-03 0.  1.
         12    1    4    4    0    0 -0.38131440031E+01 -0.23552089107E+01 -0.14121603193E+02  0.14815760289E+02  0.00000000000E+00 0. -1.
</event>
<event>
 8    1  0.6016610E-012  0.9118800E+02  0.7816164E-02  0.1184000E+00
        -11   -1    0    0    0    0  0.00000000000E+00  0.00000000000E+00  0.45593999997E+02  0.45594000000E+02  0.51100000000E-03 0. -1.
         11   -1    0    0    0    0 -0.00000000000E+00 -0.00000000000E+00 -0.45593999997E+02  0.45594000000E+02  0.51100000000E-03 0.  1.
         23    2    1    2    0    0  0.00000000000E+00  0.00000000000E+00  0.00000000000E+00  0.91188000000E+02  0.91188000000E+02 0.  0.
    9900012    2    3    3    0    0  0.69010519072E+01 -0.50229422604E+01 -0.39753130468E+02  0.50528857752E+02  0.29999993622E+02 0.  0.
         12    1    3    3    0    0 -0.69010519072E+01  0.50229422604E+01  0.39753130468E+02  0.40659142248E+02  0.00000000000E+00 0. -1.
         11    1    4    4    0    0  0.33667433094E+01  0.38400417396E+01 -0.34090540486E+00  0.51183100560E+01  0.51100000000E-03 0. -1.
        -11    1    4    4    0    0 -0.41690685108E+01 -0.11160441522E+02 -0.12267452867E+02  0.17100496698E+02  0.51100000000E-03 0.  1.
        -12    1    4    4    0    0  0.77033771085E+01  0.22974575217E+01 -0.27144772196E+02  0.28310050998E+02  0.00000000000E+00 0.  1.
</event>
<event>
 8    1  0.6016610E-012  0.9118800E+02  0.7816164E-02  0.1184000E+00
        -11   -1    0    0    0    0  0.00000000000E+00  0.00000000000E+00  0.45593999997E+02  0.45594000000E+02  0.51100000000E-03 0. -1.
         11   -1    0    0    0    0 -0.00000000000E+00 -0.00000000000E+00 -0.45593999997E+02  0.45594000000E+02  0.51100000000E-03 0.  1.
         23    2    1    2    0    0 -0.88817841970E-15 -0.35527136788E-14  0.71054273576E-14  0.91188000000E+02  0.91188000000E+02 0.  0.
    9900012    2    3    3    0    0 -0.24804338868E+01 -0.17638808785E+02  0.36549755916E+02  0.50528870826E+02  0.30000033363E+02 0.  0.
        -12    1    3    3    0    0  0.24804338868E+01  0.17638808785E+02 -0.36549755916E+02  0.40659129174E+02  0.00000000000E+00 0.  1.
         11    1    4    4    0    0  0.28290074463E+01 -0.98463253905E+01  0.71817565755E+01  0.12511236334E+02  0.51100000000E-03 0. -1.
        -11    1    4    4    0    0 -0.87022873144E+01 -0.10216862939E+02  0.30809382083E+02  0.33605537005E+02  0.51100000000E-03 0.  1.
        -12    1    4    4    0    0  0.33928459814E+01  0.24243795445E+01 -0.14413827420E+01  0.44120974874E+01  0.00000000000E+00 0.  1.
</event>
<event>
 8    1  0.6016610E-012  0.9118800E+02  0.7816164E-02  0.1184000E+00
        -11   -1    0    0    0    0  0.00000000000E+00  0.00000000000E+00  0.45593999997E+02  0.45594000000E+02  0.51100000000E-03 0. -1.
         11   -1    0    0    0    0 -0.00000000000E+00 -0.00000000000E+00 -0.45593999997E+02  0.45594000000E+02  0.51100000000E-03 0.  1.
         23    2    1    2    0    0  0.00000000000E+00  0.00000000000E+00 -0.71054273576E-14  0.91188000000E+02  0.91188000000E+02 0.  0.
    9900012    2    3    3    0    0  0.16773314396E+02  0.16746656965E+02 -0.33035901479E+02  0.50528863489E+02  0.30000011060E+02 0.  0.
         12    1    3    3    0    0 -0.16773314396E+02 -0.16746656965E+02  0.33035901479E+02  0.40659136511E+02  0.00000000000E+00 0. -1.
         11    1    4    4    0    0  0.12439899264E+02  0.33859142402E+01  0.99074089215E+00  0.12930470862E+02  0.51100000000E-03 0. -1.
        -11    1    4    4    0    0  0.35271713228E+01  0.84256681710E+01 -0.12399377293E+02  0.15400564249E+02  0.51100000000E-03 0.  1.
         12    1    4    4    0    0  0.80624380937E+00  0.49350745537E+01 -0.21627265078E+02  0.22197828378E+02  0.00000000000E+00 0. -1.
</event>
<event>
 8    1  0.6016610E-012  0.9118800E+02  0.7816164E-02  0.1184000E+00
        -11   -1    0    0    0    0  0.00000000000E+00  0.00000000000E+00  0.45593999997E+02  0.45594000000E+02  0.51100000000E-03 0.  1.
         11   -1    0    0    0    0 -0.00000000000E+00 -0.00000000000E+00 -0.45593999997E+02  0.45594000000E+02  0.51100000000E-03 0. -1.
         23    2    1    2    0    0  0.00000000000E+00  0.00000000000E+00  0.00000000000E+00  0.91188000000E+02  0.91188000000E+02 0.  0.
    9900012    2    3    3    0    0  0.33106748134E+02 -0.16099755213E+02  0.17259984996E+02  0.50528856232E+02  0.29999989002E+02 0.  0.
        -12    1    3    3    0    0 -0.33106748134E+02  0.16099755213E+02 -0.17259984996E+02  0.40659143768E+02  0.00000000000E+00 0.  1.
         11    1    4    4    0    0  0.25611349793E+01 -0.12648259099E+02  0.49884008367E+01  0.13835534460E+02  0.51100000000E-03 0. -1.
        -11    1    4    4    0    0  0.23389014683E+02 -0.87287499952E+01  0.12234225632E+02  0.27801319418E+02  0.51100000000E-03 0.  1.
         12    1    4    4    0    0  0.71565984716E+01  0.52772538806E+01  0.37358527204E-01  0.88920023540E+01  0.00000000000E+00 0. -1.
</event>
<event>
 8    1  0.6016610E-012  0.9118800E+02  0.7816164E-02  0.1184000E+00
        -11   -1    0    0    0    0  0.00000000000E+00  0.00000000000E+00  0.45593999997E+02  0.45594000000E+02  0.51100000000E-03 0. -1.
         11   -1    0    0    0    0 -0.00000000000E+00 -0.00000000000E+00 -0.45593999997E+02  0.45594000000E+02  0.51100000000E-03 0.  1.
         23    2    1    2    0    0 -0.35527136788E-14  0.00000000000E+00  0.35527136788E-14  0.91188000000E+02  0.91188000000E+02 0.  0.
    9900012    2    3    3    0    0  0.23158208254E+02  0.23728716426E+02 -0.23533175402E+02  0.50528868956E+02  0.30000027677E+02 0.  0.
         12    1    3    3    0    0 -0.23158208254E+02 -0.23728716426E+02  0.23533175402E+02  0.40659131044E+02  0.00000000000E+00 0. -1.
         11    1    4    4    0    0  0.56140018830E+01  0.25761140798E+02 -0.11249571117E+02  0.28665418939E+02  0.51100000000E-03 0. -1.
        -11    1    4    4    0    0  0.39699659783E+01 -0.13554149937E+01 -0.13085322631E+01  0.43943186751E+01  0.51100000000E-03 0.  1.
         12    1    4    4    0    0  0.13574240393E+02 -0.67700937792E+00 -0.10975072022E+02  0.17469131342E+02  0.00000000000E+00 0. -1.
</event>
<event>
 8    1  0.6016610E-012  0.9118800E+02  0.7816164E-02  0.1184000E+00
        -11   -1    0    0    0    0  0.00000000000E+00  0.00000000000E+00  0.45593999997E+02  0.45594000000E+02  0.51100000000E-03 0. -1.
         11   -1    0    0    0    0 -0.00000000000E+00 -0.00000000000E+00 -0.45593999997E+02  0.45594000000E+02  0.51100000000E-03 0.  1.
         23    2    1    2    0    0  0.00000000000E+00  0.00000000000E+00 -0.35527136788E-14  0.91188000000E+02  0.91188000000E+02 0.  0.
    9900012    2    3    3    0    0  0.25153559299E+02 -0.94972179899E+01 -0.30500186286E+02  0.50528928952E+02  0.30000210042E+02 0.  0.
         12    1    3    3    0    0 -0.25153559299E+02  0.94972179899E+01  0.30500186286E+02  0.40659071048E+02  0.00000000000E+00 0. -1.
         11    1    4    4    0    0  0.65320746964E+01  0.79019399140E+01 -0.21526280509E+01  0.10475803646E+02  0.51100000000E-03 0. -1.
        -11    1    4    4    0    0  0.98502162566E+01 -0.15807381885E+02 -0.14588047957E+02  0.23658216877E+02  0.51100000000E-03 0.  1.
        -12    1    4    4    0    0  0.87712683463E+01 -0.15917760193E+01 -0.13759510278E+02  0.16394908429E+02  0.00000000000E+00 0.  1.
</event>
<event>
 8    1  0.6016610E-012  0.9118800E+02  0.7816164E-02  0.1184000E+00
        -11   -1    0    0    0    0  0.00000000000E+00  0.00000000000E+00  0.45593999997E+02  0.45594000000E+02  0.51100000000E-03 0. -1.
         11   -1    0    0    0    0 -0.00000000000E+00 -0.00000000000E+00 -0.45593999997E+02  0.45594000000E+02  0.51100000000E-03 0.  1.
         23    2    1    2    0    0  0.00000000000E+00  0.00000000000E+00 -0.88817841970E-15  0.91188000000E+02  0.91188000000E+02 0.  0.
    9900012    2    3    3    0    0  0.26786204703E+02 -0.30510755180E+02  0.21814654351E+01  0.50528859140E+02  0.29999997841E+02 0.  0.
         12    1    3    3    0    0 -0.26786204703E+02  0.30510755180E+02 -0.21814654351E+01  0.40659140860E+02  0.00000000000E+00 0. -1.
         11    1    4    4    0    0 -0.28846842850E+00 -0.57172268562E+01  0.96409998310E+01  0.11212438404E+02  0.51100000000E-03 0. -1.
        -11    1    4    4    0    0  0.21566744456E+02 -0.25015197073E+02 -0.56071263025E+01  0.33501110678E+02  0.51100000000E-03 0.  1.
        -12    1    4    4    0    0  0.55079286755E+01  0.22166874867E+00 -0.18524080934E+01  0.58153100582E+01  0.00000000000E+00 0.  1.
</event>
<event>
 8    1  0.6016610E-012  0.9118800E+02  0.7816164E-02  0.1184000E+00
        -11   -1    0    0    0    0  0.00000000000E+00  0.00000000000E+00  0.45593999997E+02  0.45594000000E+02  0.51100000000E-03 0. -1.
         11   -1    0    0    0    0 -0.00000000000E+00 -0.00000000000E+00 -0.45593999997E+02  0.45594000000E+02  0.51100000000E-03 0.  1.
         23    2    1    2    0    0 -0.22204460493E-14  0.00000000000E+00  0.00000000000E+00  0.91188000000E+02  0.91188000000E+02 0.  0.
    9900012    2    3    3    0    0  0.46881236943E+00  0.74058097131E+01 -0.39976237170E+02  0.50528863993E+02  0.30000012594E+02 0.  0.
         12    1    3    3    0    0 -0.46881236943E+00 -0.74058097131E+01  0.39976237170E+02  0.40659136007E+02  0.00000000000E+00 0. -1.
         11    1    4    4    0    0  0.89129051819E+01 -0.54387418430E+01 -0.16011619742E+02  0.19115223217E+02  0.51100000000E-03 0. -1.
        -11    1    4    4    0    0 -0.76870480570E+01  0.92121640868E+01 -0.66740640303E+01  0.13729450314E+02  0.51100000000E-03 0.  1.
        -12    1    4    4    0    0 -0.75704475549E+00  0.36323874693E+01 -0.17290553397E+02  0.17684190461E+02  0.00000000000E+00 0.  1.
</event>
<event>
 8    1  0.6016610E-012  0.9118800E+02  0.7816164E-02  0.1184000E+00
        -11   -1    0    0    0    0  0.00000000000E+00  0.00000000000E+00  0.45593999997E+02  0.45594000000E+02  0.51100000000E-03 0. -1.
         11   -1    0    0    0    0 -0.00000000000E+00 -0.00000000000E+00 -0.45593999997E+02  0.45594000000E+02  0.51100000000E-03 0.  1.
         23    2    1    2    0    0  0.00000000000E+00 -0.17763568394E-14 -0.35527136788E-14  0.91188000000E+02  0.91188000000E+02 0.  0.
    9900012    2    3    3    0    0 -0.28301091175E+02 -0.97818238895E+01  0.27505082021E+02  0.50528863545E+02  0.30000011230E+02 0.  0.
        -12    1    3    3    0    0  0.28301091175E+02  0.97818238895E+01 -0.27505082021E+02  0.40659136455E+02  0.00000000000E+00 0.  1.
         11    1    4    4    0    0 -0.41513862214E+01 -0.47376753817E+01  0.19889211550E+02  0.20862893182E+02  0.51100000000E-03 0. -1.
        -11    1    4    4    0    0 -0.64760424949E+01  0.46218405808E+00 -0.41742749000E+01  0.77186340567E+01  0.51100000000E-03 0.  1.
        -12    1    4    4    0    0 -0.17673662459E+02 -0.55063325658E+01  0.11790145371E+02  0.21947336305E+02  0.00000000000E+00 0.  1.
</event>
<event>
 8    1  0.6016610E-012  0.9118800E+02  0.7816164E-02  0.1184000E+00
        -11   -1    0    0    0    0  0.00000000000E+00  0.00000000000E+00  0.45593999997E+02  0.45594000000E+02  0.51100000000E-03 0. -1.
         11   -1    0    0    0    0 -0.00000000000E+00 -0.00000000000E+00 -0.45593999997E+02  0.45594000000E+02  0.51100000000E-03 0.  1.
         23    2    1    2    0    0  0.71054273576E-14  0.17763568394E-14  0.35527136788E-14  0.91188000000E+02  0.91188000000E+02 0.  0.
    9900012    2    3    3    0    0 -0.25538619353E+02 -0.10034676482E+02 -0.30004166749E+02  0.50528857942E+02  0.29999994202E+02 0.  0.
         12    1    3    3    0    0  0.25538619353E+02  0.10034676482E+02  0.30004166749E+02  0.40659142058E+02  0.00000000000E+00 0. -1.
         11    1    4    4    0    0 -0.56061141024E+01 -0.23417516527E+01  0.59941509759E+01  0.85347619953E+01  0.51100000000E-03 0. -1.
        -11    1    4    4    0    0 -0.71862666872E+01 -0.44986612037E+01 -0.13635901428E+02  0.16056717894E+02  0.51100000000E-03 0.  1.
         12    1    4    4    0    0 -0.12746238564E+02 -0.31942636259E+01 -0.22362416297E+02  0.25937378053E+02  0.00000000000E+00 0. -1.
</event>
<event>
 8    1  0.6016610E-012  0.9118800E+02  0.7816164E-02  0.1184000E+00
        -11   -1    0    0    0    0  0.00000000000E+00  0.00000000000E+00  0.45593999997E+02  0.45594000000E+02  0.51100000000E-03 0. -1.
         11   -1    0    0    0    0 -0.00000000000E+00 -0.00000000000E+00 -0.45593999997E+02  0.45594000000E+02  0.51100000000E-03 0.  1.
         23    2    1    2    0    0  0.00000000000E+00 -0.35527136788E-14  0.00000000000E+00  0.91188000000E+02  0.91188000000E+02 0.  0.
    9900012    2    3    3    0    0 -0.13831490314E+02 -0.22736134702E+02  0.30739633524E+02  0.50528843409E+02  0.29999950027E+02 0.  0.
        -12    1    3    3    0    0  0.13831490314E+02  0.22736134702E+02 -0.30739633524E+02  0.40659156591E+02  0.00000000000E+00 0.  1.
         11    1    4    4    0    0 -0.20350882919E+02 -0.20579297240E+02  0.25759363970E+02  0.38745460932E+02  0.51100000000E-03 0. -1.
        -11    1    4    4    0    0  0.44953605943E+01 -0.52932153292E+01  0.33447138716E+01  0.77080157328E+01  0.51100000000E-03 0.  1.
         12    1    4    4    0    0  0.20240320104E+01  0.31363778676E+01  0.16355556824E+01  0.40753667440E+01  0.00000000000E+00 0. -1.
</event>
<event>
 8    1  0.6016610E-012  0.9118800E+02  0.7816164E-02  0.1184000E+00
        -11   -1    0    0    0    0  0.00000000000E+00  0.00000000000E+00  0.45593999997E+02  0.45594000000E+02  0.51100000000E-03 0. -1.
         11   -1    0    0    0    0 -0.00000000000E+00 -0.00000000000E+00 -0.45593999997E+02  0.45594000000E+02  0.51100000000E-03 0.  1.
         23    2    1    2    0    0  0.00000000000E+00 -0.35527136788E-14 -0.17763568394E-14  0.91188000000E+02  0.91188000000E+02 0.  0.
    9900012    2    3    3    0    0 -0.26270309782E+02 -0.29533071194E+02 -0.95304856748E+01  0.50528909658E+02  0.30000151397E+02 0.  0.
         12    1    3    3    0    0  0.26270309782E+02  0.29533071194E+02  0.95304856748E+01  0.40659090342E+02  0.00000000000E+00 0. -1.
         11    1    4    4    0    0 -0.14231200087E+02 -0.10910701598E+01  0.11840396131E+01  0.14321991484E+02  0.51100000000E-03 0. -1.
        -11    1    4    4    0    0 -0.11939197154E+02 -0.30011844521E+02 -0.83403295276E+01  0.33358901918E+02  0.51100000000E-03 0.  1.
        -12    1    4    4    0    0 -0.99912541321E-01  0.15698434870E+01 -0.23741957603E+01  0.28480162566E+01  0.00000000000E+00 0.  1.
</event>
<event>
 8    1  0.6016610E-012  0.9118800E+02  0.7816164E-02  0.1184000E+00
        -11   -1    0    0    0    0  0.00000000000E+00  0.00000000000E+00  0.45593999997E+02  0.45594000000E+02  0.51100000000E-03 0. -1.
         11   -1    0    0    0    0 -0.00000000000E+00 -0.00000000000E+00 -0.45593999997E+02  0.45594000000E+02  0.51100000000E-03 0.  1.
         23    2    1    2    0    0  0.00000000000E+00  0.00000000000E+00  0.35527136788E-14  0.91188000000E+02  0.91188000000E+02 0.  0.
    9900012    2    3    3    0    0  0.30868175545E+02  0.19584214447E+02 -0.17798303245E+02  0.50528864305E+02  0.30000013542E+02 0.  0.
         12    1    3    3    0    0 -0.30868175545E+02 -0.19584214447E+02  0.17798303245E+02  0.40659135695E+02  0.00000000000E+00 0. -1.
         11    1    4    4    0    0  0.10898772716E+02  0.86680579590E+01  0.66807011183E+01  0.15445071809E+02  0.51100000000E-03 0. -1.
        -11    1    4    4    0    0  0.54842111685E+01 -0.13116288245E+01 -0.89530699686E+01  0.10580850837E+02  0.51100000000E-03 0.  1.
         12    1    4    4    0    0  0.14485191661E+02  0.12227785313E+02 -0.15525934395E+02  0.24502941659E+02  0.00000000000E+00 0. -1.
</event>
<event>
 8    1  0.6016610E-012  0.9118800E+02  0.7816164E-02  0.1184000E+00
        -11   -1    0    0    0    0  0.00000000000E+00  0.00000000000E+00  0.45593999997E+02  0.45594000000E+02  0.51100000000E-03 0. -1.
         11   -1    0    0    0    0 -0.00000000000E+00 -0.00000000000E+00 -0.45593999997E+02  0.45594000000E+02  0.51100000000E-03 0.  1.
         23    2    1    2    0    0 -0.35527136788E-14  0.35527136788E-14 -0.35527136788E-14  0.91188000000E+02  0.91188000000E+02 0.  0.
    9900012    2    3    3    0    0  0.29061358344E+02 -0.20141674857E+02  0.20072762645E+02  0.50528863080E+02  0.30000009818E+02 0.  0.
        -12    1    3    3    0    0 -0.29061358344E+02  0.20141674857E+02 -0.20072762645E+02  0.40659136920E+02  0.00000000000E+00 0.  1.
         11    1    4    4    0    0 -0.38841163238E+01 -0.91676394719E+01  0.47440192733E+01  0.11028947920E+02  0.51100000000E-03 0. -1.
        -11    1    4    4    0    0  0.21239169680E+02 -0.41030579939E+01  0.44034342866E+01  0.22075498802E+02  0.51100000000E-03 0.  1.
        -12    1    4    4    0    0  0.11706304988E+02 -0.68709773915E+01  0.10925309085E+02  0.17424416357E+02  0.00000000000E+00 0.  1.
</event>
<event>
 8    1  0.6016610E-012  0.9118800E+02  0.7816164E-02  0.1184000E+00
        -11   -1    0    0    0    0  0.00000000000E+00  0.00000000000E+00  0.45593999997E+02  0.45594000000E+02  0.51100000000E-03 0. -1.
         11   -1    0    0    0    0 -0.00000000000E+00 -0.00000000000E+00 -0.45593999997E+02  0.45594000000E+02  0.51100000000E-03 0.  1.
         23    2    1    2    0    0  0.00000000000E+00 -0.35527136788E-14 -0.35527136788E-14  0.91188000000E+02  0.91188000000E+02 0.  0.
    9900012    2    3    3    0    0  0.42317517198E+01  0.29291689261E+02 -0.27879286681E+02  0.50528863164E+02  0.30000010074E+02 0.  0.
         12    1    3    3    0    0 -0.42317517198E+01 -0.29291689261E+02  0.27879286681E+02  0.40659136836E+02  0.00000000000E+00 0. -1.
         11    1    4    4    0    0 -0.48292573312E+00  0.48779024013E+01  0.36603774635E+01  0.61176394579E+01  0.51100000000E-03 0. -1.
        -11    1    4    4    0    0  0.61836947339E+01  0.22339132155E+02 -0.33816928326E+02  0.40998287130E+02  0.51100000000E-03 0.  1.
        -12    1    4    4    0    0 -0.14690172810E+01  0.20746547055E+01  0.22772641814E+01  0.34129365758E+01  0.00000000000E+00 0.  1.
</event>
<event>
 8    1  0.6016610E-012  0.9118800E+02  0.7816164E-02  0.1184000E+00
        -11   -1    0    0    0    0  0.00000000000E+00  0.00000000000E+00  0.45593999997E+02  0.45594000000E+02  0.51100000000E-03 0.  1.
         11   -1    0    0    0    0 -0.00000000000E+00 -0.00000000000E+00 -0.45593999997E+02  0.45594000000E+02  0.51100000000E-03 0. -1.
         23    2    1    2    0    0  0.00000000000E+00  0.00000000000E+00  0.00000000000E+00  0.91188000000E+02  0.91188000000E+02 0.  0.
    9900012    2    3    3    0    0 -0.20754274102E+02 -0.15073898735E+02 -0.31546839286E+02  0.50528863444E+02  0.30000010924E+02 0.  0.
         12    1    3    3    0    0  0.20754274102E+02  0.15073898735E+02  0.31546839286E+02  0.40659136556E+02  0.00000000000E+00 0. -1.
         11    1    4    4    0    0 -0.35670365146E+01 -0.17196242800E+02 -0.16594953988E+02  0.24162512578E+02  0.51100000000E-03 0. -1.
        -11    1    4    4    0    0 -0.17730730582E+02  0.30157996500E-01 -0.16072733418E+02  0.23931411916E+02  0.51100000000E-03 0.  1.
        -12    1    4    4    0    0  0.54349299517E+00  0.20921860688E+01  0.11208481203E+01  0.24349389502E+01  0.00000000000E+00 0.  1.
</event>
<event>
 8    1  0.6016610E-012  0.9118800E+02  0.7816164E-02  0.1184000E+00
        -11   -1    0    0    0    0  0.00000000000E+00  0.00000000000E+00  0.45593999997E+02  0.45594000000E+02  0.51100000000E-03 0. -1.
         11   -1    0    0    0    0 -0.00000000000E+00 -0.00000000000E+00 -0.45593999997E+02  0.45594000000E+02  0.51100000000E-03 0.  1.
         23    2    1    2    0    0  0.00000000000E+00  0.00000000000E+00  0.35527136788E-14  0.91188000000E+02  0.91188000000E+02 0.  0.
    9900012    2    3    3    0    0 -0.31731950728E+02 -0.15733601391E+02  0.19967549174E+02  0.50528856751E+02  0.29999990581E+02 0.  0.
        -12    1    3    3    0    0  0.31731950728E+02  0.15733601391E+02 -0.19967549174E+02  0.40659143249E+02  0.00000000000E+00 0.  1.
         11    1    4    4    0    0 -0.10676456932E+02 -0.43468464832E+00  0.92183735309E+01  0.14112196646E+02  0.51100000000E-03 0. -1.
        -11    1    4    4    0    0  0.37973782351E-01 -0.76595909600E+01 -0.48735899972E+01  0.90786923841E+01  0.51100000000E-03 0.  1.
        -12    1    4    4    0    0 -0.21093467578E+02 -0.76393257830E+01  0.15622765640E+02  0.27337967721E+02  0.00000000000E+00 0.  1.
</event>
<event>
 8    1  0.6016610E-012  0.9118800E+02  0.7816164E-02  0.1184000E+00
        -11   -1    0    0    0    0  0.00000000000E+00  0.00000000000E+00  0.45593999997E+02  0.45594000000E+02  0.51100000000E-03 0. -1.
         11   -1    0    0    0    0 -0.00000000000E+00 -0.00000000000E+00 -0.45593999997E+02  0.45594000000E+02  0.51100000000E-03 0.  1.
         23    2    1    2    0    0  0.00000000000E+00 -0.71054273576E-14  0.00000000000E+00  0.91188000000E+02  0.91188000000E+02 0.  0.
    9900012    2    3    3    0    0  0.14680492901E+02  0.32165681654E+02  0.20075183123E+02  0.50528918290E+02  0.30000177634E+02 0.  0.
        -12    1    3    3    0    0 -0.14680492901E+02 -0.32165681654E+02 -0.20075183123E+02  0.40659081710E+02  0.00000000000E+00 0.  1.
         11    1    4    4    0    0 -0.56576983113E+00  0.13038957634E+01  0.94846569689E+01  0.95905660804E+01  0.51100000000E-03 0. -1.
        -11    1    4    4    0    0  0.14496569615E+02  0.10453493843E+02 -0.13100420377E+00  0.17872974752E+02  0.51100000000E-03 0.  1.
        -12    1    4    4    0    0  0.74969311739E+00  0.20408292047E+02  0.10721530358E+02  0.23065377458E+02  0.00000000000E+00 0.  1.
</event>
<event>
 8    1  0.6016610E-012  0.9118800E+02  0.7816164E-02  0.1184000E+00
        -11   -1    0    0    0    0  0.00000000000E+00  0.00000000000E+00  0.45593999997E+02  0.45594000000E+02  0.51100000000E-03 0.  1.
         11   -1    0    0    0    0 -0.00000000000E+00 -0.00000000000E+00 -0.45593999997E+02  0.45594000000E+02  0.51100000000E-03 0. -1.
         23    2    1    2    0    0  0.00000000000E+00  0.00000000000E+00 -0.35527136788E-14  0.91188000000E+02  0.91188000000E+02 0.  0.
    9900012    2    3    3    0    0 -0.16256053425E+02  0.27693567674E+02  0.24939402825E+02  0.50528846336E+02  0.29999958921E+02 0.  0.
        -12    1    3    3    0    0  0.16256053425E+02 -0.27693567674E+02 -0.24939402825E+02  0.40659153664E+02  0.00000000000E+00 0.  1.
         11    1    4    4    0    0 -0.17268211444E+02  0.60545737310E+01  0.12421397654E+01  0.18340989641E+02  0.51100000000E-03 0. -1.
        -11    1    4    4    0    0  0.59543880174E+00  0.14344284087E+02  0.17256748633E+02  0.22447904289E+02  0.51100000000E-03 0.  1.
         12    1    4    4    0    0  0.41671921743E+00  0.72947098562E+01  0.64405144264E+01  0.97399524059E+01  0.00000000000E+00 0. -1.
</event>
<event>
 8    1  0.6016610E-012  0.9118800E+02  0.7816164E-02  0.1184000E+00
        -11   -1    0    0    0    0  0.00000000000E+00  0.00000000000E+00  0.45593999997E+02  0.45594000000E+02  0.51100000000E-03 0. -1.
         11   -1    0    0    0    0 -0.00000000000E+00 -0.00000000000E+00 -0.45593999997E+02  0.45594000000E+02  0.51100000000E-03 0.  1.
         23    2    1    2    0    0  0.00000000000E+00  0.00000000000E+00  0.35527136788E-14  0.91188000000E+02  0.91188000000E+02 0.  0.
    9900012    2    3    3    0    0 -0.20047919806E+02  0.20311494210E+02  0.28960157411E+02  0.50528848473E+02  0.29999965419E+02 0.  0.
        -12    1    3    3    0    0  0.20047919806E+02 -0.20311494210E+02 -0.28960157411E+02  0.40659151527E+02  0.00000000000E+00 0.  1.
         11    1    4    4    0    0 -0.20651201751E+02  0.41008833068E+01  0.26667446650E+02  0.33977081816E+02  0.51100000000E-03 0. -1.
        -11    1    4    4    0    0 -0.77795487177E+00  0.69134364032E+01  0.43447334902E+00  0.69706229303E+01  0.51100000000E-03 0.  1.
         12    1    4    4    0    0  0.13812368166E+01  0.92971744998E+01  0.18582374123E+01  0.95811437263E+01  0.00000000000E+00 0. -1.
</event>
<event>
 8    1  0.6016610E-012  0.9118800E+02  0.7816164E-02  0.1184000E+00
        -11   -1    0    0    0    0  0.00000000000E+00  0.00000000000E+00  0.45593999997E+02  0.45594000000E+02  0.51100000000E-03 0. -1.
         11   -1    0    0    0    0 -0.00000000000E+00 -0.00000000000E+00 -0.45593999997E+02  0.45594000000E+02  0.51100000000E-03 0.  1.
         23    2    1    2    0    0  0.00000000000E+00  0.00000000000E+00  0.00000000000E+00  0.91188000000E+02  0.91188000000E+02 0.  0.
    9900012    2    3    3    0    0  0.17907177222E+02  0.34310361799E+02 -0.12461867401E+02  0.50528855125E+02  0.29999985638E+02 0.  0.
        -12    1    3    3    0    0 -0.17907177222E+02 -0.34310361799E+02  0.12461867401E+02  0.40659144875E+02  0.00000000000E+00 0.  1.
         11    1    4    4    0    0  0.11475371801E+02  0.24144042445E+02 -0.62001548018E+00  0.26739546799E+02  0.51100000000E-03 0. -1.
        -11    1    4    4    0    0 -0.40523020284E+01  0.69291190515E+01 -0.97328543643E+01  0.12615954062E+02  0.51100000000E-03 0.  1.
         12    1    4    4    0    0  0.10484107450E+02  0.32372003021E+01 -0.21089975570E+01  0.11173354264E+02  0.00000000000E+00 0. -1.
</event>
<event>
 8    1  0.6016610E-012  0.9118800E+02  0.7816164E-02  0.1184000E+00
        -11   -1    0    0    0    0  0.00000000000E+00  0.00000000000E+00  0.45593999997E+02  0.45594000000E+02  0.51100000000E-03 0. -1.
         11   -1    0    0    0    0 -0.00000000000E+00 -0.00000000000E+00 -0.45593999997E+02  0.45594000000E+02  0.51100000000E-03 0.  1.
         23    2    1    2    0    0  0.00000000000E+00  0.00000000000E+00  0.00000000000E+00  0.91188000000E+02  0.91188000000E+02 0.  0.
    9900012    2    3    3    0    0  0.18176806375E+02  0.27012828201E+02 -0.24353170349E+02  0.50528854860E+02  0.29999984833E+02 0.  0.
         12    1    3    3    0    0 -0.18176806375E+02 -0.27012828201E+02  0.24353170349E+02  0.40659145140E+02  0.00000000000E+00 0. -1.
         11    1    4    4    0    0 -0.29628668137E+01  0.73792074396E+01  0.49746846531E+01  0.93796998806E+01  0.51100000000E-03 0. -1.
        -11    1    4    4    0    0  0.81392622467E+01  0.80682025097E+01 -0.11347064969E+02  0.16127596390E+02  0.51100000000E-03 0.  1.
         12    1    4    4    0    0  0.13000410942E+02  0.11565418252E+02 -0.17980790034E+02  0.25021558589E+02  0.00000000000E+00 0. -1.
</event>
<event>
 8    1  0.6016610E-012  0.9118800E+02  0.7816164E-02  0.1184000E+00
        -11   -1    0    0    0    0  0.00000000000E+00  0.00000000000E+00  0.45593999997E+02  0.45594000000E+02  0.51100000000E-03 0. -1.
         11   -1    0    0    0    0 -0.00000000000E+00 -0.00000000000E+00 -0.45593999997E+02  0.45594000000E+02  0.51100000000E-03 0.  1.
         23    2    1    2    0    0  0.35527136788E-14  0.00000000000E+00  0.00000000000E+00  0.91188000000E+02  0.91188000000E+02 0.  0.
    9900012    2    3    3    0    0 -0.17341438857E+02  0.87742570599E+01  0.35713481444E+02  0.50528857788E+02  0.29999993732E+02 0.  0.
        -12    1    3    3    0    0  0.17341438857E+02 -0.87742570599E+01 -0.35713481444E+02  0.40659142212E+02  0.00000000000E+00 0.  1.
         11    1    4    4    0    0 -0.23341200674E+02  0.52559571598E+01  0.30299481928E+02  0.38606933832E+02  0.51100000000E-03 0. -1.
        -11    1    4    4    0    0  0.53298504995E+01  0.19480374563E+00 -0.22950165809E+00  0.53383448857E+01  0.51100000000E-03 0.  1.
         12    1    4    4    0    0  0.66991131785E+00  0.33234961545E+01  0.56435011745E+01  0.65835790699E+01  0.00000000000E+00 0. -1.
</event>
<event>
 8    1  0.6016610E-012  0.9118800E+02  0.7816164E-02  0.1184000E+00
        -11   -1    0    0    0    0  0.00000000000E+00  0.00000000000E+00  0.45593999997E+02  0.45594000000E+02  0.51100000000E-03 0. -1.
         11   -1    0    0    0    0 -0.00000000000E+00 -0.00000000000E+00 -0.45593999997E+02  0.45594000000E+02  0.51100000000E-03 0.  1.
         23    2    1    2    0    0  0.71054273576E-14  0.00000000000E+00 -0.71054273576E-14  0.91188000000E+02  0.91188000000E+02 0.  0.
    9900012    2    3    3    0    0 -0.21064076076E+02 -0.79695578166E+01  0.33851977655E+02  0.50528861496E+02  0.30000005004E+02 0.  0.
        -12    1    3    3    0    0  0.21064076076E+02  0.79695578166E+01 -0.33851977655E+02  0.40659138504E+02  0.00000000000E+00 0.  1.
         11    1    4    4    0    0 -0.33801858490E+01 -0.51580525214E+01  0.12645996897E+02  0.14069555785E+02  0.51100000000E-03 0. -1.
        -11    1    4    4    0    0 -0.55481450963E+01  0.10357411026E+02  0.83764280268E+01  0.14429914203E+02  0.51100000000E-03 0.  1.
        -12    1    4    4    0    0 -0.12135745131E+02 -0.13168916321E+02  0.12829552731E+02  0.22029391508E+02  0.00000000000E+00 0.  1.
</event>
<event>
 8    1  0.6016610E-012  0.9118800E+02  0.7816164E-02  0.1184000E+00
        -11   -1    0    0    0    0  0.00000000000E+00  0.00000000000E+00  0.45593999997E+02  0.45594000000E+02  0.51100000000E-03 0. -1.
         11   -1    0    0    0    0 -0.00000000000E+00 -0.00000000000E+00 -0.45593999997E+02  0.45594000000E+02  0.51100000000E-03 0.  1.
         23    2    1    2    0    0  0.88817841970E-15  0.00000000000E+00  0.71054273576E-14  0.91188000000E+02  0.91188000000E+02 0.  0.
    9900012    2    3    3    0    0  0.69217691525E+01  0.13727735449E+02  0.37640472480E+02  0.50528846328E+02  0.29999958899E+02 0.  0.
        -12    1    3    3    0    0 -0.69217691525E+01 -0.13727735449E+02 -0.37640472480E+02  0.40659153672E+02  0.00000000000E+00 0.  1.
         11    1    4    4    0    0  0.13391197828E+02  0.13072472859E+02  0.38518267907E+02  0.42823716429E+02  0.51100000000E-03 0. -1.
        -11    1    4    4    0    0 -0.24365197337E+01  0.21719624193E-01 -0.23307890810E+01  0.33718953359E+01  0.51100000000E-03 0.  1.
         12    1    4    4    0    0 -0.40329089421E+01  0.63354296567E+00  0.14529936544E+01  0.43332345638E+01  0.00000000000E+00 0. -1.
</event>
<event>
 8    1  0.8064336E-012  0.9118800E+02  0.7816164E-02  0.1184000E+00
        -11   -1    0    0    0    0  0.00000000000E+00  0.00000000000E+00  0.45593999997E+02  0.45594000000E+02  0.51100000000E-03 0. -1.
         11   -1    0    0    0    0 -0.00000000000E+00 -0.00000000000E+00 -0.45593999997E+02  0.45594000000E+02  0.51100000000E-03 0.  1.
         23    2    1    2    0    0 -0.13322676296E-14  0.00000000000E+00  0.00000000000E+00  0.91188000000E+02  0.91188000000E+02 0.  0.
    9900012    2    3    3    0    0 -0.23008457591E+01  0.18552697183E+02  0.36106361003E+02  0.50528858730E+02  0.29999996595E+02 0.  0.
        -12    1    3    3    0    0  0.23008457591E+01 -0.18552697183E+02 -0.36106361003E+02  0.40659141270E+02  0.00000000000E+00 0.  1.
         11    1    4    4    0    0 -0.22223644875E+01  0.10356295775E+02  0.18229671696E+02  0.21083469745E+02  0.51100000000E-03 0. -1.
        -11    1    4    4    0    0  0.10710458672E+02  0.50216692311E+01  0.67239546242E+01  0.13606713522E+02  0.51100000000E-03 0.  1.
        -12    1    4    4    0    0 -0.10788939944E+02  0.31747321774E+01  0.11152734683E+02  0.15838675463E+02  0.00000000000E+00 0.  1.
</event>
<event>
 8    1  0.6016610E-012  0.9118800E+02  0.7816164E-02  0.1184000E+00
        -11   -1    0    0    0    0  0.00000000000E+00  0.00000000000E+00  0.45593999997E+02  0.45594000000E+02  0.51100000000E-03 0. -1.
         11   -1    0    0    0    0 -0.00000000000E+00 -0.00000000000E+00 -0.45593999997E+02  0.45594000000E+02  0.51100000000E-03 0.  1.
         23    2    1    2    0    0 -0.17763568394E-14  0.00000000000E+00  0.00000000000E+00  0.91188000000E+02  0.91188000000E+02 0.  0.
    9900012    2    3    3    0    0 -0.15035704138E+02 -0.32201647651E+02 -0.19752138913E+02  0.50528862011E+02  0.30000006568E+02 0.  0.
         12    1    3    3    0    0  0.15035704138E+02  0.32201647651E+02  0.19752138913E+02  0.40659137989E+02  0.00000000000E+00 0. -1.
         11    1    4    4    0    0 -0.81818926490E+01 -0.15553414828E+02  0.28046549556E+01  0.17796577474E+02  0.51100000000E-03 0. -1.
        -11    1    4    4    0    0 -0.10196152513E+02 -0.79590667000E+01 -0.18508494683E+02  0.22580359707E+02  0.51100000000E-03 0.  1.
        -12    1    4    4    0    0  0.33423410239E+01 -0.86891661237E+01 -0.40482991860E+01  0.10151924830E+02  0.00000000000E+00 0.  1.
</event>
<event>
 8    1  0.6016610E-012  0.9118800E+02  0.7816164E-02  0.1184000E+00
        -11   -1    0    0    0    0  0.00000000000E+00  0.00000000000E+00  0.45593999997E+02  0.45594000000E+02  0.51100000000E-03 0. -1.
         11   -1    0    0    0    0 -0.00000000000E+00 -0.00000000000E+00 -0.45593999997E+02  0.45594000000E+02  0.51100000000E-03 0.  1.
         23    2    1    2    0    0  0.00000000000E+00  0.35527136788E-14 -0.35527136788E-14  0.91188000000E+02  0.91188000000E+02 0.  0.
    9900012    2    3    3    0    0  0.26571476670E+02 -0.19021920854E+02  0.24192740580E+02  0.50528861517E+02  0.30000005067E+02 0.  0.
        -12    1    3    3    0    0 -0.26571476670E+02  0.19021920854E+02 -0.24192740580E+02  0.40659138483E+02  0.00000000000E+00 0.  1.
         11    1    4    4    0    0  0.47641064524E+01  0.62241991395E+00  0.17623945488E+02  0.18267117224E+02  0.51100000000E-03 0. -1.
        -11    1    4    4    0    0  0.36357674431E+01 -0.97279371121E+01 -0.47205954023E+00  0.10395884081E+02  0.51100000000E-03 0.  1.
         12    1    4    4    0    0  0.18171602774E+02 -0.99164036562E+01  0.70408546326E+01  0.21865860212E+02  0.00000000000E+00 0. -1.
</event>
<event>
 8    1  0.6016610E-012  0.9118800E+02  0.7816164E-02  0.1184000E+00
        -11   -1    0    0    0    0  0.00000000000E+00  0.00000000000E+00  0.45593999997E+02  0.45594000000E+02  0.51100000000E-03 0. -1.
         11   -1    0    0    0    0 -0.00000000000E+00 -0.00000000000E+00 -0.45593999997E+02  0.45594000000E+02  0.51100000000E-03 0.  1.
         23    2    1    2    0    0  0.00000000000E+00 -0.26645352591E-14  0.00000000000E+00  0.91188000000E+02  0.91188000000E+02 0.  0.
    9900012    2    3    3    0    0 -0.17189384356E+02  0.75238694293E+01 -0.36070519743E+02  0.50528856622E+02  0.29999990187E+02 0.  0.
         12    1    3    3    0    0  0.17189384356E+02 -0.75238694293E+01  0.36070519743E+02  0.40659143378E+02  0.00000000000E+00 0. -1.
         11    1    4    4    0    0 -0.96789521952E+01  0.11372767418E+02 -0.14786321713E+02  0.21015643326E+02  0.51100000000E-03 0. -1.
        -11    1    4    4    0    0 -0.32342562565E+01 -0.11221178769E+02 -0.14513734423E+02  0.18628573581E+02  0.51100000000E-03 0.  1.
        -12    1    4    4    0    0 -0.42761759040E+01  0.73722807804E+01 -0.67704636076E+01  0.10884639715E+02  0.00000000000E+00 0.  1.
</event>
<event>
 8    1  0.6016610E-012  0.9118800E+02  0.7816164E-02  0.1184000E+00
        -11   -1    0    0    0    0  0.00000000000E+00  0.00000000000E+00  0.45593999997E+02  0.45594000000E+02  0.51100000000E-03 0.  1.
         11   -1    0    0    0    0 -0.00000000000E+00 -0.00000000000E+00 -0.45593999997E+02  0.45594000000E+02  0.51100000000E-03 0. -1.
         23    2    1    2    0    0  0.00000000000E+00  0.35527136788E-14 -0.17763568394E-14  0.91188000000E+02  0.91188000000E+02 0.  0.
    9900012    2    3    3    0    0 -0.36327007576E+02 -0.17587227530E+02 -0.49197251049E+01  0.50528859001E+02  0.29999997420E+02 0.  0.
         12    1    3    3    0    0  0.36327007576E+02  0.17587227530E+02  0.49197251049E+01  0.40659140999E+02  0.00000000000E+00 0. -1.
         11    1    4    4    0    0 -0.17433971225E+02 -0.22396999642E+02  0.36728798998E+01  0.28619206709E+02  0.51100000000E-03 0. -1.
        -11    1    4    4    0    0 -0.82939503885E+01 -0.23642200898E+00 -0.47335384423E+01  0.95525857683E+01  0.51100000000E-03 0.  1.
         12    1    4    4    0    0 -0.10599085963E+02  0.50461941207E+01 -0.38590665624E+01  0.12357066524E+02  0.00000000000E+00 0. -1.
</event>
<event>
 8    1  0.6016610E-012  0.9118800E+02  0.7816164E-02  0.1184000E+00
        -11   -1    0    0    0    0  0.00000000000E+00  0.00000000000E+00  0.45593999997E+02  0.45594000000E+02  0.51100000000E-03 0. -1.
         11   -1    0    0    0    0 -0.00000000000E+00 -0.00000000000E+00 -0.45593999997E+02  0.45594000000E+02  0.51100000000E-03 0.  1.
         23    2    1    2    0    0  0.88817841970E-15 -0.17763568394E-14  0.71054273576E-14  0.91188000000E+02  0.91188000000E+02 0.  0.
    9900012    2    3    3    0    0 -0.51376726575E+01  0.40728550459E+01 -0.40127161248E+02  0.50528771055E+02  0.29999730098E+02 0.  0.
         12    1    3    3    0    0  0.51376726575E+01 -0.40728550459E+01  0.40127161248E+02  0.40659228945E+02  0.00000000000E+00 0. -1.
         11    1    4    4    0    0  0.32559163357E+01 -0.72798836140E+01 -0.52862116153E+01  0.95677442546E+01  0.51100000000E-03 0. -1.
        -11    1    4    4    0    0 -0.12384717196E+02  0.47682839238E+01 -0.17293924857E+02  0.21799027244E+02  0.51100000000E-03 0.  1.
         12    1    4    4    0    0  0.39911282026E+01  0.65844547362E+01 -0.17547024776E+02  0.19161999556E+02  0.00000000000E+00 0. -1.
</event>
<event>
 8    1  0.6016610E-012  0.9118800E+02  0.7816164E-02  0.1184000E+00
        -11   -1    0    0    0    0  0.00000000000E+00  0.00000000000E+00  0.45593999997E+02  0.45594000000E+02  0.51100000000E-03 0. -1.
         11   -1    0    0    0    0 -0.00000000000E+00 -0.00000000000E+00 -0.45593999997E+02  0.45594000000E+02  0.51100000000E-03 0.  1.
         23    2    1    2    0    0 -0.35527136788E-14 -0.17763568394E-14 -0.71054273576E-14  0.91188000000E+02  0.91188000000E+02 0.  0.
    9900012    2    3    3    0    0 -0.22357961957E+02 -0.11485535572E+02 -0.31958895407E+02  0.50528843763E+02  0.29999951103E+02 0.  0.
         12    1    3    3    0    0  0.22357961957E+02  0.11485535572E+02  0.31958895407E+02  0.40659156237E+02  0.00000000000E+00 0. -1.
         11    1    4    4    0    0  0.33903757059E+01 -0.30205101486E+01 -0.75822692412E+01  0.88379260063E+01  0.51100000000E-03 0. -1.
        -11    1    4    4    0    0 -0.25651990739E+02 -0.67953844233E+01 -0.27457560322E+02  0.38185330919E+02  0.51100000000E-03 0.  1.
        -12    1    4    4    0    0 -0.96346924258E-01 -0.16696410005E+01  0.30809341566E+01  0.35055868379E+01  0.00000000000E+00 0.  1.
</event>
<event>
 8    1  0.6016610E-012  0.9118800E+02  0.7816164E-02  0.1184000E+00
        -11   -1    0    0    0    0  0.00000000000E+00  0.00000000000E+00  0.45593999997E+02  0.45594000000E+02  0.51100000000E-03 0. -1.
         11   -1    0    0    0    0 -0.00000000000E+00 -0.00000000000E+00 -0.45593999997E+02  0.45594000000E+02  0.51100000000E-03 0.  1.
         23    2    1    2    0    0  0.00000000000E+00 -0.17763568394E-14  0.00000000000E+00  0.91188000000E+02  0.91188000000E+02 0.  0.
    9900012    2    3    3    0    0  0.98594151482E+01  0.95461363284E+01  0.38273094905E+02  0.50528848761E+02  0.29999966295E+02 0.  0.
        -12    1    3    3    0    0 -0.98594151482E+01 -0.95461363284E+01 -0.38273094905E+02  0.40659151239E+02  0.00000000000E+00 0.  1.
         11    1    4    4    0    0  0.69025134281E+01 -0.22154716174E+01  0.31430383339E+02  0.32255573211E+02  0.51100000000E-03 0. -1.
        -11    1    4    4    0    0 -0.24953460707E+01  0.98105640340E+01  0.72756212800E+01  0.12466297925E+02  0.51100000000E-03 0.  1.
         12    1    4    4    0    0  0.54522477909E+01  0.19510439118E+01 -0.43290971410E+00  0.58069776252E+01  0.00000000000E+00 0. -1.
</event>
<event>
 8    1  0.6016610E-012  0.9118800E+02  0.7816164E-02  0.1184000E+00
        -11   -1    0    0    0    0  0.00000000000E+00  0.00000000000E+00  0.45593999997E+02  0.45594000000E+02  0.51100000000E-03 0. -1.
         11   -1    0    0    0    0 -0.00000000000E+00 -0.00000000000E+00 -0.45593999997E+02  0.45594000000E+02  0.51100000000E-03 0.  1.
         23    2    1    2    0    0 -0.17763568394E-14  0.00000000000E+00 -0.35527136788E-14  0.91188000000E+02  0.91188000000E+02 0.  0.
    9900012    2    3    3    0    0  0.84369869006E+01 -0.34158955333E+02  0.20375179015E+02  0.50528869447E+02  0.30000029172E+02 0.  0.
        -12    1    3    3    0    0 -0.84369869006E+01  0.34158955333E+02 -0.20375179015E+02  0.40659130553E+02  0.00000000000E+00 0.  1.
         11    1    4    4    0    0 -0.34100461158E+01  0.12500011611E+01  0.82794046687E+01  0.90409877416E+01  0.51100000000E-03 0. -1.
        -11    1    4    4    0    0  0.15310927575E+01 -0.21346765972E+02  0.24056537048E+01  0.21536383923E+02  0.51100000000E-03 0.  1.
         12    1    4    4    0    0  0.10315940259E+02 -0.14062190523E+02  0.96901206415E+01  0.19951497783E+02  0.00000000000E+00 0. -1.
</event>
<event>
 8    1  0.6016610E-012  0.9118800E+02  0.7816164E-02  0.1184000E+00
        -11   -1    0    0    0    0  0.00000000000E+00  0.00000000000E+00  0.45593999997E+02  0.45594000000E+02  0.51100000000E-03 0. -1.
         11   -1    0    0    0    0 -0.00000000000E+00 -0.00000000000E+00 -0.45593999997E+02  0.45594000000E+02  0.51100000000E-03 0.  1.
         23    2    1    2    0    0  0.13322676296E-14  0.00000000000E+00  0.00000000000E+00  0.91188000000E+02  0.91188000000E+02 0.  0.
    9900012    2    3    3    0    0 -0.38458813047E+01 -0.14330946179E+02  0.37854975838E+02  0.50528855677E+02  0.29999987315E+02 0.  0.
        -12    1    3    3    0    0  0.38458813047E+01  0.14330946179E+02 -0.37854975838E+02  0.40659144323E+02  0.00000000000E+00 0.  1.
         11    1    4    4    0    0  0.58695986315E+01  0.17910447112E+01  0.14589605617E+02  0.15827716878E+02  0.51100000000E-03 0. -1.
        -11    1    4    4    0    0 -0.13430639501E+02 -0.71484305028E+01  0.97960893160E+01  0.18095455292E+02  0.51100000000E-03 0.  1.
        -12    1    4    4    0    0  0.37151595650E+01 -0.89735603874E+01  0.13469280905E+02  0.16605683507E+02  0.00000000000E+00 0.  1.
</event>
<event>
 8    1  0.6016610E-012  0.9118800E+02  0.7816164E-02  0.1184000E+00
        -11   -1    0    0    0    0  0.00000000000E+00  0.00000000000E+00  0.45593999997E+02  0.45594000000E+02  0.51100000000E-03 0. -1.
         11   -1    0    0    0    0 -0.00000000000E+00 -0.00000000000E+00 -0.45593999997E+02  0.45594000000E+02  0.51100000000E-03 0.  1.
         23    2    1    2    0    0  0.00000000000E+00  0.00000000000E+00  0.00000000000E+00  0.91188000000E+02  0.91188000000E+02 0.  0.
    9900012    2    3    3    0    0  0.23981150554E+02 -0.23678627036E+02 -0.22746261804E+02  0.50528863435E+02  0.30000010896E+02 0.  0.
         12    1    3    3    0    0 -0.23981150554E+02  0.23678627036E+02  0.22746261804E+02  0.40659136565E+02  0.00000000000E+00 0. -1.
         11    1    4    4    0    0  0.14762462304E+02 -0.24587586241E+02 -0.18464819650E+02  0.34109078783E+02  0.51100000000E-03 0. -1.
        -11    1    4    4    0    0  0.13382848395E+01  0.33679332921E+01 -0.68708603693E+01  0.77680566069E+01  0.51100000000E-03 0.  1.
         12    1    4    4    0    0  0.78804034102E+01 -0.24589740865E+01  0.25894182153E+01  0.86517280447E+01  0.00000000000E+00 0. -1.
</event>
<event>
 8    1  0.6016610E-012  0.9118800E+02  0.7816164E-02  0.1184000E+00
        -11   -1    0    0    0    0  0.00000000000E+00  0.00000000000E+00  0.45593999997E+02  0.45594000000E+02  0.51100000000E-03 0.  1.
         11   -1    0    0    0    0 -0.00000000000E+00 -0.00000000000E+00 -0.45593999997E+02  0.45594000000E+02  0.51100000000E-03 0. -1.
         23    2    1    2    0    0  0.00000000000E+00  0.35527136788E-14  0.00000000000E+00  0.91188000000E+02  0.91188000000E+02 0.  0.
    9900012    2    3    3    0    0 -0.25017141920E+02  0.29823433547E+02  0.11741864934E+02  0.50528856250E+02  0.29999989057E+02 0.  0.
        -12    1    3    3    0    0  0.25017141920E+02 -0.29823433547E+02 -0.11741864934E+02  0.40659143750E+02  0.00000000000E+00 0.  1.
         11    1    4    4    0    0 -0.10829881690E+02  0.18365992819E+02 -0.77807088871E-01  0.21321399669E+02  0.51100000000E-03 0. -1.
        -11    1    4    4    0    0 -0.16500750981E+02  0.86108127244E+01  0.15343105693E+02  0.24121189259E+02  0.51100000000E-03 0.  1.
         12    1    4    4    0    0  0.23134907507E+01  0.28466280028E+01 -0.35234336696E+01  0.50862673213E+01  0.00000000000E+00 0. -1.
</event>
<event>
 8    1  0.6016610E-012  0.9118800E+02  0.7816164E-02  0.1184000E+00
        -11   -1    0    0    0    0  0.00000000000E+00  0.00000000000E+00  0.45593999997E+02  0.45594000000E+02  0.51100000000E-03 0.  1.
         11   -1    0    0    0    0 -0.00000000000E+00 -0.00000000000E+00 -0.45593999997E+02  0.45594000000E+02  0.51100000000E-03 0. -1.
         23    2    1    2    0    0  0.88817841970E-15 -0.71054273576E-14  0.00000000000E+00  0.91188000000E+02  0.91188000000E+02 0.  0.
    9900012    2    3    3    0    0 -0.17061910490E+01 -0.34930168469E+02 -0.20739791286E+02  0.50528847282E+02  0.29999961799E+02 0.  0.
         12    1    3    3    0    0  0.17061910490E+01  0.34930168469E+02  0.20739791286E+02  0.40659152718E+02  0.00000000000E+00 0. -1.
         11    1    4    4    0    0  0.12510927264E+02 -0.16489944108E+02 -0.97340183679E+01  0.22873405333E+02  0.51100000000E-03 0. -1.
        -11    1    4    4    0    0 -0.12091106719E+02 -0.19507373583E+02 -0.10421360624E+02  0.25205896994E+02  0.51100000000E-03 0.  1.
        -12    1    4    4    0    0 -0.21260115937E+01  0.10671492213E+01 -0.58441229463E+00  0.24495449552E+01  0.00000000000E+00 0.  1.
</event>
<event>
 8    1  0.6016610E-012  0.9118800E+02  0.7816164E-02  0.1184000E+00
        -11   -1    0    0    0    0  0.00000000000E+00  0.00000000000E+00  0.45593999997E+02  0.45594000000E+02  0.51100000000E-03 0. -1.
         11   -1    0    0    0    0 -0.00000000000E+00 -0.00000000000E+00 -0.45593999997E+02  0.45594000000E+02  0.51100000000E-03 0.  1.
         23    2    1    2    0    0  0.17763568394E-14  0.88817841970E-15  0.00000000000E+00  0.91188000000E+02  0.91188000000E+02 0.  0.
    9900012    2    3    3    0    0 -0.11620489757E+02 -0.34269800415E+01  0.38812188610E+02  0.50528856390E+02  0.29999989484E+02 0.  0.
        -12    1    3    3    0    0  0.11620489757E+02  0.34269800415E+01 -0.38812188610E+02  0.40659143610E+02  0.00000000000E+00 0.  1.
         11    1    4    4    0    0 -0.13606128640E+02 -0.14123753039E+02  0.27740397176E+02  0.33972588542E+02  0.51100000000E-03 0. -1.
        -11    1    4    4    0    0  0.30525724714E+01  0.44712603343E+01  0.76522214319E+01  0.93737324889E+01  0.51100000000E-03 0.  1.
         12    1    4    4    0    0 -0.10669335877E+01  0.62255126630E+01  0.34195700014E+01  0.71825353596E+01  0.00000000000E+00 0. -1.
</event>
<event>
 8    1  0.6016610E-012  0.9118800E+02  0.7816164E-02  0.1184000E+00
        -11   -1    0    0    0    0  0.00000000000E+00  0.00000000000E+00  0.45593999997E+02  0.45594000000E+02  0.51100000000E-03 0. -1.
         11   -1    0    0    0    0 -0.00000000000E+00 -0.00000000000E+00 -0.45593999997E+02  0.45594000000E+02  0.51100000000E-03 0.  1.
         23    2    1    2    0    0  0.00000000000E+00  0.00000000000E+00  0.00000000000E+00  0.91188000000E+02  0.91188000000E+02 0.  0.
    9900012    2    3    3    0    0 -0.59771941108E+01  0.87346930008E+01 -0.39257375337E+02  0.50528889956E+02  0.30000091509E+02 0.  0.
         12    1    3    3    0    0  0.59771941108E+01 -0.87346930008E+01  0.39257375337E+02  0.40659110044E+02  0.00000000000E+00 0. -1.
         11    1    4    4    0    0 -0.17987050379E+01 -0.30231255777E+01 -0.82888011506E-01  0.35187353915E+01  0.51100000000E-03 0. -1.
        -11    1    4    4    0    0 -0.20285321042E+01  0.17416476799E+02 -0.36291500613E+02  0.40305354776E+02  0.51100000000E-03 0.  1.
        -12    1    4    4    0    0 -0.21499569687E+01 -0.56586582203E+01 -0.28829867121E+01  0.67047997885E+01  0.00000000000E+00 0.  1.
</event>
<event>
 8    1  0.6016610E-012  0.9118800E+02  0.7816164E-02  0.1184000E+00
        -11   -1    0    0    0    0  0.00000000000E+00  0.00000000000E+00  0.45593999997E+02  0.45594000000E+02  0.51100000000E-03 0. -1.
         11   -1    0    0    0    0 -0.00000000000E+00 -0.00000000000E+00 -0.45593999997E+02  0.45594000000E+02  0.51100000000E-03 0.  1.
         23    2    1    2    0    0  0.17763568394E-14  0.00000000000E+00  0.00000000000E+00  0.91188000000E+02  0.91188000000E+02 0.  0.
    9900012    2    3    3    0    0  0.12101039889E+02 -0.52874674463E+01 -0.38454821636E+02  0.50528858526E+02  0.29999995974E+02 0.  0.
         12    1    3    3    0    0 -0.12101039889E+02  0.52874674463E+01  0.38454821636E+02  0.40659141474E+02  0.00000000000E+00 0. -1.
         11    1    4    4    0    0 -0.10300835178E+01  0.11832372845E+01 -0.25901333908E+02  0.25948799992E+02  0.51100000000E-03 0. -1.
        -11    1    4    4    0    0  0.16374818315E+02 -0.37005303193E+01 -0.10838899365E+02  0.19982751042E+02  0.51100000000E-03 0.  1.
        -12    1    4    4    0    0 -0.32436949079E+01 -0.27701744115E+01 -0.17145883627E+01  0.45973074923E+01  0.00000000000E+00 0.  1.
</event>
<event>
 8    1  0.8396536E-012  0.9118800E+02  0.7816164E-02  0.1184000E+00
        -11   -1    0    0    0    0  0.00000000000E+00  0.00000000000E+00  0.45593999997E+02  0.45594000000E+02  0.51100000000E-03 0. -1.
         11   -1    0    0    0    0 -0.00000000000E+00 -0.00000000000E+00 -0.45593999997E+02  0.45594000000E+02  0.51100000000E-03 0.  1.
         23    2    1    2    0    0 -0.88817841970E-15  0.17763568394E-14  0.00000000000E+00  0.91188000000E+02  0.91188000000E+02 0.  0.
    9900012    2    3    3    0    0 -0.26906216355E+01 -0.14943638924E+02  0.37717614728E+02  0.50528803625E+02  0.29999829099E+02 0.  0.
        -12    1    3    3    0    0  0.26906216355E+01  0.14943638924E+02 -0.37717614728E+02  0.40659196375E+02  0.00000000000E+00 0.  1.
         11    1    4    4    0    0 -0.93389517017E+01 -0.90195964472E+01  0.14524222782E+02  0.19481329181E+02  0.51100000000E-03 0. -1.
        -11    1    4    4    0    0  0.16795970593E+01  0.67731877225E+01  0.86119233657E+01  0.11084328691E+02  0.51100000000E-03 0.  1.
        -12    1    4    4    0    0  0.49687330069E+01 -0.12697230200E+02  0.14581468580E+02  0.19963145754E+02  0.00000000000E+00 0.  1.
</event>
<event>
 8    1  0.6016610E-012  0.9118800E+02  0.7816164E-02  0.1184000E+00
        -11   -1    0    0    0    0  0.00000000000E+00  0.00000000000E+00  0.45593999997E+02  0.45594000000E+02  0.51100000000E-03 0. -1.
         11   -1    0    0    0    0 -0.00000000000E+00 -0.00000000000E+00 -0.45593999997E+02  0.45594000000E+02  0.51100000000E-03 0.  1.
         23    2    1    2    0    0  0.17763568394E-14 -0.35527136788E-14  0.00000000000E+00  0.91188000000E+02  0.91188000000E+02 0.  0.
    9900012    2    3    3    0    0  0.14789693038E+02  0.19079250189E+02 -0.32717172435E+02  0.50528853673E+02  0.29999981223E+02 0.  0.
         12    1    3    3    0    0 -0.14789693038E+02 -0.19079250189E+02  0.32717172435E+02  0.40659146327E+02  0.00000000000E+00 0. -1.
         11    1    4    4    0    0  0.83021726549E+01 -0.48761138864E+01 -0.11151986293E+01  0.96925861187E+01  0.51100000000E-03 0. -1.
        -11    1    4    4    0    0  0.75282169252E+01  0.14614686392E+02 -0.19230498981E+02  0.25299707503E+02  0.51100000000E-03 0.  1.
         12    1    4    4    0    0 -0.10406965425E+01  0.93406776836E+01 -0.12371474825E+02  0.15536560051E+02  0.00000000000E+00 0. -1.
</event>
<event>
 8    1  0.6016610E-012  0.9118800E+02  0.7816164E-02  0.1184000E+00
        -11   -1    0    0    0    0  0.00000000000E+00  0.00000000000E+00  0.45593999997E+02  0.45594000000E+02  0.51100000000E-03 0. -1.
         11   -1    0    0    0    0 -0.00000000000E+00 -0.00000000000E+00 -0.45593999997E+02  0.45594000000E+02  0.51100000000E-03 0.  1.
         23    2    1    2    0    0  0.00000000000E+00  0.35527136788E-14  0.00000000000E+00  0.91188000000E+02  0.91188000000E+02 0.  0.
    9900012    2    3    3    0    0  0.24550933550E+02 -0.20487505084E+02 -0.25113320175E+02  0.50528867533E+02  0.30000023354E+02 0.  0.
         12    1    3    3    0    0 -0.24550933550E+02  0.20487505084E+02  0.25113320175E+02  0.40659132467E+02  0.00000000000E+00 0. -1.
         11    1    4    4    0    0  0.46655299684E+01 -0.21708407052E+02 -0.19659223247E+02  0.29656486062E+02  0.51100000000E-03 0. -1.
        -11    1    4    4    0    0  0.97298403483E+01 -0.28145113528E-01 -0.12482711156E+01  0.98096262105E+01  0.51100000000E-03 0.  1.
         12    1    4    4    0    0  0.10155563233E+02  0.12490470812E+01 -0.42058258125E+01  0.11062755261E+02  0.00000000000E+00 0. -1.
</event>
<event>
 8    1  0.6016610E-012  0.9118800E+02  0.7816164E-02  0.1184000E+00
        -11   -1    0    0    0    0  0.00000000000E+00  0.00000000000E+00  0.45593999997E+02  0.45594000000E+02  0.51100000000E-03 0. -1.
         11   -1    0    0    0    0 -0.00000000000E+00 -0.00000000000E+00 -0.45593999997E+02  0.45594000000E+02  0.51100000000E-03 0.  1.
         23    2    1    2    0    0 -0.17763568394E-14  0.00000000000E+00 -0.71054273576E-14  0.91188000000E+02  0.91188000000E+02 0.  0.
    9900012    2    3    3    0    0 -0.11526995772E+02 -0.25829813616E+01 -0.38905299538E+02  0.50528858882E+02  0.29999997059E+02 0.  0.
         12    1    3    3    0    0  0.11526995772E+02  0.25829813616E+01  0.38905299538E+02  0.40659141118E+02  0.00000000000E+00 0. -1.
         11    1    4    4    0    0  0.76114722223E+01 -0.17416244608E+01 -0.18764398629E+02  0.20324133963E+02  0.51100000000E-03 0. -1.
        -11    1    4    4    0    0 -0.11641741963E+02  0.12741566970E+01 -0.41629585384E+01  0.12429153442E+02  0.51100000000E-03 0.  1.
         12    1    4    4    0    0 -0.74967260313E+01 -0.21155135978E+01 -0.15977942371E+02  0.17775571478E+02  0.00000000000E+00 0. -1.
</event>
<event>
 8    1  0.6016610E-012  0.9118800E+02  0.7816164E-02  0.1184000E+00
        -11   -1    0    0    0    0  0.00000000000E+00  0.00000000000E+00  0.45593999997E+02  0.45594000000E+02  0.51100000000E-03 0. -1.
         11   -1    0    0    0    0 -0.00000000000E+00 -0.00000000000E+00 -0.45593999997E+02  0.45594000000E+02  0.51100000000E-03 0.  1.
         23    2    1    2    0    0  0.99920072216E-15 -0.44408920985E-15  0.00000000000E+00  0.91188000000E+02  0.91188000000E+02 0.  0.
    9900012    2    3    3    0    0  0.93441377904E+00 -0.37921652116E+01  0.40471136138E+02  0.50528849660E+02  0.29999969026E+02 0.  0.
        -12    1    3    3    0    0 -0.93441377904E+00  0.37921652116E+01 -0.40471136138E+02  0.40659150340E+02  0.00000000000E+00 0.  1.
         11    1    4    4    0    0 -0.68415763969E+01  0.21662207467E+01  0.62956726837E+01  0.95464744655E+01  0.51100000000E-03 0. -1.
        -11    1    4    4    0    0  0.74434500880E+01 -0.48965075239E+01  0.36941597669E+02  0.38000820698E+02  0.51100000000E-03 0.  1.
        -12    1    4    4    0    0  0.33254008798E+00 -0.10618784344E+01 -0.27661342147E+01  0.29815544961E+01  0.00000000000E+00 0.  1.
</event>
<event>
 8    1  0.6016610E-012  0.9118800E+02  0.7816164E-02  0.1184000E+00
        -11   -1    0    0    0    0  0.00000000000E+00  0.00000000000E+00  0.45593999997E+02  0.45594000000E+02  0.51100000000E-03 0. -1.
         11   -1    0    0    0    0 -0.00000000000E+00 -0.00000000000E+00 -0.45593999997E+02  0.45594000000E+02  0.51100000000E-03 0.  1.
         23    2    1    2    0    0  0.00000000000E+00  0.00000000000E+00  0.00000000000E+00  0.91188000000E+02  0.91188000000E+02 0.  0.
    9900012    2    3    3    0    0 -0.20695698808E+02 -0.57634507855E+01  0.34520089698E+02  0.50528857032E+02  0.29999991435E+02 0.  0.
        -12    1    3    3    0    0  0.20695698808E+02  0.57634507855E+01 -0.34520089698E+02  0.40659142968E+02  0.00000000000E+00 0.  1.
         11    1    4    4    0    0 -0.89288299756E+00 -0.48152186741E+01  0.18343603316E+02  0.18986083161E+02  0.51100000000E-03 0.  1.
        -11    1    4    4    0    0 -0.12683615585E+02  0.64967964545E+01  0.25761331046E+01  0.14481675681E+02  0.51100000000E-03 0. -1.
         12    1    4    4    0    0 -0.71192002250E+01 -0.74450285659E+01  0.13600353278E+02  0.17061098191E+02  0.00000000000E+00 0. -1.
</event>
<event>
 8    1  0.6016610E-012  0.9118800E+02  0.7816164E-02  0.1184000E+00
        -11   -1    0    0    0    0  0.00000000000E+00  0.00000000000E+00  0.45593999997E+02  0.45594000000E+02  0.51100000000E-03 0. -1.
         11   -1    0    0    0    0 -0.00000000000E+00 -0.00000000000E+00 -0.45593999997E+02  0.45594000000E+02  0.51100000000E-03 0.  1.
         23    2    1    2    0    0 -0.35527136788E-14 -0.35527136788E-14  0.00000000000E+00  0.91188000000E+02  0.91188000000E+02 0.  0.
    9900012    2    3    3    0    0  0.23559046751E+02 -0.28569901328E+02 -0.16789803867E+02  0.50528862533E+02  0.30000008155E+02 0.  0.
         12    1    3    3    0    0 -0.23559046751E+02  0.28569901328E+02  0.16789803867E+02  0.40659137467E+02  0.00000000000E+00 0. -1.
         11    1    4    4    0    0  0.73422192446E+01 -0.11807755810E+02 -0.18437720724E+02  0.23092873933E+02  0.51100000000E-03 0. -1.
        -11    1    4    4    0    0  0.17642697211E+02 -0.17351755725E+02 -0.54853420940E+00  0.24751749062E+02  0.51100000000E-03 0.  1.
         12    1    4    4    0    0 -0.14258697044E+01  0.58961020725E+00  0.21964510663E+01  0.26842395380E+01  0.00000000000E+00 0. -1.
</event>
<event>
 8    1  0.6016610E-012  0.9118800E+02  0.7816164E-02  0.1184000E+00
        -11   -1    0    0    0    0  0.00000000000E+00  0.00000000000E+00  0.45593999997E+02  0.45594000000E+02  0.51100000000E-03 0. -1.
         11   -1    0    0    0    0 -0.00000000000E+00 -0.00000000000E+00 -0.45593999997E+02  0.45594000000E+02  0.51100000000E-03 0.  1.
         23    2    1    2    0    0  0.71054273576E-14  0.00000000000E+00 -0.35527136788E-14  0.91188000000E+02  0.91188000000E+02 0.  0.
    9900012    2    3    3    0    0  0.35097560397E+02 -0.14714772023E+01 -0.20473442230E+02  0.50528858006E+02  0.29999994395E+02 0.  0.
         12    1    3    3    0    0 -0.35097560397E+02  0.14714772023E+01  0.20473442230E+02  0.40659141994E+02  0.00000000000E+00 0. -1.
         11    1    4    4    0    0  0.17361723910E+02  0.11329008291E+02 -0.11418496459E+02  0.23667656150E+02  0.51100000000E-03 0. -1.
        -11    1    4    4    0    0  0.18369487162E+02 -0.77087980219E+01 -0.56640082232E+01  0.20710978126E+02  0.51100000000E-03 0.  1.
         12    1    4    4    0    0 -0.63365067486E+00 -0.50916874709E+01 -0.33909375475E+01  0.61502237301E+01  0.00000000000E+00 0. -1.
</event>
<event>
 8    1  0.6016610E-012  0.9118800E+02  0.7816164E-02  0.1184000E+00
        -11   -1    0    0    0    0  0.00000000000E+00  0.00000000000E+00  0.45593999997E+02  0.45594000000E+02  0.51100000000E-03 0.  1.
         11   -1    0    0    0    0 -0.00000000000E+00 -0.00000000000E+00 -0.45593999997E+02  0.45594000000E+02  0.51100000000E-03 0. -1.
         23    2    1    2    0    0  0.00000000000E+00  0.00000000000E+00  0.88817841970E-15  0.91188000000E+02  0.91188000000E+02 0.  0.
    9900012    2    3    3    0    0 -0.39539213659E+02  0.77042048249E+01 -0.55190844095E+01  0.50528874561E+02  0.30000044715E+02 0.  0.
        -12    1    3    3    0    0  0.39539213659E+02 -0.77042048249E+01  0.55190844095E+01  0.40659125439E+02  0.00000000000E+00 0.  1.
         11    1    4    4    0    0 -0.26827261306E+02 -0.18659646907E+01 -0.34438289578E+01  0.27111689942E+02  0.51100000000E-03 0. -1.
        -11    1    4    4    0    0 -0.19731808427E+01  0.10069891954E+02  0.40645169827E+01  0.11037049658E+02  0.51100000000E-03 0.  1.
        -12    1    4    4    0    0 -0.10738771511E+02 -0.49972243810E+00 -0.61397724344E+01  0.12380134960E+02  0.00000000000E+00 0.  1.
</event>
<event>
 8    1  0.6016610E-012  0.9118800E+02  0.7816164E-02  0.1184000E+00
        -11   -1    0    0    0    0  0.00000000000E+00  0.00000000000E+00  0.45593999997E+02  0.45594000000E+02  0.51100000000E-03 0. -1.
         11   -1    0    0    0    0 -0.00000000000E+00 -0.00000000000E+00 -0.45593999997E+02  0.45594000000E+02  0.51100000000E-03 0.  1.
         23    2    1    2    0    0 -0.35527136788E-14  0.17763568394E-14  0.00000000000E+00  0.91188000000E+02  0.91188000000E+02 0.  0.
    9900012    2    3    3    0    0  0.12238242355E+02  0.13861133416E+02 -0.36211322023E+02  0.50528862796E+02  0.30000008956E+02 0.  0.
         12    1    3    3    0    0 -0.12238242355E+02 -0.13861133416E+02  0.36211322023E+02  0.40659137204E+02  0.00000000000E+00 0. -1.
         11    1    4    4    0    0  0.50937270572E+01 -0.25202496743E+01 -0.46124145237E+01  0.73192951678E+01  0.51100000000E-03 0. -1.
        -11    1    4    4    0    0 -0.32712691343E+01  0.15781123400E+02 -0.27747237605E+02  0.32088226073E+02  0.51100000000E-03 0.  1.
        -12    1    4    4    0    0  0.10415784432E+02  0.60025969033E+00 -0.38516698937E+01  0.11121341556E+02  0.00000000000E+00 0.  1.
</event>
<event>
 8    1  0.6016610E-012  0.9118800E+02  0.7816164E-02  0.1184000E+00
        -11   -1    0    0    0    0  0.00000000000E+00  0.00000000000E+00  0.45593999997E+02  0.45594000000E+02  0.51100000000E-03 0. -1.
         11   -1    0    0    0    0 -0.00000000000E+00 -0.00000000000E+00 -0.45593999997E+02  0.45594000000E+02  0.51100000000E-03 0.  1.
         23    2    1    2    0    0  0.00000000000E+00  0.00000000000E+00  0.17763568394E-14  0.91188000000E+02  0.91188000000E+02 0.  0.
    9900012    2    3    3    0    0 -0.19511458132E+02 -0.35164328905E+02  0.59951636063E+01  0.50528818842E+02  0.29999875352E+02 0.  0.
        -12    1    3    3    0    0  0.19511458132E+02  0.35164328905E+02 -0.59951636063E+01  0.40659181158E+02  0.00000000000E+00 0.  1.
         11    1    4    4    0    0 -0.16452687814E+02 -0.21675731063E+02  0.12811835284E+02  0.30077755518E+02  0.51100000000E-03 0. -1.
        -11    1    4    4    0    0  0.43569322595E+01 -0.96180334850E+01 -0.57366293708E+01  0.12016586189E+02  0.51100000000E-03 0.  1.
        -12    1    4    4    0    0 -0.74157025770E+01 -0.38705643576E+01 -0.10800423068E+01  0.84344771350E+01  0.00000000000E+00 0.  1.
</event>
<event>
 8    1  0.6016610E-012  0.9118800E+02  0.7816164E-02  0.1184000E+00
        -11   -1    0    0    0    0  0.00000000000E+00  0.00000000000E+00  0.45593999997E+02  0.45594000000E+02  0.51100000000E-03 0. -1.
         11   -1    0    0    0    0 -0.00000000000E+00 -0.00000000000E+00 -0.45593999997E+02  0.45594000000E+02  0.51100000000E-03 0.  1.
         23    2    1    2    0    0  0.35527136788E-14 -0.22204460493E-15  0.35527136788E-14  0.91188000000E+02  0.91188000000E+02 0.  0.
    9900012    2    3    3    0    0 -0.28344748583E+02 -0.12092682967E+01  0.29125221167E+02  0.50528860682E+02  0.30000002530E+02 0.  0.
        -12    1    3    3    0    0  0.28344748583E+02  0.12092682967E+01 -0.29125221167E+02  0.40659139318E+02  0.00000000000E+00 0.  1.
         11    1    4    4    0    0 -0.17571530689E+02 -0.13225318808E+02  0.25773371142E+02  0.33881180744E+02  0.51100000000E-03 0. -1.
        -11    1    4    4    0    0 -0.72199776226E+00  0.24677329899E+00 -0.15403034481E+00  0.77839799463E+00  0.51100000000E-03 0.  1.
         12    1    4    4    0    0 -0.10051220132E+02  0.11769277212E+02  0.35058803691E+01  0.15869281943E+02  0.00000000000E+00 0. -1.
</event>
<event>
 8    1  0.6016610E-012  0.9118800E+02  0.7816164E-02  0.1184000E+00
        -11   -1    0    0    0    0  0.00000000000E+00  0.00000000000E+00  0.45593999997E+02  0.45594000000E+02  0.51100000000E-03 0. -1.
         11   -1    0    0    0    0 -0.00000000000E+00 -0.00000000000E+00 -0.45593999997E+02  0.45594000000E+02  0.51100000000E-03 0.  1.
         23    2    1    2    0    0  0.00000000000E+00 -0.88817841970E-15  0.00000000000E+00  0.91188000000E+02  0.91188000000E+02 0.  0.
    9900012    2    3    3    0    0 -0.16342099780E+02  0.31200444538E+01 -0.37099417902E+02  0.50528859437E+02  0.29999998746E+02 0.  0.
         12    1    3    3    0    0  0.16342099780E+02 -0.31200444538E+01  0.37099417902E+02  0.40659140563E+02  0.00000000000E+00 0. -1.
         11    1    4    4    0    0  0.33442652079E+01 -0.56803290115E+01 -0.86283416976E+01  0.10858108867E+02  0.51100000000E-03 0. -1.
        -11    1    4    4    0    0 -0.10195955679E+02  0.82591455885E+01 -0.44800535885E+01  0.13865131751E+02  0.51100000000E-03 0.  1.
         12    1    4    4    0    0 -0.94904093087E+01  0.54122787684E+00 -0.23991022616E+02  0.25805618819E+02  0.00000000000E+00 0. -1.
</event>
<event>
 8    1  0.6016610E-012  0.9118800E+02  0.7816164E-02  0.1184000E+00
        -11   -1    0    0    0    0  0.00000000000E+00  0.00000000000E+00  0.45593999997E+02  0.45594000000E+02  0.51100000000E-03 0. -1.
         11   -1    0    0    0    0 -0.00000000000E+00 -0.00000000000E+00 -0.45593999997E+02  0.45594000000E+02  0.51100000000E-03 0.  1.
         23    2    1    2    0    0 -0.71054273576E-14  0.35527136788E-14  0.17763568394E-14  0.91188000000E+02  0.91188000000E+02 0.  0.
    9900012    2    3    3    0    0 -0.21154568944E+02  0.31565884329E+02  0.14465258860E+02  0.50528873662E+02  0.30000041983E+02 0.  0.
        -12    1    3    3    0    0  0.21154568944E+02 -0.31565884329E+02 -0.14465258860E+02  0.40659126338E+02  0.00000000000E+00 0.  1.
         11    1    4    4    0    0 -0.20525953678E+01  0.80118225794E+00  0.12649912757E+02  0.12840379036E+02  0.51100000000E-03 0. -1.
        -11    1    4    4    0    0 -0.84434701551E+01  0.51902864208E+01  0.11077647994E+01  0.99728834597E+01  0.51100000000E-03 0.  1.
         12    1    4    4    0    0 -0.10658503421E+02  0.25574415650E+02  0.70758130313E+00  0.27715611166E+02  0.00000000000E+00 0. -1.
</event>
<event>
 8    1  0.6016610E-012  0.9118800E+02  0.7816164E-02  0.1184000E+00
        -11   -1    0    0    0    0  0.00000000000E+00  0.00000000000E+00  0.45593999997E+02  0.45594000000E+02  0.51100000000E-03 0. -1.
         11   -1    0    0    0    0 -0.00000000000E+00 -0.00000000000E+00 -0.45593999997E+02  0.45594000000E+02  0.51100000000E-03 0.  1.
         23    2    1    2    0    0  0.00000000000E+00 -0.15543122345E-14  0.00000000000E+00  0.91188000000E+02  0.91188000000E+02 0.  0.
    9900012    2    3    3    0    0  0.10813452915E+02  0.15846152416E+01 -0.39162780744E+02  0.50528866155E+02  0.30000019166E+02 0.  0.
         12    1    3    3    0    0 -0.10813452915E+02 -0.15846152416E+01  0.39162780744E+02  0.40659133845E+02  0.00000000000E+00 0. -1.
         11    1    4    4    0    0  0.44290045671E+01  0.44625745782E+01 -0.50358430037E+01  0.80554558121E+01  0.51100000000E-03 0. -1.
        -11    1    4    4    0    0  0.67246863635E+01 -0.13241862200E+02 -0.21568864045E+02  0.26187482080E+02  0.51100000000E-03 0.  1.
        -12    1    4    4    0    0 -0.34023801577E+00  0.10363902864E+02 -0.12558073695E+02  0.16285928264E+02  0.00000000000E+00 0.  1.
</event>
<event>
 8    1  0.6016610E-012  0.9118800E+02  0.7816164E-02  0.1184000E+00
        -11   -1    0    0    0    0  0.00000000000E+00  0.00000000000E+00  0.45593999997E+02  0.45594000000E+02  0.51100000000E-03 0. -1.
         11   -1    0    0    0    0 -0.00000000000E+00 -0.00000000000E+00 -0.45593999997E+02  0.45594000000E+02  0.51100000000E-03 0.  1.
         23    2    1    2    0    0  0.17763568394E-14  0.00000000000E+00  0.71054273576E-14  0.91188000000E+02  0.91188000000E+02 0.  0.
    9900012    2    3    3    0    0 -0.10830725253E+02 -0.21247348433E+02  0.32930416057E+02  0.50528846951E+02  0.29999960793E+02 0.  0.
        -12    1    3    3    0    0  0.10830725253E+02  0.21247348433E+02 -0.32930416057E+02  0.40659153049E+02  0.00000000000E+00 0.  1.
         11    1    4    4    0    0  0.62951537223E+00  0.83879754205E+00  0.11278312035E+01  0.15400890900E+01  0.51100000000E-03 0. -1.
        -11    1    4    4    0    0 -0.84593447331E+01 -0.81610421188E+00 -0.21914712869E+01  0.87766215630E+01  0.51100000000E-03 0.  1.
        -12    1    4    4    0    0 -0.30008958921E+01 -0.21270041763E+02  0.33994056141E+02  0.40212136298E+02  0.00000000000E+00 0.  1.
</event>
<event>
 8    1  0.6016610E-012  0.9118800E+02  0.7816164E-02  0.1184000E+00
        -11   -1    0    0    0    0  0.00000000000E+00  0.00000000000E+00  0.45593999997E+02  0.45594000000E+02  0.51100000000E-03 0.  1.
         11   -1    0    0    0    0 -0.00000000000E+00 -0.00000000000E+00 -0.45593999997E+02  0.45594000000E+02  0.51100000000E-03 0. -1.
         23    2    1    2    0    0  0.00000000000E+00 -0.11102230246E-15  0.11102230246E-14  0.91188000000E+02  0.91188000000E+02 0.  0.
    9900012    2    3    3    0    0 -0.40616044039E+02 -0.49624000990E+00 -0.18046382807E+01  0.50528855803E+02  0.29999987698E+02 0.  0.
        -12    1    3    3    0    0  0.40616044039E+02  0.49624000990E+00  0.18046382807E+01  0.40659144197E+02  0.00000000000E+00 0.  1.
         11    1    4    4    0    0 -0.96225658870E+01 -0.80740478888E+01 -0.84438778706E+01  0.15135491314E+02  0.51100000000E-03 0. -1.
        -11    1    4    4    0    0 -0.24871664560E+02  0.24546977220E+01  0.97486318841E+01  0.26826499265E+02  0.51100000000E-03 0.  1.
        -12    1    4    4    0    0 -0.61218135917E+01  0.51231101569E+01 -0.31093922942E+01  0.85668652242E+01  0.00000000000E+00 0.  1.
</event>
<event>
 8    1  0.6016610E-012  0.9118800E+02  0.7816164E-02  0.1184000E+00
        -11   -1    0    0    0    0  0.00000000000E+00  0.00000000000E+00  0.45593999997E+02  0.45594000000E+02  0.51100000000E-03 0. -1.
         11   -1    0    0    0    0 -0.00000000000E+00 -0.00000000000E+00 -0.45593999997E+02  0.45594000000E+02  0.51100000000E-03 0.  1.
         23    2    1    2    0    0  0.71054273576E-14  0.00000000000E+00  0.00000000000E+00  0.91188000000E+02  0.91188000000E+02 0.  0.
    9900012    2    3    3    0    0  0.37380086034E+02  0.51060847646E+01  0.15159974791E+02  0.50528834131E+02  0.29999921824E+02 0.  0.
        -12    1    3    3    0    0 -0.37380086034E+02 -0.51060847646E+01 -0.15159974791E+02  0.40659165869E+02  0.00000000000E+00 0.  1.
         11    1    4    4    0    0  0.34539689017E+02  0.11395701653E+02  0.11375876725E+02  0.38108564720E+02  0.51100000000E-03 0. -1.
        -11    1    4    4    0    0 -0.19357108578E+01 -0.33856953364E+01  0.53452081196E+01  0.66167332982E+01  0.51100000000E-03 0.  1.
         12    1    4    4    0    0  0.47761078750E+01 -0.29039215515E+01 -0.15611100537E+01  0.58035361126E+01  0.00000000000E+00 0. -1.
</event>
<event>
 8    1  0.6016610E-012  0.9118800E+02  0.7816164E-02  0.1184000E+00
        -11   -1    0    0    0    0  0.00000000000E+00  0.00000000000E+00  0.45593999997E+02  0.45594000000E+02  0.51100000000E-03 0. -1.
         11   -1    0    0    0    0 -0.00000000000E+00 -0.00000000000E+00 -0.45593999997E+02  0.45594000000E+02  0.51100000000E-03 0.  1.
         23    2    1    2    0    0  0.35527136788E-14 -0.44408920985E-15  0.00000000000E+00  0.91188000000E+02  0.91188000000E+02 0.  0.
    9900012    2    3    3    0    0 -0.23927094981E+02  0.18168473157E+01  0.32823126156E+02  0.50528875328E+02  0.30000047047E+02 0.  0.
        -12    1    3    3    0    0  0.23927094981E+02 -0.18168473157E+01 -0.32823126156E+02  0.40659124672E+02  0.00000000000E+00 0.  1.
         11    1    4    4    0    0 -0.75989571632E+01  0.45719568170E+01  0.29083321937E+02  0.30405370484E+02  0.51100000000E-03 0. -1.
        -11    1    4    4    0    0 -0.12873311731E+02  0.27342137395E+01  0.35664653942E+01  0.13635166129E+02  0.51100000000E-03 0.  1.
         12    1    4    4    0    0 -0.34548260870E+01 -0.54893232408E+01  0.17333882535E+00  0.64883387151E+01  0.00000000000E+00 0. -1.
</event>
<event>
 8    1  0.6016610E-012  0.9118800E+02  0.7816164E-02  0.1184000E+00
        -11   -1    0    0    0    0  0.00000000000E+00  0.00000000000E+00  0.45593999997E+02  0.45594000000E+02  0.51100000000E-03 0. -1.
         11   -1    0    0    0    0 -0.00000000000E+00 -0.00000000000E+00 -0.45593999997E+02  0.45594000000E+02  0.51100000000E-03 0.  1.
         23    2    1    2    0    0  0.00000000000E+00  0.00000000000E+00  0.00000000000E+00  0.91188000000E+02  0.91188000000E+02 0.  0.
    9900012    2    3    3    0    0 -0.94075372804E+00  0.27652076080E+02 -0.29793350961E+02  0.50528854773E+02  0.29999984569E+02 0.  0.
         12    1    3    3    0    0  0.94075372804E+00 -0.27652076080E+02  0.29793350961E+02  0.40659145227E+02  0.00000000000E+00 0. -1.
         11    1    4    4    0    0 -0.13114919166E+02  0.10608472203E+02 -0.16124581010E+02  0.23335443004E+02  0.51100000000E-03 0. -1.
        -11    1    4    4    0    0  0.46363107540E+01  0.12831720804E+02 -0.39735332515E+01  0.14210468076E+02  0.51100000000E-03 0.  1.
         12    1    4    4    0    0  0.75378546842E+01  0.42118830739E+01 -0.96952366994E+01  0.12982943693E+02  0.00000000000E+00 0. -1.
</event>
<event>
 8    1  0.6016610E-012  0.9118800E+02  0.7816164E-02  0.1184000E+00
        -11   -1    0    0    0    0  0.00000000000E+00  0.00000000000E+00  0.45593999997E+02  0.45594000000E+02  0.51100000000E-03 0. -1.
         11   -1    0    0    0    0 -0.00000000000E+00 -0.00000000000E+00 -0.45593999997E+02  0.45594000000E+02  0.51100000000E-03 0.  1.
         23    2    1    2    0    0 -0.35527136788E-14  0.17763568394E-14  0.71054273576E-14  0.91188000000E+02  0.91188000000E+02 0.  0.
    9900012    2    3    3    0    0  0.22567279555E+02  0.97743854895E+01 -0.32378156918E+02  0.50528858794E+02  0.29999996791E+02 0.  0.
         12    1    3    3    0    0 -0.22567279555E+02 -0.97743854895E+01  0.32378156918E+02  0.40659141206E+02  0.00000000000E+00 0. -1.
         11    1    4    4    0    0 -0.61176432898E+01 -0.70437165892E+00 -0.79182280128E+01  0.10030953792E+02  0.51100000000E-03 0. -1.
        -11    1    4    4    0    0  0.18277831668E+02  0.10957444851E+02 -0.12789570997E+02  0.24853930367E+02  0.51100000000E-03 0.  1.
         12    1    4    4    0    0  0.10407091177E+02 -0.47868770245E+00 -0.11670357908E+02  0.15643974635E+02  0.00000000000E+00 0. -1.
</event>
<event>
 8    1  0.6016610E-012  0.9118800E+02  0.7816164E-02  0.1184000E+00
        -11   -1    0    0    0    0  0.00000000000E+00  0.00000000000E+00  0.45593999997E+02  0.45594000000E+02  0.51100000000E-03 0. -1.
         11   -1    0    0    0    0 -0.00000000000E+00 -0.00000000000E+00 -0.45593999997E+02  0.45594000000E+02  0.51100000000E-03 0.  1.
         23    2    1    2    0    0  0.00000000000E+00  0.00000000000E+00  0.00000000000E+00  0.91188000000E+02  0.91188000000E+02 0.  0.
    9900012    2    3    3    0    0 -0.14200634983E+02  0.24858428860E+02 -0.28871555634E+02  0.50528852886E+02  0.29999978833E+02 0.  0.
         12    1    3    3    0    0  0.14200634983E+02 -0.24858428860E+02  0.28871555634E+02  0.40659147114E+02  0.00000000000E+00 0. -1.
         11    1    4    4    0    0 -0.10008452056E+02  0.26449469795E+02 -0.15425902820E+02  0.32213382980E+02  0.51100000000E-03 0. -1.
        -11    1    4    4    0    0 -0.71036204634E+01 -0.36932284546E+01 -0.12040211804E+02  0.14459186030E+02  0.51100000000E-03 0.  1.
         12    1    4    4    0    0  0.29114375366E+01  0.21021875199E+01 -0.14054410099E+01  0.38562838758E+01  0.00000000000E+00 0. -1.
</event>
<event>
 8    1  0.6016610E-012  0.9118800E+02  0.7816164E-02  0.1184000E+00
        -11   -1    0    0    0    0  0.00000000000E+00  0.00000000000E+00  0.45593999997E+02  0.45594000000E+02  0.51100000000E-03 0. -1.
         11   -1    0    0    0    0 -0.00000000000E+00 -0.00000000000E+00 -0.45593999997E+02  0.45594000000E+02  0.51100000000E-03 0.  1.
         23    2    1    2    0    0  0.00000000000E+00  0.35527136788E-14 -0.35527136788E-14  0.91188000000E+02  0.91188000000E+02 0.  0.
    9900012    2    3    3    0    0 -0.23914332868E+02 -0.17288234422E+02  0.27971213732E+02  0.50528841578E+02  0.29999944460E+02 0.  0.
        -12    1    3    3    0    0  0.23914332868E+02  0.17288234422E+02 -0.27971213732E+02  0.40659158422E+02  0.00000000000E+00 0.  1.
         11    1    4    4    0    0 -0.20996967589E+02 -0.11467527166E+02  0.23271684475E+02  0.33375861424E+02  0.51100000000E-03 0. -1.
        -11    1    4    4    0    0 -0.17468283860E+01  0.51589653422E+01  0.13008730778E+01  0.55998753413E+01  0.51100000000E-03 0.  1.
         12    1    4    4    0    0 -0.11705368928E+01 -0.10979672598E+02  0.33986561794E+01  0.11553104812E+02  0.00000000000E+00 0. -1.
</event>
<event>
 8    1  0.6016610E-012  0.9118800E+02  0.7816164E-02  0.1184000E+00
        -11   -1    0    0    0    0  0.00000000000E+00  0.00000000000E+00  0.45593999997E+02  0.45594000000E+02  0.51100000000E-03 0. -1.
         11   -1    0    0    0    0 -0.00000000000E+00 -0.00000000000E+00 -0.45593999997E+02  0.45594000000E+02  0.51100000000E-03 0.  1.
         23    2    1    2    0    0  0.35527136788E-14  0.17763568394E-14  0.00000000000E+00  0.91188000000E+02  0.91188000000E+02 0.  0.
    9900012    2    3    3    0    0 -0.29871115322E+02 -0.10281352688E+02 -0.25596403043E+02  0.50528860899E+02  0.30000003188E+02 0.  0.
         12    1    3    3    0    0  0.29871115322E+02  0.10281352688E+02  0.25596403043E+02  0.40659139101E+02  0.00000000000E+00 0. -1.
         11    1    4    4    0    0 -0.74318218233E+01 -0.34888731472E+00 -0.18338897432E+02  0.19790625489E+02  0.51100000000E-03 0. -1.
        -11    1    4    4    0    0 -0.68755760886E+01 -0.12037044574E+02 -0.12331035589E+01  0.13917059074E+02  0.51100000000E-03 0.  1.
         12    1    4    4    0    0 -0.15563717410E+02  0.21045791999E+01 -0.60244020521E+01  0.16821176336E+02  0.00000000000E+00 0. -1.
</event>
<event>
 8    1  0.6016610E-012  0.9118800E+02  0.7816164E-02  0.1184000E+00
        -11   -1    0    0    0    0  0.00000000000E+00  0.00000000000E+00  0.45593999997E+02  0.45594000000E+02  0.51100000000E-03 0. -1.
         11   -1    0    0    0    0 -0.00000000000E+00 -0.00000000000E+00 -0.45593999997E+02  0.45594000000E+02  0.51100000000E-03 0.  1.
         23    2    1    2    0    0 -0.35527136788E-14  0.17763568394E-14  0.00000000000E+00  0.91188000000E+02  0.91188000000E+02 0.  0.
    9900012    2    3    3    0    0  0.12532117097E+02 -0.15242119265E+02 -0.35549814838E+02  0.50528862114E+02  0.30000006882E+02 0.  0.
         12    1    3    3    0    0 -0.12532117097E+02  0.15242119265E+02  0.35549814838E+02  0.40659137886E+02  0.00000000000E+00 0. -1.
         11    1    4    4    0    0  0.66405561703E+01 -0.64806749340E+01 -0.35492791914E+02  0.36685615872E+02  0.51100000000E-03 0. -1.
        -11    1    4    4    0    0  0.81821557723E+00 -0.12140720790E+01 -0.37517616926E+01  0.40273022984E+01  0.51100000000E-03 0.  1.
         12    1    4    4    0    0  0.50733453491E+01 -0.75473722518E+01  0.36947387681E+01  0.98159439435E+01  0.00000000000E+00 0. -1.
</event>
<event>
 8    1  0.6016610E-012  0.9118800E+02  0.7816164E-02  0.1184000E+00
        -11   -1    0    0    0    0  0.00000000000E+00  0.00000000000E+00  0.45593999997E+02  0.45594000000E+02  0.51100000000E-03 0. -1.
         11   -1    0    0    0    0 -0.00000000000E+00 -0.00000000000E+00 -0.45593999997E+02  0.45594000000E+02  0.51100000000E-03 0.  1.
         23    2    1    2    0    0 -0.35527136788E-14  0.00000000000E+00  0.35527136788E-14  0.91188000000E+02  0.91188000000E+02 0.  0.
    9900012    2    3    3    0    0  0.28149238179E+02 -0.13387760647E+02 -0.26106588972E+02  0.50528859171E+02  0.29999997936E+02 0.  0.
         12    1    3    3    0    0 -0.28149238179E+02  0.13387760647E+02  0.26106588972E+02  0.40659140829E+02  0.00000000000E+00 0. -1.
         11    1    4    4    0    0  0.30349058748E+02 -0.12039210506E+02 -0.11120145437E+02  0.34491529268E+02  0.51100000000E-03 0. -1.
        -11    1    4    4    0    0  0.83612457483E+00 -0.91639917902E+00 -0.10673435232E+02  0.10745283229E+02  0.51100000000E-03 0.  1.
         12    1    4    4    0    0 -0.30359451435E+01 -0.43215096200E+00 -0.43130083032E+01  0.52920466733E+01  0.00000000000E+00 0. -1.
</event>
<event>
 8    1  0.6016610E-012  0.9118800E+02  0.7816164E-02  0.1184000E+00
        -11   -1    0    0    0    0  0.00000000000E+00  0.00000000000E+00  0.45593999997E+02  0.45594000000E+02  0.51100000000E-03 0. -1.
         11   -1    0    0    0    0 -0.00000000000E+00 -0.00000000000E+00 -0.45593999997E+02  0.45594000000E+02  0.51100000000E-03 0.  1.
         23    2    1    2    0    0  0.00000000000E+00  0.00000000000E+00  0.00000000000E+00  0.91188000000E+02  0.91188000000E+02 0.  0.
    9900012    2    3    3    0    0 -0.27874559517E+02 -0.19071030093E+02  0.22637806441E+02  0.50528861574E+02  0.30000005241E+02 0.  0.
        -12    1    3    3    0    0  0.27874559517E+02  0.19071030093E+02 -0.22637806441E+02  0.40659138426E+02  0.00000000000E+00 0.  1.
         11    1    4    4    0    0 -0.31060688701E+01  0.30624535757E+01  0.85328364978E+01  0.95830884734E+01  0.51100000000E-03 0. -1.
        -11    1    4    4    0    0 -0.21577368851E+02 -0.18131529908E+02  0.25393162090E+01  0.28298115669E+02  0.51100000000E-03 0.  1.
        -12    1    4    4    0    0 -0.31911217963E+01 -0.40019537605E+01  0.11565653734E+02  0.12647657432E+02  0.00000000000E+00 0.  1.
</event>
<event>
 8    1  0.6016610E-012  0.9118800E+02  0.7816164E-02  0.1184000E+00
        -11   -1    0    0    0    0  0.00000000000E+00  0.00000000000E+00  0.45593999997E+02  0.45594000000E+02  0.51100000000E-03 0. -1.
         11   -1    0    0    0    0 -0.00000000000E+00 -0.00000000000E+00 -0.45593999997E+02  0.45594000000E+02  0.51100000000E-03 0.  1.
         23    2    1    2    0    0  0.17763568394E-14  0.35527136788E-14  0.00000000000E+00  0.91188000000E+02  0.91188000000E+02 0.  0.
    9900012    2    3    3    0    0  0.11764552575E+02  0.18728514330E+02 -0.34117448889E+02  0.50528901817E+02  0.30000127564E+02 0.  0.
         12    1    3    3    0    0 -0.11764552575E+02 -0.18728514330E+02  0.34117448889E+02  0.40659098183E+02  0.00000000000E+00 0. -1.
         11    1    4    4    0    0 -0.25991282418E+01 -0.69580966855E+01 -0.50009496926E+01  0.89543327608E+01  0.51100000000E-03 0. -1.
        -11    1    4    4    0    0  0.11765249647E+02  0.21223209797E+02 -0.25892829886E+02  0.35486397015E+02  0.51100000000E-03 0.  1.
         12    1    4    4    0    0  0.25984311700E+01  0.44634012185E+01 -0.32236693104E+01  0.60881720413E+01  0.00000000000E+00 0. -1.
</event>
<event>
 8    1  0.6016610E-012  0.9118800E+02  0.7816164E-02  0.1184000E+00
        -11   -1    0    0    0    0  0.00000000000E+00  0.00000000000E+00  0.45593999997E+02  0.45594000000E+02  0.51100000000E-03 0.  1.
         11   -1    0    0    0    0 -0.00000000000E+00 -0.00000000000E+00 -0.45593999997E+02  0.45594000000E+02  0.51100000000E-03 0. -1.
         23    2    1    2    0    0  0.00000000000E+00  0.00000000000E+00 -0.17763568394E-14  0.91188000000E+02  0.91188000000E+02 0.  0.
    9900012    2    3    3    0    0 -0.34372649577E+02 -0.20301018665E+02 -0.77172045071E+01  0.50528860275E+02  0.30000001292E+02 0.  0.
        -12    1    3    3    0    0  0.34372649577E+02  0.20301018665E+02  0.77172045071E+01  0.40659139725E+02  0.00000000000E+00 0.  1.
         11    1    4    4    0    0 -0.12713229354E+01 -0.81054026628E+01 -0.75513030453E+01  0.11150605018E+02  0.51100000000E-03 0. -1.
        -11    1    4    4    0    0 -0.18364393058E+02 -0.75118818135E+01  0.85754403187E+01  0.21615214033E+02  0.51100000000E-03 0.  1.
         12    1    4    4    0    0 -0.14736933583E+02 -0.46837341884E+01 -0.87413417805E+01  0.17763041224E+02  0.00000000000E+00 0. -1.
</event>
<event>
 8    1  0.6016610E-012  0.9118800E+02  0.7816164E-02  0.1184000E+00
        -11   -1    0    0    0    0  0.00000000000E+00  0.00000000000E+00  0.45593999997E+02  0.45594000000E+02  0.51100000000E-03 0. -1.
         11   -1    0    0    0    0 -0.00000000000E+00 -0.00000000000E+00 -0.45593999997E+02  0.45594000000E+02  0.51100000000E-03 0.  1.
         23    2    1    2    0    0  0.00000000000E+00  0.00000000000E+00  0.44408920985E-15  0.91188000000E+02  0.91188000000E+02 0.  0.
    9900012    2    3    3    0    0 -0.19077407774E+02 -0.35892238064E+02 -0.98235449197E+00  0.50528864975E+02  0.30000015579E+02 0.  0.
         12    1    3    3    0    0  0.19077407774E+02  0.35892238064E+02  0.98235449197E+00  0.40659135025E+02  0.00000000000E+00 0. -1.
         11    1    4    4    0    0 -0.14922007765E+02 -0.70223633897E+01  0.61043762631E+01  0.17585315270E+02  0.51100000000E-03 0. -1.
        -11    1    4    4    0    0 -0.62541180855E+01 -0.15044343363E+02 -0.93391350032E+01  0.18779395707E+02  0.51100000000E-03 0.  1.
         12    1    4    4    0    0  0.20987180763E+01 -0.13825531311E+02  0.22524042482E+01  0.14164153998E+02  0.00000000000E+00 0. -1.
</event>
<event>
 8    1  0.6016610E-012  0.9118800E+02  0.7816164E-02  0.1184000E+00
        -11   -1    0    0    0    0  0.00000000000E+00  0.00000000000E+00  0.45593999997E+02  0.45594000000E+02  0.51100000000E-03 0. -1.
         11   -1    0    0    0    0 -0.00000000000E+00 -0.00000000000E+00 -0.45593999997E+02  0.45594000000E+02  0.51100000000E-03 0.  1.
         23    2    1    2    0    0  0.00000000000E+00  0.35527136788E-14  0.00000000000E+00  0.91188000000E+02  0.91188000000E+02 0.  0.
    9900012    2    3    3    0    0  0.13522496640E+02 -0.18155200155E+02  0.33774330968E+02  0.50528749633E+02  0.29999664984E+02 0.  0.
        -12    1    3    3    0    0 -0.13522496640E+02  0.18155200155E+02 -0.33774330968E+02  0.40659250367E+02  0.00000000000E+00 0.  1.
         11    1    4    4    0    0  0.18700677383E+02 -0.13538470435E+01  0.20513777123E+02  0.27791424730E+02  0.51100000000E-03 0. -1.
        -11    1    4    4    0    0 -0.23658174544E+01 -0.14153149093E+02  0.11899761947E+02  0.18641702072E+02  0.51100000000E-03 0.  1.
         12    1    4    4    0    0 -0.28123632887E+01 -0.26482040179E+01  0.13607918984E+01  0.40956228316E+01  0.00000000000E+00 0. -1.
</event>
<event>
 8    1  0.6016610E-012  0.9118800E+02  0.7816164E-02  0.1184000E+00
        -11   -1    0    0    0    0  0.00000000000E+00  0.00000000000E+00  0.45593999997E+02  0.45594000000E+02  0.51100000000E-03 0. -1.
         11   -1    0    0    0    0 -0.00000000000E+00 -0.00000000000E+00 -0.45593999997E+02  0.45594000000E+02  0.51100000000E-03 0.  1.
         23    2    1    2    0    0  0.00000000000E+00  0.00000000000E+00  0.35527136788E-14  0.91188000000E+02  0.91188000000E+02 0.  0.
    9900012    2    3    3    0    0  0.28227218550E+02 -0.11589401045E+02 -0.26871463747E+02  0.50528860222E+02  0.30000001129E+02 0.  0.
         12    1    3    3    0    0 -0.28227218550E+02  0.11589401045E+02  0.26871463747E+02  0.40659139778E+02  0.00000000000E+00 0. -1.
         11    1    4    4    0    0  0.12167805271E+02  0.49083414127E+01 -0.37140321062E+01  0.13636030775E+02  0.51100000000E-03 0. -1.
        -11    1    4    4    0    0  0.11129302488E+02 -0.17342753065E+02 -0.10178430261E+02  0.22983317875E+02  0.51100000000E-03 0.  1.
        -12    1    4    4    0    0  0.49301107906E+01  0.84501060721E+00 -0.12979001380E+02  0.13909511571E+02  0.00000000000E+00 0.  1.
</event>
<event>
 8    1  0.6016610E-012  0.9118800E+02  0.7816164E-02  0.1184000E+00
        -11   -1    0    0    0    0  0.00000000000E+00  0.00000000000E+00  0.45593999997E+02  0.45594000000E+02  0.51100000000E-03 0. -1.
         11   -1    0    0    0    0 -0.00000000000E+00 -0.00000000000E+00 -0.45593999997E+02  0.45594000000E+02  0.51100000000E-03 0.  1.
         23    2    1    2    0    0  0.00000000000E+00  0.00000000000E+00  0.00000000000E+00  0.91188000000E+02  0.91188000000E+02 0.  0.
    9900012    2    3    3    0    0  0.81534544664E+01 -0.10887613192E+02 -0.38316408072E+02  0.50528855047E+02  0.29999985401E+02 0.  0.
         12    1    3    3    0    0 -0.81534544664E+01  0.10887613192E+02  0.38316408072E+02  0.40659144953E+02  0.00000000000E+00 0. -1.
         11    1    4    4    0    0  0.12459511529E+01  0.47800134805E+01 -0.16649140300E+02  0.17366484853E+02  0.51100000000E-03 0. -1.
        -11    1    4    4    0    0 -0.15502333087E+01 -0.15999255510E+02 -0.17382056243E+02  0.23675203900E+02  0.51100000000E-03 0.  1.
         12    1    4    4    0    0  0.84577366222E+01  0.33162883732E+00 -0.42852115283E+01  0.94871662945E+01  0.00000000000E+00 0. -1.
</event>
<event>
 8    1  0.6016610E-012  0.9118800E+02  0.7816164E-02  0.1184000E+00
        -11   -1    0    0    0    0  0.00000000000E+00  0.00000000000E+00  0.45593999997E+02  0.45594000000E+02  0.51100000000E-03 0. -1.
         11   -1    0    0    0    0 -0.00000000000E+00 -0.00000000000E+00 -0.45593999997E+02  0.45594000000E+02  0.51100000000E-03 0.  1.
         23    2    1    2    0    0 -0.71054273576E-14  0.00000000000E+00  0.00000000000E+00  0.91188000000E+02  0.91188000000E+02 0.  0.
    9900012    2    3    3    0    0  0.16647846836E+02 -0.18749379224E+02  0.32007418706E+02  0.50528869687E+02  0.30000029901E+02 0.  0.
        -12    1    3    3    0    0 -0.16647846836E+02  0.18749379224E+02 -0.32007418706E+02  0.40659130313E+02  0.00000000000E+00 0.  1.
         11    1    4    4    0    0  0.12375336416E+02  0.40302505645E+00  0.12639126823E+02  0.17693470765E+02  0.51100000000E-03 0. -1.
        -11    1    4    4    0    0 -0.12042559620E+00 -0.21517285950E+02  0.16036376587E+02  0.26836047982E+02  0.51100000000E-03 0.  1.
        -12    1    4    4    0    0  0.43929360169E+01  0.23648816705E+01  0.33319152963E+01  0.59993509404E+01  0.00000000000E+00 0.  1.
</event>
<event>
 8    1  0.6016610E-012  0.9118800E+02  0.7816164E-02  0.1184000E+00
        -11   -1    0    0    0    0  0.00000000000E+00  0.00000000000E+00  0.45593999997E+02  0.45594000000E+02  0.51100000000E-03 0. -1.
         11   -1    0    0    0    0 -0.00000000000E+00 -0.00000000000E+00 -0.45593999997E+02  0.45594000000E+02  0.51100000000E-03 0.  1.
         23    2    1    2    0    0  0.00000000000E+00  0.00000000000E+00  0.00000000000E+00  0.91188000000E+02  0.91188000000E+02 0.  0.
    9900012    2    3    3    0    0  0.34016925992E+02  0.22152528549E+01 -0.22161007737E+02  0.50528820678E+02  0.29999880934E+02 0.  0.
         12    1    3    3    0    0 -0.34016925992E+02 -0.22152528549E+01  0.22161007737E+02  0.40659179322E+02  0.00000000000E+00 0. -1.
         11    1    4    4    0    0  0.32793218932E+02  0.60399149116E+00 -0.14428998727E+02  0.35832332022E+02  0.51100000000E-03 0.  1.
        -11    1    4    4    0    0 -0.92451615437E+00 -0.50812372096E+01 -0.48978779478E+01  0.71177883048E+01  0.51100000000E-03 0. -1.
         12    1    4    4    0    0  0.21482232149E+01  0.66924985734E+01 -0.28341310626E+01  0.75787003513E+01  0.00000000000E+00 0. -1.
</event>
<event>
 8    1  0.6016610E-012  0.9118800E+02  0.7816164E-02  0.1184000E+00
        -11   -1    0    0    0    0  0.00000000000E+00  0.00000000000E+00  0.45593999997E+02  0.45594000000E+02  0.51100000000E-03 0. -1.
         11   -1    0    0    0    0 -0.00000000000E+00 -0.00000000000E+00 -0.45593999997E+02  0.45594000000E+02  0.51100000000E-03 0.  1.
         23    2    1    2    0    0 -0.44408920985E-14  0.17763568394E-14  0.00000000000E+00  0.91188000000E+02  0.91188000000E+02 0.  0.
    9900012    2    3    3    0    0 -0.58825264428E+01  0.82114224115E+01 -0.39384446012E+02  0.50528853882E+02  0.29999981859E+02 0.  0.
         12    1    3    3    0    0  0.58825264428E+01 -0.82114224115E+01  0.39384446012E+02  0.40659146118E+02  0.00000000000E+00 0. -1.
         11    1    4    4    0    0 -0.76132236435E+01 -0.30225284555E-01 -0.49548256696E+01  0.90836328355E+01  0.51100000000E-03 0. -1.
        -11    1    4    4    0    0  0.10666170797E+02  0.38276201316E+01 -0.26108911070E+02  0.28462134721E+02  0.51100000000E-03 0.  1.
        -12    1    4    4    0    0 -0.89354735967E+01  0.44140275644E+01 -0.83207092728E+01  0.12983086326E+02  0.00000000000E+00 0.  1.
</event>
<event>
 8    1  0.6016610E-012  0.9118800E+02  0.7816164E-02  0.1184000E+00
        -11   -1    0    0    0    0  0.00000000000E+00  0.00000000000E+00  0.45593999997E+02  0.45594000000E+02  0.51100000000E-03 0. -1.
         11   -1    0    0    0    0 -0.00000000000E+00 -0.00000000000E+00 -0.45593999997E+02  0.45594000000E+02  0.51100000000E-03 0.  1.
         23    2    1    2    0    0  0.00000000000E+00  0.17763568394E-14  0.00000000000E+00  0.91188000000E+02  0.91188000000E+02 0.  0.
    9900012    2    3    3    0    0  0.27007799490E+02  0.11158739767E+02 -0.28270593577E+02  0.50528866122E+02  0.30000019066E+02 0.  0.
         12    1    3    3    0    0 -0.27007799490E+02 -0.11158739767E+02  0.28270593577E+02  0.40659133878E+02  0.00000000000E+00 0. -1.
         11    1    4    4    0    0  0.29831438861E+02  0.60273028098E+01 -0.13403888168E+02  0.33255185189E+02  0.51100000000E-03 0. -1.
        -11    1    4    4    0    0  0.32638219486E+00  0.99615493215E+00 -0.10303234772E+02  0.10356422984E+02  0.51100000000E-03 0.  1.
         12    1    4    4    0    0 -0.31500215655E+01  0.41352820252E+01 -0.45634706371E+01  0.69172579500E+01  0.00000000000E+00 0. -1.
</event>
<event>
 8    1  0.6016610E-012  0.9118800E+02  0.7816164E-02  0.1184000E+00
        -11   -1    0    0    0    0  0.00000000000E+00  0.00000000000E+00  0.45593999997E+02  0.45594000000E+02  0.51100000000E-03 0.  1.
         11   -1    0    0    0    0 -0.00000000000E+00 -0.00000000000E+00 -0.45593999997E+02  0.45594000000E+02  0.51100000000E-03 0. -1.
         23    2    1    2    0    0  0.00000000000E+00  0.00000000000E+00  0.00000000000E+00  0.91188000000E+02  0.91188000000E+02 0.  0.
    9900012    2    3    3    0    0 -0.15116326950E+02  0.30091209442E+02 -0.22785506290E+02  0.50528886347E+02  0.30000080541E+02 0.  0.
         12    1    3    3    0    0  0.15116326950E+02 -0.30091209442E+02  0.22785506290E+02  0.40659113653E+02  0.00000000000E+00 0. -1.
         11    1    4    4    0    0 -0.21514385619E+01  0.33946805529E+01 -0.19322284508E+02  0.19735836004E+02  0.51100000000E-03 0. -1.
        -11    1    4    4    0    0 -0.80034252012E+00  0.47618406822E+01  0.18207615458E+01  0.51605084730E+01  0.51100000000E-03 0.  1.
         12    1    4    4    0    0 -0.12164545868E+02  0.21934688207E+02 -0.52839833279E+01  0.25632541870E+02  0.00000000000E+00 0. -1.
</event>
<event>
 8    1  0.6016610E-012  0.9118800E+02  0.7816164E-02  0.1184000E+00
        -11   -1    0    0    0    0  0.00000000000E+00  0.00000000000E+00  0.45593999997E+02  0.45594000000E+02  0.51100000000E-03 0. -1.
         11   -1    0    0    0    0 -0.00000000000E+00 -0.00000000000E+00 -0.45593999997E+02  0.45594000000E+02  0.51100000000E-03 0.  1.
         23    2    1    2    0    0  0.00000000000E+00  0.00000000000E+00  0.35527136788E-14  0.91188000000E+02  0.91188000000E+02 0.  0.
    9900012    2    3    3    0    0  0.23672777580E+02  0.13835592626E+02 -0.30022355587E+02  0.50528857650E+02  0.29999993312E+02 0.  0.
         12    1    3    3    0    0 -0.23672777580E+02 -0.13835592626E+02  0.30022355587E+02  0.40659142350E+02  0.00000000000E+00 0. -1.
         11    1    4    4    0    0  0.17662422101E+02  0.29951676338E+01 -0.19207087444E+02  0.26264888957E+02  0.51100000000E-03 0.  1.
        -11    1    4    4    0    0  0.60330529725E+00  0.88087004481E+01  0.29716099449E+01  0.93159887716E+01  0.51100000000E-03 0. -1.
         12    1    4    4    0    0  0.54070501825E+01  0.20317245440E+01 -0.13786878088E+02  0.14947979921E+02  0.00000000000E+00 0. -1.
</event>
<event>
 8    1  0.6016610E-012  0.9118800E+02  0.7816164E-02  0.1184000E+00
        -11   -1    0    0    0    0  0.00000000000E+00  0.00000000000E+00  0.45593999997E+02  0.45594000000E+02  0.51100000000E-03 0. -1.
         11   -1    0    0    0    0 -0.00000000000E+00 -0.00000000000E+00 -0.45593999997E+02  0.45594000000E+02  0.51100000000E-03 0.  1.
         23    2    1    2    0    0  0.00000000000E+00  0.35527136788E-14  0.00000000000E+00  0.91188000000E+02  0.91188000000E+02 0.  0.
    9900012    2    3    3    0    0  0.35272035817E+02  0.20174426106E+02 -0.14287762269E+01  0.50528863500E+02  0.30000011096E+02 0.  0.
         12    1    3    3    0    0 -0.35272035817E+02 -0.20174426106E+02  0.14287762269E+01  0.40659136500E+02  0.00000000000E+00 0. -1.
         11    1    4    4    0    0  0.40823721742E+01  0.16617259676E+01  0.78336135810E+01  0.89884702680E+01  0.51100000000E-03 0. -1.
        -11    1    4    4    0    0  0.22177430239E+02  0.37864676578E+01 -0.91151300829E+01  0.24274705890E+02  0.51100000000E-03 0.  1.
        -12    1    4    4    0    0  0.90122334035E+01  0.14726232481E+02 -0.14725972491E+00  0.17265687343E+02  0.00000000000E+00 0.  1.
</event>
<event>
 8    1  0.6016610E-012  0.9118800E+02  0.7816164E-02  0.1184000E+00
        -11   -1    0    0    0    0  0.00000000000E+00  0.00000000000E+00  0.45593999997E+02  0.45594000000E+02  0.51100000000E-03 0.  1.
         11   -1    0    0    0    0 -0.00000000000E+00 -0.00000000000E+00 -0.45593999997E+02  0.45594000000E+02  0.51100000000E-03 0. -1.
         23    2    1    2    0    0 -0.35527136788E-14  0.00000000000E+00  0.17763568394E-14  0.91188000000E+02  0.91188000000E+02 0.  0.
    9900012    2    3    3    0    0  0.28754493775E+02  0.25239505593E+02 -0.13759051895E+02  0.50528867399E+02  0.30000022946E+02 0.  0.
         12    1    3    3    0    0 -0.28754493775E+02 -0.25239505593E+02  0.13759051895E+02  0.40659132601E+02  0.00000000000E+00 0. -1.
         11    1    4    4    0    0  0.15317232449E+01  0.17151276550E+02 -0.10400203249E+02  0.20116577524E+02  0.51100000000E-03 0. -1.
        -11    1    4    4    0    0  0.26903015676E+02  0.79595132322E+01 -0.52047670193E+01  0.28534465184E+02  0.51100000000E-03 0.  1.
        -12    1    4    4    0    0  0.31975485356E+00  0.12871581094E+00  0.18459183736E+01  0.18778246905E+01  0.00000000000E+00 0.  1.
</event>
<event>
 8    1  0.6016610E-012  0.9118800E+02  0.7816164E-02  0.1184000E+00
        -11   -1    0    0    0    0  0.00000000000E+00  0.00000000000E+00  0.45593999997E+02  0.45594000000E+02  0.51100000000E-03 0. -1.
         11   -1    0    0    0    0 -0.00000000000E+00 -0.00000000000E+00 -0.45593999997E+02  0.45594000000E+02  0.51100000000E-03 0.  1.
         23    2    1    2    0    0  0.00000000000E+00  0.00000000000E+00  0.71054273576E-14  0.91188000000E+02  0.91188000000E+02 0.  0.
    9900012    2    3    3    0    0 -0.53246668606E+01 -0.47701854385E+01  0.40025724238E+02  0.50528863916E+02  0.30000012360E+02 0.  0.
        -12    1    3    3    0    0  0.53246668606E+01  0.47701854385E+01 -0.40025724238E+02  0.40659136084E+02  0.00000000000E+00 0.  1.
         11    1    4    4    0    0 -0.36893811874E+01 -0.16728173700E+01  0.33342468658E+02  0.33587647550E+02  0.51100000000E-03 0. -1.
        -11    1    4    4    0    0  0.44222758801E+01 -0.63701897164E+01  0.63925849358E+01  0.10049924547E+02  0.51100000000E-03 0.  1.
         12    1    4    4    0    0 -0.60575615533E+01  0.32728216480E+01  0.29067064458E+00  0.68912918191E+01  0.00000000000E+00 0. -1.
</event>
<event>
 8    1  0.6016610E-012  0.9118800E+02  0.7816164E-02  0.1184000E+00
        -11   -1    0    0    0    0  0.00000000000E+00  0.00000000000E+00  0.45593999997E+02  0.45594000000E+02  0.51100000000E-03 0. -1.
         11   -1    0    0    0    0 -0.00000000000E+00 -0.00000000000E+00 -0.45593999997E+02  0.45594000000E+02  0.51100000000E-03 0.  1.
         23    2    1    2    0    0  0.00000000000E+00  0.00000000000E+00  0.00000000000E+00  0.91188000000E+02  0.91188000000E+02 0.  0.
    9900012    2    3    3    0    0 -0.35283118093E+02 -0.10488957601E+02  0.17269861137E+02  0.50528871165E+02  0.30000034394E+02 0.  0.
        -12    1    3    3    0    0  0.35283118093E+02  0.10488957601E+02 -0.17269861137E+02  0.40659128835E+02  0.00000000000E+00 0.  1.
         11    1    4    4    0    0 -0.12771529579E+02 -0.87984637567E+01  0.15826104312E+02  0.22158305671E+02  0.51100000000E-03 0. -1.
        -11    1    4    4    0    0 -0.31275183649E+01 -0.28864285817E+01 -0.61826747808E+01  0.75058849436E+01  0.51100000000E-03 0.  1.
        -12    1    4    4    0    0 -0.19384070148E+02  0.11959347376E+01  0.76264316066E+01  0.20864680550E+02  0.00000000000E+00 0.  1.
</event>
<event>
 8    1  0.6016610E-012  0.9118800E+02  0.7816164E-02  0.1184000E+00
        -11   -1    0    0    0    0  0.00000000000E+00  0.00000000000E+00  0.45593999997E+02  0.45594000000E+02  0.51100000000E-03 0. -1.
         11   -1    0    0    0    0 -0.00000000000E+00 -0.00000000000E+00 -0.45593999997E+02  0.45594000000E+02  0.51100000000E-03 0.  1.
         23    2    1    2    0    0  0.00000000000E+00  0.00000000000E+00  0.00000000000E+00  0.91188000000E+02  0.91188000000E+02 0.  0.
    9900012    2    3    3    0    0  0.54751185785E+01 -0.28203360752E+02  0.28770802787E+02  0.50528861123E+02  0.30000003870E+02 0.  0.
        -12    1    3    3    0    0 -0.54751185785E+01  0.28203360752E+02 -0.28770802787E+02  0.40659138877E+02  0.00000000000E+00 0.  1.
         11    1    4    4    0    0  0.23666736117E+01 -0.23600108673E+02  0.27803946088E+02  0.36546213096E+02  0.51100000000E-03 0. -1.
        -11    1    4    4    0    0  0.20833146353E+01 -0.36270338684E+01 -0.57543768404E+01  0.71139600529E+01  0.51100000000E-03 0.  1.
         12    1    4    4    0    0  0.10251303315E+01 -0.97621821110E+00  0.67212335399E+01  0.68686879744E+01  0.00000000000E+00 0. -1.
</event>
<event>
 8    1  0.6016610E-012  0.9118800E+02  0.7816164E-02  0.1184000E+00
        -11   -1    0    0    0    0  0.00000000000E+00  0.00000000000E+00  0.45593999997E+02  0.45594000000E+02  0.51100000000E-03 0. -1.
         11   -1    0    0    0    0 -0.00000000000E+00 -0.00000000000E+00 -0.45593999997E+02  0.45594000000E+02  0.51100000000E-03 0.  1.
         23    2    1    2    0    0  0.00000000000E+00  0.17763568394E-14  0.00000000000E+00  0.91188000000E+02  0.91188000000E+02 0.  0.
    9900012    2    3    3    0    0 -0.29256660452E+02  0.12891597350E+02 -0.25120061530E+02  0.50528893341E+02  0.30000101799E+02 0.  0.
         12    1    3    3    0    0  0.29256660452E+02 -0.12891597350E+02  0.25120061530E+02  0.40659106659E+02  0.00000000000E+00 0. -1.
         11    1    4    4    0    0  0.79967593998E+00 -0.59137368043E+01 -0.35567406229E+01  0.69470978631E+01  0.51100000000E-03 0. -1.
        -11    1    4    4    0    0 -0.17879552791E+02  0.18269790859E+02 -0.16211361533E+02  0.30269983631E+02  0.51100000000E-03 0.  1.
        -12    1    4    4    0    0 -0.12176783601E+02  0.53554329582E+00 -0.53519593746E+01  0.13311811847E+02  0.00000000000E+00 0.  1.
</event>
<event>
 8    1  0.6016610E-012  0.9118800E+02  0.7816164E-02  0.1184000E+00
        -11   -1    0    0    0    0  0.00000000000E+00  0.00000000000E+00  0.45593999997E+02  0.45594000000E+02  0.51100000000E-03 0. -1.
         11   -1    0    0    0    0 -0.00000000000E+00 -0.00000000000E+00 -0.45593999997E+02  0.45594000000E+02  0.51100000000E-03 0.  1.
         23    2    1    2    0    0  0.00000000000E+00  0.17763568394E-14 -0.17763568394E-14  0.91188000000E+02  0.91188000000E+02 0.  0.
    9900012    2    3    3    0    0  0.34825177654E+02  0.15704991000E+02  0.13918544197E+02  0.50528860640E+02  0.30000002401E+02 0.  0.
        -12    1    3    3    0    0 -0.34825177654E+02 -0.15704991000E+02 -0.13918544197E+02  0.40659139360E+02  0.00000000000E+00 0.  1.
         11    1    4    4    0    0  0.13039635652E+02  0.15912651685E+02 -0.19834668294E+01  0.20668302361E+02  0.51100000000E-03 0. -1.
        -11    1    4    4    0    0 -0.40498752468E+00 -0.26483038137E+01  0.32079276200E+01  0.41795128737E+01  0.51100000000E-03 0.  1.
         12    1    4    4    0    0  0.22190529526E+02  0.24406431291E+01  0.12694083407E+02  0.25681045405E+02  0.00000000000E+00 0. -1.
</event>
<event>
 8    1  0.6016610E-012  0.9118800E+02  0.7816164E-02  0.1184000E+00
        -11   -1    0    0    0    0  0.00000000000E+00  0.00000000000E+00  0.45593999997E+02  0.45594000000E+02  0.51100000000E-03 0. -1.
         11   -1    0    0    0    0 -0.00000000000E+00 -0.00000000000E+00 -0.45593999997E+02  0.45594000000E+02  0.51100000000E-03 0.  1.
         23    2    1    2    0    0 -0.35527136788E-14 -0.35527136788E-14  0.00000000000E+00  0.91188000000E+02  0.91188000000E+02 0.  0.
    9900012    2    3    3    0    0  0.27808869552E+02  0.17145445980E+02  0.24204669222E+02  0.50528861350E+02  0.30000004558E+02 0.  0.
        -12    1    3    3    0    0 -0.27808869552E+02 -0.17145445980E+02 -0.24204669222E+02  0.40659138650E+02  0.00000000000E+00 0.  1.
         11    1    4    4    0    0  0.21490846719E+02  0.23211939554E+02  0.25556096918E+02  0.40666506126E+02  0.51100000000E-03 0. -1.
        -11    1    4    4    0    0  0.40409017687E+01 -0.27773143632E+01 -0.27531873918E+01  0.56233800558E+01  0.51100000000E-03 0.  1.
         12    1    4    4    0    0  0.22771210650E+01 -0.32891792112E+01  0.14017596963E+01  0.42389751679E+01  0.00000000000E+00 0. -1.
</event>
<event>
 8    1  0.6016610E-012  0.9118800E+02  0.7816164E-02  0.1184000E+00
        -11   -1    0    0    0    0  0.00000000000E+00  0.00000000000E+00  0.45593999997E+02  0.45594000000E+02  0.51100000000E-03 0. -1.
         11   -1    0    0    0    0 -0.00000000000E+00 -0.00000000000E+00 -0.45593999997E+02  0.45594000000E+02  0.51100000000E-03 0.  1.
         23    2    1    2    0    0  0.00000000000E+00  0.00000000000E+00  0.00000000000E+00  0.91188000000E+02  0.91188000000E+02 0.  0.
    9900012    2    3    3    0    0  0.29145068660E+02 -0.21145335622E+02 -0.18883999243E+02  0.50528859906E+02  0.30000000171E+02 0.  0.
         12    1    3    3    0    0 -0.29145068660E+02  0.21145335622E+02  0.18883999243E+02  0.40659140094E+02  0.00000000000E+00 0. -1.
         11    1    4    4    0    0  0.46129235868E+00  0.17184007324E+01  0.50480754190E+00  0.18494654992E+01  0.51100000000E-03 0. -1.
        -11    1    4    4    0    0  0.32842281226E+02 -0.15882456251E+02 -0.15005500360E+02  0.39446582793E+02  0.51100000000E-03 0.  1.
        -12    1    4    4    0    0 -0.41585049248E+01 -0.69812801033E+01 -0.43833064251E+01  0.92328116144E+01  0.00000000000E+00 0.  1.
</event>
<event>
 8    1  0.6016610E-012  0.9118800E+02  0.7816164E-02  0.1184000E+00
        -11   -1    0    0    0    0  0.00000000000E+00  0.00000000000E+00  0.45593999997E+02  0.45594000000E+02  0.51100000000E-03 0. -1.
         11   -1    0    0    0    0 -0.00000000000E+00 -0.00000000000E+00 -0.45593999997E+02  0.45594000000E+02  0.51100000000E-03 0.  1.
         23    2    1    2    0    0 -0.88817841970E-15  0.00000000000E+00 -0.71054273576E-14  0.91188000000E+02  0.91188000000E+02 0.  0.
    9900012    2    3    3    0    0 -0.57221368978E+01  0.19306456690E+02 -0.35322612137E+02  0.50528818395E+02  0.29999873993E+02 0.  0.
         12    1    3    3    0    0  0.57221368978E+01 -0.19306456690E+02  0.35322612137E+02  0.40659181605E+02  0.00000000000E+00 0. -1.
         11    1    4    4    0    0  0.12961931991E+01 -0.54248191686E+01 -0.82557619888E+01  0.99632517833E+01  0.51100000000E-03 0. -1.
        -11    1    4    4    0    0 -0.35114814759E+01  0.23175332445E+02 -0.14820147711E+02  0.27731990814E+02  0.51100000000E-03 0.  1.
        -12    1    4    4    0    0 -0.35068486209E+01  0.15559434142E+01 -0.12246702438E+02  0.12833575798E+02  0.00000000000E+00 0.  1.
</event>
<event>
 8    1  0.6016610E-012  0.9118800E+02  0.7816164E-02  0.1184000E+00
        -11   -1    0    0    0    0  0.00000000000E+00  0.00000000000E+00  0.45593999997E+02  0.45594000000E+02  0.51100000000E-03 0. -1.
         11   -1    0    0    0    0 -0.00000000000E+00 -0.00000000000E+00 -0.45593999997E+02  0.45594000000E+02  0.51100000000E-03 0.  1.
         23    2    1    2    0    0  0.00000000000E+00  0.00000000000E+00  0.00000000000E+00  0.91188000000E+02  0.91188000000E+02 0.  0.
    9900012    2    3    3    0    0 -0.12156822477E+02 -0.14356088342E+02 -0.36045505461E+02  0.50528879631E+02  0.30000060126E+02 0.  0.
         12    1    3    3    0    0  0.12156822477E+02  0.14356088342E+02  0.36045505461E+02  0.40659120369E+02  0.00000000000E+00 0. -1.
         11    1    4    4    0    0 -0.10098864376E+02 -0.11308487876E+02 -0.51862920138E+01  0.16023937869E+02  0.51100000000E-03 0. -1.
        -11    1    4    4    0    0 -0.70923098490E+01 -0.17696313518E+01 -0.27164649534E+02  0.28130955168E+02  0.51100000000E-03 0.  1.
        -12    1    4    4    0    0  0.50343517483E+01 -0.12779691145E+01 -0.36945639135E+01  0.63739865935E+01  0.00000000000E+00 0.  1.
</event>
<event>
 8    1  0.6016610E-012  0.9118800E+02  0.7816164E-02  0.1184000E+00
        -11   -1    0    0    0    0  0.00000000000E+00  0.00000000000E+00  0.45593999997E+02  0.45594000000E+02  0.51100000000E-03 0. -1.
         11   -1    0    0    0    0 -0.00000000000E+00 -0.00000000000E+00 -0.45593999997E+02  0.45594000000E+02  0.51100000000E-03 0.  1.
         23    2    1    2    0    0  0.00000000000E+00  0.88817841970E-15  0.00000000000E+00  0.91188000000E+02  0.91188000000E+02 0.  0.
    9900012    2    3    3    0    0  0.86538905700E+01  0.50308503427E+01 -0.39407690790E+02  0.50528863627E+02  0.30000011480E+02 0.  0.
         12    1    3    3    0    0 -0.86538905700E+01 -0.50308503427E+01  0.39407690790E+02  0.40659136373E+02  0.00000000000E+00 0. -1.
         11    1    4    4    0    0  0.62679154125E+01  0.70310774495E+01 -0.30247247070E+02  0.31679942697E+02  0.51100000000E-03 0.  1.
        -11    1    4    4    0    0  0.21485261633E+01 -0.84610266305E+01 -0.15551492381E+01  0.88669964323E+01  0.51100000000E-03 0. -1.
         12    1    4    4    0    0  0.23744899414E+00  0.64607995236E+01 -0.76052944824E+01  0.99819244975E+01  0.00000000000E+00 0. -1.
</event>
<event>
 8    1  0.6016610E-012  0.9118800E+02  0.7816164E-02  0.1184000E+00
        -11   -1    0    0    0    0  0.00000000000E+00  0.00000000000E+00  0.45593999997E+02  0.45594000000E+02  0.51100000000E-03 0. -1.
         11   -1    0    0    0    0 -0.00000000000E+00 -0.00000000000E+00 -0.45593999997E+02  0.45594000000E+02  0.51100000000E-03 0.  1.
         23    2    1    2    0    0  0.00000000000E+00  0.35527136788E-14  0.00000000000E+00  0.91188000000E+02  0.91188000000E+02 0.  0.
    9900012    2    3    3    0    0 -0.25501267285E+02  0.16475239793E+02 -0.27044730212E+02  0.50528860909E+02  0.30000003220E+02 0.  0.
         12    1    3    3    0    0  0.25501267285E+02 -0.16475239793E+02  0.27044730212E+02  0.40659139091E+02  0.00000000000E+00 0. -1.
         11    1    4    4    0    0 -0.44580668338E+01 -0.69277101678E+01 -0.29681791178E+01  0.87565755636E+01  0.51100000000E-03 0. -1.
        -11    1    4    4    0    0 -0.21001992802E+02  0.16148513706E+02 -0.16149928287E+02  0.31027058844E+02  0.51100000000E-03 0.  1.
        -12    1    4    4    0    0 -0.41207648854E-01  0.72544362555E+01 -0.79266228069E+01  0.10745226502E+02  0.00000000000E+00 0.  1.
</event>
<event>
 8    1  0.6016610E-012  0.9118800E+02  0.7816164E-02  0.1184000E+00
        -11   -1    0    0    0    0  0.00000000000E+00  0.00000000000E+00  0.45593999997E+02  0.45594000000E+02  0.51100000000E-03 0.  1.
         11   -1    0    0    0    0 -0.00000000000E+00 -0.00000000000E+00 -0.45593999997E+02  0.45594000000E+02  0.51100000000E-03 0. -1.
         23    2    1    2    0    0  0.17763568394E-14  0.00000000000E+00  0.17763568394E-14  0.91188000000E+02  0.91188000000E+02 0.  0.
    9900012    2    3    3    0    0 -0.11627729425E+02 -0.36363774757E+02 -0.13987066923E+02  0.50528852847E+02  0.29999978713E+02 0.  0.
         12    1    3    3    0    0  0.11627729425E+02  0.36363774757E+02  0.13987066923E+02  0.40659147153E+02  0.00000000000E+00 0. -1.
         11    1    4    4    0    0  0.29047445712E+01 -0.31597551351E+01  0.18970156049E+01  0.46925751996E+01  0.51100000000E-03 0.  1.
        -11    1    4    4    0    0 -0.36663461268E+01 -0.23128984776E+02 -0.19624322001E+02  0.30553331160E+02  0.51100000000E-03 0. -1.
        -12    1    4    4    0    0 -0.10866127870E+02 -0.10075034845E+02  0.37402394735E+01  0.15282946487E+02  0.00000000000E+00 0.  1.
</event>
<event>
 8    1  0.6016610E-012  0.9118800E+02  0.7816164E-02  0.1184000E+00
        -11   -1    0    0    0    0  0.00000000000E+00  0.00000000000E+00  0.45593999997E+02  0.45594000000E+02  0.51100000000E-03 0. -1.
         11   -1    0    0    0    0 -0.00000000000E+00 -0.00000000000E+00 -0.45593999997E+02  0.45594000000E+02  0.51100000000E-03 0.  1.
         23    2    1    2    0    0  0.17763568394E-14 -0.35527136788E-14  0.71054273576E-14  0.91188000000E+02  0.91188000000E+02 0.  0.
    9900012    2    3    3    0    0  0.11923351013E+02 -0.20569006740E+02  0.32983591091E+02  0.50528835979E+02  0.29999927442E+02 0.  0.
        -12    1    3    3    0    0 -0.11923351013E+02  0.20569006740E+02 -0.32983591091E+02  0.40659164021E+02  0.00000000000E+00 0.  1.
         11    1    4    4    0    0 -0.13073550074E+01 -0.22914755076E+01  0.96472065533E+01  0.10001431481E+02  0.51100000000E-03 0. -1.
        -11    1    4    4    0    0  0.17121935489E+01 -0.41236558462E+01 -0.50754802658E+01  0.67599293249E+01  0.51100000000E-03 0.  1.
        -12    1    4    4    0    0  0.11518512471E+02 -0.14153875386E+02  0.28411864803E+02  0.33767475174E+02  0.00000000000E+00 0.  1.
</event>
<event>
 8    1  0.6016610E-012  0.9118800E+02  0.7816164E-02  0.1184000E+00
        -11   -1    0    0    0    0  0.00000000000E+00  0.00000000000E+00  0.45593999997E+02  0.45594000000E+02  0.51100000000E-03 0. -1.
         11   -1    0    0    0    0 -0.00000000000E+00 -0.00000000000E+00 -0.45593999997E+02  0.45594000000E+02  0.51100000000E-03 0.  1.
         23    2    1    2    0    0 -0.35527136788E-14 -0.35527136788E-14  0.35527136788E-14  0.91188000000E+02  0.91188000000E+02 0.  0.
    9900012    2    3    3    0    0  0.31707718288E+02 -0.17978780905E+02  0.18015274211E+02  0.50528855066E+02  0.29999985458E+02 0.  0.
        -12    1    3    3    0    0 -0.31707718288E+02  0.17978780905E+02 -0.18015274211E+02  0.40659144934E+02  0.00000000000E+00 0.  1.
         11    1    4    4    0    0  0.14906173599E+02 -0.17357764638E+02 -0.13949605663E+01  0.22922301801E+02  0.51100000000E-03 0. -1.
        -11    1    4    4    0    0  0.16721871275E+02 -0.22090787679E+01  0.13854302009E+02  0.21827567257E+02  0.51100000000E-03 0.  1.
         12    1    4    4    0    0  0.79673414413E-01  0.15880625011E+01  0.55559327680E+01  0.57789860082E+01  0.00000000000E+00 0. -1.
</event>
<event>
 8    1  0.6016610E-012  0.9118800E+02  0.7816164E-02  0.1184000E+00
        -11   -1    0    0    0    0  0.00000000000E+00  0.00000000000E+00  0.45593999997E+02  0.45594000000E+02  0.51100000000E-03 0. -1.
         11   -1    0    0    0    0 -0.00000000000E+00 -0.00000000000E+00 -0.45593999997E+02  0.45594000000E+02  0.51100000000E-03 0.  1.
         23    2    1    2    0    0  0.00000000000E+00  0.35527136788E-14  0.00000000000E+00  0.91188000000E+02  0.91188000000E+02 0.  0.
    9900012    2    3    3    0    0 -0.86675914540E+01 -0.26899519984E+02 -0.29231046507E+02  0.50528863304E+02  0.30000010498E+02 0.  0.
         12    1    3    3    0    0  0.86675914540E+01  0.26899519984E+02  0.29231046507E+02  0.40659136696E+02  0.00000000000E+00 0. -1.
         11    1    4    4    0    0  0.59645145176E+01 -0.76540405302E+01 -0.71283196823E+01  0.12040461437E+02  0.51100000000E-03 0. -1.
        -11    1    4    4    0    0 -0.13497442761E+02 -0.21357415008E+02 -0.11753508997E+02  0.27865123558E+02  0.51100000000E-03 0.  1.
        -12    1    4    4    0    0 -0.11346632109E+01  0.21119355533E+01 -0.10349217828E+02  0.10623278309E+02  0.00000000000E+00 0.  1.
</event>
<event>
 8    1  0.6016610E-012  0.9118800E+02  0.7816164E-02  0.1184000E+00
        -11   -1    0    0    0    0  0.00000000000E+00  0.00000000000E+00  0.45593999997E+02  0.45594000000E+02  0.51100000000E-03 0. -1.
         11   -1    0    0    0    0 -0.00000000000E+00 -0.00000000000E+00 -0.45593999997E+02  0.45594000000E+02  0.51100000000E-03 0.  1.
         23    2    1    2    0    0  0.00000000000E+00  0.00000000000E+00  0.00000000000E+00  0.91188000000E+02  0.91188000000E+02 0.  0.
    9900012    2    3    3    0    0  0.16561099783E+02  0.25025667068E+02  0.27433772690E+02  0.50528856843E+02  0.29999990861E+02 0.  0.
        -12    1    3    3    0    0 -0.16561099783E+02 -0.25025667068E+02 -0.27433772690E+02  0.40659143157E+02  0.00000000000E+00 0.  1.
         11    1    4    4    0    0  0.81635734215E+01 -0.22387347086E+01  0.12697405119E+02  0.15260405012E+02  0.51100000000E-03 0. -1.
        -11    1    4    4    0    0  0.99662815768E+01  0.23717306272E+02  0.16944809397E+02  0.30805258497E+02  0.51100000000E-03 0.  1.
        -12    1    4    4    0    0 -0.15687552156E+01  0.35470955048E+01 -0.22084418263E+01  0.44631933351E+01  0.00000000000E+00 0.  1.
</event>
<event>
 8    1  0.6016610E-012  0.9118800E+02  0.7816164E-02  0.1184000E+00
        -11   -1    0    0    0    0  0.00000000000E+00  0.00000000000E+00  0.45593999997E+02  0.45594000000E+02  0.51100000000E-03 0. -1.
         11   -1    0    0    0    0 -0.00000000000E+00 -0.00000000000E+00 -0.45593999997E+02  0.45594000000E+02  0.51100000000E-03 0.  1.
         23    2    1    2    0    0  0.00000000000E+00 -0.17763568394E-14  0.00000000000E+00  0.91188000000E+02  0.91188000000E+02 0.  0.
    9900012    2    3    3    0    0 -0.34234841897E+02  0.15361955535E+02  0.15657307645E+02  0.50528863754E+02  0.30000011867E+02 0.  0.
        -12    1    3    3    0    0  0.34234841897E+02 -0.15361955535E+02 -0.15657307645E+02  0.40659136246E+02  0.00000000000E+00 0.  1.
         11    1    4    4    0    0 -0.27825624243E+02  0.19994534632E+02  0.16646664901E+02  0.38094070828E+02  0.51100000000E-03 0. -1.
        -11    1    4    4    0    0 -0.11239630091E+01 -0.60927560109E+01  0.15583931981E+01  0.63885489960E+01  0.51100000000E-03 0.  1.
         12    1    4    4    0    0 -0.52852546450E+01  0.14601769140E+01 -0.25477504542E+01  0.60462439298E+01  0.00000000000E+00 0. -1.
</event>
<event>
 8    1  0.6016610E-012  0.9118800E+02  0.7816164E-02  0.1184000E+00
        -11   -1    0    0    0    0  0.00000000000E+00  0.00000000000E+00  0.45593999997E+02  0.45594000000E+02  0.51100000000E-03 0. -1.
         11   -1    0    0    0    0 -0.00000000000E+00 -0.00000000000E+00 -0.45593999997E+02  0.45594000000E+02  0.51100000000E-03 0.  1.
         23    2    1    2    0    0  0.00000000000E+00 -0.44408920985E-15  0.00000000000E+00  0.91188000000E+02  0.91188000000E+02 0.  0.
    9900012    2    3    3    0    0 -0.36215427883E+02 -0.21014949973E+01 -0.18362780660E+02  0.50528865583E+02  0.30000017425E+02 0.  0.
         12    1    3    3    0    0  0.36215427883E+02  0.21014949973E+01  0.18362780660E+02  0.40659134417E+02  0.00000000000E+00 0. -1.
         11    1    4    4    0    0  0.55146827883E+00  0.67742929059E+00  0.21584318635E+01  0.23284879379E+01  0.51100000000E-03 0. -1.
        -11    1    4    4    0    0 -0.30818316938E+02 -0.82219228240E+01 -0.73101792431E+01  0.32723193528E+02  0.51100000000E-03 0.  1.
        -12    1    4    4    0    0 -0.59485792239E+01  0.54429985361E+01 -0.13211033281E+02  0.15477184117E+02  0.00000000000E+00 0.  1.
</event>
<event>
 8    1  0.6016610E-012  0.9118800E+02  0.7816164E-02  0.1184000E+00
        -11   -1    0    0    0    0  0.00000000000E+00  0.00000000000E+00  0.45593999997E+02  0.45594000000E+02  0.51100000000E-03 0. -1.
         11   -1    0    0    0    0 -0.00000000000E+00 -0.00000000000E+00 -0.45593999997E+02  0.45594000000E+02  0.51100000000E-03 0.  1.
         23    2    1    2    0    0  0.00000000000E+00  0.71054273576E-14  0.35527136788E-14  0.91188000000E+02  0.91188000000E+02 0.  0.
    9900012    2    3    3    0    0  0.11690459788E+02 -0.32299901919E+02 -0.21753565516E+02  0.50528829734E+02  0.29999908459E+02 0.  0.
         12    1    3    3    0    0 -0.11690459788E+02  0.32299901919E+02  0.21753565516E+02  0.40659170266E+02  0.00000000000E+00 0. -1.
         11    1    4    4    0    0  0.13142192502E+02 -0.69967302771E+01  0.15154712057E+01  0.14965564191E+02  0.51100000000E-03 0. -1.
        -11    1    4    4    0    0  0.14174278680E+01 -0.22661102165E+02 -0.21539291107E+02  0.31296576726E+02  0.51100000000E-03 0.  1.
        -12    1    4    4    0    0 -0.28691605816E+01 -0.26420694769E+01 -0.17297456148E+01  0.42666888164E+01  0.00000000000E+00 0.  1.
</event>
<event>
 8    1  0.6016610E-012  0.9118800E+02  0.7816164E-02  0.1184000E+00
        -11   -1    0    0    0    0  0.00000000000E+00  0.00000000000E+00  0.45593999997E+02  0.45594000000E+02  0.51100000000E-03 0. -1.
         11   -1    0    0    0    0 -0.00000000000E+00 -0.00000000000E+00 -0.45593999997E+02  0.45594000000E+02  0.51100000000E-03 0.  1.
         23    2    1    2    0    0  0.00000000000E+00 -0.88817841970E-15  0.00000000000E+00  0.91188000000E+02  0.91188000000E+02 0.  0.
    9900012    2    3    3    0    0 -0.26138605251E+02 -0.26409434207E+01  0.31031644450E+02  0.50528877728E+02  0.30000054343E+02 0.  0.
        -12    1    3    3    0    0  0.26138605251E+02  0.26409434207E+01 -0.31031644450E+02  0.40659122272E+02  0.00000000000E+00 0.  1.
         11    1    4    4    0    0 -0.16817342324E+01 -0.63884048159E+01  0.21685096658E+01  0.69528685125E+01  0.51100000000E-03 0. -1.
        -11    1    4    4    0    0 -0.26550630475E+02  0.57793737979E+01  0.29971224288E+02  0.40455054390E+02  0.51100000000E-03 0.  1.
        -12    1    4    4    0    0  0.20937594566E+01 -0.20319124027E+01 -0.11080895039E+01  0.31209548255E+01  0.00000000000E+00 0.  1.
</event>
<event>
 8    1  0.6016610E-012  0.9118800E+02  0.7816164E-02  0.1184000E+00
        -11   -1    0    0    0    0  0.00000000000E+00  0.00000000000E+00  0.45593999997E+02  0.45594000000E+02  0.51100000000E-03 0.  1.
         11   -1    0    0    0    0 -0.00000000000E+00 -0.00000000000E+00 -0.45593999997E+02  0.45594000000E+02  0.51100000000E-03 0. -1.
         23    2    1    2    0    0  0.00000000000E+00 -0.35527136788E-14  0.88817841970E-15  0.91188000000E+02  0.91188000000E+02 0.  0.
    9900012    2    3    3    0    0 -0.26578653054E+02 -0.30326055385E+02  0.52030516631E+01  0.50528853674E+02  0.29999981226E+02 0.  0.
         12    1    3    3    0    0  0.26578653054E+02  0.30326055385E+02 -0.52030516631E+01  0.40659146326E+02  0.00000000000E+00 0. -1.
         11    1    4    4    0    0 -0.41427639915E+01 -0.13047365392E+02 -0.59454915853E+01  0.14924647655E+02  0.51100000000E-03 0. -1.
        -11    1    4    4    0    0 -0.15036585477E+02 -0.24606381798E+01  0.11416703846E+02  0.19039295419E+02  0.51100000000E-03 0.  1.
        -12    1    4    4    0    0 -0.73993035850E+01 -0.14818051813E+02 -0.26816059794E+00  0.16564910600E+02  0.00000000000E+00 0.  1.
</event>
<event>
 8    1  0.6016610E-012  0.9118800E+02  0.7816164E-02  0.1184000E+00
        -11   -1    0    0    0    0  0.00000000000E+00  0.00000000000E+00  0.45593999997E+02  0.45594000000E+02  0.51100000000E-03 0. -1.
         11   -1    0    0    0    0 -0.00000000000E+00 -0.00000000000E+00 -0.45593999997E+02  0.45594000000E+02  0.51100000000E-03 0.  1.
         23    2    1    2    0    0  0.00000000000E+00  0.00000000000E+00  0.00000000000E+00  0.91188000000E+02  0.91188000000E+02 0.  0.
    9900012    2    3    3    0    0 -0.34278732682E+02 -0.14190624772E+02  0.16636098804E+02  0.50528866597E+02  0.30000020508E+02 0.  0.
         12    1    3    3    0    0  0.34278732682E+02  0.14190624772E+02 -0.16636098804E+02  0.40659133403E+02  0.00000000000E+00 0. -1.
         11    1    4    4    0    0 -0.10400760437E+01  0.63156175752E+01 -0.18595612760E+00  0.64033868754E+01  0.51100000000E-03 0. -1.
        -11    1    4    4    0    0 -0.91561561951E+01 -0.95425115640E+01  0.10586023323E+02  0.16939852812E+02  0.51100000000E-03 0.  1.
         12    1    4    4    0    0 -0.24082500443E+02 -0.10963730783E+02  0.62360316085E+01  0.27185626910E+02  0.00000000000E+00 0. -1.
</event>
<event>
 8    1  0.6016610E-012  0.9118800E+02  0.7816164E-02  0.1184000E+00
        -11   -1    0    0    0    0  0.00000000000E+00  0.00000000000E+00  0.45593999997E+02  0.45594000000E+02  0.51100000000E-03 0. -1.
         11   -1    0    0    0    0 -0.00000000000E+00 -0.00000000000E+00 -0.45593999997E+02  0.45594000000E+02  0.51100000000E-03 0.  1.
         23    2    1    2    0    0  0.00000000000E+00  0.00000000000E+00  0.00000000000E+00  0.91188000000E+02  0.91188000000E+02 0.  0.
    9900012    2    3    3    0    0  0.19041378440E+02  0.24215850163E+02  0.26536435867E+02  0.50528881459E+02  0.30000065682E+02 0.  0.
        -12    1    3    3    0    0 -0.19041378440E+02 -0.24215850163E+02 -0.26536435867E+02  0.40659118541E+02  0.00000000000E+00 0.  1.
         11    1    4    4    0    0  0.13074069032E+02  0.17943224545E+02  0.17030589149E+01  0.22266364725E+02  0.51100000000E-03 0. -1.
        -11    1    4    4    0    0 -0.10196045051E+01  0.37708597412E+01  0.17114857701E+02  0.17554980232E+02  0.51100000000E-03 0.  1.
         12    1    4    4    0    0  0.69869139128E+01  0.25017658774E+01  0.77185192507E+01  0.10707536503E+02  0.00000000000E+00 0. -1.
</event>
<event>
 8    1  0.6016610E-012  0.9118800E+02  0.7816164E-02  0.1184000E+00
        -11   -1    0    0    0    0  0.00000000000E+00  0.00000000000E+00  0.45593999997E+02  0.45594000000E+02  0.51100000000E-03 0. -1.
         11   -1    0    0    0    0 -0.00000000000E+00 -0.00000000000E+00 -0.45593999997E+02  0.45594000000E+02  0.51100000000E-03 0.  1.
         23    2    1    2    0    0  0.00000000000E+00 -0.11102230246E-15  0.00000000000E+00  0.91188000000E+02  0.91188000000E+02 0.  0.
    9900012    2    3    3    0    0  0.21920856335E+02 -0.82410312888E+00  0.34233966557E+02  0.50528836769E+02  0.29999929843E+02 0.  0.
        -12    1    3    3    0    0 -0.21920856335E+02  0.82410312888E+00 -0.34233966557E+02  0.40659163231E+02  0.00000000000E+00 0.  1.
         11    1    4    4    0    0  0.20998779691E+02  0.10765284539E+02  0.28289530069E+02  0.36839348685E+02  0.51100000000E-03 0. -1.
        -11    1    4    4    0    0 -0.10227404044E+01 -0.91694540598E+01  0.45064434708E+01  0.10268053307E+02  0.51100000000E-03 0.  1.
        -12    1    4    4    0    0  0.19448170487E+01 -0.24199336085E+01  0.14379930170E+01  0.34214347779E+01  0.00000000000E+00 0.  1.
</event>
<event>
 8    1  0.6016610E-012  0.9118800E+02  0.7816164E-02  0.1184000E+00
        -11   -1    0    0    0    0  0.00000000000E+00  0.00000000000E+00  0.45593999997E+02  0.45594000000E+02  0.51100000000E-03 0. -1.
         11   -1    0    0    0    0 -0.00000000000E+00 -0.00000000000E+00 -0.45593999997E+02  0.45594000000E+02  0.51100000000E-03 0.  1.
         23    2    1    2    0    0  0.00000000000E+00  0.00000000000E+00  0.00000000000E+00  0.91188000000E+02  0.91188000000E+02 0.  0.
    9900012    2    3    3    0    0  0.10047742893E+02 -0.25309479698E+02 -0.30193366077E+02  0.50528852752E+02  0.29999978426E+02 0.  0.
         12    1    3    3    0    0 -0.10047742893E+02  0.25309479698E+02  0.30193366077E+02  0.40659147248E+02  0.00000000000E+00 0. -1.
         11    1    4    4    0    0  0.33451296181E+01  0.56957467798E+01 -0.58123160849E+01  0.87985477252E+01  0.51100000000E-03 0. -1.
        -11    1    4    4    0    0  0.58476619631E+01 -0.19666749170E+02 -0.22057060899E+02  0.30124576497E+02  0.51100000000E-03 0.  1.
         12    1    4    4    0    0  0.85495131186E+00 -0.11338477308E+02 -0.23239890929E+01  0.11605728530E+02  0.00000000000E+00 0. -1.
</event>
<event>
 8    1  0.6016610E-012  0.9118800E+02  0.7816164E-02  0.1184000E+00
        -11   -1    0    0    0    0  0.00000000000E+00  0.00000000000E+00  0.45593999997E+02  0.45594000000E+02  0.51100000000E-03 0. -1.
         11   -1    0    0    0    0 -0.00000000000E+00 -0.00000000000E+00 -0.45593999997E+02  0.45594000000E+02  0.51100000000E-03 0.  1.
         23    2    1    2    0    0  0.00000000000E+00  0.17763568394E-14  0.00000000000E+00  0.91188000000E+02  0.91188000000E+02 0.  0.
    9900012    2    3    3    0    0  0.29871354030E+02  0.10051253769E+02  0.25687353450E+02  0.50528860545E+02  0.30000002113E+02 0.  0.
        -12    1    3    3    0    0 -0.29871354030E+02 -0.10051253769E+02 -0.25687353450E+02  0.40659139455E+02  0.00000000000E+00 0.  1.
         11    1    4    4    0    0  0.14147890806E+01 -0.40379858110E+01  0.15051579830E+02  0.15647907630E+02  0.51100000000E-03 0. -1.
        -11    1    4    4    0    0  0.19727653744E+02  0.13706953589E+02  0.51613674923E+01  0.24570319770E+02  0.51100000000E-03 0.  1.
         12    1    4    4    0    0  0.87289112054E+01  0.38228599146E+00  0.54744061280E+01  0.10310633146E+02  0.00000000000E+00 0. -1.
</event>
<event>
 8    1  0.6016610E-012  0.9118800E+02  0.7816164E-02  0.1184000E+00
        -11   -1    0    0    0    0  0.00000000000E+00  0.00000000000E+00  0.45593999997E+02  0.45594000000E+02  0.51100000000E-03 0. -1.
         11   -1    0    0    0    0 -0.00000000000E+00 -0.00000000000E+00 -0.45593999997E+02  0.45594000000E+02  0.51100000000E-03 0.  1.
         23    2    1    2    0    0 -0.35527136788E-14  0.00000000000E+00  0.35527136788E-14  0.91188000000E+02  0.91188000000E+02 0.  0.
    9900012    2    3    3    0    0  0.27717663668E+02  0.13610444108E+02  0.26450942168E+02  0.50528863147E+02  0.30000010023E+02 0.  0.
        -12    1    3    3    0    0 -0.27717663668E+02 -0.13610444108E+02 -0.26450942168E+02  0.40659136853E+02  0.00000000000E+00 0.  1.
         11    1    4    4    0    0  0.17255330114E+02  0.77153846983E+01  0.28180011406E+02  0.33932088375E+02  0.51100000000E-03 0. -1.
        -11    1    4    4    0    0  0.35922395824E+00  0.86233340399E+00  0.38812865193E+01  0.39921230014E+01  0.51100000000E-03 0.  1.
         12    1    4    4    0    0  0.10103109595E+02  0.50327260057E+01 -0.56103557572E+01  0.12604651771E+02  0.00000000000E+00 0. -1.
</event>
<event>
 8    1  0.6016610E-012  0.9118800E+02  0.7816164E-02  0.1184000E+00
        -11   -1    0    0    0    0  0.00000000000E+00  0.00000000000E+00  0.45593999997E+02  0.45594000000E+02  0.51100000000E-03 0. -1.
         11   -1    0    0    0    0 -0.00000000000E+00 -0.00000000000E+00 -0.45593999997E+02  0.45594000000E+02  0.51100000000E-03 0.  1.
         23    2    1    2    0    0 -0.17763568394E-14  0.00000000000E+00  0.35527136788E-14  0.91188000000E+02  0.91188000000E+02 0.  0.
    9900012    2    3    3    0    0 -0.89732331088E+01  0.34695422465E+02  0.19206100122E+02  0.50528861613E+02  0.30000005360E+02 0.  0.
        -12    1    3    3    0    0  0.89732331088E+01 -0.34695422465E+02 -0.19206100122E+02  0.40659138387E+02  0.00000000000E+00 0.  1.
         11    1    4    4    0    0 -0.60221953061E+01  0.24129915473E+02  0.19640144130E+02  0.31689981362E+02  0.51100000000E-03 0. -1.
        -11    1    4    4    0    0  0.19899782843E+01  0.22707398636E+01 -0.66862809756E+01  0.73363905734E+01  0.51100000000E-03 0.  1.
        -12    1    4    4    0    0 -0.49410160871E+01  0.82947671285E+01  0.62522369676E+01  0.11502489678E+02  0.00000000000E+00 0.  1.
</event>
<event>
 8    1  0.6016610E-012  0.9118800E+02  0.7816164E-02  0.1184000E+00
        -11   -1    0    0    0    0  0.00000000000E+00  0.00000000000E+00  0.45593999997E+02  0.45594000000E+02  0.51100000000E-03 0. -1.
         11   -1    0    0    0    0 -0.00000000000E+00 -0.00000000000E+00 -0.45593999997E+02  0.45594000000E+02  0.51100000000E-03 0.  1.
         23    2    1    2    0    0  0.00000000000E+00  0.00000000000E+00  0.00000000000E+00  0.91188000000E+02  0.91188000000E+02 0.  0.
    9900012    2    3    3    0    0  0.70573615198E+01 -0.50457795355E+01  0.39722772582E+02  0.50528869361E+02  0.30000028910E+02 0.  0.
        -12    1    3    3    0    0 -0.70573615198E+01  0.50457795355E+01 -0.39722772582E+02  0.40659130639E+02  0.00000000000E+00 0.  1.
         11    1    4    4    0    0 -0.66792781793E+01 -0.29641883492E+01  0.16222139456E+02  0.17792048178E+02  0.51100000000E-03 0. -1.
        -11    1    4    4    0    0  0.69880443513E+01 -0.11141907552E+01 -0.11425664537E+01  0.71679594905E+01  0.51100000000E-03 0.  1.
        -12    1    4    4    0    0  0.67485953479E+01 -0.96740043120E+00  0.24643199579E+02  0.25568861693E+02  0.00000000000E+00 0.  1.
</event>
<event>
 8    1  0.6016610E-012  0.9118800E+02  0.7816164E-02  0.1184000E+00
        -11   -1    0    0    0    0  0.00000000000E+00  0.00000000000E+00  0.45593999997E+02  0.45594000000E+02  0.51100000000E-03 0. -1.
         11   -1    0    0    0    0 -0.00000000000E+00 -0.00000000000E+00 -0.45593999997E+02  0.45594000000E+02  0.51100000000E-03 0.  1.
         23    2    1    2    0    0  0.00000000000E+00  0.00000000000E+00  0.00000000000E+00  0.91188000000E+02  0.91188000000E+02 0.  0.
    9900012    2    3    3    0    0 -0.10861785039E+01  0.24934696272E+02 -0.32097491818E+02  0.50528833224E+02  0.29999919068E+02 0.  0.
         12    1    3    3    0    0  0.10861785039E+01 -0.24934696272E+02  0.32097491818E+02  0.40659166776E+02  0.00000000000E+00 0. -1.
         11    1    4    4    0    0 -0.48723664561E+01  0.30810782039E+01 -0.11451029382E+01  0.58774364123E+01  0.51100000000E-03 0. -1.
        -11    1    4    4    0    0  0.78903972087E+01  0.37343342719E+00 -0.16905359511E+02  0.18659823179E+02  0.51100000000E-03 0.  1.
        -12    1    4    4    0    0 -0.41042092565E+01  0.21480184641E+02 -0.14047029369E+02  0.25991573633E+02  0.00000000000E+00 0.  1.
</event>
<event>
 8    1  0.6873168E-012  0.9118800E+02  0.7816164E-02  0.1184000E+00
        -11   -1    0    0    0    0  0.00000000000E+00  0.00000000000E+00  0.45593999997E+02  0.45594000000E+02  0.51100000000E-03 0. -1.
         11   -1    0    0    0    0 -0.00000000000E+00 -0.00000000000E+00 -0.45593999997E+02  0.45594000000E+02  0.51100000000E-03 0.  1.
         23    2    1    2    0    0  0.22204460493E-15 -0.44408920985E-15  0.00000000000E+00  0.91188000000E+02  0.91188000000E+02 0.  0.
    9900012    2    3    3    0    0  0.98105208454E+00  0.27631956103E+01  0.40553270192E+02  0.50528862817E+02  0.30000009018E+02 0.  0.
        -12    1    3    3    0    0 -0.98105208454E+00 -0.27631956103E+01 -0.40553270192E+02  0.40659137183E+02  0.00000000000E+00 0.  1.
         11    1    4    4    0    0 -0.42115552321E+01  0.37309138347E+01  0.15215545633E+02  0.16222507349E+02  0.51100000000E-03 0. -1.
        -11    1    4    4    0    0  0.84114485888E+01 -0.53575297690E+01  0.26862004302E+02  0.28653496610E+02  0.51100000000E-03 0.  1.
        -12    1    4    4    0    0 -0.32188412722E+01  0.43898115446E+01 -0.15242797428E+01  0.56528588579E+01  0.00000000000E+00 0.  1.
</event>
<event>
 8    1  0.6016610E-012  0.9118800E+02  0.7816164E-02  0.1184000E+00
        -11   -1    0    0    0    0  0.00000000000E+00  0.00000000000E+00  0.45593999997E+02  0.45594000000E+02  0.51100000000E-03 0. -1.
         11   -1    0    0    0    0 -0.00000000000E+00 -0.00000000000E+00 -0.45593999997E+02  0.45594000000E+02  0.51100000000E-03 0.  1.
         23    2    1    2    0    0 -0.35527136788E-14 -0.17763568394E-14  0.35527136788E-14  0.91188000000E+02  0.91188000000E+02 0.  0.
    9900012    2    3    3    0    0 -0.27464198420E+02 -0.15204393177E+02  0.25840060551E+02  0.50528874382E+02  0.30000044173E+02 0.  0.
        -12    1    3    3    0    0  0.27464198420E+02  0.15204393177E+02 -0.25840060551E+02  0.40659125618E+02  0.00000000000E+00 0.  1.
         11    1    4    4    0    0 -0.13810444172E+02 -0.12093795974E+02  0.85031243917E+01  0.20230951386E+02  0.51100000000E-03 0. -1.
        -11    1    4    4    0    0  0.82835960513E+00  0.11057862559E+01 -0.39637016858E+01  0.41976033869E+01  0.51100000000E-03 0.  1.
        -12    1    4    4    0    0 -0.14482113853E+02 -0.42163834583E+01  0.21300637845E+02  0.26100319610E+02  0.00000000000E+00 0.  1.
</event>
<event>
 8    1  0.6016610E-012  0.9118800E+02  0.7816164E-02  0.1184000E+00
        -11   -1    0    0    0    0  0.00000000000E+00  0.00000000000E+00  0.45593999997E+02  0.45594000000E+02  0.51100000000E-03 0. -1.
         11   -1    0    0    0    0 -0.00000000000E+00 -0.00000000000E+00 -0.45593999997E+02  0.45594000000E+02  0.51100000000E-03 0.  1.
         23    2    1    2    0    0  0.00000000000E+00 -0.71054273576E-14 -0.35527136788E-14  0.91188000000E+02  0.91188000000E+02 0.  0.
    9900012    2    3    3    0    0  0.28882855156E+01  0.34866541137E+02  0.20715850398E+02  0.50528876279E+02  0.30000049938E+02 0.  0.
        -12    1    3    3    0    0 -0.28882855156E+01 -0.34866541137E+02 -0.20715850398E+02  0.40659123721E+02  0.00000000000E+00 0.  1.
         11    1    4    4    0    0  0.67469704870E+01  0.39352919357E+01  0.10358809392E+02  0.12973552546E+02  0.51100000000E-03 0. -1.
        -11    1    4    4    0    0 -0.77009764692E+01  0.31256840943E+02  0.98578695640E+01  0.33667086849E+02  0.51100000000E-03 0.  1.
        -12    1    4    4    0    0  0.38422914978E+01 -0.32559174205E+00  0.49917144117E+00  0.38882368838E+01  0.00000000000E+00 0.  1.
</event>
<event>
 8    1  0.6016610E-012  0.9118800E+02  0.7816164E-02  0.1184000E+00
        -11   -1    0    0    0    0  0.00000000000E+00  0.00000000000E+00  0.45593999997E+02  0.45594000000E+02  0.51100000000E-03 0. -1.
         11   -1    0    0    0    0 -0.00000000000E+00 -0.00000000000E+00 -0.45593999997E+02  0.45594000000E+02  0.51100000000E-03 0.  1.
         23    2    1    2    0    0 -0.71054273576E-14  0.00000000000E+00  0.00000000000E+00  0.91188000000E+02  0.91188000000E+02 0.  0.
    9900012    2    3    3    0    0 -0.32700082392E+02  0.16494570211E+02 -0.17657829509E+02  0.50528865998E+02  0.30000018686E+02 0.  0.
         12    1    3    3    0    0  0.32700082392E+02 -0.16494570211E+02  0.17657829509E+02  0.40659134002E+02  0.00000000000E+00 0. -1.
         11    1    4    4    0    0 -0.15583246370E+02 -0.52048815490E+01 -0.38649893408E+01  0.16877988690E+02  0.51100000000E-03 0. -1.
        -11    1    4    4    0    0 -0.18121711624E+02  0.19066459523E+02 -0.15324990579E+02  0.30443088665E+02  0.51100000000E-03 0.  1.
        -12    1    4    4    0    0  0.10048756021E+01  0.26329922368E+01  0.15321504112E+01  0.32077886429E+01  0.00000000000E+00 0.  1.
</event>
<event>
 8    1  0.6016610E-012  0.9118800E+02  0.7816164E-02  0.1184000E+00
        -11   -1    0    0    0    0  0.00000000000E+00  0.00000000000E+00  0.45593999997E+02  0.45594000000E+02  0.51100000000E-03 0. -1.
         11   -1    0    0    0    0 -0.00000000000E+00 -0.00000000000E+00 -0.45593999997E+02  0.45594000000E+02  0.51100000000E-03 0.  1.
         23    2    1    2    0    0  0.00000000000E+00  0.00000000000E+00  0.00000000000E+00  0.91188000000E+02  0.91188000000E+02 0.  0.
    9900012    2    3    3    0    0  0.13433096976E+02  0.24252135819E+02 -0.29741433009E+02  0.50528843300E+02  0.29999949693E+02 0.  0.
         12    1    3    3    0    0 -0.13433096976E+02 -0.24252135819E+02  0.29741433009E+02  0.40659156700E+02  0.00000000000E+00 0. -1.
         11    1    4    4    0    0  0.10652666792E+02  0.25993933363E+02 -0.11052201211E+02  0.30187994854E+02  0.51100000000E-03 0. -1.
        -11    1    4    4    0    0  0.28000887574E+01 -0.10285436056E+01 -0.19220914799E+02  0.19451014498E+02  0.51100000000E-03 0.  1.
         12    1    4    4    0    0 -0.19658572705E-01 -0.71325393889E+00  0.53168300104E+00  0.88983394767E+00  0.00000000000E+00 0. -1.
</event>
<event>
 8    1  0.6016610E-012  0.9118800E+02  0.7816164E-02  0.1184000E+00
        -11   -1    0    0    0    0  0.00000000000E+00  0.00000000000E+00  0.45593999997E+02  0.45594000000E+02  0.51100000000E-03 0. -1.
         11   -1    0    0    0    0 -0.00000000000E+00 -0.00000000000E+00 -0.45593999997E+02  0.45594000000E+02  0.51100000000E-03 0.  1.
         23    2    1    2    0    0 -0.35527136788E-14 -0.71054273576E-14  0.00000000000E+00  0.91188000000E+02  0.91188000000E+02 0.  0.
    9900012    2    3    3    0    0  0.16172483287E+02  0.18508990714E+02 -0.32388785545E+02  0.50528863487E+02  0.30000011055E+02 0.  0.
         12    1    3    3    0    0 -0.16172483287E+02 -0.18508990714E+02  0.32388785545E+02  0.40659136513E+02  0.00000000000E+00 0. -1.
         11    1    4    4    0    0  0.53009668228E+01 -0.15238356661E+01 -0.22137005167E+02  0.22813796756E+02  0.51100000000E-03 0. -1.
        -11    1    4    4    0    0  0.88513326077E-01  0.73537570177E+01  0.12819118769E+01  0.74651775066E+01  0.51100000000E-03 0.  1.
        -12    1    4    4    0    0  0.10783003138E+02  0.12679069363E+02 -0.11533692255E+02  0.20249889224E+02  0.00000000000E+00 0.  1.
</event>
<event>
 8    1  0.6016610E-012  0.9118800E+02  0.7816164E-02  0.1184000E+00
        -11   -1    0    0    0    0  0.00000000000E+00  0.00000000000E+00  0.45593999997E+02  0.45594000000E+02  0.51100000000E-03 0. -1.
         11   -1    0    0    0    0 -0.00000000000E+00 -0.00000000000E+00 -0.45593999997E+02  0.45594000000E+02  0.51100000000E-03 0.  1.
         23    2    1    2    0    0  0.35527136788E-14  0.00000000000E+00  0.00000000000E+00  0.91188000000E+02  0.91188000000E+02 0.  0.
    9900012    2    3    3    0    0 -0.25306908553E+02  0.77130872614E+01  0.30874528444E+02  0.50528833232E+02  0.29999919092E+02 0.  0.
        -12    1    3    3    0    0  0.25306908553E+02 -0.77130872614E+01 -0.30874528444E+02  0.40659166768E+02  0.00000000000E+00 0.  1.
         11    1    4    4    0    0 -0.16413355939E+02 -0.96872018556E+00  0.30459128935E+02  0.34613511924E+02  0.51100000000E-03 0. -1.
        -11    1    4    4    0    0 -0.11011724330E+02  0.64999819872E+01  0.97201064076E+00  0.12823909057E+02  0.51100000000E-03 0.  1.
         12    1    4    4    0    0  0.21181717159E+01  0.21818254597E+01 -0.55661113185E+00  0.30914122511E+01  0.00000000000E+00 0. -1.
</event>
<event>
 8    1  0.6016610E-012  0.9118800E+02  0.7816164E-02  0.1184000E+00
        -11   -1    0    0    0    0  0.00000000000E+00  0.00000000000E+00  0.45593999997E+02  0.45594000000E+02  0.51100000000E-03 0. -1.
         11   -1    0    0    0    0 -0.00000000000E+00 -0.00000000000E+00 -0.45593999997E+02  0.45594000000E+02  0.51100000000E-03 0.  1.
         23    2    1    2    0    0  0.00000000000E+00  0.00000000000E+00  0.35527136788E-14  0.91188000000E+02  0.91188000000E+02 0.  0.
    9900012    2    3    3    0    0 -0.44012878981E+01  0.25808153960E+02  0.31108407150E+02  0.50528866446E+02  0.30000020048E+02 0.  0.
        -12    1    3    3    0    0  0.44012878981E+01 -0.25808153960E+02 -0.31108407150E+02  0.40659133554E+02  0.00000000000E+00 0.  1.
         11    1    4    4    0    0 -0.28577199970E+01  0.16504182371E+01  0.89090833514E+01  0.95006426288E+01  0.51100000000E-03 0. -1.
        -11    1    4    4    0    0  0.79212804869E+01  0.45363083278E+01 -0.10249844620E+01  0.91856067413E+01  0.51100000000E-03 0.  1.
        -12    1    4    4    0    0 -0.94648483881E+01  0.19621427395E+02  0.23224308261E+02  0.31842617075E+02  0.00000000000E+00 0.  1.
</event>
<event>
 8    1  0.6016610E-012  0.9118800E+02  0.7816164E-02  0.1184000E+00
        -11   -1    0    0    0    0  0.00000000000E+00  0.00000000000E+00  0.45593999997E+02  0.45594000000E+02  0.51100000000E-03 0. -1.
         11   -1    0    0    0    0 -0.00000000000E+00 -0.00000000000E+00 -0.45593999997E+02  0.45594000000E+02  0.51100000000E-03 0.  1.
         23    2    1    2    0    0  0.00000000000E+00 -0.71054273576E-14  0.00000000000E+00  0.91188000000E+02  0.91188000000E+02 0.  0.
    9900012    2    3    3    0    0 -0.37250180532E+01 -0.34972919245E+02  0.20400653673E+02  0.50528837315E+02  0.29999931501E+02 0.  0.
        -12    1    3    3    0    0  0.37250180532E+01  0.34972919245E+02 -0.20400653673E+02  0.40659162685E+02  0.00000000000E+00 0.  1.
         11    1    4    4    0    0  0.51268221457E+01  0.14170708444E+01  0.68083746263E+01  0.86398125214E+01  0.51100000000E-03 0. -1.
        -11    1    4    4    0    0 -0.61979036181E+01 -0.35688825476E+02  0.10415750556E+02  0.37690769865E+02  0.51100000000E-03 0.  1.
        -12    1    4    4    0    0 -0.26539365808E+01 -0.70116461326E+00  0.31765284907E+01  0.41982549281E+01  0.00000000000E+00 0.  1.
</event>
<event>
 8    1  0.6962283E-012  0.9118800E+02  0.7816164E-02  0.1184000E+00
        -11   -1    0    0    0    0  0.00000000000E+00  0.00000000000E+00  0.45593999997E+02  0.45594000000E+02  0.51100000000E-03 0. -1.
         11   -1    0    0    0    0 -0.00000000000E+00 -0.00000000000E+00 -0.45593999997E+02  0.45594000000E+02  0.51100000000E-03 0.  1.
         23    2    1    2    0    0 -0.35527136788E-14 -0.71054273576E-14  0.00000000000E+00  0.91188000000E+02  0.91188000000E+02 0.  0.
    9900012    2    3    3    0    0  0.94331821074E+01  0.30646104238E+02  0.24999936971E+02  0.50528862304E+02  0.30000007458E+02 0.  0.
        -12    1    3    3    0    0 -0.94331821074E+01 -0.30646104238E+02 -0.24999936971E+02  0.40659137696E+02  0.00000000000E+00 0.  1.
         11    1    4    4    0    0  0.97660149121E+01  0.16794345403E+02  0.12236185789E+02  0.22959732744E+02  0.51100000000E-03 0. -1.
        -11    1    4    4    0    0 -0.78414097561E+01  0.97773169142E+01  0.14163215859E+02  0.18912438148E+02  0.51100000000E-03 0.  1.
        -12    1    4    4    0    0  0.75085769514E+01  0.40744419212E+01 -0.13994646763E+01  0.86566914110E+01  0.00000000000E+00 0.  1.
</event>
<event>
 8    1  0.6016610E-012  0.9118800E+02  0.7816164E-02  0.1184000E+00
        -11   -1    0    0    0    0  0.00000000000E+00  0.00000000000E+00  0.45593999997E+02  0.45594000000E+02  0.51100000000E-03 0. -1.
         11   -1    0    0    0    0 -0.00000000000E+00 -0.00000000000E+00 -0.45593999997E+02  0.45594000000E+02  0.51100000000E-03 0.  1.
         23    2    1    2    0    0 -0.44408920985E-15  0.00000000000E+00  0.71054273576E-14  0.91188000000E+02  0.91188000000E+02 0.  0.
    9900012    2    3    3    0    0  0.10544936406E+01  0.16607595164E+02 -0.37097730629E+02  0.50528858447E+02  0.29999995736E+02 0.  0.
         12    1    3    3    0    0 -0.10544936406E+01 -0.16607595164E+02  0.37097730629E+02  0.40659141553E+02  0.00000000000E+00 0. -1.
         11    1    4    4    0    0 -0.74482464381E+01 -0.23331920191E+01 -0.15496394545E+02  0.17351034671E+02  0.51100000000E-03 0. -1.
        -11    1    4    4    0    0  0.11150126258E+02  0.16715223341E+02 -0.21882242345E+02  0.29707853123E+02  0.51100000000E-03 0.  1.
        -12    1    4    4    0    0 -0.26473861794E+01  0.22255638425E+01  0.28090626069E+00  0.34699706522E+01  0.00000000000E+00 0.  1.
</event>
<event>
 8    1  0.6016610E-012  0.9118800E+02  0.7816164E-02  0.1184000E+00
        -11   -1    0    0    0    0  0.00000000000E+00  0.00000000000E+00  0.45593999997E+02  0.45594000000E+02  0.51100000000E-03 0.  1.
         11   -1    0    0    0    0 -0.00000000000E+00 -0.00000000000E+00 -0.45593999997E+02  0.45594000000E+02  0.51100000000E-03 0. -1.
         23    2    1    2    0    0  0.00000000000E+00  0.00000000000E+00  0.00000000000E+00  0.91188000000E+02  0.91188000000E+02 0.  0.
    9900012    2    3    3    0    0 -0.27994081198E+02 -0.22089590118E+02 -0.19533195141E+02  0.50528876963E+02  0.30000052018E+02 0.  0.
         12    1    3    3    0    0  0.27994081198E+02  0.22089590118E+02  0.19533195141E+02  0.40659123037E+02  0.00000000000E+00 0. -1.
         11    1    4    4    0    0 -0.24765863544E+01 -0.53768275713E+01  0.52088711572E+01  0.78851819063E+01  0.51100000000E-03 0. -1.
        -11    1    4    4    0    0 -0.19088074603E+02 -0.29221343735E+01 -0.16122657030E+02  0.25156182765E+02  0.51100000000E-03 0.  1.
         12    1    4    4    0    0 -0.64294202412E+01 -0.13790628173E+02 -0.86194092674E+01  0.17487512292E+02  0.00000000000E+00 0. -1.
</event>
<event>
 8    1  0.6016610E-012  0.9118800E+02  0.7816164E-02  0.1184000E+00
        -11   -1    0    0    0    0  0.00000000000E+00  0.00000000000E+00  0.45593999997E+02  0.45594000000E+02  0.51100000000E-03 0. -1.
         11   -1    0    0    0    0 -0.00000000000E+00 -0.00000000000E+00 -0.45593999997E+02  0.45594000000E+02  0.51100000000E-03 0.  1.
         23    2    1    2    0    0  0.00000000000E+00 -0.44408920985E-15  0.44408920985E-15  0.91188000000E+02  0.91188000000E+02 0.  0.
    9900012    2    3    3    0    0  0.40496340853E+02  0.34517158637E+01  0.11396907213E+01  0.50528845314E+02  0.29999955815E+02 0.  0.
        -12    1    3    3    0    0 -0.40496340853E+02 -0.34517158637E+01 -0.11396907213E+01  0.40659154686E+02  0.00000000000E+00 0.  1.
         11    1    4    4    0    0 -0.33974478008E+01  0.17941538190E+01  0.18354562122E+01  0.42579970941E+01  0.51100000000E-03 0.  1.
        -11    1    4    4    0    0  0.33308410239E+02 -0.19811821622E+01  0.49530862207E+01  0.33732896981E+02  0.51100000000E-03 0. -1.
        -12    1    4    4    0    0  0.10585378415E+02  0.36387442068E+01 -0.56488517115E+01  0.12537951238E+02  0.00000000000E+00 0.  1.
</event>
<event>
 8    1  0.6016610E-012  0.9118800E+02  0.7816164E-02  0.1184000E+00
        -11   -1    0    0    0    0  0.00000000000E+00  0.00000000000E+00  0.45593999997E+02  0.45594000000E+02  0.51100000000E-03 0. -1.
         11   -1    0    0    0    0 -0.00000000000E+00 -0.00000000000E+00 -0.45593999997E+02  0.45594000000E+02  0.51100000000E-03 0.  1.
         23    2    1    2    0    0  0.71054273576E-14  0.88817841970E-15  0.00000000000E+00  0.91188000000E+02  0.91188000000E+02 0.  0.
    9900012    2    3    3    0    0 -0.33351189134E+02  0.42561939090E+01 -0.22863714631E+02  0.50528850354E+02  0.29999971135E+02 0.  0.
         12    1    3    3    0    0  0.33351189134E+02 -0.42561939090E+01  0.22863714631E+02  0.40659149646E+02  0.00000000000E+00 0. -1.
         11    1    4    4    0    0  0.50594682533E+00  0.40393017049E+01  0.24117109396E+01  0.47316266094E+01  0.51100000000E-03 0. -1.
        -11    1    4    4    0    0 -0.31312052008E+02 -0.54819511750E+01 -0.19493650570E+02  0.37289392626E+02  0.51100000000E-03 0.  1.
        -12    1    4    4    0    0 -0.25450839514E+01  0.56988433791E+01 -0.57817750006E+01  0.85078311183E+01  0.00000000000E+00 0.  1.
</event>
<event>
 8    1  0.6016610E-012  0.9118800E+02  0.7816164E-02  0.1184000E+00
        -11   -1    0    0    0    0  0.00000000000E+00  0.00000000000E+00  0.45593999997E+02  0.45594000000E+02  0.51100000000E-03 0. -1.
         11   -1    0    0    0    0 -0.00000000000E+00 -0.00000000000E+00 -0.45593999997E+02  0.45594000000E+02  0.51100000000E-03 0.  1.
         23    2    1    2    0    0  0.00000000000E+00  0.00000000000E+00  0.00000000000E+00  0.91188000000E+02  0.91188000000E+02 0.  0.
    9900012    2    3    3    0    0  0.34165313801E+02 -0.10144127297E+02 -0.19570230792E+02  0.50528856883E+02  0.29999990983E+02 0.  0.
         12    1    3    3    0    0 -0.34165313801E+02  0.10144127297E+02  0.19570230792E+02  0.40659143117E+02  0.00000000000E+00 0. -1.
         11    1    4    4    0    0  0.16335317740E+01  0.84368890789E+00 -0.11747210551E+02  0.11890214170E+02  0.51100000000E-03 0. -1.
        -11    1    4    4    0    0  0.22467721004E+02 -0.56691743507E+00 -0.67760319851E+00  0.22485084586E+02  0.51100000000E-03 0.  1.
         12    1    4    4    0    0  0.10064061023E+02 -0.10420898770E+02 -0.71454170426E+01  0.16153558127E+02  0.00000000000E+00 0. -1.
</event>
<event>
 8    1  0.6016610E-012  0.9118800E+02  0.7816164E-02  0.1184000E+00
        -11   -1    0    0    0    0  0.00000000000E+00  0.00000000000E+00  0.45593999997E+02  0.45594000000E+02  0.51100000000E-03 0. -1.
         11   -1    0    0    0    0 -0.00000000000E+00 -0.00000000000E+00 -0.45593999997E+02  0.45594000000E+02  0.51100000000E-03 0.  1.
         23    2    1    2    0    0  0.17763568394E-14  0.00000000000E+00  0.00000000000E+00  0.91188000000E+02  0.91188000000E+02 0.  0.
    9900012    2    3    3    0    0  0.14181252431E+02  0.33138293051E+02 -0.18812519262E+02  0.50528864891E+02  0.30000015323E+02 0.  0.
         12    1    3    3    0    0 -0.14181252431E+02 -0.33138293051E+02  0.18812519262E+02  0.40659135109E+02  0.00000000000E+00 0. -1.
         11    1    4    4    0    0  0.15026675506E+02  0.12062517499E+02 -0.70236242029E+00  0.19282080241E+02  0.51100000000E-03 0. -1.
        -11    1    4    4    0    0 -0.65988438509E+01  0.59442186426E+01 -0.91179604042E+01  0.12728537922E+02  0.51100000000E-03 0.  1.
        -12    1    4    4    0    0  0.57534207755E+01  0.15131556909E+02 -0.89921964379E+01  0.18518246728E+02  0.00000000000E+00 0.  1.
</event>
<event>
 8    1  0.6016610E-012  0.9118800E+02  0.7816164E-02  0.1184000E+00
        -11   -1    0    0    0    0  0.00000000000E+00  0.00000000000E+00  0.45593999997E+02  0.45594000000E+02  0.51100000000E-03 0. -1.
         11   -1    0    0    0    0 -0.00000000000E+00 -0.00000000000E+00 -0.45593999997E+02  0.45594000000E+02  0.51100000000E-03 0.  1.
         23    2    1    2    0    0 -0.17763568394E-14  0.17763568394E-14  0.00000000000E+00  0.91188000000E+02  0.91188000000E+02 0.  0.
    9900012    2    3    3    0    0 -0.83926062544E+01 -0.10753149725E+02 -0.38302751353E+02  0.50528845681E+02  0.29999956931E+02 0.  0.
         12    1    3    3    0    0  0.83926062544E+01  0.10753149725E+02  0.38302751353E+02  0.40659154319E+02  0.00000000000E+00 0. -1.
         11    1    4    4    0    0  0.66915008518E+01  0.16569049389E+01 -0.16199831567E+01  0.70813743946E+01  0.51100000000E-03 0. -1.
        -11    1    4    4    0    0 -0.99792196224E+01 -0.62230440575E+00 -0.11978870480E+02  0.15603378649E+02  0.51100000000E-03 0.  1.
         12    1    4    4    0    0 -0.51048874838E+01 -0.11787750258E+02 -0.24703897716E+02  0.27844092637E+02  0.00000000000E+00 0. -1.
</event>
<event>
 8    1  0.6016610E-012  0.9118800E+02  0.7816164E-02  0.1184000E+00
        -11   -1    0    0    0    0  0.00000000000E+00  0.00000000000E+00  0.45593999997E+02  0.45594000000E+02  0.51100000000E-03 0. -1.
         11   -1    0    0    0    0 -0.00000000000E+00 -0.00000000000E+00 -0.45593999997E+02  0.45594000000E+02  0.51100000000E-03 0.  1.
         23    2    1    2    0    0  0.00000000000E+00 -0.14210854715E-13  0.00000000000E+00  0.91188000000E+02  0.91188000000E+02 0.  0.
    9900012    2    3    3    0    0 -0.53863589232E+01  0.35324605968E+02 -0.19398995184E+02  0.50528909216E+02  0.30000150052E+02 0.  0.
         12    1    3    3    0    0  0.53863589232E+01 -0.35324605968E+02  0.19398995184E+02  0.40659090784E+02  0.00000000000E+00 0. -1.
         11    1    4    4    0    0  0.38623148373E+00 -0.40145409672E+01  0.18215733120E+01  0.44253636606E+01  0.51100000000E-03 0. -1.
        -11    1    4    4    0    0 -0.49050135324E+01  0.12938258221E+02 -0.34286829215E+01  0.14255299028E+02  0.51100000000E-03 0.  1.
         12    1    4    4    0    0 -0.86757687452E+00  0.26400888714E+02 -0.17791885574E+02  0.31848246527E+02  0.00000000000E+00 0. -1.
</event>
<event>
 8    1  0.6016610E-012  0.9118800E+02  0.7816164E-02  0.1184000E+00
        -11   -1    0    0    0    0  0.00000000000E+00  0.00000000000E+00  0.45593999997E+02  0.45594000000E+02  0.51100000000E-03 0. -1.
         11   -1    0    0    0    0 -0.00000000000E+00 -0.00000000000E+00 -0.45593999997E+02  0.45594000000E+02  0.51100000000E-03 0.  1.
         23    2    1    2    0    0  0.00000000000E+00  0.00000000000E+00  0.00000000000E+00  0.91188000000E+02  0.91188000000E+02 0.  0.
    9900012    2    3    3    0    0 -0.92160239732E+01 -0.86957177799E+01  0.38634375765E+02  0.50528860851E+02  0.30000003044E+02 0.  0.
        -12    1    3    3    0    0  0.92160239732E+01  0.86957177799E+01 -0.38634375765E+02  0.40659139149E+02  0.00000000000E+00 0.  1.
         11    1    4    4    0    0 -0.35924315354E+01 -0.58938396945E+01  0.89110139715E+01  0.11271605074E+02  0.51100000000E-03 0. -1.
        -11    1    4    4    0    0 -0.60006873752E+01  0.10022219027E+01 -0.26665572802E+01  0.66425315736E+01  0.51100000000E-03 0.  1.
        -12    1    4    4    0    0  0.37709493737E+00 -0.38040999881E+01  0.32389919073E+02  0.32614724204E+02  0.00000000000E+00 0.  1.
</event>
<event>
 8    1  0.6016610E-012  0.9118800E+02  0.7816164E-02  0.1184000E+00
        -11   -1    0    0    0    0  0.00000000000E+00  0.00000000000E+00  0.45593999997E+02  0.45594000000E+02  0.51100000000E-03 0. -1.
         11   -1    0    0    0    0 -0.00000000000E+00 -0.00000000000E+00 -0.45593999997E+02  0.45594000000E+02  0.51100000000E-03 0.  1.
         23    2    1    2    0    0  0.00000000000E+00  0.35527136788E-14  0.00000000000E+00  0.91188000000E+02  0.91188000000E+02 0.  0.
    9900012    2    3    3    0    0 -0.50832900377E+01  0.19705075410E+02 -0.35199925446E+02  0.50528873276E+02  0.30000040809E+02 0.  0.
         12    1    3    3    0    0  0.50832900377E+01 -0.19705075410E+02  0.35199925446E+02  0.40659126724E+02  0.00000000000E+00 0. -1.
         11    1    4    4    0    0 -0.20569473893E+01  0.13207669181E+02 -0.23047292791E+02  0.26643034044E+02  0.51100000000E-03 0.  1.
        -11    1    4    4    0    0  0.78043306650E+01 -0.94661040490E-01 -0.36238253674E+01  0.86051524331E+01  0.51100000000E-03 0. -1.
         12    1    4    4    0    0 -0.10830673313E+02  0.65920672694E+01 -0.85288072876E+01  0.15280686799E+02  0.00000000000E+00 0. -1.
</event>
<event>
 8    1  0.6016610E-012  0.9118800E+02  0.7816164E-02  0.1184000E+00
        -11   -1    0    0    0    0  0.00000000000E+00  0.00000000000E+00  0.45593999997E+02  0.45594000000E+02  0.51100000000E-03 0. -1.
         11   -1    0    0    0    0 -0.00000000000E+00 -0.00000000000E+00 -0.45593999997E+02  0.45594000000E+02  0.51100000000E-03 0.  1.
         23    2    1    2    0    0  0.00000000000E+00  0.00000000000E+00  0.71054273576E-14  0.91188000000E+02  0.91188000000E+02 0.  0.
    9900012    2    3    3    0    0  0.21393911414E+02  0.46326602290E+01 -0.34263723492E+02  0.50528883753E+02  0.30000072657E+02 0.  0.
         12    1    3    3    0    0 -0.21393911414E+02 -0.46326602290E+01  0.34263723492E+02  0.40659116247E+02  0.00000000000E+00 0. -1.
         11    1    4    4    0    0  0.63273392951E+00  0.85936059463E+01 -0.19153417432E+00  0.86189965185E+01  0.51100000000E-03 0. -1.
        -11    1    4    4    0    0  0.10641597152E+02 -0.37464567838E+01 -0.27800598159E+02  0.30002546336E+02  0.51100000000E-03 0.  1.
        -12    1    4    4    0    0  0.10119580333E+02 -0.21448893346E+00 -0.62715911587E+01  0.11907340899E+02  0.00000000000E+00 0.  1.
</event>
<event>
 8    1  0.6016610E-012  0.9118800E+02  0.7816164E-02  0.1184000E+00
        -11   -1    0    0    0    0  0.00000000000E+00  0.00000000000E+00  0.45593999997E+02  0.45594000000E+02  0.51100000000E-03 0. -1.
         11   -1    0    0    0    0 -0.00000000000E+00 -0.00000000000E+00 -0.45593999997E+02  0.45594000000E+02  0.51100000000E-03 0.  1.
         23    2    1    2    0    0  0.00000000000E+00  0.00000000000E+00  0.00000000000E+00  0.91188000000E+02  0.91188000000E+02 0.  0.
    9900012    2    3    3    0    0 -0.28245732287E+02 -0.18905266495E+02 -0.22314478547E+02  0.50528850396E+02  0.29999971263E+02 0.  0.
         12    1    3    3    0    0  0.28245732287E+02  0.18905266495E+02  0.22314478547E+02  0.40659149604E+02  0.00000000000E+00 0. -1.
         11    1    4    4    0    0 -0.26908660859E+00 -0.41450243409E+01 -0.81860151104E+01  0.91795685105E+01  0.51100000000E-03 0. -1.
        -11    1    4    4    0    0 -0.25132900606E+02 -0.67990559552E+01 -0.18395870742E+02  0.31879427776E+02  0.51100000000E-03 0.  1.
        -12    1    4    4    0    0 -0.28437450730E+01 -0.79611861990E+01  0.42674073052E+01  0.94698541089E+01  0.00000000000E+00 0.  1.
</event>
<event>
 8    1  0.6016610E-012  0.9118800E+02  0.7816164E-02  0.1184000E+00
        -11   -1    0    0    0    0  0.00000000000E+00  0.00000000000E+00  0.45593999997E+02  0.45594000000E+02  0.51100000000E-03 0. -1.
         11   -1    0    0    0    0 -0.00000000000E+00 -0.00000000000E+00 -0.45593999997E+02  0.45594000000E+02  0.51100000000E-03 0.  1.
         23    2    1    2    0    0  0.00000000000E+00  0.00000000000E+00  0.00000000000E+00  0.91188000000E+02  0.91188000000E+02 0.  0.
    9900012    2    3    3    0    0  0.23383287061E+02  0.18799730315E+02  0.27440074245E+02  0.50528860212E+02  0.30000001100E+02 0.  0.
        -12    1    3    3    0    0 -0.23383287061E+02 -0.18799730315E+02 -0.27440074245E+02  0.40659139788E+02  0.00000000000E+00 0.  1.
         11    1    4    4    0    0  0.22063411247E+02  0.24034290716E+01  0.14809559606E+02  0.26681335108E+02  0.51100000000E-03 0. -1.
        -11    1    4    4    0    0  0.38568161652E+01  0.13449357161E+02  0.13934045194E+02  0.19746337754E+02  0.51100000000E-03 0.  1.
         12    1    4    4    0    0 -0.25369403512E+01  0.29469440828E+01 -0.13035305545E+01  0.41011873499E+01  0.00000000000E+00 0. -1.
</event>
<event>
 8    1  0.6016610E-012  0.9118800E+02  0.7816164E-02  0.1184000E+00
        -11   -1    0    0    0    0  0.00000000000E+00  0.00000000000E+00  0.45593999997E+02  0.45594000000E+02  0.51100000000E-03 0. -1.
         11   -1    0    0    0    0 -0.00000000000E+00 -0.00000000000E+00 -0.45593999997E+02  0.45594000000E+02  0.51100000000E-03 0.  1.
         23    2    1    2    0    0  0.17763568394E-14  0.00000000000E+00  0.00000000000E+00  0.91188000000E+02  0.91188000000E+02 0.  0.
    9900012    2    3    3    0    0 -0.15401340211E+02  0.13412815967E+02  0.35157661968E+02  0.50528854565E+02  0.29999983936E+02 0.  0.
        -12    1    3    3    0    0  0.15401340211E+02 -0.13412815967E+02 -0.35157661968E+02  0.40659145435E+02  0.00000000000E+00 0.  1.
         11    1    4    4    0    0 -0.72063523874E+01  0.84612396483E+01  0.32872590223E+02  0.34700594798E+02  0.51100000000E-03 0. -1.
        -11    1    4    4    0    0 -0.98855963939E+00  0.74439640502E+01  0.31716351388E+01  0.81516330055E+01  0.51100000000E-03 0.  1.
         12    1    4    4    0    0 -0.72064281846E+01 -0.24923877311E+01 -0.88656339422E+00  0.76766267614E+01  0.00000000000E+00 0. -1.
</event>
<event>
 8    1  0.6016610E-012  0.9118800E+02  0.7816164E-02  0.1184000E+00
        -11   -1    0    0    0    0  0.00000000000E+00  0.00000000000E+00  0.45593999997E+02  0.45594000000E+02  0.51100000000E-03 0. -1.
         11   -1    0    0    0    0 -0.00000000000E+00 -0.00000000000E+00 -0.45593999997E+02  0.45594000000E+02  0.51100000000E-03 0.  1.
         23    2    1    2    0    0  0.17763568394E-14  0.00000000000E+00  0.00000000000E+00  0.91188000000E+02  0.91188000000E+02 0.  0.
    9900012    2    3    3    0    0  0.14254115352E+02  0.32772439298E+02 -0.19389502993E+02  0.50528863163E+02  0.30000010071E+02 0.  0.
         12    1    3    3    0    0 -0.14254115352E+02 -0.32772439298E+02  0.19389502993E+02  0.40659136837E+02  0.00000000000E+00 0. -1.
         11    1    4    4    0    0 -0.15023433361E+00 -0.20213995011E+01  0.34424781587E+01  0.39949070618E+01  0.51100000000E-03 0. -1.
        -11    1    4    4    0    0  0.16832873087E+02  0.23263402369E+02 -0.15132129307E+02  0.32457862588E+02  0.51100000000E-03 0.  1.
        -12    1    4    4    0    0 -0.24285234014E+01  0.11530436430E+02 -0.76998518438E+01  0.14076093513E+02  0.00000000000E+00 0.  1.
</event>
<event>
 8    1  0.6016610E-012  0.9118800E+02  0.7816164E-02  0.1184000E+00
        -11   -1    0    0    0    0  0.00000000000E+00  0.00000000000E+00  0.45593999997E+02  0.45594000000E+02  0.51100000000E-03 0.  1.
         11   -1    0    0    0    0 -0.00000000000E+00 -0.00000000000E+00 -0.45593999997E+02  0.45594000000E+02  0.51100000000E-03 0. -1.
         23    2    1    2    0    0  0.71054273576E-14  0.00000000000E+00 -0.20643209364E-15  0.91188000000E+02  0.91188000000E+02 0.  0.
    9900012    2    3    3    0    0  0.33753040619E+02 -0.22669317203E+02 -0.77849746416E-02  0.50528858911E+02  0.29999997145E+02 0.  0.
         12    1    3    3    0    0 -0.33753040619E+02  0.22669317203E+02  0.77849746416E-02  0.40659141089E+02  0.00000000000E+00 0. -1.
         11    1    4    4    0    0  0.15343958205E+02 -0.20669228512E+02 -0.57424304571E+01  0.26374790398E+02  0.51100000000E-03 0. -1.
        -11    1    4    4    0    0  0.13659545214E+02 -0.34497602337E+00  0.10494697775E+02  0.17229070363E+02  0.51100000000E-03 0.  1.
        -12    1    4    4    0    0  0.47495371999E+01 -0.16551126677E+01 -0.47600522924E+01  0.69249981504E+01  0.00000000000E+00 0.  1.
</event>
<event>
 8    1  0.6016610E-012  0.9118800E+02  0.7816164E-02  0.1184000E+00
        -11   -1    0    0    0    0  0.00000000000E+00  0.00000000000E+00  0.45593999997E+02  0.45594000000E+02  0.51100000000E-03 0. -1.
         11   -1    0    0    0    0 -0.00000000000E+00 -0.00000000000E+00 -0.45593999997E+02  0.45594000000E+02  0.51100000000E-03 0.  1.
         23    2    1    2    0    0  0.00000000000E+00  0.35527136788E-14  0.00000000000E+00  0.91188000000E+02  0.91188000000E+02 0.  0.
    9900012    2    3    3    0    0 -0.33042380777E+02 -0.16909032281E+02  0.16596673062E+02  0.50528882242E+02  0.30000068063E+02 0.  0.
        -12    1    3    3    0    0  0.33042380777E+02  0.16909032281E+02 -0.16596673062E+02  0.40659117758E+02  0.00000000000E+00 0.  1.
         11    1    4    4    0    0 -0.19133680065E+02 -0.62957126076E+01  0.11020914780E+02  0.22960711507E+02  0.51100000000E-03 0. -1.
        -11    1    4    4    0    0 -0.85351463677E+01 -0.41293235162E+01 -0.74493033189E+01  0.12057866993E+02  0.51100000000E-03 0.  1.
        -12    1    4    4    0    0 -0.53735543451E+01 -0.64839961567E+01  0.13025061602E+02  0.15510303743E+02  0.00000000000E+00 0.  1.
</event>
<event>
 8    1  0.6016610E-012  0.9118800E+02  0.7816164E-02  0.1184000E+00
        -11   -1    0    0    0    0  0.00000000000E+00  0.00000000000E+00  0.45593999997E+02  0.45594000000E+02  0.51100000000E-03 0. -1.
         11   -1    0    0    0    0 -0.00000000000E+00 -0.00000000000E+00 -0.45593999997E+02  0.45594000000E+02  0.51100000000E-03 0.  1.
         23    2    1    2    0    0 -0.17763568394E-14  0.35527136788E-14  0.00000000000E+00  0.91188000000E+02  0.91188000000E+02 0.  0.
    9900012    2    3    3    0    0 -0.20519242235E+01  0.30165425003E+02 -0.27184627985E+02  0.50528840426E+02  0.29999940957E+02 0.  0.
         12    1    3    3    0    0  0.20519242235E+01 -0.30165425003E+02  0.27184627985E+02  0.40659159574E+02  0.00000000000E+00 0. -1.
         11    1    4    4    0    0  0.12862350254E+02  0.21478471238E+02 -0.17572297902E+02  0.30586768947E+02  0.51100000000E-03 0. -1.
        -11    1    4    4    0    0 -0.12270829139E+02  0.59259747911E+01 -0.79255040130E+01  0.15764010882E+02  0.51100000000E-03 0.  1.
         12    1    4    4    0    0 -0.26434453390E+01  0.27609789745E+01 -0.16868260691E+01  0.41780605962E+01  0.00000000000E+00 0. -1.
</event>
<event>
 8    1  0.6016610E-012  0.9118800E+02  0.7816164E-02  0.1184000E+00
        -11   -1    0    0    0    0  0.00000000000E+00  0.00000000000E+00  0.45593999997E+02  0.45594000000E+02  0.51100000000E-03 0. -1.
         11   -1    0    0    0    0 -0.00000000000E+00 -0.00000000000E+00 -0.45593999997E+02  0.45594000000E+02  0.51100000000E-03 0.  1.
         23    2    1    2    0    0 -0.88817841970E-15  0.00000000000E+00 -0.88817841970E-15  0.91188000000E+02  0.91188000000E+02 0.  0.
    9900012    2    3    3    0    0  0.51613470612E+01 -0.40049841838E+02 -0.47472171790E+01  0.50528863195E+02  0.30000010168E+02 0.  0.
        -12    1    3    3    0    0 -0.51613470612E+01  0.40049841838E+02  0.47472171790E+01  0.40659136805E+02  0.00000000000E+00 0.  1.
         11    1    4    4    0    0 -0.71249172299E+00 -0.38541879778E+02 -0.11311097163E+02  0.40173686171E+02  0.51100000000E-03 0. -1.
        -11    1    4    4    0    0  0.14487478892E+01  0.11263995917E+01  0.44033600246E+01  0.47704534642E+01  0.51100000000E-03 0.  1.
         12    1    4    4    0    0  0.44250908949E+01 -0.26343616519E+01  0.21605199599E+01  0.55847235597E+01  0.00000000000E+00 0. -1.
</event>
<event>
 8    1  0.6016610E-012  0.9118800E+02  0.7816164E-02  0.1184000E+00
        -11   -1    0    0    0    0  0.00000000000E+00  0.00000000000E+00  0.45593999997E+02  0.45594000000E+02  0.51100000000E-03 0.  1.
         11   -1    0    0    0    0 -0.00000000000E+00 -0.00000000000E+00 -0.45593999997E+02  0.45594000000E+02  0.51100000000E-03 0. -1.
         23    2    1    2    0    0  0.00000000000E+00  0.00000000000E+00  0.00000000000E+00  0.91188000000E+02  0.91188000000E+02 0.  0.
    9900012    2    3    3    0    0 -0.29978284864E+02  0.15966072057E+02 -0.22350664638E+02  0.50528865355E+02  0.30000016734E+02 0.  0.
         12    1    3    3    0    0  0.29978284864E+02 -0.15966072057E+02  0.22350664638E+02  0.40659134645E+02  0.00000000000E+00 0. -1.
         11    1    4    4    0    0 -0.88308653068E+00  0.10333667381E+02 -0.11701158200E+02  0.15635908251E+02  0.51100000000E-03 0. -1.
        -11    1    4    4    0    0 -0.27046304416E+02  0.93655110253E+01 -0.10899968163E+02  0.30627188666E+02  0.51100000000E-03 0.  1.
        -12    1    4    4    0    0 -0.20488939167E+01 -0.37331063490E+01  0.25046172549E+00  0.42657684385E+01  0.00000000000E+00 0.  1.
</event>
<event>
 8    1  0.6016610E-012  0.9118800E+02  0.7816164E-02  0.1184000E+00
        -11   -1    0    0    0    0  0.00000000000E+00  0.00000000000E+00  0.45593999997E+02  0.45594000000E+02  0.51100000000E-03 0. -1.
         11   -1    0    0    0    0 -0.00000000000E+00 -0.00000000000E+00 -0.45593999997E+02  0.45594000000E+02  0.51100000000E-03 0.  1.
         23    2    1    2    0    0  0.00000000000E+00 -0.11102230246E-15  0.00000000000E+00  0.91188000000E+02  0.91188000000E+02 0.  0.
    9900012    2    3    3    0    0 -0.84921148820E+01  0.87031653170E+00 -0.39752890252E+02  0.50528858968E+02  0.29999997319E+02 0.  0.
         12    1    3    3    0    0  0.84921148820E+01 -0.87031653170E+00  0.39752890252E+02  0.40659141032E+02  0.00000000000E+00 0. -1.
         11    1    4    4    0    0  0.99263143387E+01  0.34446050110E+01 -0.12827569004E+02  0.16581421737E+02  0.51100000000E-03 0. -1.
        -11    1    4    4    0    0 -0.15858808022E+02 -0.51795397599E+01 -0.19430080742E+02  0.25609714210E+02  0.51100000000E-03 0.  1.
         12    1    4    4    0    0 -0.25596211983E+01  0.26052512806E+01 -0.74952405069E+01  0.83377230207E+01  0.00000000000E+00 0. -1.
</event>
<event>
 8    1  0.6016610E-012  0.9118800E+02  0.7816164E-02  0.1184000E+00
        -11   -1    0    0    0    0  0.00000000000E+00  0.00000000000E+00  0.45593999997E+02  0.45594000000E+02  0.51100000000E-03 0.  1.
         11   -1    0    0    0    0 -0.00000000000E+00 -0.00000000000E+00 -0.45593999997E+02  0.45594000000E+02  0.51100000000E-03 0. -1.
         23    2    1    2    0    0  0.00000000000E+00 -0.35527136788E-14  0.88817841970E-15  0.91188000000E+02  0.91188000000E+02 0.  0.
    9900012    2    3    3    0    0 -0.34680759301E+02  0.21102543342E+02 -0.22568069287E+01  0.50528861068E+02  0.30000003701E+02 0.  0.
         12    1    3    3    0    0  0.34680759301E+02 -0.21102543342E+02  0.22568069287E+01  0.40659138932E+02  0.00000000000E+00 0. -1.
         11    1    4    4    0    0 -0.22647851891E+02  0.10894286533E+02 -0.30587166414E+01  0.25317314670E+02  0.51100000000E-03 0. -1.
        -11    1    4    4    0    0 -0.21144795757E+01 -0.19071211498E+01 -0.71169415622E+01  0.76654414365E+01  0.51100000000E-03 0.  1.
        -12    1    4    4    0    0 -0.99184278343E+01  0.12115377959E+02  0.79188512749E+01  0.17546104961E+02  0.00000000000E+00 0.  1.
</event>
<event>
 8    1  0.6016610E-012  0.9118800E+02  0.7816164E-02  0.1184000E+00
        -11   -1    0    0    0    0  0.00000000000E+00  0.00000000000E+00  0.45593999997E+02  0.45594000000E+02  0.51100000000E-03 0. -1.
         11   -1    0    0    0    0 -0.00000000000E+00 -0.00000000000E+00 -0.45593999997E+02  0.45594000000E+02  0.51100000000E-03 0.  1.
         23    2    1    2    0    0  0.00000000000E+00  0.00000000000E+00  0.00000000000E+00  0.91188000000E+02  0.91188000000E+02 0.  0.
    9900012    2    3    3    0    0  0.17138869451E+02  0.15579799849E+02  0.33416984919E+02  0.50528857234E+02  0.29999992048E+02 0.  0.
        -12    1    3    3    0    0 -0.17138869451E+02 -0.15579799849E+02 -0.33416984919E+02  0.40659142766E+02  0.00000000000E+00 0.  1.
         11    1    4    4    0    0  0.35456756452E+01  0.17983506897E+01  0.78868969693E+01  0.88322717944E+01  0.51100000000E-03 0. -1.
        -11    1    4    4    0    0 -0.12591952718E+01  0.46828357952E+01 -0.47348856739E+01  0.67774380428E+01  0.51100000000E-03 0.  1.
        -12    1    4    4    0    0  0.14852389078E+02  0.90986133639E+01  0.30264973624E+02  0.34919147397E+02  0.00000000000E+00 0.  1.
</event>
<event>
 8    1  0.6016610E-012  0.9118800E+02  0.7816164E-02  0.1184000E+00
        -11   -1    0    0    0    0  0.00000000000E+00  0.00000000000E+00  0.45593999997E+02  0.45594000000E+02  0.51100000000E-03 0. -1.
         11   -1    0    0    0    0 -0.00000000000E+00 -0.00000000000E+00 -0.45593999997E+02  0.45594000000E+02  0.51100000000E-03 0.  1.
         23    2    1    2    0    0  0.66613381478E-15  0.71054273576E-14  0.00000000000E+00  0.91188000000E+02  0.91188000000E+02 0.  0.
    9900012    2    3    3    0    0 -0.29849642187E+00  0.34805048203E+02 -0.21016284378E+02  0.50528872002E+02  0.30000036938E+02 0.  0.
         12    1    3    3    0    0  0.29849642187E+00 -0.34805048203E+02  0.21016284378E+02  0.40659127998E+02  0.00000000000E+00 0. -1.
         11    1    4    4    0    0  0.49531242843E-01 -0.21320179222E+01  0.29022089917E+01  0.36014956695E+01  0.51100000000E-03 0. -1.
        -11    1    4    4    0    0 -0.66653719076E+01  0.30885633147E+02 -0.17982064470E+02  0.36355249420E+02  0.51100000000E-03 0.  1.
        -12    1    4    4    0    0  0.63173442429E+01  0.60514329780E+01 -0.59364288992E+01  0.10572126912E+02  0.00000000000E+00 0.  1.
</event>
<event>
 8    1  0.6016610E-012  0.9118800E+02  0.7816164E-02  0.1184000E+00
        -11   -1    0    0    0    0  0.00000000000E+00  0.00000000000E+00  0.45593999997E+02  0.45594000000E+02  0.51100000000E-03 0. -1.
         11   -1    0    0    0    0 -0.00000000000E+00 -0.00000000000E+00 -0.45593999997E+02  0.45594000000E+02  0.51100000000E-03 0.  1.
         23    2    1    2    0    0 -0.71054273576E-14  0.17763568394E-14 -0.71054273576E-14  0.91188000000E+02  0.91188000000E+02 0.  0.
    9900012    2    3    3    0    0 -0.29043625965E+02  0.98075046937E+01 -0.26710416847E+02  0.50528859260E+02  0.29999998208E+02 0.  0.
         12    1    3    3    0    0  0.29043625965E+02 -0.98075046937E+01  0.26710416847E+02  0.40659140740E+02  0.00000000000E+00 0. -1.
         11    1    4    4    0    0  0.19829028551E+01 -0.59852582501E+01 -0.37705108720E+01  0.73465619544E+01  0.51100000000E-03 0. -1.
        -11    1    4    4    0    0 -0.26390155699E+02  0.92546906249E+01 -0.14346104942E+02  0.31430882005E+02  0.51100000000E-03 0.  1.
        -12    1    4    4    0    0 -0.46363731217E+01  0.65380723190E+01 -0.85938010336E+01  0.11751415301E+02  0.00000000000E+00 0.  1.
</event>
<event>
 8    1  0.6016610E-012  0.9118800E+02  0.7816164E-02  0.1184000E+00
        -11   -1    0    0    0    0  0.00000000000E+00  0.00000000000E+00  0.45593999997E+02  0.45594000000E+02  0.51100000000E-03 0. -1.
         11   -1    0    0    0    0 -0.00000000000E+00 -0.00000000000E+00 -0.45593999997E+02  0.45594000000E+02  0.51100000000E-03 0.  1.
         23    2    1    2    0    0  0.00000000000E+00  0.71054273576E-14 -0.88817841970E-15  0.91188000000E+02  0.91188000000E+02 0.  0.
    9900012    2    3    3    0    0  0.33504130286E+01  0.39734948880E+02 -0.79419107717E+01  0.50528863552E+02  0.30000011253E+02 0.  0.
         12    1    3    3    0    0 -0.33504130286E+01 -0.39734948880E+02  0.79419107717E+01  0.40659136448E+02  0.00000000000E+00 0. -1.
         11    1    4    4    0    0 -0.13554436501E+01  0.44183407112E+01  0.43563341375E+01  0.63511108877E+01  0.51100000000E-03 0. -1.
        -11    1    4    4    0    0  0.70319024741E+01  0.37428485441E+02 -0.14035884799E+02  0.40587500997E+02  0.51100000000E-03 0.  1.
        -12    1    4    4    0    0 -0.23260457954E+01 -0.21118772718E+01  0.17376398894E+01  0.35902516679E+01  0.00000000000E+00 0.  1.
</event>
<event>
 8    1  0.6016610E-012  0.9118800E+02  0.7816164E-02  0.1184000E+00
        -11   -1    0    0    0    0  0.00000000000E+00  0.00000000000E+00  0.45593999997E+02  0.45594000000E+02  0.51100000000E-03 0.  1.
         11   -1    0    0    0    0 -0.00000000000E+00 -0.00000000000E+00 -0.45593999997E+02  0.45594000000E+02  0.51100000000E-03 0. -1.
         23    2    1    2    0    0  0.00000000000E+00  0.00000000000E+00  0.00000000000E+00  0.91188000000E+02  0.91188000000E+02 0.  0.
    9900012    2    3    3    0    0  0.29947877297E+02  0.20729549834E+02 -0.18071390638E+02  0.50528871252E+02  0.30000034658E+02 0.  0.
         12    1    3    3    0    0 -0.29947877297E+02 -0.20729549834E+02  0.18071390638E+02  0.40659128748E+02  0.00000000000E+00 0. -1.
         11    1    4    4    0    0  0.27926998373E+01 -0.62177656575E+01  0.12700918146E+01  0.69334634658E+01  0.51100000000E-03 0. -1.
        -11    1    4    4    0    0  0.19687522626E+02  0.14720473317E+02 -0.14104729177E+02  0.28341387885E+02  0.51100000000E-03 0.  1.
         12    1    4    4    0    0  0.74676548341E+01  0.12226842175E+02 -0.52367532756E+01  0.15254019902E+02  0.00000000000E+00 0. -1.
</event>
<event>
 8    1  0.6016610E-012  0.9118800E+02  0.7816164E-02  0.1184000E+00
        -11   -1    0    0    0    0  0.00000000000E+00  0.00000000000E+00  0.45593999997E+02  0.45594000000E+02  0.51100000000E-03 0. -1.
         11   -1    0    0    0    0 -0.00000000000E+00 -0.00000000000E+00 -0.45593999997E+02  0.45594000000E+02  0.51100000000E-03 0.  1.
         23    2    1    2    0    0  0.00000000000E+00  0.00000000000E+00  0.00000000000E+00  0.91188000000E+02  0.91188000000E+02 0.  0.
    9900012    2    3    3    0    0  0.14724469139E+02  0.65917867627E+01  0.37321634888E+02  0.50528854967E+02  0.29999985158E+02 0.  0.
        -12    1    3    3    0    0 -0.14724469139E+02 -0.65917867627E+01 -0.37321634888E+02  0.40659145033E+02  0.00000000000E+00 0.  1.
         11    1    4    4    0    0  0.30253209426E+01 -0.57666860474E+01  0.27225874350E+02  0.27993846988E+02  0.51100000000E-03 0. -1.
        -11    1    4    4    0    0  0.71830948395E+01  0.12198307590E+02  0.35733788537E+01  0.14600157405E+02  0.51100000000E-03 0.  1.
        -12    1    4    4    0    0  0.45160533566E+01  0.16016521969E+00  0.65223816835E+01  0.79348505747E+01  0.00000000000E+00 0.  1.
</event>
<event>
 8    1  0.6016610E-012  0.9118800E+02  0.7816164E-02  0.1184000E+00
        -11   -1    0    0    0    0  0.00000000000E+00  0.00000000000E+00  0.45593999997E+02  0.45594000000E+02  0.51100000000E-03 0. -1.
         11   -1    0    0    0    0 -0.00000000000E+00 -0.00000000000E+00 -0.45593999997E+02  0.45594000000E+02  0.51100000000E-03 0.  1.
         23    2    1    2    0    0  0.17763568394E-14  0.00000000000E+00  0.00000000000E+00  0.91188000000E+02  0.91188000000E+02 0.  0.
    9900012    2    3    3    0    0  0.11107452556E+02  0.19913872923E+02  0.33663436233E+02  0.50528870938E+02  0.30000033703E+02 0.  0.
        -12    1    3    3    0    0 -0.11107452556E+02 -0.19913872923E+02 -0.33663436233E+02  0.40659129062E+02  0.00000000000E+00 0.  1.
         11    1    4    4    0    0 -0.73357901155E+01  0.83107891007E+01  0.18513230174E+02  0.21578292885E+02  0.51100000000E-03 0.  1.
        -11    1    4    4    0    0  0.11280679651E+02  0.31324376779E+01  0.13275303581E+02  0.17700270750E+02  0.51100000000E-03 0. -1.
         12    1    4    4    0    0  0.71625630203E+01  0.84706461439E+01  0.18749024788E+01  0.11250307303E+02  0.00000000000E+00 0. -1.
</event>
<event>
 8    1  0.6016610E-012  0.9118800E+02  0.7816164E-02  0.1184000E+00
        -11   -1    0    0    0    0  0.00000000000E+00  0.00000000000E+00  0.45593999997E+02  0.45594000000E+02  0.51100000000E-03 0. -1.
         11   -1    0    0    0    0 -0.00000000000E+00 -0.00000000000E+00 -0.45593999997E+02  0.45594000000E+02  0.51100000000E-03 0.  1.
         23    2    1    2    0    0 -0.88817841970E-15  0.00000000000E+00  0.00000000000E+00  0.91188000000E+02  0.91188000000E+02 0.  0.
    9900012    2    3    3    0    0 -0.44396845210E+01 -0.34211897458E+02 -0.21517464523E+02  0.50528855816E+02  0.29999987737E+02 0.  0.
         12    1    3    3    0    0  0.44396845210E+01  0.34211897458E+02  0.21517464523E+02  0.40659144184E+02  0.00000000000E+00 0. -1.
         11    1    4    4    0    0 -0.77375468095E+01 -0.14929428008E+02  0.35117779450E+01  0.17178184883E+02  0.51100000000E-03 0. -1.
        -11    1    4    4    0    0  0.51288389652E+01 -0.18808562741E+02 -0.19786415995E+02  0.27777135916E+02  0.51100000000E-03 0.  1.
         12    1    4    4    0    0 -0.18309766766E+01 -0.47390670951E+00 -0.52428264731E+01  0.55735350171E+01  0.00000000000E+00 0. -1.
</event>
<event>
 8    1  0.6016610E-012  0.9118800E+02  0.7816164E-02  0.1184000E+00
        -11   -1    0    0    0    0  0.00000000000E+00  0.00000000000E+00  0.45593999997E+02  0.45594000000E+02  0.51100000000E-03 0. -1.
         11   -1    0    0    0    0 -0.00000000000E+00 -0.00000000000E+00 -0.45593999997E+02  0.45594000000E+02  0.51100000000E-03 0.  1.
         23    2    1    2    0    0  0.35527136788E-14  0.35527136788E-14  0.35527136788E-14  0.91188000000E+02  0.91188000000E+02 0.  0.
    9900012    2    3    3    0    0 -0.18617367227E+02  0.28734172962E+02 -0.21929567341E+02  0.50528868405E+02  0.30000026004E+02 0.  0.
         12    1    3    3    0    0  0.18617367227E+02 -0.28734172962E+02  0.21929567341E+02  0.40659131595E+02  0.00000000000E+00 0. -1.
         11    1    4    4    0    0  0.30839976542E+01  0.54108004059E+01 -0.73375870945E+01  0.96243434682E+01  0.51100000000E-03 0. -1.
        -11    1    4    4    0    0 -0.95435216100E+01  0.13273443795E+02  0.36887190446E+01  0.16759169531E+02  0.51100000000E-03 0.  1.
        -12    1    4    4    0    0 -0.12157843271E+02  0.10049928761E+02 -0.18280699291E+02  0.24145355406E+02  0.00000000000E+00 0.  1.
</event>
<event>
 8    1  0.6016610E-012  0.9118800E+02  0.7816164E-02  0.1184000E+00
        -11   -1    0    0    0    0  0.00000000000E+00  0.00000000000E+00  0.45593999997E+02  0.45594000000E+02  0.51100000000E-03 0. -1.
         11   -1    0    0    0    0 -0.00000000000E+00 -0.00000000000E+00 -0.45593999997E+02  0.45594000000E+02  0.51100000000E-03 0.  1.
         23    2    1    2    0    0 -0.44408920985E-15 -0.35527136788E-14  0.00000000000E+00  0.91188000000E+02  0.91188000000E+02 0.  0.
    9900012    2    3    3    0    0  0.33904861482E+01  0.25988110448E+02 -0.31085180546E+02  0.50528859201E+02  0.29999998026E+02 0.  0.
         12    1    3    3    0    0 -0.33904861482E+01 -0.25988110448E+02  0.31085180546E+02  0.40659140799E+02  0.00000000000E+00 0. -1.
         11    1    4    4    0    0 -0.63224404803E+01  0.10682259291E+02 -0.21627078075E+01  0.12600048512E+02  0.51100000000E-03 0. -1.
        -11    1    4    4    0    0  0.35771709051E+01  0.56764568780E+01 -0.24954707120E+02  0.25840969836E+02  0.51100000000E-03 0.  1.
        -12    1    4    4    0    0  0.61357557235E+01  0.96293942787E+01 -0.39677656190E+01  0.12087840853E+02  0.00000000000E+00 0.  1.
</event>
<event>
 8    1  0.6016610E-012  0.9118800E+02  0.7816164E-02  0.1184000E+00
        -11   -1    0    0    0    0  0.00000000000E+00  0.00000000000E+00  0.45593999997E+02  0.45594000000E+02  0.51100000000E-03 0. -1.
         11   -1    0    0    0    0 -0.00000000000E+00 -0.00000000000E+00 -0.45593999997E+02  0.45594000000E+02  0.51100000000E-03 0.  1.
         23    2    1    2    0    0 -0.35527136788E-14  0.00000000000E+00 -0.35527136788E-14  0.91188000000E+02  0.91188000000E+02 0.  0.
    9900012    2    3    3    0    0  0.28938727304E+02  0.11870760495E+02 -0.25976933170E+02  0.50528856507E+02  0.29999989838E+02 0.  0.
         12    1    3    3    0    0 -0.28938727304E+02 -0.11870760495E+02  0.25976933170E+02  0.40659143493E+02  0.00000000000E+00 0. -1.
         11    1    4    4    0    0 -0.58727132908E+00  0.26855700286E+01 -0.15331455819E+02  0.15575965838E+02  0.51100000000E-03 0. -1.
        -11    1    4    4    0    0  0.13404661750E+02  0.90842229710E+01 -0.11292995032E+01  0.16232171181E+02  0.51100000000E-03 0.  1.
         12    1    4    4    0    0  0.16121336883E+02  0.10096749528E+00 -0.95161778477E+01  0.18720719488E+02  0.00000000000E+00 0. -1.
</event>
<event>
 8    1  0.6016610E-012  0.9118800E+02  0.7816164E-02  0.1184000E+00
        -11   -1    0    0    0    0  0.00000000000E+00  0.00000000000E+00  0.45593999997E+02  0.45594000000E+02  0.51100000000E-03 0.  1.
         11   -1    0    0    0    0 -0.00000000000E+00 -0.00000000000E+00 -0.45593999997E+02  0.45594000000E+02  0.51100000000E-03 0. -1.
         23    2    1    2    0    0  0.71054273576E-14  0.17763568394E-14 -0.17763568394E-14  0.91188000000E+02  0.91188000000E+02 0.  0.
    9900012    2    3    3    0    0 -0.37679046903E+02 -0.13429917365E+02  0.72864817244E+01  0.50528855003E+02  0.29999985267E+02 0.  0.
        -12    1    3    3    0    0  0.37679046903E+02  0.13429917365E+02 -0.72864817244E+01  0.40659144997E+02  0.00000000000E+00 0.  1.
         11    1    4    4    0    0 -0.28632258447E+02 -0.10191500069E+02  0.83414748795E+01  0.31515918214E+02  0.51100000000E-03 0. -1.
        -11    1    4    4    0    0  0.46185994369E+01 -0.14071124007E+01 -0.19253995356E+01  0.51979409096E+01  0.51100000000E-03 0.  1.
        -12    1    4    4    0    0 -0.13665387893E+02 -0.18313048956E+01  0.87040638049E+00  0.13814995879E+02  0.00000000000E+00 0.  1.
</event>
<event>
 8    1  0.6016610E-012  0.9118800E+02  0.7816164E-02  0.1184000E+00
        -11   -1    0    0    0    0  0.00000000000E+00  0.00000000000E+00  0.45593999997E+02  0.45594000000E+02  0.51100000000E-03 0.  1.
         11   -1    0    0    0    0 -0.00000000000E+00 -0.00000000000E+00 -0.45593999997E+02  0.45594000000E+02  0.51100000000E-03 0. -1.
         23    2    1    2    0    0  0.00000000000E+00  0.00000000000E+00  0.88817841970E-15  0.91188000000E+02  0.91188000000E+02 0.  0.
    9900012    2    3    3    0    0 -0.37508163933E+02  0.14316740948E+02  0.64291431369E+01  0.50528864318E+02  0.30000013580E+02 0.  0.
        -12    1    3    3    0    0  0.37508163933E+02 -0.14316740948E+02 -0.64291431369E+01  0.40659135682E+02  0.00000000000E+00 0.  1.
         11    1    4    4    0    0 -0.31302376285E+02  0.15894792172E+02  0.67780943072E+01  0.35755079947E+02  0.51100000000E-03 0. -1.
        -11    1    4    4    0    0 -0.91244373324E+01 -0.47344921090E+01 -0.13269394279E+01  0.10364918749E+02  0.51100000000E-03 0.  1.
         12    1    4    4    0    0  0.29186496853E+01  0.31564408840E+01  0.97798825757E+00  0.44088656219E+01  0.00000000000E+00 0. -1.
</event>
<event>
 8    1  0.6016610E-012  0.9118800E+02  0.7816164E-02  0.1184000E+00
        -11   -1    0    0    0    0  0.00000000000E+00  0.00000000000E+00  0.45593999997E+02  0.45594000000E+02  0.51100000000E-03 0. -1.
         11   -1    0    0    0    0 -0.00000000000E+00 -0.00000000000E+00 -0.45593999997E+02  0.45594000000E+02  0.51100000000E-03 0.  1.
         23    2    1    2    0    0  0.35527136788E-14  0.88817841970E-15  0.71054273576E-14  0.91188000000E+02  0.91188000000E+02 0.  0.
    9900012    2    3    3    0    0  0.23319522273E+02  0.49926757937E+01  0.32930809771E+02  0.50528866183E+02  0.30000019249E+02 0.  0.
        -12    1    3    3    0    0 -0.23319522273E+02 -0.49926757937E+01 -0.32930809771E+02  0.40659133817E+02  0.00000000000E+00 0.  1.
         11    1    4    4    0    0  0.37181201456E+01  0.10981926533E+02  0.88765990947E+01  0.14602093670E+02  0.51100000000E-03 0. -1.
        -11    1    4    4    0    0  0.59755869816E+01 -0.86803571327E+01  0.17819786740E+02  0.20702681938E+02  0.51100000000E-03 0.  1.
        -12    1    4    4    0    0  0.13625815146E+02  0.26911063934E+01  0.62344239363E+01  0.15224090575E+02  0.00000000000E+00 0.  1.
</event>
<event>
 8    1  0.6016610E-012  0.9118800E+02  0.7816164E-02  0.1184000E+00
        -11   -1    0    0    0    0  0.00000000000E+00  0.00000000000E+00  0.45593999997E+02  0.45594000000E+02  0.51100000000E-03 0. -1.
         11   -1    0    0    0    0 -0.00000000000E+00 -0.00000000000E+00 -0.45593999997E+02  0.45594000000E+02  0.51100000000E-03 0.  1.
         23    2    1    2    0    0  0.00000000000E+00  0.35527136788E-14  0.00000000000E+00  0.91188000000E+02  0.91188000000E+02 0.  0.
    9900012    2    3    3    0    0 -0.11064922447E+02 -0.26989487849E+02  0.28324915433E+02  0.50528858378E+02  0.29999995526E+02 0.  0.
        -12    1    3    3    0    0  0.11064922447E+02  0.26989487849E+02 -0.28324915433E+02  0.40659141622E+02  0.00000000000E+00 0.  1.
         11    1    4    4    0    0 -0.15804364904E+02 -0.11298268945E+02  0.81319184096E+01  0.21060791259E+02  0.51100000000E-03 0. -1.
        -11    1    4    4    0    0  0.15201828783E+01 -0.16566359981E+02  0.20152218336E+02  0.26131726754E+02  0.51100000000E-03 0.  1.
        -12    1    4    4    0    0  0.32192595785E+01  0.87514107627E+00  0.40778687412E-01  0.33363403661E+01  0.00000000000E+00 0.  1.
</event>
<event>
 8    1  0.6016610E-012  0.9118800E+02  0.7816164E-02  0.1184000E+00
        -11   -1    0    0    0    0  0.00000000000E+00  0.00000000000E+00  0.45593999997E+02  0.45594000000E+02  0.51100000000E-03 0. -1.
         11   -1    0    0    0    0 -0.00000000000E+00 -0.00000000000E+00 -0.45593999997E+02  0.45594000000E+02  0.51100000000E-03 0.  1.
         23    2    1    2    0    0  0.00000000000E+00  0.00000000000E+00  0.00000000000E+00  0.91188000000E+02  0.91188000000E+02 0.  0.
    9900012    2    3    3    0    0  0.22457799592E+02 -0.17832302761E+02  0.28823985415E+02  0.50528856877E+02  0.29999990965E+02 0.  0.
        -12    1    3    3    0    0 -0.22457799592E+02  0.17832302761E+02 -0.28823985415E+02  0.40659143123E+02  0.00000000000E+00 0.  1.
         11    1    4    4    0    0  0.14629934607E+02  0.52698493649E+01  0.10239694687E+02  0.18618744493E+02  0.51100000000E-03 0. -1.
        -11    1    4    4    0    0  0.46746630925E+01 -0.99845818194E+01  0.32671365853E+01  0.11498631695E+02  0.51100000000E-03 0.  1.
         12    1    4    4    0    0  0.31532018926E+01 -0.13117570306E+02  0.15317154142E+02  0.20411480689E+02  0.00000000000E+00 0. -1.
</event>
<event>
 8    1  0.6016610E-012  0.9118800E+02  0.7816164E-02  0.1184000E+00
        -11   -1    0    0    0    0  0.00000000000E+00  0.00000000000E+00  0.45593999997E+02  0.45594000000E+02  0.51100000000E-03 0. -1.
         11   -1    0    0    0    0 -0.00000000000E+00 -0.00000000000E+00 -0.45593999997E+02  0.45594000000E+02  0.51100000000E-03 0.  1.
         23    2    1    2    0    0  0.88817841970E-15 -0.35527136788E-14 -0.35527136788E-14  0.91188000000E+02  0.91188000000E+02 0.  0.
    9900012    2    3    3    0    0  0.45270243454E+01 -0.24805243317E+02 -0.31896257856E+02  0.50528864364E+02  0.30000013721E+02 0.  0.
         12    1    3    3    0    0 -0.45270243454E+01  0.24805243317E+02  0.31896257856E+02  0.40659135636E+02  0.00000000000E+00 0. -1.
         11    1    4    4    0    0 -0.62231621318E+01 -0.19713052678E+02 -0.28376559303E+02  0.35107852554E+02  0.51100000000E-03 0. -1.
        -11    1    4    4    0    0  0.27831575942E+01 -0.35574691705E+01  0.26422274567E+01  0.52328691258E+01  0.51100000000E-03 0.  1.
         12    1    4    4    0    0  0.79670288830E+01 -0.15347214686E+01 -0.61619260100E+01  0.10188142685E+02  0.00000000000E+00 0. -1.
</event>
<event>
 8    1  0.6016610E-012  0.9118800E+02  0.7816164E-02  0.1184000E+00
        -11   -1    0    0    0    0  0.00000000000E+00  0.00000000000E+00  0.45593999997E+02  0.45594000000E+02  0.51100000000E-03 0. -1.
         11   -1    0    0    0    0 -0.00000000000E+00 -0.00000000000E+00 -0.45593999997E+02  0.45594000000E+02  0.51100000000E-03 0.  1.
         23    2    1    2    0    0  0.00000000000E+00  0.00000000000E+00  0.00000000000E+00  0.91188000000E+02  0.91188000000E+02 0.  0.
    9900012    2    3    3    0    0 -0.10702681000E+02  0.23367887930E+02  0.31504929057E+02  0.50528854390E+02  0.29999983402E+02 0.  0.
        -12    1    3    3    0    0  0.10702681000E+02 -0.23367887930E+02 -0.31504929057E+02  0.40659145610E+02  0.00000000000E+00 0.  1.
         11    1    4    4    0    0  0.47195937570E-01 -0.12669326518E+01  0.21089205681E+02  0.21127279577E+02  0.51100000000E-03 0. -1.
        -11    1    4    4    0    0 -0.53620318920E+01  0.17510582585E+02  0.51112521940E+01  0.19013068866E+02  0.51100000000E-03 0.  1.
         12    1    4    4    0    0 -0.53878450455E+01  0.71242379972E+01  0.53044711814E+01  0.10388505946E+02  0.00000000000E+00 0. -1.
</event>
<event>
 8    1  0.6016610E-012  0.9118800E+02  0.7816164E-02  0.1184000E+00
        -11   -1    0    0    0    0  0.00000000000E+00  0.00000000000E+00  0.45593999997E+02  0.45594000000E+02  0.51100000000E-03 0. -1.
         11   -1    0    0    0    0 -0.00000000000E+00 -0.00000000000E+00 -0.45593999997E+02  0.45594000000E+02  0.51100000000E-03 0.  1.
         23    2    1    2    0    0  0.00000000000E+00 -0.35527136788E-14  0.14210854715E-13  0.91188000000E+02  0.91188000000E+02 0.  0.
    9900012    2    3    3    0    0 -0.11134172699E+02  0.10269762755E+02 -0.37732314811E+02  0.50528863146E+02  0.30000010018E+02 0.  0.
         12    1    3    3    0    0  0.11134172699E+02 -0.10269762755E+02  0.37732314811E+02  0.40659136854E+02  0.00000000000E+00 0. -1.
         11    1    4    4    0    0 -0.88880103972E+01 -0.39876002450E+01 -0.52507198305E+00  0.97556847727E+01  0.51100000000E-03 0. -1.
        -11    1    4    4    0    0 -0.75006316893E+00  0.10016318606E+02 -0.14590232320E+02  0.17713387947E+02  0.51100000000E-03 0.  1.
         12    1    4    4    0    0 -0.14960991333E+01  0.42410443942E+01 -0.22617010508E+02  0.23059790426E+02  0.00000000000E+00 0. -1.
</event>
<event>
 8    1  0.6016610E-012  0.9118800E+02  0.7816164E-02  0.1184000E+00
        -11   -1    0    0    0    0  0.00000000000E+00  0.00000000000E+00  0.45593999997E+02  0.45594000000E+02  0.51100000000E-03 0. -1.
         11   -1    0    0    0    0 -0.00000000000E+00 -0.00000000000E+00 -0.45593999997E+02  0.45594000000E+02  0.51100000000E-03 0.  1.
         23    2    1    2    0    0  0.00000000000E+00  0.00000000000E+00  0.00000000000E+00  0.91188000000E+02  0.91188000000E+02 0.  0.
    9900012    2    3    3    0    0  0.16677305044E+02  0.17810274880E+02 -0.32524252082E+02  0.50528863655E+02  0.30000011567E+02 0.  0.
         12    1    3    3    0    0 -0.16677305044E+02 -0.17810274880E+02  0.32524252082E+02  0.40659136345E+02  0.00000000000E+00 0. -1.
         11    1    4    4    0    0  0.48572533895E+01  0.71022259376E+01 -0.23431906371E+02  0.24961745937E+02  0.51100000000E-03 0. -1.
        -11    1    4    4    0    0  0.12005093106E+02 -0.97691958806E+00 -0.61112918381E+01  0.13506462177E+02  0.51100000000E-03 0.  1.
         12    1    4    4    0    0 -0.18504145147E+00  0.11684968530E+02 -0.29810538723E+01  0.12060655541E+02  0.00000000000E+00 0. -1.
</event>
<event>
 8    1  0.6016610E-012  0.9118800E+02  0.7816164E-02  0.1184000E+00
        -11   -1    0    0    0    0  0.00000000000E+00  0.00000000000E+00  0.45593999997E+02  0.45594000000E+02  0.51100000000E-03 0. -1.
         11   -1    0    0    0    0 -0.00000000000E+00 -0.00000000000E+00 -0.45593999997E+02  0.45594000000E+02  0.51100000000E-03 0.  1.
         23    2    1    2    0    0  0.00000000000E+00 -0.35527136788E-14  0.00000000000E+00  0.91188000000E+02  0.91188000000E+02 0.  0.
    9900012    2    3    3    0    0 -0.10104274470E+02  0.27881937334E+02  0.27814872057E+02  0.50528857122E+02  0.29999991707E+02 0.  0.
        -12    1    3    3    0    0  0.10104274470E+02 -0.27881937334E+02 -0.27814872057E+02  0.40659142878E+02  0.00000000000E+00 0.  1.
         11    1    4    4    0    0 -0.41215279462E+01  0.12850209739E+02  0.18427970396E+02  0.22840861983E+02  0.51100000000E-03 0. -1.
        -11    1    4    4    0    0 -0.65323216231E+01  0.11264990124E+02 -0.41174413332E+01  0.13657399155E+02  0.51100000000E-03 0.  1.
        -12    1    4    4    0    0  0.54957509893E+00  0.37667374709E+01  0.13504342994E+02  0.14030595984E+02  0.00000000000E+00 0.  1.
</event>
<event>
 8    1  0.6016610E-012  0.9118800E+02  0.7816164E-02  0.1184000E+00
        -11   -1    0    0    0    0  0.00000000000E+00  0.00000000000E+00  0.45593999997E+02  0.45594000000E+02  0.51100000000E-03 0.  1.
         11   -1    0    0    0    0 -0.00000000000E+00 -0.00000000000E+00 -0.45593999997E+02  0.45594000000E+02  0.51100000000E-03 0. -1.
         23    2    1    2    0    0  0.00000000000E+00 -0.44408920985E-15  0.00000000000E+00  0.91188000000E+02  0.91188000000E+02 0.  0.
    9900012    2    3    3    0    0  0.28406904852E+02 -0.39238140612E+01 -0.28823909278E+02  0.50528852123E+02  0.29999976512E+02 0.  0.
         12    1    3    3    0    0 -0.28406904852E+02  0.39238140612E+01  0.28823909278E+02  0.40659147877E+02  0.00000000000E+00 0. -1.
         11    1    4    4    0    0 -0.10394318705E+01 -0.42979685883E+01 -0.75266475484E+01  0.87294545178E+01  0.51100000000E-03 0. -1.
        -11    1    4    4    0    0  0.29888026535E+02 -0.25799795229E+01 -0.12482869568E+02  0.32492652360E+02  0.51100000000E-03 0.  1.
        -12    1    4    4    0    0 -0.44168981260E+00  0.29541340500E+01 -0.88143921615E+01  0.93067452448E+01  0.00000000000E+00 0.  1.
</event>
<event>
 8    1  0.6016610E-012  0.9118800E+02  0.7816164E-02  0.1184000E+00
        -11   -1    0    0    0    0  0.00000000000E+00  0.00000000000E+00  0.45593999997E+02  0.45594000000E+02  0.51100000000E-03 0.  1.
         11   -1    0    0    0    0 -0.00000000000E+00 -0.00000000000E+00 -0.45593999997E+02  0.45594000000E+02  0.51100000000E-03 0. -1.
         23    2    1    2    0    0  0.00000000000E+00  0.00000000000E+00  0.88817841970E-15  0.91188000000E+02  0.91188000000E+02 0.  0.
    9900012    2    3    3    0    0 -0.80474437711E+01 -0.39664955262E+02 -0.38852465735E+01  0.50528866116E+02  0.30000019048E+02 0.  0.
        -12    1    3    3    0    0  0.80474437711E+01  0.39664955262E+02  0.38852465735E+01  0.40659133884E+02  0.00000000000E+00 0.  1.
         11    1    4    4    0    0  0.15959370980E+01 -0.29241117767E+02 -0.42385088894E+01  0.29589777650E+02  0.51100000000E-03 0. -1.
        -11    1    4    4    0    0 -0.23137787735E+01 -0.15383077134E+01 -0.68236590408E+01  0.73676513083E+01  0.51100000000E-03 0.  1.
         12    1    4    4    0    0 -0.73296020956E+01 -0.88855297818E+01  0.71769213567E+01  0.13571437158E+02  0.00000000000E+00 0. -1.
</event>
<event>
 8    1  0.6016610E-012  0.9118800E+02  0.7816164E-02  0.1184000E+00
        -11   -1    0    0    0    0  0.00000000000E+00  0.00000000000E+00  0.45593999997E+02  0.45594000000E+02  0.51100000000E-03 0. -1.
         11   -1    0    0    0    0 -0.00000000000E+00 -0.00000000000E+00 -0.45593999997E+02  0.45594000000E+02  0.51100000000E-03 0.  1.
         23    2    1    2    0    0  0.22204460493E-15 -0.35527136788E-14  0.71054273576E-14  0.91188000000E+02  0.91188000000E+02 0.  0.
    9900012    2    3    3    0    0 -0.19667355228E+01  0.24283440323E+02 -0.32551680655E+02  0.50528862823E+02  0.30000009036E+02 0.  0.
         12    1    3    3    0    0  0.19667355228E+01 -0.24283440323E+02  0.32551680655E+02  0.40659137177E+02  0.00000000000E+00 0. -1.
         11    1    4    4    0    0 -0.47513114042E+00  0.11101813366E+01  0.45832056158E+01  0.47396229996E+01  0.51100000000E-03 0. -1.
        -11    1    4    4    0    0  0.57950790460E+01  0.12106783811E+02 -0.16550683013E+02  0.21309206082E+02  0.51100000000E-03 0.  1.
         12    1    4    4    0    0 -0.72866834283E+01  0.11066475175E+02 -0.20584203258E+02  0.24480033741E+02  0.00000000000E+00 0. -1.
</event>
<event>
 8    1  0.6016610E-012  0.9118800E+02  0.7816164E-02  0.1184000E+00
        -11   -1    0    0    0    0  0.00000000000E+00  0.00000000000E+00  0.45593999997E+02  0.45594000000E+02  0.51100000000E-03 0. -1.
         11   -1    0    0    0    0 -0.00000000000E+00 -0.00000000000E+00 -0.45593999997E+02  0.45594000000E+02  0.51100000000E-03 0.  1.
         23    2    1    2    0    0  0.17763568394E-14  0.00000000000E+00  0.00000000000E+00  0.91188000000E+02  0.91188000000E+02 0.  0.
    9900012    2    3    3    0    0  0.48718974859E+01  0.40180448175E+02 -0.38679762521E+01  0.50528867681E+02  0.30000023802E+02 0.  0.
         12    1    3    3    0    0 -0.48718974859E+01 -0.40180448175E+02  0.38679762521E+01  0.40659132319E+02  0.00000000000E+00 0. -1.
         11    1    4    4    0    0 -0.31403419077E+01  0.76213002173E+01  0.32258165022E+01  0.88516584133E+01  0.51100000000E-03 0. -1.
        -11    1    4    4    0    0  0.16214156568E+02  0.25160643268E+02 -0.64038311159E+01  0.30609898662E+02  0.51100000000E-03 0.  1.
        -12    1    4    4    0    0 -0.82019171742E+01  0.73985046896E+01 -0.68996163837E+00  0.11067310605E+02  0.00000000000E+00 0.  1.
</event>
<event>
 8    1  0.6016610E-012  0.9118800E+02  0.7816164E-02  0.1184000E+00
        -11   -1    0    0    0    0  0.00000000000E+00  0.00000000000E+00  0.45593999997E+02  0.45594000000E+02  0.51100000000E-03 0. -1.
         11   -1    0    0    0    0 -0.00000000000E+00 -0.00000000000E+00 -0.45593999997E+02  0.45594000000E+02  0.51100000000E-03 0.  1.
         23    2    1    2    0    0 -0.35527136788E-14 -0.35527136788E-14 -0.17763568394E-14  0.91188000000E+02  0.91188000000E+02 0.  0.
    9900012    2    3    3    0    0  0.27103234213E+02  0.27178164863E+02  0.13413716061E+02  0.50528859224E+02  0.29999998096E+02 0.  0.
        -12    1    3    3    0    0 -0.27103234213E+02 -0.27178164863E+02 -0.13413716061E+02  0.40659140776E+02  0.00000000000E+00 0.  1.
         11    1    4    4    0    0  0.13688646058E+02  0.70961082244E+01  0.16119196051E+02  0.22306103748E+02  0.51100000000E-03 0. -1.
        -11    1    4    4    0    0  0.15286500123E+02  0.17797972188E+02 -0.55644746080E+01  0.24112409210E+02  0.51100000000E-03 0.  1.
         12    1    4    4    0    0 -0.18719119680E+01  0.22840844507E+01  0.28589946185E+01  0.41103462655E+01  0.00000000000E+00 0. -1.
</event>
<event>
 8    1  0.6016610E-012  0.9118800E+02  0.7816164E-02  0.1184000E+00
        -11   -1    0    0    0    0  0.00000000000E+00  0.00000000000E+00  0.45593999997E+02  0.45594000000E+02  0.51100000000E-03 0. -1.
         11   -1    0    0    0    0 -0.00000000000E+00 -0.00000000000E+00 -0.45593999997E+02  0.45594000000E+02  0.51100000000E-03 0.  1.
         23    2    1    2    0    0  0.00000000000E+00  0.17763568394E-14  0.00000000000E+00  0.91188000000E+02  0.91188000000E+02 0.  0.
    9900012    2    3    3    0    0  0.33657666234E+02  0.91348383088E+01 -0.20901715865E+02  0.50528862118E+02  0.30000006894E+02 0.  0.
         12    1    3    3    0    0 -0.33657666234E+02 -0.91348383088E+01  0.20901715865E+02  0.40659137882E+02  0.00000000000E+00 0. -1.
         11    1    4    4    0    0  0.82900041657E+01  0.61644385990E+01  0.23319635587E+01  0.10590681121E+02  0.51100000000E-03 0. -1.
        -11    1    4    4    0    0  0.61584981803E+01  0.68786397456E+01 -0.17039563361E+02  0.19380131692E+02  0.51100000000E-03 0.  1.
        -12    1    4    4    0    0  0.19209163888E+02 -0.39082400359E+01 -0.61941160621E+01  0.20558049305E+02  0.00000000000E+00 0.  1.
</event>
<event>
 8    1  0.6016610E-012  0.9118800E+02  0.7816164E-02  0.1184000E+00
        -11   -1    0    0    0    0  0.00000000000E+00  0.00000000000E+00  0.45593999997E+02  0.45594000000E+02  0.51100000000E-03 0. -1.
         11   -1    0    0    0    0 -0.00000000000E+00 -0.00000000000E+00 -0.45593999997E+02  0.45594000000E+02  0.51100000000E-03 0.  1.
         23    2    1    2    0    0  0.88817841970E-15  0.00000000000E+00  0.00000000000E+00  0.91188000000E+02  0.91188000000E+02 0.  0.
    9900012    2    3    3    0    0 -0.73721256959E+01  0.29181831371E+02  0.27335650460E+02  0.50528864427E+02  0.30000013912E+02 0.  0.
        -12    1    3    3    0    0  0.73721256959E+01 -0.29181831371E+02 -0.27335650460E+02  0.40659135573E+02  0.00000000000E+00 0.  1.
         11    1    4    4    0    0 -0.11639026219E+02  0.78830304771E+01  0.65263765715E+01  0.15498473868E+02  0.51100000000E-03 0. -1.
        -11    1    4    4    0    0  0.46286512075E+01  0.21634899358E+02  0.10119031448E+02  0.24328750069E+02  0.51100000000E-03 0.  1.
        -12    1    4    4    0    0 -0.36175068492E+00 -0.33609846356E+00  0.10690242440E+02  0.10701640490E+02  0.00000000000E+00 0.  1.
</event>
<event>
 8    1  0.6016610E-012  0.9118800E+02  0.7816164E-02  0.1184000E+00
        -11   -1    0    0    0    0  0.00000000000E+00  0.00000000000E+00  0.45593999997E+02  0.45594000000E+02  0.51100000000E-03 0.  1.
         11   -1    0    0    0    0 -0.00000000000E+00 -0.00000000000E+00 -0.45593999997E+02  0.45594000000E+02  0.51100000000E-03 0. -1.
         23    2    1    2    0    0  0.00000000000E+00  0.66613381478E-15 -0.17763568394E-14  0.91188000000E+02  0.91188000000E+02 0.  0.
    9900012    2    3    3    0    0  0.39010305728E+02 -0.11082728164E+01 -0.11407599058E+02  0.50528861569E+02  0.30000005226E+02 0.  0.
         12    1    3    3    0    0 -0.39010305728E+02  0.11082728164E+01  0.11407599058E+02  0.40659138431E+02  0.00000000000E+00 0. -1.
         11    1    4    4    0    0  0.39255018466E+02 -0.59789841364E+01 -0.35130340069E+01  0.39862841522E+02  0.51100000000E-03 0.  1.
        -11    1    4    4    0    0 -0.13350463652E+01 -0.27904280044E+00 -0.36741039522E+01  0.39190883882E+01  0.51100000000E-03 0. -1.
         12    1    4    4    0    0  0.10903336278E+01  0.51497541204E+01 -0.42204610992E+01  0.67469316589E+01  0.00000000000E+00 0. -1.
</event>
<event>
 8    1  0.6016610E-012  0.9118800E+02  0.7816164E-02  0.1184000E+00
        -11   -1    0    0    0    0  0.00000000000E+00  0.00000000000E+00  0.45593999997E+02  0.45594000000E+02  0.51100000000E-03 0. -1.
         11   -1    0    0    0    0 -0.00000000000E+00 -0.00000000000E+00 -0.45593999997E+02  0.45594000000E+02  0.51100000000E-03 0.  1.
         23    2    1    2    0    0  0.00000000000E+00  0.00000000000E+00  0.00000000000E+00  0.91188000000E+02  0.91188000000E+02 0.  0.
    9900012    2    3    3    0    0 -0.24054914259E+02  0.12942385521E+02 -0.30116790630E+02  0.50528864239E+02  0.30000013342E+02 0.  0.
         12    1    3    3    0    0  0.24054914259E+02 -0.12942385521E+02  0.30116790630E+02  0.40659135761E+02  0.00000000000E+00 0. -1.
         11    1    4    4    0    0  0.43668190032E+01  0.33756348142E+01 -0.22220504472E+01  0.59499182395E+01  0.51100000000E-03 0. -1.
        -11    1    4    4    0    0 -0.22214782146E+02  0.34680445827E+00 -0.24233856595E+02  0.32876992333E+02  0.51100000000E-03 0.  1.
        -12    1    4    4    0    0 -0.62069511157E+01  0.92199462484E+01 -0.36608835871E+01  0.11701953667E+02  0.00000000000E+00 0.  1.
</event>
<event>
 8    1  0.6016610E-012  0.9118800E+02  0.7816164E-02  0.1184000E+00
        -11   -1    0    0    0    0  0.00000000000E+00  0.00000000000E+00  0.45593999997E+02  0.45594000000E+02  0.51100000000E-03 0.  1.
         11   -1    0    0    0    0 -0.00000000000E+00 -0.00000000000E+00 -0.45593999997E+02  0.45594000000E+02  0.51100000000E-03 0. -1.
         23    2    1    2    0    0 -0.71054273576E-14  0.17763568394E-14 -0.88817841970E-15  0.91188000000E+02  0.91188000000E+02 0.  0.
    9900012    2    3    3    0    0  0.37629072301E+02 -0.15134576069E+02 -0.28558357652E+01  0.50528950910E+02  0.30000276783E+02 0.  0.
         12    1    3    3    0    0 -0.37629072301E+02  0.15134576069E+02  0.28558357652E+01  0.40659049090E+02  0.00000000000E+00 0. -1.
         11    1    4    4    0    0  0.26000038096E+02 -0.13907125673E+02 -0.11441092358E+02  0.31627657518E+02  0.51100000000E-03 0. -1.
        -11    1    4    4    0    0  0.12100780789E+02 -0.44754969868E+01  0.45072137325E+01  0.13666526438E+02  0.51100000000E-03 0.  1.
         12    1    4    4    0    0 -0.47174658393E+00  0.32480465906E+01  0.40780428600E+01  0.52347669539E+01  0.00000000000E+00 0. -1.
</event>
<event>
 8    1  0.6016610E-012  0.9118800E+02  0.7816164E-02  0.1184000E+00
        -11   -1    0    0    0    0  0.00000000000E+00  0.00000000000E+00  0.45593999997E+02  0.45594000000E+02  0.51100000000E-03 0. -1.
         11   -1    0    0    0    0 -0.00000000000E+00 -0.00000000000E+00 -0.45593999997E+02  0.45594000000E+02  0.51100000000E-03 0.  1.
         23    2    1    2    0    0  0.00000000000E+00  0.00000000000E+00  0.00000000000E+00  0.91188000000E+02  0.91188000000E+02 0.  0.
    9900012    2    3    3    0    0  0.16288680689E+02  0.91011084628E+01  0.36124840498E+02  0.50528986303E+02  0.30000384363E+02 0.  0.
        -12    1    3    3    0    0 -0.16288680689E+02 -0.91011084628E+01 -0.36124840498E+02  0.40659013697E+02  0.00000000000E+00 0.  1.
         11    1    4    4    0    0  0.41627215563E+01  0.54164860973E+01  0.82645034929E+01  0.10722340726E+02  0.51100000000E-03 0. -1.
        -11    1    4    4    0    0  0.10034275676E+02 -0.85326326710E+01  0.22976472174E+02  0.26484160974E+02  0.51100000000E-03 0.  1.
        -12    1    4    4    0    0  0.20916834561E+01  0.12217255036E+02  0.48838648310E+01  0.13322484603E+02  0.00000000000E+00 0.  1.
</event>
<event>
 8    1  0.6016610E-012  0.9118800E+02  0.7816164E-02  0.1184000E+00
        -11   -1    0    0    0    0  0.00000000000E+00  0.00000000000E+00  0.45593999997E+02  0.45594000000E+02  0.51100000000E-03 0. -1.
         11   -1    0    0    0    0 -0.00000000000E+00 -0.00000000000E+00 -0.45593999997E+02  0.45594000000E+02  0.51100000000E-03 0.  1.
         23    2    1    2    0    0  0.00000000000E+00  0.00000000000E+00 -0.35527136788E-14  0.91188000000E+02  0.91188000000E+02 0.  0.
    9900012    2    3    3    0    0 -0.35670038472E+02 -0.92686648314E+01 -0.17172823581E+02  0.50528860043E+02  0.30000000585E+02 0.  0.
         12    1    3    3    0    0  0.35670038472E+02  0.92686648314E+01  0.17172823581E+02  0.40659139957E+02  0.00000000000E+00 0. -1.
         11    1    4    4    0    0 -0.21478432763E+00 -0.99742977536E+01  0.18843338837E+01  0.10153002631E+02  0.51100000000E-03 0. -1.
        -11    1    4    4    0    0 -0.91973227090E+01  0.13464033933E+01 -0.42109360642E+01  0.10204681764E+02  0.51100000000E-03 0.  1.
         12    1    4    4    0    0 -0.26257931435E+02 -0.64077047113E+00 -0.14846221400E+02  0.30171175647E+02  0.00000000000E+00 0. -1.
</event>
<event>
 8    1  0.6016610E-012  0.9118800E+02  0.7816164E-02  0.1184000E+00
        -11   -1    0    0    0    0  0.00000000000E+00  0.00000000000E+00  0.45593999997E+02  0.45594000000E+02  0.51100000000E-03 0. -1.
         11   -1    0    0    0    0 -0.00000000000E+00 -0.00000000000E+00 -0.45593999997E+02  0.45594000000E+02  0.51100000000E-03 0.  1.
         23    2    1    2    0    0  0.00000000000E+00  0.00000000000E+00  0.00000000000E+00  0.91188000000E+02  0.91188000000E+02 0.  0.
    9900012    2    3    3    0    0 -0.24495174891E+02 -0.81231195685E+01 -0.31419211712E+02  0.50528861679E+02  0.30000005558E+02 0.  0.
         12    1    3    3    0    0  0.24495174891E+02  0.81231195685E+01  0.31419211712E+02  0.40659138321E+02  0.00000000000E+00 0. -1.
         11    1    4    4    0    0 -0.10959637848E+02 -0.12159136820E+02 -0.43241893501E+01  0.16930944562E+02  0.51100000000E-03 0. -1.
        -11    1    4    4    0    0 -0.66715893388E+01 -0.47835703141E+01 -0.15208207938E+02  0.17282425704E+02  0.51100000000E-03 0.  1.
         12    1    4    4    0    0 -0.68639477038E+01  0.88195875652E+01 -0.11886814423E+02  0.16315491412E+02  0.00000000000E+00 0. -1.
</event>
<event>
 8    1  0.6016610E-012  0.9118800E+02  0.7816164E-02  0.1184000E+00
        -11   -1    0    0    0    0  0.00000000000E+00  0.00000000000E+00  0.45593999997E+02  0.45594000000E+02  0.51100000000E-03 0. -1.
         11   -1    0    0    0    0 -0.00000000000E+00 -0.00000000000E+00 -0.45593999997E+02  0.45594000000E+02  0.51100000000E-03 0.  1.
         23    2    1    2    0    0 -0.88817841970E-15  0.00000000000E+00  0.00000000000E+00  0.91188000000E+02  0.91188000000E+02 0.  0.
    9900012    2    3    3    0    0  0.43817440833E+01  0.28345878226E+02  0.28817975994E+02  0.50528877604E+02  0.30000053966E+02 0.  0.
        -12    1    3    3    0    0 -0.43817440833E+01 -0.28345878226E+02 -0.28817975994E+02  0.40659122396E+02  0.00000000000E+00 0.  1.
         11    1    4    4    0    0 -0.47052105726E+00 -0.17455365700E+01 -0.28209620840E+01  0.33505395570E+01  0.51100000000E-03 0. -1.
        -11    1    4    4    0    0  0.62919090216E+01  0.15183571134E+02  0.26800931047E+02  0.31439129389E+02  0.51100000000E-03 0.  1.
        -12    1    4    4    0    0 -0.14396438810E+01  0.14907843662E+02  0.48380070314E+01  0.15739208658E+02  0.00000000000E+00 0.  1.
</event>
<event>
 8    1  0.6016610E-012  0.9118800E+02  0.7816164E-02  0.1184000E+00
        -11   -1    0    0    0    0  0.00000000000E+00  0.00000000000E+00  0.45593999997E+02  0.45594000000E+02  0.51100000000E-03 0.  1.
         11   -1    0    0    0    0 -0.00000000000E+00 -0.00000000000E+00 -0.45593999997E+02  0.45594000000E+02  0.51100000000E-03 0. -1.
         23    2    1    2    0    0  0.35527136788E-14 -0.26645352591E-14 -0.35527136788E-14  0.91188000000E+02  0.91188000000E+02 0.  0.
    9900012    2    3    3    0    0 -0.30847937483E+02 -0.51157872713E+01  0.25988452814E+02  0.50528853353E+02  0.29999980253E+02 0.  0.
        -12    1    3    3    0    0  0.30847937483E+02  0.51157872713E+01 -0.25988452814E+02  0.40659146647E+02  0.00000000000E+00 0.  1.
         11    1    4    4    0    0 -0.46961679453E+01 -0.45996387994E+00 -0.42119532897E+00  0.47374007544E+01  0.51100000000E-03 0. -1.
        -11    1    4    4    0    0 -0.12231331303E+02 -0.15287166699E+02  0.16884555671E+02  0.25853261914E+02  0.51100000000E-03 0.  1.
        -12    1    4    4    0    0 -0.13920438235E+02  0.10631343308E+02  0.95250924716E+01  0.19938190685E+02  0.00000000000E+00 0.  1.
</event>
<event>
 8    1  0.6016610E-012  0.9118800E+02  0.7816164E-02  0.1184000E+00
        -11   -1    0    0    0    0  0.00000000000E+00  0.00000000000E+00  0.45593999997E+02  0.45594000000E+02  0.51100000000E-03 0.  1.
         11   -1    0    0    0    0 -0.00000000000E+00 -0.00000000000E+00 -0.45593999997E+02  0.45594000000E+02  0.51100000000E-03 0. -1.
         23    2    1    2    0    0 -0.35527136788E-14 -0.35527136788E-14  0.00000000000E+00  0.91188000000E+02  0.91188000000E+02 0.  0.
    9900012    2    3    3    0    0 -0.30365076379E+02  0.22173052741E+02 -0.15475248485E+02  0.50528862687E+02  0.30000008622E+02 0.  0.
         12    1    3    3    0    0  0.30365076379E+02 -0.22173052741E+02  0.15475248485E+02  0.40659137313E+02  0.00000000000E+00 0. -1.
         11    1    4    4    0    0  0.37289086266E+01 -0.17696589128E+01 -0.32105127765E+01  0.52291342268E+01  0.51100000000E-03 0. -1.
        -11    1    4    4    0    0 -0.23377267431E+02  0.90283364076E+01 -0.50250991956E+01  0.25558934114E+02  0.51100000000E-03 0.  1.
        -12    1    4    4    0    0 -0.10716717575E+02  0.14914375247E+02 -0.72396365127E+01  0.19740794346E+02  0.00000000000E+00 0.  1.
</event>
<event>
 8    1  0.6016610E-012  0.9118800E+02  0.7816164E-02  0.1184000E+00
        -11   -1    0    0    0    0  0.00000000000E+00  0.00000000000E+00  0.45593999997E+02  0.45594000000E+02  0.51100000000E-03 0. -1.
         11   -1    0    0    0    0 -0.00000000000E+00 -0.00000000000E+00 -0.45593999997E+02  0.45594000000E+02  0.51100000000E-03 0.  1.
         23    2    1    2    0    0  0.00000000000E+00 -0.35527136788E-14 -0.17763568394E-14  0.91188000000E+02  0.91188000000E+02 0.  0.
    9900012    2    3    3    0    0  0.23609235284E+02  0.30475831253E+02 -0.12922573070E+02  0.50528866020E+02  0.30000018753E+02 0.  0.
         12    1    3    3    0    0 -0.23609235284E+02 -0.30475831253E+02  0.12922573070E+02  0.40659133980E+02  0.00000000000E+00 0. -1.
         11    1    4    4    0    0 -0.21290604088E+01  0.94250805460E+00  0.16450777082E+01  0.28508771606E+01  0.51100000000E-03 0. -1.
        -11    1    4    4    0    0  0.91603525987E+01  0.12266516123E+02 -0.17851326146E+02  0.23517000722E+02  0.51100000000E-03 0.  1.
        -12    1    4    4    0    0  0.16577943094E+02  0.17266807076E+02  0.32836753680E+01  0.24160988137E+02  0.00000000000E+00 0.  1.
</event>
<event>
 8    1  0.6016610E-012  0.9118800E+02  0.7816164E-02  0.1184000E+00
        -11   -1    0    0    0    0  0.00000000000E+00  0.00000000000E+00  0.45593999997E+02  0.45594000000E+02  0.51100000000E-03 0. -1.
         11   -1    0    0    0    0 -0.00000000000E+00 -0.00000000000E+00 -0.45593999997E+02  0.45594000000E+02  0.51100000000E-03 0.  1.
         23    2    1    2    0    0  0.35527136788E-14  0.17763568394E-14  0.00000000000E+00  0.91188000000E+02  0.91188000000E+02 0.  0.
    9900012    2    3    3    0    0  0.17704939844E+02  0.11487754528E+02  0.34752441026E+02  0.50528861344E+02  0.30000004541E+02 0.  0.
        -12    1    3    3    0    0 -0.17704939844E+02 -0.11487754528E+02 -0.34752441026E+02  0.40659138656E+02  0.00000000000E+00 0.  1.
         11    1    4    4    0    0  0.15106255535E+02  0.16550364071E+01  0.14538933171E+02  0.21031373702E+02  0.51100000000E-03 0. -1.
        -11    1    4    4    0    0 -0.44253866634E+01  0.71441028745E+01  0.52355202842E+00  0.84199976241E+01  0.51100000000E-03 0.  1.
        -12    1    4    4    0    0  0.70240709729E+01  0.26886152462E+01  0.19689955827E+02  0.21077490018E+02  0.00000000000E+00 0.  1.
</event>
<event>
 8    1  0.6016610E-012  0.9118800E+02  0.7816164E-02  0.1184000E+00
        -11   -1    0    0    0    0  0.00000000000E+00  0.00000000000E+00  0.45593999997E+02  0.45594000000E+02  0.51100000000E-03 0. -1.
         11   -1    0    0    0    0 -0.00000000000E+00 -0.00000000000E+00 -0.45593999997E+02  0.45594000000E+02  0.51100000000E-03 0.  1.
         23    2    1    2    0    0  0.00000000000E+00  0.88817841970E-15  0.00000000000E+00  0.91188000000E+02  0.91188000000E+02 0.  0.
    9900012    2    3    3    0    0 -0.28108131064E+02 -0.42509312354E+01  0.29069383770E+02  0.50528849479E+02  0.29999968478E+02 0.  0.
        -12    1    3    3    0    0  0.28108131064E+02  0.42509312354E+01 -0.29069383770E+02  0.40659150521E+02  0.00000000000E+00 0.  1.
         11    1    4    4    0    0 -0.17181984457E+02  0.34436023940E+01  0.10073674637E+02  0.20212815447E+02  0.51100000000E-03 0. -1.
        -11    1    4    4    0    0 -0.12215023569E+01 -0.91444316540E+01  0.33379052599E+00  0.92316907801E+01  0.51100000000E-03 0.  1.
         12    1    4    4    0    0 -0.97046442501E+01  0.14498980246E+01  0.18661918606E+02  0.21084343252E+02  0.00000000000E+00 0. -1.
</event>
<event>
 8    1  0.6016610E-012  0.9118800E+02  0.7816164E-02  0.1184000E+00
        -11   -1    0    0    0    0  0.00000000000E+00  0.00000000000E+00  0.45593999997E+02  0.45594000000E+02  0.51100000000E-03 0. -1.
         11   -1    0    0    0    0 -0.00000000000E+00 -0.00000000000E+00 -0.45593999997E+02  0.45594000000E+02  0.51100000000E-03 0.  1.
         23    2    1    2    0    0 -0.17763568394E-14  0.88817841970E-15  0.00000000000E+00  0.91188000000E+02  0.91188000000E+02 0.  0.
    9900012    2    3    3    0    0  0.13790478190E+02 -0.68899034082E+01 -0.37623389033E+02  0.50528837933E+02  0.29999933380E+02 0.  0.
         12    1    3    3    0    0 -0.13790478190E+02  0.68899034082E+01  0.37623389033E+02  0.40659162067E+02  0.00000000000E+00 0. -1.
         11    1    4    4    0    0  0.66684917980E+01  0.36821207757E+01 -0.16874123934E+01  0.78021892513E+01  0.51100000000E-03 0. -1.
        -11    1    4    4    0    0  0.12684543130E+02 -0.10851267201E+02 -0.31328936036E+02  0.35498589658E+02  0.51100000000E-03 0.  1.
        -12    1    4    4    0    0 -0.55625567377E+01  0.27924301732E+00 -0.46070406038E+01  0.72280590236E+01  0.00000000000E+00 0.  1.
</event>
<event>
 8    1  0.6016610E-012  0.9118800E+02  0.7816164E-02  0.1184000E+00
        -11   -1    0    0    0    0  0.00000000000E+00  0.00000000000E+00  0.45593999997E+02  0.45594000000E+02  0.51100000000E-03 0. -1.
         11   -1    0    0    0    0 -0.00000000000E+00 -0.00000000000E+00 -0.45593999997E+02  0.45594000000E+02  0.51100000000E-03 0.  1.
         23    2    1    2    0    0  0.00000000000E+00  0.00000000000E+00 -0.17763568394E-14  0.91188000000E+02  0.91188000000E+02 0.  0.
    9900012    2    3    3    0    0 -0.33522738082E+02  0.21255594412E+02 -0.88084649818E+01  0.50528888872E+02  0.30000088217E+02 0.  0.
         12    1    3    3    0    0  0.33522738082E+02 -0.21255594412E+02  0.88084649818E+01  0.40659111128E+02  0.00000000000E+00 0. -1.
         11    1    4    4    0    0  0.69715950957E+00 -0.32782359191E+01 -0.34774436517E+01  0.48296456117E+01  0.51100000000E-03 0. -1.
        -11    1    4    4    0    0 -0.32178022133E+02  0.22496162009E+02  0.42119889065E+00  0.39264230825E+02  0.51100000000E-03 0.  1.
        -12    1    4    4    0    0 -0.20418754592E+01  0.20376683226E+01 -0.57522202208E+01  0.64350124360E+01  0.00000000000E+00 0.  1.
</event>
<event>
 8    1  0.6016610E-012  0.9118800E+02  0.7816164E-02  0.1184000E+00
        -11   -1    0    0    0    0  0.00000000000E+00  0.00000000000E+00  0.45593999997E+02  0.45594000000E+02  0.51100000000E-03 0.  1.
         11   -1    0    0    0    0 -0.00000000000E+00 -0.00000000000E+00 -0.45593999997E+02  0.45594000000E+02  0.51100000000E-03 0. -1.
         23    2    1    2    0    0 -0.13322676296E-14  0.00000000000E+00  0.00000000000E+00  0.91188000000E+02  0.91188000000E+02 0.  0.
    9900012    2    3    3    0    0 -0.23788337821E+01  0.36314298714E+02  0.18132229125E+02  0.50528869731E+02  0.30000030033E+02 0.  0.
        -12    1    3    3    0    0  0.23788337821E+01 -0.36314298714E+02 -0.18132229125E+02  0.40659130269E+02  0.00000000000E+00 0.  1.
         11    1    4    4    0    0  0.12172878659E+02  0.10769262391E+02  0.10077152619E+02  0.19123414770E+02  0.51100000000E-03 0. -1.
        -11    1    4    4    0    0 -0.11299379091E+02  0.12249914442E+02  0.42301355841E+01  0.17193906449E+02  0.51100000000E-03 0.  1.
         12    1    4    4    0    0 -0.32523333503E+01  0.13295121880E+02  0.38249409219E+01  0.14211548511E+02  0.00000000000E+00 0. -1.
</event>
<event>
 8    1  0.6016610E-012  0.9118800E+02  0.7816164E-02  0.1184000E+00
        -11   -1    0    0    0    0  0.00000000000E+00  0.00000000000E+00  0.45593999997E+02  0.45594000000E+02  0.51100000000E-03 0. -1.
         11   -1    0    0    0    0 -0.00000000000E+00 -0.00000000000E+00 -0.45593999997E+02  0.45594000000E+02  0.51100000000E-03 0.  1.
         23    2    1    2    0    0  0.00000000000E+00 -0.35527136788E-14  0.00000000000E+00  0.91188000000E+02  0.91188000000E+02 0.  0.
    9900012    2    3    3    0    0  0.53464047287E+01 -0.23986627226E+02  0.32391724049E+02  0.50528854459E+02  0.29999983614E+02 0.  0.
        -12    1    3    3    0    0 -0.53464047287E+01  0.23986627226E+02 -0.32391724049E+02  0.40659145541E+02  0.00000000000E+00 0.  1.
         11    1    4    4    0    0 -0.11321636369E+02 -0.12853706673E+02  0.13009019991E+02  0.21508877858E+02  0.51100000000E-03 0. -1.
        -11    1    4    4    0    0  0.12169975915E+02 -0.46674661422E+01  0.84057649260E+01  0.15509688527E+02  0.51100000000E-03 0.  1.
        -12    1    4    4    0    0  0.44980651833E+01 -0.64654544112E+01  0.10976939133E+02  0.13510288075E+02  0.00000000000E+00 0.  1.
</event>
<event>
 8    1  0.6016610E-012  0.9118800E+02  0.7816164E-02  0.1184000E+00
        -11   -1    0    0    0    0  0.00000000000E+00  0.00000000000E+00  0.45593999997E+02  0.45594000000E+02  0.51100000000E-03 0. -1.
         11   -1    0    0    0    0 -0.00000000000E+00 -0.00000000000E+00 -0.45593999997E+02  0.45594000000E+02  0.51100000000E-03 0.  1.
         23    2    1    2    0    0 -0.17763568394E-14 -0.71054273576E-14  0.00000000000E+00  0.91188000000E+02  0.91188000000E+02 0.  0.
    9900012    2    3    3    0    0  0.13714658243E+02  0.36322334115E+02  0.12073189944E+02  0.50528859309E+02  0.29999998356E+02 0.  0.
        -12    1    3    3    0    0 -0.13714658243E+02 -0.36322334115E+02 -0.12073189944E+02  0.40659140691E+02  0.00000000000E+00 0.  1.
         11    1    4    4    0    0 -0.29097120597E+01  0.27615893124E+00  0.20707514732E+01  0.35819966430E+01  0.51100000000E-03 0. -1.
        -11    1    4    4    0    0  0.18508297076E+02  0.27692632240E+02 -0.60562403260E+00  0.33313746739E+02  0.51100000000E-03 0.  1.
        -12    1    4    4    0    0 -0.18839267734E+01  0.83535429436E+01  0.10608062503E+02  0.13633115927E+02  0.00000000000E+00 0.  1.
</event>
<event>
 8    1  0.6016610E-012  0.9118800E+02  0.7816164E-02  0.1184000E+00
        -11   -1    0    0    0    0  0.00000000000E+00  0.00000000000E+00  0.45593999997E+02  0.45594000000E+02  0.51100000000E-03 0. -1.
         11   -1    0    0    0    0 -0.00000000000E+00 -0.00000000000E+00 -0.45593999997E+02  0.45594000000E+02  0.51100000000E-03 0.  1.
         23    2    1    2    0    0  0.00000000000E+00  0.00000000000E+00  0.00000000000E+00  0.91188000000E+02  0.91188000000E+02 0.  0.
    9900012    2    3    3    0    0  0.14511956460E+02 -0.22115451579E+02 -0.30878399493E+02  0.50528860387E+02  0.30000001633E+02 0.  0.
         12    1    3    3    0    0 -0.14511956460E+02  0.22115451579E+02  0.30878399493E+02  0.40659139613E+02  0.00000000000E+00 0. -1.
         11    1    4    4    0    0  0.82985078153E+00 -0.18938603249E+02 -0.67839290654E+01  0.20134076566E+02  0.51100000000E-03 0. -1.
        -11    1    4    4    0    0  0.11374413654E+02 -0.43923115430E+01 -0.92021088114E+01  0.15275748541E+02  0.51100000000E-03 0.  1.
         12    1    4    4    0    0  0.23076920244E+01  0.12154632130E+01 -0.14892361616E+02  0.15119035280E+02  0.00000000000E+00 0. -1.
</event>
<event>
 8    1  0.6016610E-012  0.9118800E+02  0.7816164E-02  0.1184000E+00
        -11   -1    0    0    0    0  0.00000000000E+00  0.00000000000E+00  0.45593999997E+02  0.45594000000E+02  0.51100000000E-03 0.  1.
         11   -1    0    0    0    0 -0.00000000000E+00 -0.00000000000E+00 -0.45593999997E+02  0.45594000000E+02  0.51100000000E-03 0. -1.
         23    2    1    2    0    0 -0.71054273576E-14  0.35527136788E-14  0.00000000000E+00  0.91188000000E+02  0.91188000000E+02 0.  0.
    9900012    2    3    3    0    0 -0.33108071118E+02  0.21287895545E+02 -0.10190476477E+02  0.50528872111E+02  0.30000037268E+02 0.  0.
         12    1    3    3    0    0  0.33108071118E+02 -0.21287895545E+02  0.10190476477E+02  0.40659127889E+02  0.00000000000E+00 0. -1.
         11    1    4    4    0    0 -0.15280341678E+01  0.76020783847E+01 -0.50931896814E+00  0.77708358790E+01  0.51100000000E-03 0. -1.
        -11    1    4    4    0    0 -0.14021615046E+02 -0.55800975085E+01 -0.42648801877E+00  0.15097187453E+02  0.51100000000E-03 0.  1.
        -12    1    4    4    0    0 -0.17558421904E+02  0.19265914669E+02 -0.92546694897E+01  0.27660848779E+02  0.00000000000E+00 0.  1.
</event>
<event>
 8    1  0.6016610E-012  0.9118800E+02  0.7816164E-02  0.1184000E+00
        -11   -1    0    0    0    0  0.00000000000E+00  0.00000000000E+00  0.45593999997E+02  0.45594000000E+02  0.51100000000E-03 0. -1.
         11   -1    0    0    0    0 -0.00000000000E+00 -0.00000000000E+00 -0.45593999997E+02  0.45594000000E+02  0.51100000000E-03 0.  1.
         23    2    1    2    0    0 -0.17763568394E-14  0.35527136788E-14  0.00000000000E+00  0.91188000000E+02  0.91188000000E+02 0.  0.
    9900012    2    3    3    0    0  0.14105838158E+02 -0.24965163331E+02  0.28825876360E+02  0.50528865747E+02  0.30000017926E+02 0.  0.
        -12    1    3    3    0    0 -0.14105838158E+02  0.24965163331E+02 -0.28825876360E+02  0.40659134253E+02  0.00000000000E+00 0.  1.
         11    1    4    4    0    0  0.19494927877E+01 -0.23109299217E+02  0.12551928328E+02  0.26370269954E+02  0.51100000000E-03 0. -1.
        -11    1    4    4    0    0  0.98142550820E+01  0.46170690506E+01  0.85377950307E+01  0.13803292132E+02  0.51100000000E-03 0.  1.
        -12    1    4    4    0    0  0.23420902887E+01 -0.64729331644E+01  0.77361530012E+01  0.10355303662E+02  0.00000000000E+00 0.  1.
</event>
<event>
 8    1  0.6016610E-012  0.9118800E+02  0.7816164E-02  0.1184000E+00
        -11   -1    0    0    0    0  0.00000000000E+00  0.00000000000E+00  0.45593999997E+02  0.45594000000E+02  0.51100000000E-03 0.  1.
         11   -1    0    0    0    0 -0.00000000000E+00 -0.00000000000E+00 -0.45593999997E+02  0.45594000000E+02  0.51100000000E-03 0. -1.
         23    2    1    2    0    0 -0.35527136788E-14  0.00000000000E+00  0.00000000000E+00  0.91188000000E+02  0.91188000000E+02 0.  0.
    9900012    2    3    3    0    0  0.29525371205E+02 -0.24708098956E+02  0.13073923144E+02  0.50528866153E+02  0.30000019160E+02 0.  0.
         12    1    3    3    0    0 -0.29525371205E+02  0.24708098956E+02 -0.13073923144E+02  0.40659133847E+02  0.00000000000E+00 0. -1.
         11    1    4    4    0    0  0.15850360318E+02  0.36065901623E+01  0.44341715522E+01  0.16849430033E+02  0.51100000000E-03 0.  1.
        -11    1    4    4    0    0  0.10669484139E+02 -0.17177375511E+02  0.18786262985E+01  0.20308356858E+02  0.51100000000E-03 0. -1.
        -12    1    4    4    0    0  0.30055267472E+01 -0.11137313607E+02  0.67611252937E+01  0.13371079263E+02  0.00000000000E+00 0.  1.
</event>
<event>
 8    1  0.6016610E-012  0.9118800E+02  0.7816164E-02  0.1184000E+00
        -11   -1    0    0    0    0  0.00000000000E+00  0.00000000000E+00  0.45593999997E+02  0.45594000000E+02  0.51100000000E-03 0. -1.
         11   -1    0    0    0    0 -0.00000000000E+00 -0.00000000000E+00 -0.45593999997E+02  0.45594000000E+02  0.51100000000E-03 0.  1.
         23    2    1    2    0    0  0.00000000000E+00  0.00000000000E+00  0.83266726847E-16  0.91188000000E+02  0.91188000000E+02 0.  0.
    9900012    2    3    3    0    0 -0.24811870751E+02  0.32210042126E+02  0.22570666417E+00  0.50528847434E+02  0.29999962260E+02 0.  0.
        -12    1    3    3    0    0  0.24811870751E+02 -0.32210042126E+02 -0.22570666417E+00  0.40659152566E+02  0.00000000000E+00 0.  1.
         11    1    4    4    0    0 -0.79022961357E+01  0.63716853001E+01 -0.28716191599E+01  0.10549448073E+02  0.51100000000E-03 0. -1.
        -11    1    4    4    0    0  0.36335551601E+01  0.16982355465E+02 -0.19432373523E+00  0.17367811670E+02  0.51100000000E-03 0.  1.
        -12    1    4    4    0    0 -0.20543129776E+02  0.88560013604E+01  0.32916495593E+01  0.22611587691E+02  0.00000000000E+00 0.  1.
</event>
<event>
 8    1  0.6016610E-012  0.9118800E+02  0.7816164E-02  0.1184000E+00
        -11   -1    0    0    0    0  0.00000000000E+00  0.00000000000E+00  0.45593999997E+02  0.45594000000E+02  0.51100000000E-03 0. -1.
         11   -1    0    0    0    0 -0.00000000000E+00 -0.00000000000E+00 -0.45593999997E+02  0.45594000000E+02  0.51100000000E-03 0.  1.
         23    2    1    2    0    0  0.44408920985E-15  0.00000000000E+00  0.00000000000E+00  0.91188000000E+02  0.91188000000E+02 0.  0.
    9900012    2    3    3    0    0  0.94516264371E+00  0.24372786127E+02 -0.32530602269E+02  0.50528854411E+02  0.29999983469E+02 0.  0.
         12    1    3    3    0    0 -0.94516264371E+00 -0.24372786127E+02  0.32530602269E+02  0.40659145589E+02  0.00000000000E+00 0. -1.
         11    1    4    4    0    0 -0.82422183294E+01 -0.45102776536E+00 -0.54648081565E+01  0.98995816822E+01  0.51100000000E-03 0. -1.
        -11    1    4    4    0    0  0.44510877420E+01  0.23237338657E+02 -0.16211922598E+02  0.28681222508E+02  0.51100000000E-03 0.  1.
         12    1    4    4    0    0  0.47362932311E+01  0.15864752349E+01 -0.10853871514E+02  0.11948050221E+02  0.00000000000E+00 0. -1.
</event>
<event>
 8    1  0.6016610E-012  0.9118800E+02  0.7816164E-02  0.1184000E+00
        -11   -1    0    0    0    0  0.00000000000E+00  0.00000000000E+00  0.45593999997E+02  0.45594000000E+02  0.51100000000E-03 0. -1.
         11   -1    0    0    0    0 -0.00000000000E+00 -0.00000000000E+00 -0.45593999997E+02  0.45594000000E+02  0.51100000000E-03 0.  1.
         23    2    1    2    0    0  0.00000000000E+00  0.00000000000E+00  0.00000000000E+00  0.91188000000E+02  0.91188000000E+02 0.  0.
    9900012    2    3    3    0    0  0.62058521175E+01  0.25616645525E+01 -0.40101003420E+02  0.50528865711E+02  0.30000017816E+02 0.  0.
         12    1    3    3    0    0 -0.62058521175E+01 -0.25616645525E+01  0.40101003420E+02  0.40659134289E+02  0.00000000000E+00 0. -1.
         11    1    4    4    0    0  0.25263695990E+01 -0.34439109216E+01  0.76756906131E+00  0.43396115393E+01  0.51100000000E-03 0. -1.
        -11    1    4    4    0    0 -0.69797101903E+01  0.66941473415E+01 -0.27029214508E+02  0.28707253441E+02  0.51100000000E-03 0.  1.
        -12    1    4    4    0    0  0.10659192709E+02 -0.68857186736E+00 -0.13839357974E+02  0.17482000731E+02  0.00000000000E+00 0.  1.
</event>
<event>
 8    1  0.6016610E-012  0.9118800E+02  0.7816164E-02  0.1184000E+00
        -11   -1    0    0    0    0  0.00000000000E+00  0.00000000000E+00  0.45593999997E+02  0.45594000000E+02  0.51100000000E-03 0. -1.
         11   -1    0    0    0    0 -0.00000000000E+00 -0.00000000000E+00 -0.45593999997E+02  0.45594000000E+02  0.51100000000E-03 0.  1.
         23    2    1    2    0    0  0.00000000000E+00  0.00000000000E+00  0.35527136788E-14  0.91188000000E+02  0.91188000000E+02 0.  0.
    9900012    2    3    3    0    0  0.19761293108E+02 -0.15461903979E+02 -0.31993529358E+02  0.50528866946E+02  0.30000021568E+02 0.  0.
         12    1    3    3    0    0 -0.19761293108E+02  0.15461903979E+02  0.31993529358E+02  0.40659133054E+02  0.00000000000E+00 0. -1.
         11    1    4    4    0    0  0.60961979247E+01  0.18329421513E+00 -0.10218396945E+02  0.11900120264E+02  0.51100000000E-03 0. -1.
        -11    1    4    4    0    0 -0.64471908278E+00 -0.15988468767E+02 -0.54200157282E+01  0.16894477410E+02  0.51100000000E-03 0.  1.
        -12    1    4    4    0    0  0.14309814266E+02  0.34327057215E+00 -0.16355116684E+02  0.21734269272E+02  0.00000000000E+00 0.  1.
</event>
<event>
 8    1  0.7630632E-012  0.9118800E+02  0.7816164E-02  0.1184000E+00
        -11   -1    0    0    0    0  0.00000000000E+00  0.00000000000E+00  0.45593999997E+02  0.45594000000E+02  0.51100000000E-03 0. -1.
         11   -1    0    0    0    0 -0.00000000000E+00 -0.00000000000E+00 -0.45593999997E+02  0.45594000000E+02  0.51100000000E-03 0.  1.
         23    2    1    2    0    0  0.00000000000E+00  0.00000000000E+00  0.00000000000E+00  0.91188000000E+02  0.91188000000E+02 0.  0.
    9900012    2    3    3    0    0 -0.52702802214E+01  0.25585595679E+02  0.31157121333E+02  0.50528871017E+02  0.30000033944E+02 0.  0.
        -12    1    3    3    0    0  0.52702802214E+01 -0.25585595679E+02 -0.31157121333E+02  0.40659128983E+02  0.00000000000E+00 0.  1.
         11    1    4    4    0    0 -0.32627746759E+01  0.22077579039E+02  0.21216011388E+02  0.30792601940E+02  0.51100000000E-03 0. -1.
        -11    1    4    4    0    0 -0.37817822366E+01  0.18178437742E+01 -0.38707663882E+01  0.57087008649E+01  0.51100000000E-03 0.  1.
         12    1    4    4    0    0  0.17742766912E+01  0.16901728662E+01  0.13811876333E+02  0.14027568212E+02  0.00000000000E+00 0. -1.
</event>
<event>
 8    1  0.6016610E-012  0.9118800E+02  0.7816164E-02  0.1184000E+00
        -11   -1    0    0    0    0  0.00000000000E+00  0.00000000000E+00  0.45593999997E+02  0.45594000000E+02  0.51100000000E-03 0.  1.
         11   -1    0    0    0    0 -0.00000000000E+00 -0.00000000000E+00 -0.45593999997E+02  0.45594000000E+02  0.51100000000E-03 0. -1.
         23    2    1    2    0    0 -0.35527136788E-14  0.00000000000E+00  0.00000000000E+00  0.91188000000E+02  0.91188000000E+02 0.  0.
    9900012    2    3    3    0    0  0.22224090283E+02 -0.33740672940E+02 -0.45631806860E+01  0.50528858133E+02  0.29999994782E+02 0.  0.
        -12    1    3    3    0    0 -0.22224090283E+02  0.33740672940E+02  0.45631806860E+01  0.40659141867E+02  0.00000000000E+00 0.  1.
         11    1    4    4    0    0 -0.30547753900E+01  0.13687605341E+01 -0.46419235676E+01  0.57229898437E+01  0.51100000000E-03 0. -1.
        -11    1    4    4    0    0  0.10481639806E+02 -0.24273498893E+02  0.78793192623E+00  0.26451622985E+02  0.51100000000E-03 0.  1.
         12    1    4    4    0    0  0.14797225868E+02 -0.10835934581E+02 -0.70918904471E+00  0.18354245305E+02  0.00000000000E+00 0. -1.
</event>
<event>
 8    1  0.6016610E-012  0.9118800E+02  0.7816164E-02  0.1184000E+00
        -11   -1    0    0    0    0  0.00000000000E+00  0.00000000000E+00  0.45593999997E+02  0.45594000000E+02  0.51100000000E-03 0. -1.
         11   -1    0    0    0    0 -0.00000000000E+00 -0.00000000000E+00 -0.45593999997E+02  0.45594000000E+02  0.51100000000E-03 0.  1.
         23    2    1    2    0    0  0.00000000000E+00  0.00000000000E+00 -0.88817841970E-15  0.91188000000E+02  0.91188000000E+02 0.  0.
    9900012    2    3    3    0    0 -0.35754320569E+02  0.18179394470E+02  0.66559104347E+01  0.50528893193E+02  0.30000101349E+02 0.  0.
        -12    1    3    3    0    0  0.35754320569E+02 -0.18179394470E+02 -0.66559104347E+01  0.40659106807E+02  0.00000000000E+00 0.  1.
         11    1    4    4    0    0 -0.16350838738E+02 -0.18223117869E+01  0.14084856160E+02  0.21657652712E+02  0.51100000000E-03 0. -1.
        -11    1    4    4    0    0 -0.96611018494E+01  0.91309208165E+01 -0.31890547476E+01  0.13670430657E+02  0.51100000000E-03 0.  1.
         12    1    4    4    0    0 -0.97423799818E+01  0.10870785440E+02 -0.42398909781E+01  0.15200809824E+02  0.00000000000E+00 0. -1.
</event>
<event>
 8    1  0.6016610E-012  0.9118800E+02  0.7816164E-02  0.1184000E+00
        -11   -1    0    0    0    0  0.00000000000E+00  0.00000000000E+00  0.45593999997E+02  0.45594000000E+02  0.51100000000E-03 0.  1.
         11   -1    0    0    0    0 -0.00000000000E+00 -0.00000000000E+00 -0.45593999997E+02  0.45594000000E+02  0.51100000000E-03 0. -1.
         23    2    1    2    0    0 -0.17763568394E-14  0.00000000000E+00  0.94368957093E-15  0.91188000000E+02  0.91188000000E+02 0.  0.
    9900012    2    3    3    0    0 -0.80920147773E+01  0.39844948161E+02  0.25891096632E+00  0.50528835817E+02  0.29999926950E+02 0.  0.
        -12    1    3    3    0    0  0.80920147773E+01 -0.39844948161E+02 -0.25891096632E+00  0.40659164183E+02  0.00000000000E+00 0.  1.
         11    1    4    4    0    0 -0.83426743710E+01  0.21529099860E+02  0.18172568659E+01  0.23160414056E+02  0.51100000000E-03 0. -1.
        -11    1    4    4    0    0  0.53883086529E+01  0.45331209802E+01 -0.85548370940E+01  0.11080085466E+02  0.51100000000E-03 0.  1.
         12    1    4    4    0    0 -0.51376490593E+01  0.13782727321E+02  0.69964911944E+01  0.16288336296E+02  0.00000000000E+00 0. -1.
</event>
<event>
 8    1  0.6016610E-012  0.9118800E+02  0.7816164E-02  0.1184000E+00
        -11   -1    0    0    0    0  0.00000000000E+00  0.00000000000E+00  0.45593999997E+02  0.45594000000E+02  0.51100000000E-03 0. -1.
         11   -1    0    0    0    0 -0.00000000000E+00 -0.00000000000E+00 -0.45593999997E+02  0.45594000000E+02  0.51100000000E-03 0.  1.
         23    2    1    2    0    0  0.00000000000E+00  0.00000000000E+00  0.35527136788E-14  0.91188000000E+02  0.91188000000E+02 0.  0.
    9900012    2    3    3    0    0 -0.47954833268E+01  0.32717126084E+02 -0.23659218550E+02  0.50528860536E+02  0.30000002086E+02 0.  0.
         12    1    3    3    0    0  0.47954833268E+01 -0.32717126084E+02  0.23659218550E+02  0.40659139464E+02  0.00000000000E+00 0. -1.
         11    1    4    4    0    0 -0.22617162081E+01  0.16016826895E+02  0.31441781335E+01  0.16478469601E+02  0.51100000000E-03 0. -1.
        -11    1    4    4    0    0 -0.65919949148E+01  0.15277402690E+02 -0.22300589447E+02  0.27823905546E+02  0.51100000000E-03 0.  1.
        -12    1    4    4    0    0  0.40582277960E+01  0.14228964989E+01 -0.45028072364E+01  0.62264853889E+01  0.00000000000E+00 0.  1.
</event>
<event>
 8    1  0.6016610E-012  0.9118800E+02  0.7816164E-02  0.1184000E+00
        -11   -1    0    0    0    0  0.00000000000E+00  0.00000000000E+00  0.45593999997E+02  0.45594000000E+02  0.51100000000E-03 0. -1.
         11   -1    0    0    0    0 -0.00000000000E+00 -0.00000000000E+00 -0.45593999997E+02  0.45594000000E+02  0.51100000000E-03 0.  1.
         23    2    1    2    0    0 -0.35527136788E-14  0.35527136788E-14  0.00000000000E+00  0.91188000000E+02  0.91188000000E+02 0.  0.
    9900012    2    3    3    0    0 -0.28774823331E+02  0.18536027232E+02 -0.21945174258E+02  0.50528862817E+02  0.30000009017E+02 0.  0.
         12    1    3    3    0    0  0.28774823331E+02 -0.18536027232E+02  0.21945174258E+02  0.40659137183E+02  0.00000000000E+00 0. -1.
         11    1    4    4    0    0 -0.14566087365E+02 -0.56403597262E+01 -0.68065317529E+01  0.17038586612E+02  0.51100000000E-03 0. -1.
        -11    1    4    4    0    0 -0.10832143121E+02  0.13240993037E+02 -0.13776296651E+02  0.21964643654E+02  0.51100000000E-03 0.  1.
         12    1    4    4    0    0 -0.33765928460E+01  0.10935393921E+02 -0.13623458540E+01  0.11525632550E+02  0.00000000000E+00 0. -1.
</event>
<event>
 8    1  0.6016610E-012  0.9118800E+02  0.7816164E-02  0.1184000E+00
        -11   -1    0    0    0    0  0.00000000000E+00  0.00000000000E+00  0.45593999997E+02  0.45594000000E+02  0.51100000000E-03 0.  1.
         11   -1    0    0    0    0 -0.00000000000E+00 -0.00000000000E+00 -0.45593999997E+02  0.45594000000E+02  0.51100000000E-03 0. -1.
         23    2    1    2    0    0  0.00000000000E+00  0.44408920985E-15  0.00000000000E+00  0.91188000000E+02  0.91188000000E+02 0.  0.
    9900012    2    3    3    0    0 -0.35331442971E+02 -0.36639843678E+01  0.19784585787E+02  0.50528862298E+02  0.30000007442E+02 0.  0.
         12    1    3    3    0    0  0.35331442971E+02  0.36639843678E+01 -0.19784585787E+02  0.40659137702E+02  0.00000000000E+00 0. -1.
         11    1    4    4    0    0 -0.12164070156E+02 -0.11109338173E+02  0.46062159076E+01  0.17105531931E+02  0.51100000000E-03 0. -1.
        -11    1    4    4    0    0 -0.11718940236E+02  0.17771341374E+01  0.16784700268E+02  0.20547942217E+02  0.51100000000E-03 0.  1.
         12    1    4    4    0    0 -0.11448432579E+02  0.56682196674E+01 -0.16063303883E+01  0.12875388150E+02  0.00000000000E+00 0. -1.
</event>
<event>
 8    1  0.6016610E-012  0.9118800E+02  0.7816164E-02  0.1184000E+00
        -11   -1    0    0    0    0  0.00000000000E+00  0.00000000000E+00  0.45593999997E+02  0.45594000000E+02  0.51100000000E-03 0. -1.
         11   -1    0    0    0    0 -0.00000000000E+00 -0.00000000000E+00 -0.45593999997E+02  0.45594000000E+02  0.51100000000E-03 0.  1.
         23    2    1    2    0    0  0.00000000000E+00 -0.17763568394E-14  0.71054273576E-14  0.91188000000E+02  0.91188000000E+02 0.  0.
    9900012    2    3    3    0    0  0.24597349884E+02 -0.10251084685E+02 -0.30709142195E+02  0.50528858680E+02  0.29999996443E+02 0.  0.
         12    1    3    3    0    0 -0.24597349884E+02  0.10251084685E+02  0.30709142195E+02  0.40659141320E+02  0.00000000000E+00 0. -1.
         11    1    4    4    0    0  0.18404337216E+02 -0.10278274243E+02 -0.10874817797E+02  0.23719700929E+02  0.51100000000E-03 0.  1.
        -11    1    4    4    0    0  0.24055070710E+01 -0.18000902981E+01 -0.21913135756E+02  0.22118144323E+02  0.51100000000E-03 0. -1.
         12    1    4    4    0    0  0.37875055973E+01  0.18272798563E+01  0.20788113581E+01  0.46910134284E+01  0.00000000000E+00 0. -1.
</event>
<event>
 8    1  0.6016610E-012  0.9118800E+02  0.7816164E-02  0.1184000E+00
        -11   -1    0    0    0    0  0.00000000000E+00  0.00000000000E+00  0.45593999997E+02  0.45594000000E+02  0.51100000000E-03 0. -1.
         11   -1    0    0    0    0 -0.00000000000E+00 -0.00000000000E+00 -0.45593999997E+02  0.45594000000E+02  0.51100000000E-03 0.  1.
         23    2    1    2    0    0  0.00000000000E+00 -0.35527136788E-14  0.71054273576E-14  0.91188000000E+02  0.91188000000E+02 0.  0.
    9900012    2    3    3    0    0 -0.72500492186E+01  0.14080095462E+02 -0.37448051727E+02  0.50528820470E+02  0.29999880302E+02 0.  0.
         12    1    3    3    0    0  0.72500492186E+01 -0.14080095462E+02  0.37448051727E+02  0.40659179530E+02  0.00000000000E+00 0. -1.
         11    1    4    4    0    0  0.50632555550E+01  0.11193036970E+01 -0.31418515888E+01  0.60630544488E+01  0.51100000000E-03 0. -1.
        -11    1    4    4    0    0 -0.11214436701E+02 -0.85395876203E+00 -0.25951519620E+02  0.28283815283E+02  0.51100000000E-03 0.  1.
        -12    1    4    4    0    0 -0.10988680724E+01  0.13814750527E+02 -0.83546805175E+01  0.16181950739E+02  0.00000000000E+00 0.  1.
</event>
<event>
 8    1  0.6016610E-012  0.9118800E+02  0.7816164E-02  0.1184000E+00
        -11   -1    0    0    0    0  0.00000000000E+00  0.00000000000E+00  0.45593999997E+02  0.45594000000E+02  0.51100000000E-03 0. -1.
         11   -1    0    0    0    0 -0.00000000000E+00 -0.00000000000E+00 -0.45593999997E+02  0.45594000000E+02  0.51100000000E-03 0.  1.
         23    2    1    2    0    0  0.35527136788E-14  0.00000000000E+00  0.00000000000E+00  0.91188000000E+02  0.91188000000E+02 0.  0.
    9900012    2    3    3    0    0 -0.29517528662E+02 -0.27408465720E+02  0.55368631480E+01  0.50528863942E+02  0.30000012439E+02 0.  0.
        -12    1    3    3    0    0  0.29517528662E+02  0.27408465720E+02 -0.55368631480E+01  0.40659136058E+02  0.00000000000E+00 0.  1.
         11    1    4    4    0    0 -0.97131867709E+00 -0.11365140313E+02  0.20611489641E+01  0.11591298875E+02  0.51100000000E-03 0.  1.
        -11    1    4    4    0    0 -0.28929647946E+02 -0.16496110883E+02 -0.20639265384E+01  0.33366240387E+02  0.51100000000E-03 0. -1.
        -12    1    4    4    0    0  0.38343796109E+00  0.45278547646E+00  0.55396407222E+01  0.55713246799E+01  0.00000000000E+00 0.  1.
</event>
<event>
 8    1  0.6016610E-012  0.9118800E+02  0.7816164E-02  0.1184000E+00
        -11   -1    0    0    0    0  0.00000000000E+00  0.00000000000E+00  0.45593999997E+02  0.45594000000E+02  0.51100000000E-03 0. -1.
         11   -1    0    0    0    0 -0.00000000000E+00 -0.00000000000E+00 -0.45593999997E+02  0.45594000000E+02  0.51100000000E-03 0.  1.
         23    2    1    2    0    0 -0.17763568394E-14  0.00000000000E+00  0.00000000000E+00  0.91188000000E+02  0.91188000000E+02 0.  0.
    9900012    2    3    3    0    0  0.28391867090E+01  0.92161862419E+01 -0.39498950579E+02  0.50528853835E+02  0.29999981718E+02 0.  0.
         12    1    3    3    0    0 -0.28391867090E+01 -0.92161862419E+01  0.39498950579E+02  0.40659146165E+02  0.00000000000E+00 0. -1.
         11    1    4    4    0    0  0.10658391222E+02  0.22123048293E+01 -0.23172202758E+01  0.11129470166E+02  0.51100000000E-03 0. -1.
        -11    1    4    4    0    0 -0.24941016895E+01  0.26342727303E+01 -0.26102164593E+02  0.26353044089E+02  0.51100000000E-03 0.  1.
         12    1    4    4    0    0 -0.53251028240E+01  0.43696086823E+01 -0.11079565710E+02  0.13046339580E+02  0.00000000000E+00 0. -1.
</event>
<event>
 8    1  0.6016610E-012  0.9118800E+02  0.7816164E-02  0.1184000E+00
        -11   -1    0    0    0    0  0.00000000000E+00  0.00000000000E+00  0.45593999997E+02  0.45594000000E+02  0.51100000000E-03 0. -1.
         11   -1    0    0    0    0 -0.00000000000E+00 -0.00000000000E+00 -0.45593999997E+02  0.45594000000E+02  0.51100000000E-03 0.  1.
         23    2    1    2    0    0  0.17763568394E-14  0.35527136788E-14  0.00000000000E+00  0.91188000000E+02  0.91188000000E+02 0.  0.
    9900012    2    3    3    0    0 -0.14033035340E+02  0.29517650492E+02 -0.24185681905E+02  0.50528868422E+02  0.30000026057E+02 0.  0.
         12    1    3    3    0    0  0.14033035340E+02 -0.29517650492E+02  0.24185681905E+02  0.40659131578E+02  0.00000000000E+00 0. -1.
         11    1    4    4    0    0 -0.24125589529E+01  0.30126680580E+02 -0.11100286554E+02  0.32197106784E+02  0.51100000000E-03 0. -1.
        -11    1    4    4    0    0 -0.42523315598E+01  0.19977813400E+01 -0.69806918370E+01  0.84144823228E+01  0.51100000000E-03 0.  1.
         12    1    4    4    0    0 -0.73681448273E+01 -0.26068114279E+01 -0.61047035147E+01  0.99172793153E+01  0.00000000000E+00 0. -1.
</event>
<event>
 8    1  0.6016610E-012  0.9118800E+02  0.7816164E-02  0.1184000E+00
        -11   -1    0    0    0    0  0.00000000000E+00  0.00000000000E+00  0.45593999997E+02  0.45594000000E+02  0.51100000000E-03 0. -1.
         11   -1    0    0    0    0 -0.00000000000E+00 -0.00000000000E+00 -0.45593999997E+02  0.45594000000E+02  0.51100000000E-03 0.  1.
         23    2    1    2    0    0 -0.88817841970E-15  0.00000000000E+00 -0.35527136788E-14  0.91188000000E+02  0.91188000000E+02 0.  0.
    9900012    2    3    3    0    0 -0.14696518140E+01  0.26134072781E+02  0.31113059944E+02  0.50528780434E+02  0.29999758608E+02 0.  0.
        -12    1    3    3    0    0  0.14696518140E+01 -0.26134072781E+02 -0.31113059944E+02  0.40659219566E+02  0.00000000000E+00 0.  1.
         11    1    4    4    0    0 -0.14040570080E+02  0.70493308240E+01  0.11157315467E+02  0.19269570881E+02  0.51100000000E-03 0. -1.
        -11    1    4    4    0    0  0.76487154345E+01  0.71136755792E+01  0.12617836913E+02  0.16380385730E+02  0.51100000000E-03 0.  1.
         12    1    4    4    0    0  0.49222028319E+01  0.11971066378E+02  0.73379075637E+01  0.14878823823E+02  0.00000000000E+00 0. -1.
</event>
<event>
 8    1  0.6016610E-012  0.9118800E+02  0.7816164E-02  0.1184000E+00
        -11   -1    0    0    0    0  0.00000000000E+00  0.00000000000E+00  0.45593999997E+02  0.45594000000E+02  0.51100000000E-03 0. -1.
         11   -1    0    0    0    0 -0.00000000000E+00 -0.00000000000E+00 -0.45593999997E+02  0.45594000000E+02  0.51100000000E-03 0.  1.
         23    2    1    2    0    0  0.00000000000E+00 -0.17763568394E-14  0.00000000000E+00  0.91188000000E+02  0.91188000000E+02 0.  0.
    9900012    2    3    3    0    0 -0.33791252046E+02  0.96410730900E+01 -0.20454020141E+02  0.50528856562E+02  0.29999990006E+02 0.  0.
         12    1    3    3    0    0  0.33791252046E+02 -0.96410730900E+01  0.20454020141E+02  0.40659143438E+02  0.00000000000E+00 0. -1.
         11    1    4    4    0    0 -0.28502896304E+00  0.90156391837E+01 -0.13485720430E+00  0.90211517074E+01  0.51100000000E-03 0. -1.
        -11    1    4    4    0    0 -0.29313381051E+02  0.48914025284E+01 -0.14151826363E+02  0.32916171056E+02  0.51100000000E-03 0.  1.
         12    1    4    4    0    0 -0.41928420325E+01 -0.42659686221E+01 -0.61673365738E+01  0.85915337984E+01  0.00000000000E+00 0. -1.
</event>
<event>
 8    1  0.6016610E-012  0.9118800E+02  0.7816164E-02  0.1184000E+00
        -11   -1    0    0    0    0  0.00000000000E+00  0.00000000000E+00  0.45593999997E+02  0.45594000000E+02  0.51100000000E-03 0. -1.
         11   -1    0    0    0    0 -0.00000000000E+00 -0.00000000000E+00 -0.45593999997E+02  0.45594000000E+02  0.51100000000E-03 0.  1.
         23    2    1    2    0    0 -0.17763568394E-14 -0.17763568394E-14  0.00000000000E+00  0.91188000000E+02  0.91188000000E+02 0.  0.
    9900012    2    3    3    0    0 -0.14547641477E+02 -0.93031030130E+01 -0.36810103153E+02  0.50528864589E+02  0.30000014406E+02 0.  0.
         12    1    3    3    0    0  0.14547641477E+02  0.93031030130E+01  0.36810103153E+02  0.40659135411E+02  0.00000000000E+00 0. -1.
         11    1    4    4    0    0 -0.49800257040E+01 -0.16543071630E+01  0.12326899183E+01  0.53904464469E+01  0.51100000000E-03 0. -1.
        -11    1    4    4    0    0 -0.95428207284E+00  0.26124876225E+01 -0.28630860855E+02  0.28765638172E+02  0.51100000000E-03 0.  1.
        -12    1    4    4    0    0 -0.86133337006E+01 -0.10261283472E+02 -0.94119322155E+01  0.16372779971E+02  0.00000000000E+00 0.  1.
</event>
<event>
 8    1  0.6016610E-012  0.9118800E+02  0.7816164E-02  0.1184000E+00
        -11   -1    0    0    0    0  0.00000000000E+00  0.00000000000E+00  0.45593999997E+02  0.45594000000E+02  0.51100000000E-03 0.  1.
         11   -1    0    0    0    0 -0.00000000000E+00 -0.00000000000E+00 -0.45593999997E+02  0.45594000000E+02  0.51100000000E-03 0. -1.
         23    2    1    2    0    0 -0.35527136788E-14  0.00000000000E+00  0.00000000000E+00  0.91188000000E+02  0.91188000000E+02 0.  0.
    9900012    2    3    3    0    0  0.21025127572E+02 -0.34792747193E+02 -0.75799538207E+00  0.50528858301E+02  0.29999995293E+02 0.  0.
        -12    1    3    3    0    0 -0.21025127572E+02  0.34792747193E+02  0.75799538207E+00  0.40659141699E+02  0.00000000000E+00 0.  1.
         11    1    4    4    0    0  0.58772247881E+01  0.38330621780E+01 -0.41395892790E+00  0.70289045466E+01  0.51100000000E-03 0. -1.
        -11    1    4    4    0    0  0.14205695585E+01 -0.20987480550E+02  0.13954971991E+01  0.21081740213E+02  0.51100000000E-03 0.  1.
         12    1    4    4    0    0  0.13727333226E+02 -0.17638328821E+02 -0.17395336532E+01  0.22418213542E+02  0.00000000000E+00 0. -1.
</event>
<event>
 8    1  0.6016610E-012  0.9118800E+02  0.7816164E-02  0.1184000E+00
        -11   -1    0    0    0    0  0.00000000000E+00  0.00000000000E+00  0.45593999997E+02  0.45594000000E+02  0.51100000000E-03 0.  1.
         11   -1    0    0    0    0 -0.00000000000E+00 -0.00000000000E+00 -0.45593999997E+02  0.45594000000E+02  0.51100000000E-03 0. -1.
         23    2    1    2    0    0 -0.88817841970E-15  0.00000000000E+00  0.00000000000E+00  0.91188000000E+02  0.91188000000E+02 0.  0.
    9900012    2    3    3    0    0  0.40613967111E+01  0.39261868629E+02  0.97559376658E+01  0.50528836319E+02  0.29999928474E+02 0.  0.
        -12    1    3    3    0    0 -0.40613967111E+01 -0.39261868629E+02 -0.97559376658E+01  0.40659163681E+02  0.00000000000E+00 0.  1.
         11    1    4    4    0    0  0.42805782083E+01  0.37346315552E+01 -0.20974953265E+01  0.60556015025E+01  0.51100000000E-03 0. -1.
        -11    1    4    4    0    0 -0.83877291952E+01  0.24294373835E+02  0.15628717201E+02  0.30080349112E+02  0.51100000000E-03 0.  1.
        -12    1    4    4    0    0  0.81685476980E+01  0.11232863239E+02 -0.37752842085E+01  0.14392885704E+02  0.00000000000E+00 0.  1.
</event>
<event>
 8    1  0.6016610E-012  0.9118800E+02  0.7816164E-02  0.1184000E+00
        -11   -1    0    0    0    0  0.00000000000E+00  0.00000000000E+00  0.45593999997E+02  0.45594000000E+02  0.51100000000E-03 0. -1.
         11   -1    0    0    0    0 -0.00000000000E+00 -0.00000000000E+00 -0.45593999997E+02  0.45594000000E+02  0.51100000000E-03 0.  1.
         23    2    1    2    0    0  0.00000000000E+00  0.00000000000E+00 -0.35527136788E-14  0.91188000000E+02  0.91188000000E+02 0.  0.
    9900012    2    3    3    0    0 -0.23079295999E+02 -0.17136293334E+02 -0.28755161948E+02  0.50528858449E+02  0.29999995742E+02 0.  0.
         12    1    3    3    0    0  0.23079295999E+02  0.17136293334E+02  0.28755161948E+02  0.40659141551E+02  0.00000000000E+00 0. -1.
         11    1    4    4    0    0 -0.96335803068E+01  0.45664737853E+01 -0.13618804560E+00  0.10661946342E+02  0.51100000000E-03 0. -1.
        -11    1    4    4    0    0 -0.70181638548E+01 -0.90411499128E+01 -0.54120659371E+01  0.12660468933E+02  0.51100000000E-03 0.  1.
         12    1    4    4    0    0 -0.64275518372E+01 -0.12661617206E+02 -0.23206907965E+02  0.27206443174E+02  0.00000000000E+00 0. -1.
</event>
<event>
 8    1  0.6016610E-012  0.9118800E+02  0.7816164E-02  0.1184000E+00
        -11   -1    0    0    0    0  0.00000000000E+00  0.00000000000E+00  0.45593999997E+02  0.45594000000E+02  0.51100000000E-03 0. -1.
         11   -1    0    0    0    0 -0.00000000000E+00 -0.00000000000E+00 -0.45593999997E+02  0.45594000000E+02  0.51100000000E-03 0.  1.
         23    2    1    2    0    0  0.00000000000E+00  0.00000000000E+00  0.71054273576E-14  0.91188000000E+02  0.91188000000E+02 0.  0.
    9900012    2    3    3    0    0 -0.10290886961E+02  0.16074025647E+02 -0.35901089943E+02  0.50528869242E+02  0.30000028547E+02 0.  0.
         12    1    3    3    0    0  0.10290886961E+02 -0.16074025647E+02  0.35901089943E+02  0.40659130758E+02  0.00000000000E+00 0. -1.
         11    1    4    4    0    0 -0.12282303060E+02  0.12507137744E+02 -0.39533791868E+02  0.43245857174E+02  0.51100000000E-03 0.  1.
        -11    1    4    4    0    0  0.82720484145E+00  0.52040138916E-01  0.34798739318E+01  0.35772194325E+01  0.51100000000E-03 0. -1.
        -12    1    4    4    0    0  0.11642112584E+01  0.35148477638E+01  0.15282799319E+00  0.37057926348E+01  0.00000000000E+00 0.  1.
</event>
<event>
 8    1  0.6016610E-012  0.9118800E+02  0.7816164E-02  0.1184000E+00
        -11   -1    0    0    0    0  0.00000000000E+00  0.00000000000E+00  0.45593999997E+02  0.45594000000E+02  0.51100000000E-03 0. -1.
         11   -1    0    0    0    0 -0.00000000000E+00 -0.00000000000E+00 -0.45593999997E+02  0.45594000000E+02  0.51100000000E-03 0.  1.
         23    2    1    2    0    0 -0.88817841970E-15  0.00000000000E+00  0.00000000000E+00  0.91188000000E+02  0.91188000000E+02 0.  0.
    9900012    2    3    3    0    0  0.78523647754E+01  0.33199535772E+02 -0.22120056339E+02  0.50528859570E+02  0.29999999150E+02 0.  0.
         12    1    3    3    0    0 -0.78523647754E+01 -0.33199535772E+02  0.22120056339E+02  0.40659140430E+02  0.00000000000E+00 0. -1.
         11    1    4    4    0    0 -0.58307930219E+01  0.15752078053E+02 -0.94144913655E+01  0.19255096940E+02  0.51100000000E-03 0. -1.
        -11    1    4    4    0    0  0.13362213931E+02  0.31956400967E+01 -0.93797233658E+01  0.16635506829E+02  0.51100000000E-03 0.  1.
        -12    1    4    4    0    0  0.32094386631E+00  0.14251817623E+02 -0.33258416074E+01  0.14638255802E+02  0.00000000000E+00 0.  1.
</event>
<event>
 8    1  0.6016610E-012  0.9118800E+02  0.7816164E-02  0.1184000E+00
        -11   -1    0    0    0    0  0.00000000000E+00  0.00000000000E+00  0.45593999997E+02  0.45594000000E+02  0.51100000000E-03 0. -1.
         11   -1    0    0    0    0 -0.00000000000E+00 -0.00000000000E+00 -0.45593999997E+02  0.45594000000E+02  0.51100000000E-03 0.  1.
         23    2    1    2    0    0  0.00000000000E+00 -0.17763568394E-14  0.00000000000E+00  0.91188000000E+02  0.91188000000E+02 0.  0.
    9900012    2    3    3    0    0 -0.19237318706E+02 -0.15334742380E+02  0.32371856094E+02  0.50528858078E+02  0.29999994614E+02 0.  0.
        -12    1    3    3    0    0  0.19237318706E+02  0.15334742380E+02 -0.32371856094E+02  0.40659141922E+02  0.00000000000E+00 0.  1.
         11    1    4    4    0    0 -0.12175844047E+02 -0.14513809995E+02  0.34616369909E+02  0.39461309212E+02  0.51100000000E-03 0. -1.
        -11    1    4    4    0    0 -0.61671955708E+01 -0.34716764479E+01 -0.36209631904E+01  0.79497303888E+01  0.51100000000E-03 0.  1.
         12    1    4    4    0    0 -0.89427908875E+00  0.26507440626E+01  0.13764493758E+01  0.31178184774E+01  0.00000000000E+00 0. -1.
</event>
<event>
 8    1  0.6016610E-012  0.9118800E+02  0.7816164E-02  0.1184000E+00
        -11   -1    0    0    0    0  0.00000000000E+00  0.00000000000E+00  0.45593999997E+02  0.45594000000E+02  0.51100000000E-03 0. -1.
         11   -1    0    0    0    0 -0.00000000000E+00 -0.00000000000E+00 -0.45593999997E+02  0.45594000000E+02  0.51100000000E-03 0.  1.
         23    2    1    2    0    0 -0.88817841970E-15  0.00000000000E+00  0.14210854715E-13  0.91188000000E+02  0.91188000000E+02 0.  0.
    9900012    2    3    3    0    0  0.70620671580E+01 -0.22483386579E+01 -0.39977964247E+02  0.50528862717E+02  0.30000008716E+02 0.  0.
         12    1    3    3    0    0 -0.70620671580E+01  0.22483386579E+01  0.39977964247E+02  0.40659137283E+02  0.00000000000E+00 0. -1.
         11    1    4    4    0    0 -0.38406955637E+01 -0.55902680419E+01 -0.70640701356E+01  0.97930141599E+01  0.51100000000E-03 0. -1.
        -11    1    4    4    0    0  0.11083612387E+02 -0.24662124820E+01 -0.33026403499E+02  0.34923802713E+02  0.51100000000E-03 0.  1.
        -12    1    4    4    0    0 -0.18084966572E+00  0.58081418661E+01  0.11250938854E+00  0.58120458447E+01  0.00000000000E+00 0.  1.
</event>
<event>
 8    1  0.6016610E-012  0.9118800E+02  0.7816164E-02  0.1184000E+00
        -11   -1    0    0    0    0  0.00000000000E+00  0.00000000000E+00  0.45593999997E+02  0.45594000000E+02  0.51100000000E-03 0. -1.
         11   -1    0    0    0    0 -0.00000000000E+00 -0.00000000000E+00 -0.45593999997E+02  0.45594000000E+02  0.51100000000E-03 0.  1.
         23    2    1    2    0    0  0.17763568394E-14  0.00000000000E+00  0.00000000000E+00  0.91188000000E+02  0.91188000000E+02 0.  0.
    9900012    2    3    3    0    0  0.11979381065E+02 -0.37909162508E+02 -0.85179515433E+01  0.50528859930E+02  0.30000000243E+02 0.  0.
         12    1    3    3    0    0 -0.11979381065E+02  0.37909162508E+02  0.85179515433E+01  0.40659140070E+02  0.00000000000E+00 0. -1.
         11    1    4    4    0    0 -0.19965267279E+01 -0.19941767985E+01 -0.72772134302E+01  0.78051710839E+01  0.51100000000E-03 0. -1.
        -11    1    4    4    0    0  0.76573616466E+01 -0.31450191918E+02 -0.69521204132E+01  0.33107125178E+02  0.51100000000E-03 0.  1.
        -12    1    4    4    0    0  0.63185461459E+01 -0.44647937915E+01  0.57113823001E+01  0.96165636678E+01  0.00000000000E+00 0.  1.
</event>
<event>
 8    1  0.6016610E-012  0.9118800E+02  0.7816164E-02  0.1184000E+00
        -11   -1    0    0    0    0  0.00000000000E+00  0.00000000000E+00  0.45593999997E+02  0.45594000000E+02  0.51100000000E-03 0. -1.
         11   -1    0    0    0    0 -0.00000000000E+00 -0.00000000000E+00 -0.45593999997E+02  0.45594000000E+02  0.51100000000E-03 0.  1.
         23    2    1    2    0    0 -0.35527136788E-14  0.88817841970E-15  0.00000000000E+00  0.91188000000E+02  0.91188000000E+02 0.  0.
    9900012    2    3    3    0    0  0.28929155497E+02  0.75255892022E+01  0.27561459716E+02  0.50528873198E+02  0.30000040572E+02 0.  0.
        -12    1    3    3    0    0 -0.28929155497E+02 -0.75255892022E+01 -0.27561459716E+02  0.40659126802E+02  0.00000000000E+00 0.  1.
         11    1    4    4    0    0  0.10000738699E+02 -0.17945774015E+01  0.50652485260E+01  0.11353062383E+02  0.51100000000E-03 0. -1.
        -11    1    4    4    0    0 -0.49932395502E+01  0.36400832591E+01  0.95876940639E+01  0.11406424728E+02  0.51100000000E-03 0.  1.
        -12    1    4    4    0    0  0.23921656349E+02  0.56800833446E+01  0.12908517126E+02  0.27769386087E+02  0.00000000000E+00 0.  1.
</event>
<event>
 8    1  0.6016610E-012  0.9118800E+02  0.7816164E-02  0.1184000E+00
        -11   -1    0    0    0    0  0.00000000000E+00  0.00000000000E+00  0.45593999997E+02  0.45594000000E+02  0.51100000000E-03 0.  1.
         11   -1    0    0    0    0 -0.00000000000E+00 -0.00000000000E+00 -0.45593999997E+02  0.45594000000E+02  0.51100000000E-03 0. -1.
         23    2    1    2    0    0  0.17763568394E-14 -0.71054273576E-14  0.00000000000E+00  0.91188000000E+02  0.91188000000E+02 0.  0.
    9900012    2    3    3    0    0 -0.87224689898E+01  0.31904837021E+02  0.23646681824E+02  0.50528860168E+02  0.30000000965E+02 0.  0.
        -12    1    3    3    0    0  0.87224689898E+01 -0.31904837021E+02 -0.23646681824E+02  0.40659139832E+02  0.00000000000E+00 0.  1.
         11    1    4    4    0    0  0.88714878124E+01  0.11091335065E+02  0.67648050773E+01  0.15731611409E+02  0.51100000000E-03 0. -1.
        -11    1    4    4    0    0 -0.15404140834E+02  0.21090209584E+02  0.18546969549E+02  0.32032398831E+02  0.51100000000E-03 0.  1.
         12    1    4    4    0    0 -0.21898159682E+01 -0.27670762725E+00 -0.16650928023E+01  0.27648499283E+01  0.00000000000E+00 0. -1.
</event>
<event>
 8    1  0.6016610E-012  0.9118800E+02  0.7816164E-02  0.1184000E+00
        -11   -1    0    0    0    0  0.00000000000E+00  0.00000000000E+00  0.45593999997E+02  0.45594000000E+02  0.51100000000E-03 0. -1.
         11   -1    0    0    0    0 -0.00000000000E+00 -0.00000000000E+00 -0.45593999997E+02  0.45594000000E+02  0.51100000000E-03 0.  1.
         23    2    1    2    0    0  0.00000000000E+00  0.22204460493E-15 -0.71054273576E-14  0.91188000000E+02  0.91188000000E+02 0.  0.
    9900012    2    3    3    0    0  0.48022070610E+01  0.19961007059E+01  0.40325179645E+02  0.50528859280E+02  0.29999998268E+02 0.  0.
        -12    1    3    3    0    0 -0.48022070610E+01 -0.19961007059E+01 -0.40325179645E+02  0.40659140720E+02  0.00000000000E+00 0.  1.
         11    1    4    4    0    0  0.67140272173E+01  0.75411733336E+01  0.23278937378E+01  0.10361782966E+02  0.51100000000E-03 0.  1.
        -11    1    4    4    0    0 -0.61738180282E+01 -0.23428962221E+00  0.16603814780E+02  0.17716026253E+02  0.51100000000E-03 0. -1.
         12    1    4    4    0    0  0.42619978719E+01 -0.53107830055E+01  0.21393471127E+02  0.22451050061E+02  0.00000000000E+00 0. -1.
</event>
<event>
 8    1  0.6016610E-012  0.9118800E+02  0.7816164E-02  0.1184000E+00
        -11   -1    0    0    0    0  0.00000000000E+00  0.00000000000E+00  0.45593999997E+02  0.45594000000E+02  0.51100000000E-03 0. -1.
         11   -1    0    0    0    0 -0.00000000000E+00 -0.00000000000E+00 -0.45593999997E+02  0.45594000000E+02  0.51100000000E-03 0.  1.
         23    2    1    2    0    0  0.00000000000E+00 -0.17763568394E-14  0.00000000000E+00  0.91188000000E+02  0.91188000000E+02 0.  0.
    9900012    2    3    3    0    0  0.20086980130E+02 -0.10067671122E+02  0.33886877797E+02  0.50528864994E+02  0.30000015637E+02 0.  0.
        -12    1    3    3    0    0 -0.20086980130E+02  0.10067671122E+02 -0.33886877797E+02  0.40659135006E+02  0.00000000000E+00 0.  1.
         11    1    4    4    0    0  0.12573490832E+02  0.34558860345E+01  0.22037664147E+02  0.25606531614E+02  0.51100000000E-03 0. -1.
        -11    1    4    4    0    0 -0.22497756353E+01 -0.10808720257E+02  0.93924200473E+01  0.14495084636E+02  0.51100000000E-03 0.  1.
         12    1    4    4    0    0  0.97632649339E+01 -0.27148368989E+01  0.24567936026E+01  0.10427248744E+02  0.00000000000E+00 0. -1.
</event>
<event>
 8    1  0.6016610E-012  0.9118800E+02  0.7816164E-02  0.1184000E+00
        -11   -1    0    0    0    0  0.00000000000E+00  0.00000000000E+00  0.45593999997E+02  0.45594000000E+02  0.51100000000E-03 0. -1.
         11   -1    0    0    0    0 -0.00000000000E+00 -0.00000000000E+00 -0.45593999997E+02  0.45594000000E+02  0.51100000000E-03 0.  1.
         23    2    1    2    0    0 -0.17763568394E-14  0.35527136788E-14  0.35527136788E-14  0.91188000000E+02  0.91188000000E+02 0.  0.
    9900012    2    3    3    0    0 -0.79168687163E+01  0.24698575233E+02  0.31312277410E+02  0.50528989370E+02  0.30000393686E+02 0.  0.
        -12    1    3    3    0    0  0.79168687163E+01 -0.24698575233E+02 -0.31312277410E+02  0.40659010630E+02  0.00000000000E+00 0.  1.
         11    1    4    4    0    0 -0.23490883225E+01 -0.67505231595E+00  0.16633874574E+02  0.16812486288E+02  0.51100000000E-03 0. -1.
        -11    1    4    4    0    0 -0.17224277774E+01  0.26003778173E+02  0.14483444129E+02  0.29814986011E+02  0.51100000000E-03 0.  1.
        -12    1    4    4    0    0 -0.38453526164E+01 -0.63015062434E+00  0.19495870713E+00  0.39015170705E+01  0.00000000000E+00 0.  1.
</event>
<event>
 8    1  0.8507494E-012  0.9118800E+02  0.7816164E-02  0.1184000E+00
        -11   -1    0    0    0    0  0.00000000000E+00  0.00000000000E+00  0.45593999997E+02  0.45594000000E+02  0.51100000000E-03 0. -1.
         11   -1    0    0    0    0 -0.00000000000E+00 -0.00000000000E+00 -0.45593999997E+02  0.45594000000E+02  0.51100000000E-03 0.  1.
         23    2    1    2    0    0  0.00000000000E+00  0.17763568394E-14  0.00000000000E+00  0.91188000000E+02  0.91188000000E+02 0.  0.
    9900012    2    3    3    0    0  0.16674079469E+02 -0.13616004885E+02  0.34492621578E+02  0.50528911736E+02  0.30000157712E+02 0.  0.
        -12    1    3    3    0    0 -0.16674079469E+02  0.13616004885E+02 -0.34492621578E+02  0.40659088264E+02  0.00000000000E+00 0.  1.
         11    1    4    4    0    0  0.29116555780E+01 -0.81560879540E+01  0.18305305246E+02  0.20250523680E+02  0.51100000000E-03 0. -1.
        -11    1    4    4    0    0  0.14872686415E+02  0.42785666391E+01  0.12160038947E+02  0.19681704223E+02  0.51100000000E-03 0.  1.
        -12    1    4    4    0    0 -0.11102625238E+01 -0.97384835697E+01  0.40272773856E+01  0.10596683833E+02  0.00000000000E+00 0.  1.
</event>
<event>
 8    1  0.6016610E-012  0.9118800E+02  0.7816164E-02  0.1184000E+00
        -11   -1    0    0    0    0  0.00000000000E+00  0.00000000000E+00  0.45593999997E+02  0.45594000000E+02  0.51100000000E-03 0. -1.
         11   -1    0    0    0    0 -0.00000000000E+00 -0.00000000000E+00 -0.45593999997E+02  0.45594000000E+02  0.51100000000E-03 0.  1.
         23    2    1    2    0    0  0.00000000000E+00  0.00000000000E+00  0.00000000000E+00  0.91188000000E+02  0.91188000000E+02 0.  0.
    9900012    2    3    3    0    0 -0.16465593196E+01 -0.24575275343E+02  0.32349816645E+02  0.50528856468E+02  0.29999989721E+02 0.  0.
        -12    1    3    3    0    0  0.16465593196E+01  0.24575275343E+02 -0.32349816645E+02  0.40659143532E+02  0.00000000000E+00 0.  1.
         11    1    4    4    0    0  0.27418513254E+01 -0.87203569304E+01  0.17037595584E+02  0.19334995144E+02  0.51100000000E-03 0. -1.
        -11    1    4    4    0    0 -0.70192194107E+01 -0.70977756345E+01 -0.32529887127E+01  0.10499037857E+02  0.51100000000E-03 0.  1.
        -12    1    4    4    0    0  0.26308087657E+01 -0.87571427778E+01  0.18565209774E+02  0.20694823467E+02  0.00000000000E+00 0.  1.
</event>
<event>
 8    1  0.6016610E-012  0.9118800E+02  0.7816164E-02  0.1184000E+00
        -11   -1    0    0    0    0  0.00000000000E+00  0.00000000000E+00  0.45593999997E+02  0.45594000000E+02  0.51100000000E-03 0.  1.
         11   -1    0    0    0    0 -0.00000000000E+00 -0.00000000000E+00 -0.45593999997E+02  0.45594000000E+02  0.51100000000E-03 0. -1.
         23    2    1    2    0    0 -0.35527136788E-14  0.00000000000E+00  0.00000000000E+00  0.91188000000E+02  0.91188000000E+02 0.  0.
    9900012    2    3    3    0    0 -0.29279781015E+02 -0.23969209461E+02  0.14877728759E+02  0.50528740397E+02  0.29999636907E+02 0.  0.
        -12    1    3    3    0    0  0.29279781015E+02  0.23969209461E+02 -0.14877728759E+02  0.40659259603E+02  0.00000000000E+00 0.  1.
         11    1    4    4    0    0 -0.22794200163E+02 -0.17230851139E+02 -0.76735774529E+00  0.28584377380E+02  0.51100000000E-03 0. -1.
        -11    1    4    4    0    0  0.28440106334E+00 -0.47455937829E+01  0.13877432811E+02  0.14669174687E+02  0.51100000000E-03 0.  1.
         12    1    4    4    0    0 -0.67699819158E+01 -0.19927645384E+01  0.17676536938E+01  0.72751883293E+01  0.00000000000E+00 0. -1.
</event>
<event>
 8    1  0.6016610E-012  0.9118800E+02  0.7816164E-02  0.1184000E+00
        -11   -1    0    0    0    0  0.00000000000E+00  0.00000000000E+00  0.45593999997E+02  0.45594000000E+02  0.51100000000E-03 0. -1.
         11   -1    0    0    0    0 -0.00000000000E+00 -0.00000000000E+00 -0.45593999997E+02  0.45594000000E+02  0.51100000000E-03 0.  1.
         23    2    1    2    0    0 -0.71054273576E-14  0.17763568394E-14 -0.88817841970E-15  0.91188000000E+02  0.91188000000E+02 0.  0.
    9900012    2    3    3    0    0 -0.36915639267E+02  0.15326173005E+02 -0.74504871972E+01  0.50528858827E+02  0.29999996890E+02 0.  0.
         12    1    3    3    0    0  0.36915639267E+02 -0.15326173005E+02  0.74504871972E+01  0.40659141173E+02  0.00000000000E+00 0. -1.
         11    1    4    4    0    0  0.15621113436E+01  0.72419587329E+00  0.19079082673E+00  0.17323547308E+01  0.51100000000E-03 0. -1.
        -11    1    4    4    0    0 -0.29749517490E+02 -0.15203009606E+01 -0.60300158949E+01  0.30392535233E+02  0.51100000000E-03 0.  1.
        -12    1    4    4    0    0 -0.87282331202E+01  0.16122278092E+02 -0.16112621290E+01  0.18403968863E+02  0.00000000000E+00 0.  1.
</event>
<event>
 8    1  0.6016610E-012  0.9118800E+02  0.7816164E-02  0.1184000E+00
        -11   -1    0    0    0    0  0.00000000000E+00  0.00000000000E+00  0.45593999997E+02  0.45594000000E+02  0.51100000000E-03 0. -1.
         11   -1    0    0    0    0 -0.00000000000E+00 -0.00000000000E+00 -0.45593999997E+02  0.45594000000E+02  0.51100000000E-03 0.  1.
         23    2    1    2    0    0  0.00000000000E+00 -0.71054273576E-14  0.00000000000E+00  0.91188000000E+02  0.91188000000E+02 0.  0.
    9900012    2    3    3    0    0 -0.16498173363E+01 -0.39511164043E+02  0.94504648054E+01  0.50528864909E+02  0.30000015378E+02 0.  0.
        -12    1    3    3    0    0  0.16498173363E+01  0.39511164043E+02 -0.94504648054E+01  0.40659135091E+02  0.00000000000E+00 0.  1.
         11    1    4    4    0    0  0.12007049986E+00 -0.35255978953E+02 -0.22085246289E+01  0.35325289102E+02  0.51100000000E-03 0. -1.
        -11    1    4    4    0    0  0.18038621747E+01 -0.56293194800E+01  0.66229214577E+01  0.88772881811E+01  0.51100000000E-03 0.  1.
         12    1    4    4    0    0 -0.35737500108E+01  0.13741343900E+01  0.50360679765E+01  0.63262876259E+01  0.00000000000E+00 0. -1.
</event>
<event>
 8    1  0.6016610E-012  0.9118800E+02  0.7816164E-02  0.1184000E+00
        -11   -1    0    0    0    0  0.00000000000E+00  0.00000000000E+00  0.45593999997E+02  0.45594000000E+02  0.51100000000E-03 0. -1.
         11   -1    0    0    0    0 -0.00000000000E+00 -0.00000000000E+00 -0.45593999997E+02  0.45594000000E+02  0.51100000000E-03 0.  1.
         23    2    1    2    0    0  0.35527136788E-14  0.00000000000E+00 -0.71054273576E-14  0.91188000000E+02  0.91188000000E+02 0.  0.
    9900012    2    3    3    0    0  0.16849493208E+02  0.15266995323E+02 -0.33707243985E+02  0.50528869849E+02  0.30000030392E+02 0.  0.
         12    1    3    3    0    0 -0.16849493208E+02 -0.15266995323E+02  0.33707243985E+02  0.40659130151E+02  0.00000000000E+00 0. -1.
         11    1    4    4    0    0  0.17252530808E+02 -0.18217352820E+01 -0.12571757918E+02  0.21424696874E+02  0.51100000000E-03 0. -1.
        -11    1    4    4    0    0  0.43173724594E+01  0.13210400802E+02 -0.14529079548E+02  0.20105933131E+02  0.51100000000E-03 0.  1.
         12    1    4    4    0    0 -0.47204100592E+01  0.38783298034E+01 -0.66064065197E+01  0.89982398442E+01  0.00000000000E+00 0. -1.
</event>
<event>
 8    1  0.6016610E-012  0.9118800E+02  0.7816164E-02  0.1184000E+00
        -11   -1    0    0    0    0  0.00000000000E+00  0.00000000000E+00  0.45593999997E+02  0.45594000000E+02  0.51100000000E-03 0.  1.
         11   -1    0    0    0    0 -0.00000000000E+00 -0.00000000000E+00 -0.45593999997E+02  0.45594000000E+02  0.51100000000E-03 0. -1.
         23    2    1    2    0    0  0.00000000000E+00  0.00000000000E+00 -0.17763568394E-14  0.91188000000E+02  0.91188000000E+02 0.  0.
    9900012    2    3    3    0    0 -0.90132838304E+01 -0.37161884725E+02 -0.13817313078E+02  0.50528891520E+02  0.30000096263E+02 0.  0.
         12    1    3    3    0    0  0.90132838304E+01  0.37161884725E+02  0.13817313078E+02  0.40659108480E+02  0.00000000000E+00 0. -1.
         11    1    4    4    0    0  0.83391245955E+01 -0.52664386691E+01 -0.82764024430E+01  0.12875372342E+02  0.51100000000E-03 0. -1.
        -11    1    4    4    0    0 -0.29999456032E+01 -0.13846080668E+02 -0.15724126649E+01  0.14254336369E+02  0.51100000000E-03 0.  1.
         12    1    4    4    0    0 -0.14352462823E+02 -0.18049365388E+02 -0.39684979699E+01  0.23399182809E+02  0.00000000000E+00 0. -1.
</event>
<event>
 8    1  0.6016610E-012  0.9118800E+02  0.7816164E-02  0.1184000E+00
        -11   -1    0    0    0    0  0.00000000000E+00  0.00000000000E+00  0.45593999997E+02  0.45594000000E+02  0.51100000000E-03 0. -1.
         11   -1    0    0    0    0 -0.00000000000E+00 -0.00000000000E+00 -0.45593999997E+02  0.45594000000E+02  0.51100000000E-03 0.  1.
         23    2    1    2    0    0  0.00000000000E+00 -0.35527136788E-14 -0.71054273576E-14  0.91188000000E+02  0.91188000000E+02 0.  0.
    9900012    2    3    3    0    0  0.44764453781E+01 -0.24357921616E+02 -0.32246194605E+02  0.50528880787E+02  0.30000063640E+02 0.  0.
         12    1    3    3    0    0 -0.44764453781E+01  0.24357921616E+02  0.32246194605E+02  0.40659119213E+02  0.00000000000E+00 0. -1.
         11    1    4    4    0    0 -0.39319552247E+01  0.79543826894E+00  0.53417419014E+00  0.40470157222E+01  0.51100000000E-03 0. -1.
        -11    1    4    4    0    0 -0.31711269394E+01 -0.17026517222E+02 -0.24770923186E+02  0.30225104971E+02  0.51100000000E-03 0.  1.
        -12    1    4    4    0    0  0.11579527542E+02 -0.81268426631E+01 -0.80094456090E+01  0.16256760093E+02  0.00000000000E+00 0.  1.
</event>
<event>
 8    1  0.6016610E-012  0.9118800E+02  0.7816164E-02  0.1184000E+00
        -11   -1    0    0    0    0  0.00000000000E+00  0.00000000000E+00  0.45593999997E+02  0.45594000000E+02  0.51100000000E-03 0. -1.
         11   -1    0    0    0    0 -0.00000000000E+00 -0.00000000000E+00 -0.45593999997E+02  0.45594000000E+02  0.51100000000E-03 0.  1.
         23    2    1    2    0    0  0.17763568394E-14  0.17763568394E-14  0.00000000000E+00  0.91188000000E+02  0.91188000000E+02 0.  0.
    9900012    2    3    3    0    0 -0.15608436744E+02 -0.12228068619E+02  0.35496712794E+02  0.50528861065E+02  0.30000003694E+02 0.  0.
        -12    1    3    3    0    0  0.15608436744E+02  0.12228068619E+02 -0.35496712794E+02  0.40659138935E+02  0.00000000000E+00 0.  1.
         11    1    4    4    0    0 -0.20674439119E+02 -0.19194708351E+01  0.13672286577E+02  0.24860575651E+02  0.51100000000E-03 0. -1.
        -11    1    4    4    0    0  0.35833450476E+01 -0.39071524153E+01  0.16110876931E+02  0.16960735759E+02  0.51100000000E-03 0.  1.
         12    1    4    4    0    0  0.14826573280E+01 -0.64014453690E+01  0.57135492855E+01  0.87075496555E+01  0.00000000000E+00 0. -1.
</event>
<event>
 8    1  0.6016610E-012  0.9118800E+02  0.7816164E-02  0.1184000E+00
        -11   -1    0    0    0    0  0.00000000000E+00  0.00000000000E+00  0.45593999997E+02  0.45594000000E+02  0.51100000000E-03 0. -1.
         11   -1    0    0    0    0 -0.00000000000E+00 -0.00000000000E+00 -0.45593999997E+02  0.45594000000E+02  0.51100000000E-03 0.  1.
         23    2    1    2    0    0  0.00000000000E+00  0.35527136788E-14  0.71054273576E-14  0.91188000000E+02  0.91188000000E+02 0.  0.
    9900012    2    3    3    0    0  0.63545876356E+01 -0.18375587599E+02 -0.35708869222E+02  0.50528851647E+02  0.29999975067E+02 0.  0.
         12    1    3    3    0    0 -0.63545876356E+01  0.18375587599E+02  0.35708869222E+02  0.40659148353E+02  0.00000000000E+00 0. -1.
         11    1    4    4    0    0 -0.13697160607E+01  0.10103254919E+01 -0.17195072443E+01  0.24194183414E+01  0.51100000000E-03 0. -1.
        -11    1    4    4    0    0  0.67002018962E+01 -0.25473144454E+02 -0.20852669164E+02  0.33594755623E+02  0.51100000000E-03 0.  1.
        -12    1    4    4    0    0  0.10241018001E+01  0.60872313625E+01 -0.13136692814E+02  0.14514677683E+02  0.00000000000E+00 0.  1.
</event>
<event>
 8    1  0.6016610E-012  0.9118800E+02  0.7816164E-02  0.1184000E+00
        -11   -1    0    0    0    0  0.00000000000E+00  0.00000000000E+00  0.45593999997E+02  0.45594000000E+02  0.51100000000E-03 0. -1.
         11   -1    0    0    0    0 -0.00000000000E+00 -0.00000000000E+00 -0.45593999997E+02  0.45594000000E+02  0.51100000000E-03 0.  1.
         23    2    1    2    0    0  0.00000000000E+00  0.00000000000E+00  0.00000000000E+00  0.91188000000E+02  0.91188000000E+02 0.  0.
    9900012    2    3    3    0    0  0.20814737742E+02 -0.32175042644E+02  0.13589663128E+02  0.50528860556E+02  0.30000002146E+02 0.  0.
        -12    1    3    3    0    0 -0.20814737742E+02  0.32175042644E+02 -0.13589663128E+02  0.40659139444E+02  0.00000000000E+00 0.  1.
         11    1    4    4    0    0 -0.32949320000E+01 -0.21795059029E+02  0.91271839779E+01  0.23857633214E+02  0.51100000000E-03 0. -1.
        -11    1    4    4    0    0  0.84910157843E+01 -0.30326196374E+01  0.20057885151E+01  0.92367374512E+01  0.51100000000E-03 0.  1.
         12    1    4    4    0    0  0.15618653958E+02 -0.73473639776E+01  0.24566906347E+01  0.17434489891E+02  0.00000000000E+00 0. -1.
</event>
<event>
 8    1  0.6016610E-012  0.9118800E+02  0.7816164E-02  0.1184000E+00
        -11   -1    0    0    0    0  0.00000000000E+00  0.00000000000E+00  0.45593999997E+02  0.45594000000E+02  0.51100000000E-03 0. -1.
         11   -1    0    0    0    0 -0.00000000000E+00 -0.00000000000E+00 -0.45593999997E+02  0.45594000000E+02  0.51100000000E-03 0.  1.
         23    2    1    2    0    0  0.35527136788E-14 -0.35527136788E-14  0.35527136788E-14  0.91188000000E+02  0.91188000000E+02 0.  0.
    9900012    2    3    3    0    0 -0.20939512100E+02 -0.28438578639E+02 -0.20148097514E+02  0.50528908084E+02  0.30000146612E+02 0.  0.
         12    1    3    3    0    0  0.20939512100E+02  0.28438578639E+02  0.20148097514E+02  0.40659091916E+02  0.00000000000E+00 0. -1.
         11    1    4    4    0    0 -0.56330831913E+01  0.12482734550E+01  0.54149786740E+00  0.57950869761E+01  0.51100000000E-03 0. -1.
        -11    1    4    4    0    0 -0.60725486230E+01 -0.24184055886E+02 -0.22790852522E+02  0.33781168790E+02  0.51100000000E-03 0.  1.
        -12    1    4    4    0    0 -0.92338802856E+01 -0.55027962082E+01  0.21012571403E+01  0.10952652318E+02  0.00000000000E+00 0.  1.
</event>
<event>
 8    1  0.6016610E-012  0.9118800E+02  0.7816164E-02  0.1184000E+00
        -11   -1    0    0    0    0  0.00000000000E+00  0.00000000000E+00  0.45593999997E+02  0.45594000000E+02  0.51100000000E-03 0. -1.
         11   -1    0    0    0    0 -0.00000000000E+00 -0.00000000000E+00 -0.45593999997E+02  0.45594000000E+02  0.51100000000E-03 0.  1.
         23    2    1    2    0    0 -0.88817841970E-15 -0.26645352591E-14  0.00000000000E+00  0.91188000000E+02  0.91188000000E+02 0.  0.
    9900012    2    3    3    0    0  0.57983444311E+01  0.32958806347E+01  0.40108408457E+02  0.50528830601E+02  0.29999911094E+02 0.  0.
        -12    1    3    3    0    0 -0.57983444311E+01 -0.32958806347E+01 -0.40108408457E+02  0.40659169399E+02  0.00000000000E+00 0.  1.
         11    1    4    4    0    0  0.73164400598E+01  0.95200205713E+01  0.91613872781E+01  0.15102718429E+02  0.51100000000E-03 0. -1.
        -11    1    4    4    0    0 -0.37244523576E+01 -0.11013287672E+02  0.24330472963E+02  0.26965458749E+02  0.51100000000E-03 0.  1.
        -12    1    4    4    0    0  0.22063567289E+01  0.47891477351E+01  0.66165482158E+01  0.84606534225E+01  0.00000000000E+00 0.  1.
</event>
<event>
 8    1  0.6016610E-012  0.9118800E+02  0.7816164E-02  0.1184000E+00
        -11   -1    0    0    0    0  0.00000000000E+00  0.00000000000E+00  0.45593999997E+02  0.45594000000E+02  0.51100000000E-03 0. -1.
         11   -1    0    0    0    0 -0.00000000000E+00 -0.00000000000E+00 -0.45593999997E+02  0.45594000000E+02  0.51100000000E-03 0.  1.
         23    2    1    2    0    0  0.35527136788E-14  0.33306690739E-15  0.00000000000E+00  0.91188000000E+02  0.91188000000E+02 0.  0.
    9900012    2    3    3    0    0  0.20822634930E+02  0.59378587533E+00  0.34917487657E+02  0.50528860174E+02  0.30000000984E+02 0.  0.
        -12    1    3    3    0    0 -0.20822634930E+02 -0.59378587533E+00 -0.34917487657E+02  0.40659139826E+02  0.00000000000E+00 0.  1.
         11    1    4    4    0    0 -0.34827574743E+01  0.50422125184E+01 -0.18414482421E+00  0.61308577118E+01  0.51100000000E-03 0. -1.
        -11    1    4    4    0    0  0.15760914559E+02  0.25384098152E+01  0.18172695437E+02  0.24188774500E+02  0.51100000000E-03 0.  1.
         12    1    4    4    0    0  0.85444778459E+01 -0.69868364582E+01  0.16928937045E+02  0.20209227962E+02  0.00000000000E+00 0. -1.
</event>
<event>
 8    1  0.6016610E-012  0.9118800E+02  0.7816164E-02  0.1184000E+00
        -11   -1    0    0    0    0  0.00000000000E+00  0.00000000000E+00  0.45593999997E+02  0.45594000000E+02  0.51100000000E-03 0. -1.
         11   -1    0    0    0    0 -0.00000000000E+00 -0.00000000000E+00 -0.45593999997E+02  0.45594000000E+02  0.51100000000E-03 0.  1.
         23    2    1    2    0    0  0.88817841970E-15  0.00000000000E+00 -0.71054273576E-14  0.91188000000E+02  0.91188000000E+02 0.  0.
    9900012    2    3    3    0    0  0.76855239028E+01  0.72669897415E+01  0.39259253297E+02  0.50528863425E+02  0.30000010868E+02 0.  0.
        -12    1    3    3    0    0 -0.76855239028E+01 -0.72669897415E+01 -0.39259253297E+02  0.40659136575E+02  0.00000000000E+00 0.  1.
         11    1    4    4    0    0  0.11522064132E+01 -0.35683790185E+01  0.11728832873E+02  0.12313668392E+02  0.51100000000E-03 0. -1.
        -11    1    4    4    0    0 -0.51632212510E+01  0.54638897734E+01 -0.33066172083E+00  0.75247779089E+01  0.51100000000E-03 0.  1.
        -12    1    4    4    0    0  0.11696538741E+02  0.53714789865E+01  0.27861082145E+02  0.30690417125E+02  0.00000000000E+00 0.  1.
</event>
<event>
 8    1  0.6016610E-012  0.9118800E+02  0.7816164E-02  0.1184000E+00
        -11   -1    0    0    0    0  0.00000000000E+00  0.00000000000E+00  0.45593999997E+02  0.45594000000E+02  0.51100000000E-03 0. -1.
         11   -1    0    0    0    0 -0.00000000000E+00 -0.00000000000E+00 -0.45593999997E+02  0.45594000000E+02  0.51100000000E-03 0.  1.
         23    2    1    2    0    0  0.00000000000E+00  0.00000000000E+00 -0.14210854715E-13  0.91188000000E+02  0.91188000000E+02 0.  0.
    9900012    2    3    3    0    0  0.15108112994E+02 -0.62687427477E+01  0.37223767732E+02  0.50528916168E+02  0.30000171185E+02 0.  0.
        -12    1    3    3    0    0 -0.15108112994E+02  0.62687427477E+01 -0.37223767732E+02  0.40659083832E+02  0.00000000000E+00 0.  1.
         11    1    4    4    0    0  0.14189246068E+01  0.13201349536E+01  0.77392566834E+01  0.79782327371E+01  0.51100000000E-03 0. -1.
        -11    1    4    4    0    0  0.35995289353E+01 -0.83350021137E-01 -0.48186391301E+01  0.60152172952E+01  0.51100000000E-03 0.  1.
        -12    1    4    4    0    0  0.10089659452E+02 -0.75055276802E+01  0.34303150178E+02  0.36535466136E+02  0.00000000000E+00 0.  1.
</event>
<event>
 8    1  0.6016610E-012  0.9118800E+02  0.7816164E-02  0.1184000E+00
        -11   -1    0    0    0    0  0.00000000000E+00  0.00000000000E+00  0.45593999997E+02  0.45594000000E+02  0.51100000000E-03 0. -1.
         11   -1    0    0    0    0 -0.00000000000E+00 -0.00000000000E+00 -0.45593999997E+02  0.45594000000E+02  0.51100000000E-03 0.  1.
         23    2    1    2    0    0  0.00000000000E+00 -0.35527136788E-14 -0.71054273576E-14  0.91188000000E+02  0.91188000000E+02 0.  0.
    9900012    2    3    3    0    0 -0.85659605996E+01 -0.19278921990E+02 -0.34757925941E+02  0.50528856750E+02  0.29999990577E+02 0.  0.
         12    1    3    3    0    0  0.85659605996E+01  0.19278921990E+02  0.34757925941E+02  0.40659143250E+02  0.00000000000E+00 0. -1.
         11    1    4    4    0    0 -0.50094310065E+01 -0.12851819884E+02 -0.68251646680E+00  0.13810485232E+02  0.51100000000E-03 0. -1.
        -11    1    4    4    0    0 -0.53445229624E+01  0.14717029160E+01 -0.15181127681E+02  0.16161573967E+02  0.51100000000E-03 0.  1.
         12    1    4    4    0    0  0.17879933693E+01 -0.78988050221E+01 -0.18894281793E+02  0.20556797551E+02  0.00000000000E+00 0. -1.
</event>
<event>
 8    1  0.6016610E-012  0.9118800E+02  0.7816164E-02  0.1184000E+00
        -11   -1    0    0    0    0  0.00000000000E+00  0.00000000000E+00  0.45593999997E+02  0.45594000000E+02  0.51100000000E-03 0. -1.
         11   -1    0    0    0    0 -0.00000000000E+00 -0.00000000000E+00 -0.45593999997E+02  0.45594000000E+02  0.51100000000E-03 0.  1.
         23    2    1    2    0    0 -0.35527136788E-14  0.00000000000E+00  0.13322676296E-14  0.91188000000E+02  0.91188000000E+02 0.  0.
    9900012    2    3    3    0    0  0.16928412543E+02 -0.36802758222E+02 -0.34860227122E+01  0.50528849513E+02  0.29999968579E+02 0.  0.
         12    1    3    3    0    0 -0.16928412543E+02  0.36802758222E+02  0.34860227122E+01  0.40659150487E+02  0.00000000000E+00 0. -1.
         11    1    4    4    0    0  0.18487499133E+02 -0.24968088362E+02 -0.81353684566E+01  0.32115063146E+02  0.51100000000E-03 0. -1.
        -11    1    4    4    0    0  0.39994521087E+00 -0.73188566651E+00 -0.40741524917E+01  0.41586454029E+01  0.51100000000E-03 0.  1.
         12    1    4    4    0    0 -0.19590318007E+01 -0.11102784193E+02  0.87234982361E+01  0.14255140964E+02  0.00000000000E+00 0. -1.
</event>
<event>
 8    1  0.6016610E-012  0.9118800E+02  0.7816164E-02  0.1184000E+00
        -11   -1    0    0    0    0  0.00000000000E+00  0.00000000000E+00  0.45593999997E+02  0.45594000000E+02  0.51100000000E-03 0. -1.
         11   -1    0    0    0    0 -0.00000000000E+00 -0.00000000000E+00 -0.45593999997E+02  0.45594000000E+02  0.51100000000E-03 0.  1.
         23    2    1    2    0    0 -0.35527136788E-14  0.35527136788E-14  0.00000000000E+00  0.91188000000E+02  0.91188000000E+02 0.  0.
    9900012    2    3    3    0    0 -0.30947438015E+02  0.21736540930E+02 -0.14931346821E+02  0.50528852822E+02  0.29999978639E+02 0.  0.
         12    1    3    3    0    0  0.30947438015E+02 -0.21736540930E+02  0.14931346821E+02  0.40659147178E+02  0.00000000000E+00 0. -1.
         11    1    4    4    0    0 -0.12131804201E+02  0.55525096386E+01 -0.46601112908E+01  0.14132504165E+02  0.51100000000E-03 0. -1.
        -11    1    4    4    0    0  0.30577108262E+01  0.11936745635E+02 -0.13538783774E+01  0.12396309079E+02  0.51100000000E-03 0.  1.
        -12    1    4    4    0    0 -0.21873344640E+02  0.42472856565E+01 -0.89173571532E+01  0.24000039579E+02  0.00000000000E+00 0.  1.
</event>
<event>
 8    1  0.6016610E-012  0.9118800E+02  0.7816164E-02  0.1184000E+00
        -11   -1    0    0    0    0  0.00000000000E+00  0.00000000000E+00  0.45593999997E+02  0.45594000000E+02  0.51100000000E-03 0.  1.
         11   -1    0    0    0    0 -0.00000000000E+00 -0.00000000000E+00 -0.45593999997E+02  0.45594000000E+02  0.51100000000E-03 0. -1.
         23    2    1    2    0    0 -0.17763568394E-14  0.71054273576E-14  0.00000000000E+00  0.91188000000E+02  0.91188000000E+02 0.  0.
    9900012    2    3    3    0    0  0.41349782007E+01 -0.39773895956E+02 -0.73555917692E+01  0.50528861119E+02  0.30000003858E+02 0.  0.
        -12    1    3    3    0    0 -0.41349782007E+01  0.39773895956E+02  0.73555917692E+01  0.40659138881E+02  0.00000000000E+00 0.  1.
         11    1    4    4    0    0  0.14300264122E+02 -0.22957031148E+02 -0.69422810118E+01  0.27923432794E+02  0.51100000000E-03 0. -1.
        -11    1    4    4    0    0 -0.11402399289E+02 -0.17716922067E+02 -0.29694459775E+00  0.21071122738E+02  0.51100000000E-03 0.  1.
         12    1    4    4    0    0  0.12371133680E+01  0.90005725847E+00 -0.11636615971E+00  0.15343055879E+01  0.00000000000E+00 0. -1.
</event>
<event>
 8    1  0.6016610E-012  0.9118800E+02  0.7816164E-02  0.1184000E+00
        -11   -1    0    0    0    0  0.00000000000E+00  0.00000000000E+00  0.45593999997E+02  0.45594000000E+02  0.51100000000E-03 0.  1.
         11   -1    0    0    0    0 -0.00000000000E+00 -0.00000000000E+00 -0.45593999997E+02  0.45594000000E+02  0.51100000000E-03 0. -1.
         23    2    1    2    0    0  0.00000000000E+00  0.00000000000E+00 -0.88817841970E-15  0.91188000000E+02  0.91188000000E+02 0.  0.
    9900012    2    3    3    0    0 -0.11623292788E+02 -0.38372026937E+02  0.67566721831E+01  0.50528855819E+02  0.29999987748E+02 0.  0.
        -12    1    3    3    0    0  0.11623292788E+02  0.38372026937E+02 -0.67566721831E+01  0.40659144181E+02  0.00000000000E+00 0.  1.
         11    1    4    4    0    0 -0.12616873431E+01 -0.62759399268E+01 -0.87816437683E+01  0.10867223401E+02  0.51100000000E-03 0. -1.
        -11    1    4    4    0    0 -0.37419828512E+01 -0.24477934089E+02  0.53756581203E+01  0.25339088251E+02  0.51100000000E-03 0.  1.
         12    1    4    4    0    0 -0.66196225939E+01 -0.76181529219E+01  0.10162657831E+02  0.14322544167E+02  0.00000000000E+00 0. -1.
</event>
<event>
 8    1  0.6016610E-012  0.9118800E+02  0.7816164E-02  0.1184000E+00
        -11   -1    0    0    0    0  0.00000000000E+00  0.00000000000E+00  0.45593999997E+02  0.45594000000E+02  0.51100000000E-03 0. -1.
         11   -1    0    0    0    0 -0.00000000000E+00 -0.00000000000E+00 -0.45593999997E+02  0.45594000000E+02  0.51100000000E-03 0.  1.
         23    2    1    2    0    0  0.00000000000E+00  0.00000000000E+00  0.00000000000E+00  0.91188000000E+02  0.91188000000E+02 0.  0.
    9900012    2    3    3    0    0 -0.22191218339E+02  0.32804092094E+02  0.91982916969E+01  0.50528841135E+02  0.29999943113E+02 0.  0.
        -12    1    3    3    0    0  0.22191218339E+02 -0.32804092094E+02 -0.91982916969E+01  0.40659158865E+02  0.00000000000E+00 0.  1.
         11    1    4    4    0    0 -0.12597347192E+02  0.15623832158E+02  0.18079796723E+02  0.27012521863E+02  0.51100000000E-03 0. -1.
        -11    1    4    4    0    0 -0.40426431392E+00  0.10263603261E+02 -0.40563233274E+01  0.11043493140E+02  0.51100000000E-03 0.  1.
         12    1    4    4    0    0 -0.91896068323E+01  0.69166566757E+01 -0.48251816986E+01  0.12472826132E+02  0.00000000000E+00 0. -1.
</event>
<event>
 8    1  0.6016610E-012  0.9118800E+02  0.7816164E-02  0.1184000E+00
        -11   -1    0    0    0    0  0.00000000000E+00  0.00000000000E+00  0.45593999997E+02  0.45594000000E+02  0.51100000000E-03 0.  1.
         11   -1    0    0    0    0 -0.00000000000E+00 -0.00000000000E+00 -0.45593999997E+02  0.45594000000E+02  0.51100000000E-03 0. -1.
         23    2    1    2    0    0  0.00000000000E+00  0.26645352591E-14 -0.88817841970E-15  0.91188000000E+02  0.91188000000E+02 0.  0.
    9900012    2    3    3    0    0 -0.39293355380E+02 -0.76944958830E+01  0.70705779972E+01  0.50528854447E+02  0.29999983576E+02 0.  0.
         12    1    3    3    0    0  0.39293355380E+02  0.76944958830E+01 -0.70705779972E+01  0.40659145553E+02  0.00000000000E+00 0. -1.
         11    1    4    4    0    0 -0.55648354453E+01 -0.40572890793E+00 -0.36786656033E+01  0.66831572152E+01  0.51100000000E-03 0. -1.
        -11    1    4    4    0    0 -0.19964979114E+02 -0.15289893477E+02  0.12025115176E+02  0.27874444009E+02  0.51100000000E-03 0.  1.
        -12    1    4    4    0    0 -0.13763540820E+02  0.80011265015E+01 -0.12758715755E+01  0.15971253222E+02  0.00000000000E+00 0.  1.
</event>
<event>
 8    1  0.6016610E-012  0.9118800E+02  0.7816164E-02  0.1184000E+00
        -11   -1    0    0    0    0  0.00000000000E+00  0.00000000000E+00  0.45593999997E+02  0.45594000000E+02  0.51100000000E-03 0. -1.
         11   -1    0    0    0    0 -0.00000000000E+00 -0.00000000000E+00 -0.45593999997E+02  0.45594000000E+02  0.51100000000E-03 0.  1.
         23    2    1    2    0    0  0.55511151231E-16  0.00000000000E+00  0.00000000000E+00  0.91188000000E+02  0.91188000000E+02 0.  0.
    9900012    2    3    3    0    0 -0.26880879489E+00  0.13078141029E+02 -0.38497487303E+02  0.50528849005E+02  0.29999967037E+02 0.  0.
         12    1    3    3    0    0  0.26880879489E+00 -0.13078141029E+02  0.38497487303E+02  0.40659150995E+02  0.00000000000E+00 0. -1.
         11    1    4    4    0    0 -0.54928573814E+01  0.50486036776E+01  0.10623953144E+01  0.75358188255E+01  0.51100000000E-03 0. -1.
        -11    1    4    4    0    0  0.69805158799E+01  0.11205498472E+02 -0.30652024858E+02  0.33374203003E+02  0.51100000000E-03 0.  1.
         12    1    4    4    0    0 -0.17564672934E+01 -0.31759611202E+01 -0.89078577599E+01  0.96188271770E+01  0.00000000000E+00 0. -1.
</event>
<event>
 8    1  0.6016610E-012  0.9118800E+02  0.7816164E-02  0.1184000E+00
        -11   -1    0    0    0    0  0.00000000000E+00  0.00000000000E+00  0.45593999997E+02  0.45594000000E+02  0.51100000000E-03 0. -1.
         11   -1    0    0    0    0 -0.00000000000E+00 -0.00000000000E+00 -0.45593999997E+02  0.45594000000E+02  0.51100000000E-03 0.  1.
         23    2    1    2    0    0  0.00000000000E+00 -0.88817841970E-15 -0.17763568394E-14  0.91188000000E+02  0.91188000000E+02 0.  0.
    9900012    2    3    3    0    0 -0.38237727857E+02 -0.27361248373E+01 -0.13548190337E+02  0.50528884513E+02  0.30000074966E+02 0.  0.
         12    1    3    3    0    0  0.38237727857E+02  0.27361248373E+01  0.13548190337E+02  0.40659115487E+02  0.00000000000E+00 0. -1.
         11    1    4    4    0    0 -0.47296937090E+01 -0.60067160978E+01 -0.50628646844E+01  0.91696913762E+01  0.51100000000E-03 0. -1.
        -11    1    4    4    0    0 -0.23754784387E+02  0.78687780791E+01 -0.14591422805E+02  0.28967517489E+02  0.51100000000E-03 0.  1.
        -12    1    4    4    0    0 -0.97532497607E+01 -0.45981868187E+01  0.61060971531E+01  0.12391675648E+02  0.00000000000E+00 0.  1.
</event>
<event>
 8    1  0.6016610E-012  0.9118800E+02  0.7816164E-02  0.1184000E+00
        -11   -1    0    0    0    0  0.00000000000E+00  0.00000000000E+00  0.45593999997E+02  0.45594000000E+02  0.51100000000E-03 0. -1.
         11   -1    0    0    0    0 -0.00000000000E+00 -0.00000000000E+00 -0.45593999997E+02  0.45594000000E+02  0.51100000000E-03 0.  1.
         23    2    1    2    0    0 -0.53290705182E-14  0.00000000000E+00  0.00000000000E+00  0.91188000000E+02  0.91188000000E+02 0.  0.
    9900012    2    3    3    0    0 -0.12602188589E+02  0.19092374829E+02 -0.33612969651E+02  0.50528860036E+02  0.30000000566E+02 0.  0.
         12    1    3    3    0    0  0.12602188589E+02 -0.19092374829E+02  0.33612969651E+02  0.40659139964E+02  0.00000000000E+00 0. -1.
         11    1    4    4    0    0  0.51225744724E+01  0.87809547452E+01 -0.16161738777E+02  0.19093133216E+02  0.51100000000E-03 0. -1.
        -11    1    4    4    0    0 -0.18571939872E+02  0.13399514088E+02 -0.15884557078E+02  0.27870828517E+02  0.51100000000E-03 0.  1.
         12    1    4    4    0    0  0.84717681087E+00 -0.30880940039E+01 -0.15666737966E+01  0.35648983030E+01  0.00000000000E+00 0. -1.
</event>
<event>
 8    1  0.6016610E-012  0.9118800E+02  0.7816164E-02  0.1184000E+00
        -11   -1    0    0    0    0  0.00000000000E+00  0.00000000000E+00  0.45593999997E+02  0.45594000000E+02  0.51100000000E-03 0. -1.
         11   -1    0    0    0    0 -0.00000000000E+00 -0.00000000000E+00 -0.45593999997E+02  0.45594000000E+02  0.51100000000E-03 0.  1.
         23    2    1    2    0    0  0.00000000000E+00  0.22204460493E-15  0.71054273576E-14  0.91188000000E+02  0.91188000000E+02 0.  0.
    9900012    2    3    3    0    0  0.16566906820E+02 -0.60625573891E+00 -0.37125936910E+02  0.50528866475E+02  0.30000020136E+02 0.  0.
         12    1    3    3    0    0 -0.16566906820E+02  0.60625573891E+00  0.37125936910E+02  0.40659133525E+02  0.00000000000E+00 0. -1.
         11    1    4    4    0    0  0.92822774660E+01  0.26182500495E+01 -0.58575980047E+01  0.11283942703E+02  0.51100000000E-03 0. -1.
        -11    1    4    4    0    0  0.10480266526E+01 -0.65696800697E+01 -0.31469441983E+02  0.32164962848E+02  0.51100000000E-03 0.  1.
        -12    1    4    4    0    0  0.62366027014E+01  0.33451742813E+01  0.20110307754E+00  0.70799609232E+01  0.00000000000E+00 0.  1.
</event>
<event>
 8    1  0.6016610E-012  0.9118800E+02  0.7816164E-02  0.1184000E+00
        -11   -1    0    0    0    0  0.00000000000E+00  0.00000000000E+00  0.45593999997E+02  0.45594000000E+02  0.51100000000E-03 0. -1.
         11   -1    0    0    0    0 -0.00000000000E+00 -0.00000000000E+00 -0.45593999997E+02  0.45594000000E+02  0.51100000000E-03 0.  1.
         23    2    1    2    0    0  0.00000000000E+00  0.35527136788E-14 -0.17763568394E-14  0.91188000000E+02  0.91188000000E+02 0.  0.
    9900012    2    3    3    0    0  0.34572302551E+02  0.17470356387E+02 -0.12357557990E+02  0.50528847335E+02  0.29999961960E+02 0.  0.
         12    1    3    3    0    0 -0.34572302551E+02 -0.17470356387E+02  0.12357557990E+02  0.40659152665E+02  0.00000000000E+00 0. -1.
         11    1    4    4    0    0 -0.21508406045E+01 -0.47173071342E+01 -0.27236303947E+01  0.58563866584E+01  0.51100000000E-03 0. -1.
        -11    1    4    4    0    0  0.19610830696E+02  0.72590644724E+01 -0.47817514514E+01  0.21450963726E+02  0.51100000000E-03 0.  1.
         12    1    4    4    0    0  0.17112312460E+02  0.14928599049E+02 -0.48521761441E+01  0.23221496950E+02  0.00000000000E+00 0. -1.
</event>
<event>
 8    1  0.6016610E-012  0.9118800E+02  0.7816164E-02  0.1184000E+00
        -11   -1    0    0    0    0  0.00000000000E+00  0.00000000000E+00  0.45593999997E+02  0.45594000000E+02  0.51100000000E-03 0. -1.
         11   -1    0    0    0    0 -0.00000000000E+00 -0.00000000000E+00 -0.45593999997E+02  0.45594000000E+02  0.51100000000E-03 0.  1.
         23    2    1    2    0    0  0.00000000000E+00 -0.88817841970E-15  0.00000000000E+00  0.91188000000E+02  0.91188000000E+02 0.  0.
    9900012    2    3    3    0    0 -0.14644112253E+02  0.70453393654E+01 -0.37270334196E+02  0.50528872593E+02  0.30000038733E+02 0.  0.
         12    1    3    3    0    0  0.14644112253E+02 -0.70453393654E+01  0.37270334196E+02  0.40659127407E+02  0.00000000000E+00 0. -1.
         11    1    4    4    0    0 -0.58229474971E+01  0.13433664396E+02 -0.14691469597E+02  0.20741488275E+02  0.51100000000E-03 0. -1.
        -11    1    4    4    0    0  0.42491463419E+01 -0.35401639705E+01 -0.99873786403E+01  0.11416467840E+02  0.51100000000E-03 0.  1.
         12    1    4    4    0    0 -0.13070311098E+02 -0.28481610600E+01 -0.12591485958E+02  0.18370916478E+02  0.00000000000E+00 0. -1.
</event>
<event>
 8    1  0.6016610E-012  0.9118800E+02  0.7816164E-02  0.1184000E+00
        -11   -1    0    0    0    0  0.00000000000E+00  0.00000000000E+00  0.45593999997E+02  0.45594000000E+02  0.51100000000E-03 0. -1.
         11   -1    0    0    0    0 -0.00000000000E+00 -0.00000000000E+00 -0.45593999997E+02  0.45594000000E+02  0.51100000000E-03 0.  1.
         23    2    1    2    0    0  0.00000000000E+00  0.00000000000E+00 -0.71054273576E-14  0.91188000000E+02  0.91188000000E+02 0.  0.
    9900012    2    3    3    0    0 -0.45322409594E+01  0.40465284135E+01  0.40202631143E+02  0.50528841731E+02  0.29999944927E+02 0.  0.
        -12    1    3    3    0    0  0.45322409594E+01 -0.40465284135E+01 -0.40202631143E+02  0.40659158269E+02  0.00000000000E+00 0.  1.
         11    1    4    4    0    0 -0.24270269331E+01  0.51882194519E+00 -0.14546779791E+01  0.28767558514E+01  0.51100000000E-03 0.  1.
        -11    1    4    4    0    0 -0.13802968731E+01  0.13264525406E+02  0.25397837810E+02  0.28686286260E+02  0.51100000000E-03 0. -1.
        -12    1    4    4    0    0 -0.72491715314E+00 -0.97368189374E+01  0.16259471312E+02  0.18965799620E+02  0.00000000000E+00 0.  1.
</event>
<event>
 8    1  0.6016610E-012  0.9118800E+02  0.7816164E-02  0.1184000E+00
        -11   -1    0    0    0    0  0.00000000000E+00  0.00000000000E+00  0.45593999997E+02  0.45594000000E+02  0.51100000000E-03 0. -1.
         11   -1    0    0    0    0 -0.00000000000E+00 -0.00000000000E+00 -0.45593999997E+02  0.45594000000E+02  0.51100000000E-03 0.  1.
         23    2    1    2    0    0  0.00000000000E+00  0.00000000000E+00  0.00000000000E+00  0.91188000000E+02  0.91188000000E+02 0.  0.
    9900012    2    3    3    0    0 -0.10969049667E+02 -0.10469708339E+02  0.37725746948E+02  0.50528845728E+02  0.29999957076E+02 0.  0.
        -12    1    3    3    0    0  0.10969049667E+02  0.10469708339E+02 -0.37725746948E+02  0.40659154272E+02  0.00000000000E+00 0.  1.
         11    1    4    4    0    0 -0.76429091570E+01 -0.10596789890E+02  0.22356019084E+02  0.25893968524E+02  0.51100000000E-03 0. -1.
        -11    1    4    4    0    0 -0.26776701961E+01  0.94736547321E+01  0.70970789693E+01  0.12136250732E+02  0.51100000000E-03 0.  1.
        -12    1    4    4    0    0 -0.64847031374E+00 -0.93465731810E+01  0.82726488943E+01  0.12498626473E+02  0.00000000000E+00 0.  1.
</event>
<event>
 8    1  0.6016610E-012  0.9118800E+02  0.7816164E-02  0.1184000E+00
        -11   -1    0    0    0    0  0.00000000000E+00  0.00000000000E+00  0.45593999997E+02  0.45594000000E+02  0.51100000000E-03 0. -1.
         11   -1    0    0    0    0 -0.00000000000E+00 -0.00000000000E+00 -0.45593999997E+02  0.45594000000E+02  0.51100000000E-03 0.  1.
         23    2    1    2    0    0  0.35527136788E-14  0.00000000000E+00  0.00000000000E+00  0.91188000000E+02  0.91188000000E+02 0.  0.
    9900012    2    3    3    0    0 -0.28427445415E+02 -0.17165240246E+02 -0.23460620963E+02  0.50528857590E+02  0.29999993130E+02 0.  0.
         12    1    3    3    0    0  0.28427445415E+02  0.17165240246E+02  0.23460620963E+02  0.40659142410E+02  0.00000000000E+00 0. -1.
         11    1    4    4    0    0 -0.25906975343E+02 -0.36722789384E+01 -0.17154577607E+02  0.31287961538E+02  0.51100000000E-03 0.  1.
        -11    1    4    4    0    0  0.25060950438E+01 -0.54033113897E+01  0.23190464346E+01  0.63917339564E+01  0.51100000000E-03 0. -1.
        -12    1    4    4    0    0 -0.50265651156E+01 -0.80896499182E+01 -0.86250897909E+01  0.12849162096E+02  0.00000000000E+00 0.  1.
</event>
<event>
 8    1  0.6016610E-012  0.9118800E+02  0.7816164E-02  0.1184000E+00
        -11   -1    0    0    0    0  0.00000000000E+00  0.00000000000E+00  0.45593999997E+02  0.45594000000E+02  0.51100000000E-03 0. -1.
         11   -1    0    0    0    0 -0.00000000000E+00 -0.00000000000E+00 -0.45593999997E+02  0.45594000000E+02  0.51100000000E-03 0.  1.
         23    2    1    2    0    0  0.35527136788E-14  0.71054273576E-14  0.17763568394E-14  0.91188000000E+02  0.91188000000E+02 0.  0.
    9900012    2    3    3    0    0  0.17697580338E+02  0.35330609196E+02  0.95765081679E+01  0.50528858289E+02  0.29999995256E+02 0.  0.
        -12    1    3    3    0    0 -0.17697580338E+02 -0.35330609196E+02 -0.95765081679E+01  0.40659141711E+02  0.00000000000E+00 0.  1.
         11    1    4    4    0    0  0.13293748044E+02  0.15493552571E+02  0.15193900667E+02  0.25448546640E+02  0.51100000000E-03 0. -1.
        -11    1    4    4    0    0 -0.31208241503E+01  0.15137773719E+02 -0.47343747453E+01  0.16164963379E+02  0.51100000000E-03 0.  1.
         12    1    4    4    0    0  0.75246564441E+01  0.46992829059E+01 -0.88301775395E+00  0.89153482706E+01  0.00000000000E+00 0. -1.
</event>
<event>
 8    1  0.6016610E-012  0.9118800E+02  0.7816164E-02  0.1184000E+00
        -11   -1    0    0    0    0  0.00000000000E+00  0.00000000000E+00  0.45593999997E+02  0.45594000000E+02  0.51100000000E-03 0. -1.
         11   -1    0    0    0    0 -0.00000000000E+00 -0.00000000000E+00 -0.45593999997E+02  0.45594000000E+02  0.51100000000E-03 0.  1.
         23    2    1    2    0    0  0.35527136788E-14  0.00000000000E+00  0.35527136788E-14  0.91188000000E+02  0.91188000000E+02 0.  0.
    9900012    2    3    3    0    0 -0.26434904565E+02 -0.24231380984E+02 -0.19162519438E+02  0.50528853981E+02  0.29999982160E+02 0.  0.
         12    1    3    3    0    0  0.26434904565E+02  0.24231380984E+02  0.19162519438E+02  0.40659146019E+02  0.00000000000E+00 0. -1.
         11    1    4    4    0    0 -0.52868368601E+01 -0.15992950299E+00  0.32993254846E+01  0.62339209448E+01  0.51100000000E-03 0. -1.
        -11    1    4    4    0    0 -0.45572100522E+01 -0.20750491227E+02 -0.11944035002E+02  0.24372341333E+02  0.51100000000E-03 0.  1.
        -12    1    4    4    0    0 -0.16590857653E+02 -0.33209602541E+01 -0.10517809921E+02  0.19922591703E+02  0.00000000000E+00 0.  1.
</event>
<event>
 8    1  0.6016610E-012  0.9118800E+02  0.7816164E-02  0.1184000E+00
        -11   -1    0    0    0    0  0.00000000000E+00  0.00000000000E+00  0.45593999997E+02  0.45594000000E+02  0.51100000000E-03 0. -1.
         11   -1    0    0    0    0 -0.00000000000E+00 -0.00000000000E+00 -0.45593999997E+02  0.45594000000E+02  0.51100000000E-03 0.  1.
         23    2    1    2    0    0 -0.71054273576E-14 -0.17763568394E-14  0.00000000000E+00  0.91188000000E+02  0.91188000000E+02 0.  0.
    9900012    2    3    3    0    0  0.29428863313E+02  0.14378032964E+02  0.24091165470E+02  0.50528805695E+02  0.29999835391E+02 0.  0.
        -12    1    3    3    0    0 -0.29428863313E+02 -0.14378032964E+02 -0.24091165470E+02  0.40659194305E+02  0.00000000000E+00 0.  1.
         11    1    4    4    0    0  0.18072977607E+02 -0.64863628769E+01  0.69393694893E+01  0.20417156318E+02  0.51100000000E-03 0.  1.
        -11    1    4    4    0    0  0.13351733995E+01  0.93485811658E+01  0.57243677435E+01  0.11042963558E+02  0.51100000000E-03 0. -1.
         12    1    4    4    0    0  0.10020712306E+02  0.11515814675E+02  0.11427428237E+02  0.19068685819E+02  0.00000000000E+00 0. -1.
</event>
<event>
 8    1  0.6016610E-012  0.9118800E+02  0.7816164E-02  0.1184000E+00
        -11   -1    0    0    0    0  0.00000000000E+00  0.00000000000E+00  0.45593999997E+02  0.45594000000E+02  0.51100000000E-03 0. -1.
         11   -1    0    0    0    0 -0.00000000000E+00 -0.00000000000E+00 -0.45593999997E+02  0.45594000000E+02  0.51100000000E-03 0.  1.
         23    2    1    2    0    0  0.00000000000E+00  0.00000000000E+00 -0.88817841970E-15  0.91188000000E+02  0.91188000000E+02 0.  0.
    9900012    2    3    3    0    0 -0.36512224225E+02 -0.17018191158E+02  0.55139938736E+01  0.50528862324E+02  0.30000007520E+02 0.  0.
        -12    1    3    3    0    0  0.36512224225E+02  0.17018191158E+02 -0.55139938736E+01  0.40659137676E+02  0.00000000000E+00 0.  1.
         11    1    4    4    0    0 -0.24779736998E+01  0.51280492680E+01  0.13269396209E+01  0.58479066315E+01  0.51100000000E-03 0. -1.
        -11    1    4    4    0    0 -0.32540710200E+02 -0.18302341518E+02 -0.18379154707E+01  0.37379826897E+02  0.51100000000E-03 0.  1.
        -12    1    4    4    0    0 -0.14935403252E+01 -0.38438989082E+01  0.60249697235E+01  0.73011287955E+01  0.00000000000E+00 0.  1.
</event>
<event>
 8    1  0.6016610E-012  0.9118800E+02  0.7816164E-02  0.1184000E+00
        -11   -1    0    0    0    0  0.00000000000E+00  0.00000000000E+00  0.45593999997E+02  0.45594000000E+02  0.51100000000E-03 0.  1.
         11   -1    0    0    0    0 -0.00000000000E+00 -0.00000000000E+00 -0.45593999997E+02  0.45594000000E+02  0.51100000000E-03 0. -1.
         23    2    1    2    0    0 -0.17763568394E-14  0.00000000000E+00 -0.35527136788E-14  0.91188000000E+02  0.91188000000E+02 0.  0.
    9900012    2    3    3    0    0 -0.10405548577E+02 -0.26339574997E+02  0.29173898106E+02  0.50528868394E+02  0.30000025971E+02 0.  0.
        -12    1    3    3    0    0  0.10405548577E+02  0.26339574997E+02 -0.29173898106E+02  0.40659131606E+02  0.00000000000E+00 0.  1.
         11    1    4    4    0    0 -0.17166688337E+02 -0.25689502476E+02  0.22541747460E+02  0.38246256088E+02  0.51100000000E-03 0. -1.
        -11    1    4    4    0    0  0.39315323030E+01 -0.39745677076E+01  0.20522164785E+01  0.59553108607E+01  0.51100000000E-03 0.  1.
         12    1    4    4    0    0  0.28296074574E+01  0.33244951859E+01  0.45799341679E+01  0.63273014458E+01  0.00000000000E+00 0. -1.
</event>
<event>
 8    1  0.6016610E-012  0.9118800E+02  0.7816164E-02  0.1184000E+00
        -11   -1    0    0    0    0  0.00000000000E+00  0.00000000000E+00  0.45593999997E+02  0.45594000000E+02  0.51100000000E-03 0. -1.
         11   -1    0    0    0    0 -0.00000000000E+00 -0.00000000000E+00 -0.45593999997E+02  0.45594000000E+02  0.51100000000E-03 0.  1.
         23    2    1    2    0    0  0.35527136788E-14  0.17763568394E-14  0.00000000000E+00  0.91188000000E+02  0.91188000000E+02 0.  0.
    9900012    2    3    3    0    0  0.17501213320E+02  0.13386428955E+02 -0.34171290899E+02  0.50528855032E+02  0.29999985354E+02 0.  0.
         12    1    3    3    0    0 -0.17501213320E+02 -0.13386428955E+02  0.34171290899E+02  0.40659144968E+02  0.00000000000E+00 0. -1.
         11    1    4    4    0    0 -0.38832235469E+01  0.35721056202E+01  0.29489807694E+01  0.60444893512E+01  0.51100000000E-03 0. -1.
        -11    1    4    4    0    0  0.11691768105E+02  0.49221725430E+01 -0.13708118035E+02  0.18677197977E+02  0.51100000000E-03 0.  1.
         12    1    4    4    0    0  0.96926687620E+01  0.48921507921E+01 -0.23412153633E+02  0.25807167703E+02  0.00000000000E+00 0. -1.
</event>
<event>
 8    1  0.6016610E-012  0.9118800E+02  0.7816164E-02  0.1184000E+00
        -11   -1    0    0    0    0  0.00000000000E+00  0.00000000000E+00  0.45593999997E+02  0.45594000000E+02  0.51100000000E-03 0. -1.
         11   -1    0    0    0    0 -0.00000000000E+00 -0.00000000000E+00 -0.45593999997E+02  0.45594000000E+02  0.51100000000E-03 0.  1.
         23    2    1    2    0    0  0.17763568394E-14 -0.35527136788E-14  0.00000000000E+00  0.91188000000E+02  0.91188000000E+02 0.  0.
    9900012    2    3    3    0    0  0.94164773848E+01 -0.18570815580E+02 -0.34923071251E+02  0.50528854125E+02  0.29999982599E+02 0.  0.
         12    1    3    3    0    0 -0.94164773848E+01  0.18570815580E+02  0.34923071251E+02  0.40659145875E+02  0.00000000000E+00 0. -1.
         11    1    4    4    0    0 -0.37523882157E+01  0.31941822567E+01 -0.31410478610E+01  0.58437487572E+01  0.51100000000E-03 0. -1.
        -11    1    4    4    0    0  0.12975616081E+02 -0.24713556318E+02 -0.25786271844E+02  0.38000767024E+02  0.51100000000E-03 0.  1.
         12    1    4    4    0    0  0.19324952001E+00  0.29485584806E+01 -0.59957515467E+01  0.66843383442E+01  0.00000000000E+00 0. -1.
</event>
<event>
 8    1  0.6016610E-012  0.9118800E+02  0.7816164E-02  0.1184000E+00
        -11   -1    0    0    0    0  0.00000000000E+00  0.00000000000E+00  0.45593999997E+02  0.45594000000E+02  0.51100000000E-03 0. -1.
         11   -1    0    0    0    0 -0.00000000000E+00 -0.00000000000E+00 -0.45593999997E+02  0.45594000000E+02  0.51100000000E-03 0.  1.
         23    2    1    2    0    0  0.00000000000E+00  0.13322676296E-14  0.71054273576E-14  0.91188000000E+02  0.91188000000E+02 0.  0.
    9900012    2    3    3    0    0 -0.15784654999E+02  0.38395256852E+00  0.37468150195E+02  0.50528867790E+02  0.30000024134E+02 0.  0.
        -12    1    3    3    0    0  0.15784654999E+02 -0.38395256852E+00 -0.37468150195E+02  0.40659132210E+02  0.00000000000E+00 0.  1.
         11    1    4    4    0    0 -0.93057931452E+01 -0.87137207560E+01  0.53827166482E+01  0.13838365303E+02  0.51100000000E-03 0. -1.
        -11    1    4    4    0    0  0.32865039785E+01  0.65735240821E+01  0.99931746862E+01  0.12404671210E+02  0.51100000000E-03 0.  1.
         12    1    4    4    0    0 -0.97653658326E+01  0.25241492424E+01  0.22092258861E+02  0.24285831277E+02  0.00000000000E+00 0. -1.
</event>
<event>
 8    1  0.6016610E-012  0.9118800E+02  0.7816164E-02  0.1184000E+00
        -11   -1    0    0    0    0  0.00000000000E+00  0.00000000000E+00  0.45593999997E+02  0.45594000000E+02  0.51100000000E-03 0. -1.
         11   -1    0    0    0    0 -0.00000000000E+00 -0.00000000000E+00 -0.45593999997E+02  0.45594000000E+02  0.51100000000E-03 0.  1.
         23    2    1    2    0    0  0.00000000000E+00  0.00000000000E+00 -0.35527136788E-14  0.91188000000E+02  0.91188000000E+02 0.  0.
    9900012    2    3    3    0    0  0.17200120931E+02  0.25441874246E+02 -0.26646421222E+02  0.50528869548E+02  0.30000029477E+02 0.  0.
         12    1    3    3    0    0 -0.17200120931E+02 -0.25441874246E+02  0.26646421222E+02  0.40659130452E+02  0.00000000000E+00 0. -1.
         11    1    4    4    0    0  0.16065603310E+02  0.13994890007E+02 -0.54624843629E+01  0.21995437975E+02  0.51100000000E-03 0. -1.
        -11    1    4    4    0    0  0.40853325706E+01  0.12799807216E+02 -0.21412941027E+02  0.25279221718E+02  0.51100000000E-03 0.  1.
         12    1    4    4    0    0 -0.29508149490E+01 -0.13528229776E+01  0.22900416775E+00  0.32542098550E+01  0.00000000000E+00 0. -1.
</event>
<event>
 8    1  0.6016610E-012  0.9118800E+02  0.7816164E-02  0.1184000E+00
        -11   -1    0    0    0    0  0.00000000000E+00  0.00000000000E+00  0.45593999997E+02  0.45594000000E+02  0.51100000000E-03 0. -1.
         11   -1    0    0    0    0 -0.00000000000E+00 -0.00000000000E+00 -0.45593999997E+02  0.45594000000E+02  0.51100000000E-03 0.  1.
         23    2    1    2    0    0  0.17763568394E-14  0.35527136788E-14  0.00000000000E+00  0.91188000000E+02  0.91188000000E+02 0.  0.
    9900012    2    3    3    0    0  0.92073267221E+01  0.18024964077E+02  0.35263167440E+02  0.50528866054E+02  0.30000018858E+02 0.  0.
        -12    1    3    3    0    0 -0.92073267221E+01 -0.18024964077E+02 -0.35263167440E+02  0.40659133946E+02  0.00000000000E+00 0.  1.
         11    1    4    4    0    0 -0.50027241865E+01 -0.52899879280E+01  0.61072146156E+01  0.95031201290E+01  0.51100000000E-03 0. -1.
        -11    1    4    4    0    0  0.82169453097E+01  0.14838254211E+02  0.11331153524E+02  0.20398211165E+02  0.51100000000E-03 0.  1.
        -12    1    4    4    0    0  0.59931055989E+01  0.84766977937E+01  0.17824799300E+02  0.20627534760E+02  0.00000000000E+00 0.  1.
</event>
<event>
 8    1  0.6016610E-012  0.9118800E+02  0.7816164E-02  0.1184000E+00
        -11   -1    0    0    0    0  0.00000000000E+00  0.00000000000E+00  0.45593999997E+02  0.45594000000E+02  0.51100000000E-03 0. -1.
         11   -1    0    0    0    0 -0.00000000000E+00 -0.00000000000E+00 -0.45593999997E+02  0.45594000000E+02  0.51100000000E-03 0.  1.
         23    2    1    2    0    0 -0.35527136788E-14 -0.35527136788E-14 -0.35527136788E-14  0.91188000000E+02  0.91188000000E+02 0.  0.
    9900012    2    3    3    0    0 -0.15337540100E+02 -0.23292953383E+02 -0.29586549511E+02  0.50528859261E+02  0.29999998210E+02 0.  0.
         12    1    3    3    0    0  0.15337540100E+02  0.23292953383E+02  0.29586549511E+02  0.40659140739E+02  0.00000000000E+00 0. -1.
         11    1    4    4    0    0 -0.62178398022E+01  0.28826598643E+01 -0.81136367453E+01  0.10620845597E+02  0.51100000000E-03 0. -1.
        -11    1    4    4    0    0 -0.30079447922E+01 -0.21501619259E+02 -0.58376181590E+01  0.22482107300E+02  0.51100000000E-03 0.  1.
        -12    1    4    4    0    0 -0.61117555060E+01 -0.46739939889E+01 -0.15635294607E+02  0.17425906364E+02  0.00000000000E+00 0.  1.
</event>
<event>
 8    1  0.6016610E-012  0.9118800E+02  0.7816164E-02  0.1184000E+00
        -11   -1    0    0    0    0  0.00000000000E+00  0.00000000000E+00  0.45593999997E+02  0.45594000000E+02  0.51100000000E-03 0.  1.
         11   -1    0    0    0    0 -0.00000000000E+00 -0.00000000000E+00 -0.45593999997E+02  0.45594000000E+02  0.51100000000E-03 0. -1.
         23    2    1    2    0    0  0.00000000000E+00 -0.17763568394E-14  0.35527136788E-14  0.91188000000E+02  0.91188000000E+02 0.  0.
    9900012    2    3    3    0    0 -0.30083836714E+02  0.11168356961E+02 -0.24967901337E+02  0.50528861718E+02  0.30000005678E+02 0.  0.
         12    1    3    3    0    0  0.30083836714E+02 -0.11168356961E+02  0.24967901337E+02  0.40659138282E+02  0.00000000000E+00 0. -1.
         11    1    4    4    0    0 -0.12364613537E+02 -0.50939879225E+01  0.93516465535E+00  0.13405480748E+02  0.51100000000E-03 0. -1.
        -11    1    4    4    0    0 -0.86359553822E+01  0.11600881556E+02 -0.80358626212E+01  0.16544946859E+02  0.51100000000E-03 0.  1.
         12    1    4    4    0    0 -0.90832677948E+01  0.46614633281E+01 -0.17867203371E+02  0.20578434112E+02  0.00000000000E+00 0. -1.
</event>
<event>
 8    1  0.6016610E-012  0.9118800E+02  0.7816164E-02  0.1184000E+00
        -11   -1    0    0    0    0  0.00000000000E+00  0.00000000000E+00  0.45593999997E+02  0.45594000000E+02  0.51100000000E-03 0. -1.
         11   -1    0    0    0    0 -0.00000000000E+00 -0.00000000000E+00 -0.45593999997E+02  0.45594000000E+02  0.51100000000E-03 0.  1.
         23    2    1    2    0    0 -0.35527136788E-14  0.35527136788E-14  0.00000000000E+00  0.91188000000E+02  0.91188000000E+02 0.  0.
    9900012    2    3    3    0    0 -0.17576622100E+02  0.88798742194E+01  0.35572121419E+02  0.50528860402E+02  0.30000001678E+02 0.  0.
        -12    1    3    3    0    0  0.17576622100E+02 -0.88798742194E+01 -0.35572121419E+02  0.40659139598E+02  0.00000000000E+00 0.  1.
         11    1    4    4    0    0 -0.13183166269E+02 -0.13547107934E+01  0.33372111716E+02  0.35907227056E+02  0.51100000000E-03 0. -1.
        -11    1    4    4    0    0  0.20374817023E+01 -0.27338933528E+00  0.86327930889E+00  0.22296467976E+01  0.51100000000E-03 0.  1.
         12    1    4    4    0    0 -0.64309375339E+01  0.10507974348E+02  0.13367303939E+01  0.12391986548E+02  0.00000000000E+00 0. -1.
</event>
<event>
 8    1  0.6016610E-012  0.9118800E+02  0.7816164E-02  0.1184000E+00
        -11   -1    0    0    0    0  0.00000000000E+00  0.00000000000E+00  0.45593999997E+02  0.45594000000E+02  0.51100000000E-03 0. -1.
         11   -1    0    0    0    0 -0.00000000000E+00 -0.00000000000E+00 -0.45593999997E+02  0.45594000000E+02  0.51100000000E-03 0.  1.
         23    2    1    2    0    0  0.71054273576E-14 -0.22204460493E-15 -0.35527136788E-14  0.91188000000E+02  0.91188000000E+02 0.  0.
    9900012    2    3    3    0    0 -0.32977055616E+02  0.11945324074E+01  0.23753901377E+02  0.50528918168E+02  0.30000177264E+02 0.  0.
        -12    1    3    3    0    0  0.32977055616E+02 -0.11945324074E+01 -0.23753901377E+02  0.40659081832E+02  0.00000000000E+00 0.  1.
         11    1    4    4    0    0  0.32396590881E+01 -0.15416554898E+01  0.72968396441E+00  0.36612199613E+01  0.51100000000E-03 0. -1.
        -11    1    4    4    0    0 -0.18695669528E+02  0.10680188379E+02  0.13353251816E+02  0.25335820832E+02  0.51100000000E-03 0.  1.
         12    1    4    4    0    0 -0.17521045176E+02 -0.79440004820E+01  0.96709655967E+01  0.21531877375E+02  0.00000000000E+00 0. -1.
</event>
<event>
 8    1  0.6016610E-012  0.9118800E+02  0.7816164E-02  0.1184000E+00
        -11   -1    0    0    0    0  0.00000000000E+00  0.00000000000E+00  0.45593999997E+02  0.45594000000E+02  0.51100000000E-03 0. -1.
         11   -1    0    0    0    0 -0.00000000000E+00 -0.00000000000E+00 -0.45593999997E+02  0.45594000000E+02  0.51100000000E-03 0.  1.
         23    2    1    2    0    0  0.88817841970E-15  0.35527136788E-14 -0.71054273576E-14  0.91188000000E+02  0.91188000000E+02 0.  0.
    9900012    2    3    3    0    0 -0.32481269787E+01  0.21588462987E+02 -0.34300926652E+02  0.50528860410E+02  0.30000001703E+02 0.  0.
         12    1    3    3    0    0  0.32481269787E+01 -0.21588462987E+02  0.34300926652E+02  0.40659139590E+02  0.00000000000E+00 0. -1.
         11    1    4    4    0    0 -0.11490807183E+02 -0.52118858635E+00 -0.72261223495E+01  0.13584076403E+02  0.51100000000E-03 0. -1.
        -11    1    4    4    0    0  0.66724963590E+01  0.97408966958E+01 -0.83994420946E+01  0.14489924219E+02  0.51100000000E-03 0.  1.
         12    1    4    4    0    0  0.15701838451E+01  0.12368754877E+02 -0.18675362208E+02  0.22454859788E+02  0.00000000000E+00 0. -1.
</event>
<event>
 8    1  0.6016610E-012  0.9118800E+02  0.7816164E-02  0.1184000E+00
        -11   -1    0    0    0    0  0.00000000000E+00  0.00000000000E+00  0.45593999997E+02  0.45594000000E+02  0.51100000000E-03 0. -1.
         11   -1    0    0    0    0 -0.00000000000E+00 -0.00000000000E+00 -0.45593999997E+02  0.45594000000E+02  0.51100000000E-03 0.  1.
         23    2    1    2    0    0  0.00000000000E+00  0.17763568394E-14  0.71054273576E-14  0.91188000000E+02  0.91188000000E+02 0.  0.
    9900012    2    3    3    0    0 -0.14503667014E+02  0.81571648368E+01  0.37098115081E+02  0.50528857885E+02  0.29999994026E+02 0.  0.
        -12    1    3    3    0    0  0.14503667014E+02 -0.81571648368E+01 -0.37098115081E+02  0.40659142115E+02  0.00000000000E+00 0.  1.
         11    1    4    4    0    0 -0.10075242044E+02  0.19159955885E+02  0.19449157959E+02  0.29101274153E+02  0.51100000000E-03 0. -1.
        -11    1    4    4    0    0 -0.18760417852E+01 -0.39042472127E+01  0.87359241740E+01  0.97508487073E+01  0.51100000000E-03 0.  1.
         12    1    4    4    0    0 -0.25523831840E+01 -0.70985438353E+01  0.89130329473E+01  0.11676735024E+02  0.00000000000E+00 0. -1.
</event>
<event>
 8    1  0.6016610E-012  0.9118800E+02  0.7816164E-02  0.1184000E+00
        -11   -1    0    0    0    0  0.00000000000E+00  0.00000000000E+00  0.45593999997E+02  0.45594000000E+02  0.51100000000E-03 0. -1.
         11   -1    0    0    0    0 -0.00000000000E+00 -0.00000000000E+00 -0.45593999997E+02  0.45594000000E+02  0.51100000000E-03 0.  1.
         23    2    1    2    0    0  0.00000000000E+00  0.00000000000E+00  0.55511151231E-15  0.91188000000E+02  0.91188000000E+02 0.  0.
    9900012    2    3    3    0    0  0.34186937082E+02 -0.21995648005E+02 -0.78172325940E+00  0.50528852328E+02  0.29999977136E+02 0.  0.
         12    1    3    3    0    0 -0.34186937082E+02  0.21995648005E+02  0.78172325940E+00  0.40659147672E+02  0.00000000000E+00 0. -1.
         11    1    4    4    0    0  0.28043204538E+02 -0.10776910707E+02  0.87994363251E+01  0.31304843157E+02  0.51100000000E-03 0. -1.
        -11    1    4    4    0    0  0.10372515859E+01 -0.88032138588E+00 -0.73556703024E+01  0.74804239488E+01  0.51100000000E-03 0.  1.
         12    1    4    4    0    0  0.51064809575E+01 -0.10338415911E+02 -0.22254892821E+01  0.11743585222E+02  0.00000000000E+00 0. -1.
</event>
<event>
 8    1  0.6016610E-012  0.9118800E+02  0.7816164E-02  0.1184000E+00
        -11   -1    0    0    0    0  0.00000000000E+00  0.00000000000E+00  0.45593999997E+02  0.45594000000E+02  0.51100000000E-03 0. -1.
         11   -1    0    0    0    0 -0.00000000000E+00 -0.00000000000E+00 -0.45593999997E+02  0.45594000000E+02  0.51100000000E-03 0.  1.
         23    2    1    2    0    0  0.71054273576E-14  0.00000000000E+00  0.00000000000E+00  0.91188000000E+02  0.91188000000E+02 0.  0.
    9900012    2    3    3    0    0 -0.23577318123E+02 -0.69604990318E+01 -0.32385600229E+02  0.50528861066E+02  0.30000003697E+02 0.  0.
         12    1    3    3    0    0  0.23577318123E+02  0.69604990318E+01  0.32385600229E+02  0.40659138934E+02  0.00000000000E+00 0. -1.
         11    1    4    4    0    0  0.23055373389E+01 -0.16976833737E+01 -0.16974104597E+01  0.33284882136E+01  0.51100000000E-03 0. -1.
        -11    1    4    4    0    0 -0.18357336784E+02  0.82115792907E+01 -0.14215087463E+02  0.24627029055E+02  0.51100000000E-03 0.  1.
        -12    1    4    4    0    0 -0.75255186776E+01 -0.13474394949E+02 -0.16473102306E+02  0.22573343797E+02  0.00000000000E+00 0.  1.
</event>
<event>
 8    1  0.6016610E-012  0.9118800E+02  0.7816164E-02  0.1184000E+00
        -11   -1    0    0    0    0  0.00000000000E+00  0.00000000000E+00  0.45593999997E+02  0.45594000000E+02  0.51100000000E-03 0. -1.
         11   -1    0    0    0    0 -0.00000000000E+00 -0.00000000000E+00 -0.45593999997E+02  0.45594000000E+02  0.51100000000E-03 0.  1.
         23    2    1    2    0    0 -0.88817841970E-15 -0.88817841970E-15  0.00000000000E+00  0.91188000000E+02  0.91188000000E+02 0.  0.
    9900012    2    3    3    0    0  0.65538827671E+01 -0.75342375144E+01 -0.39413800522E+02  0.50528858521E+02  0.29999995960E+02 0.  0.
         12    1    3    3    0    0 -0.65538827671E+01  0.75342375144E+01  0.39413800522E+02  0.40659141479E+02  0.00000000000E+00 0. -1.
         11    1    4    4    0    0 -0.43370250745E+01 -0.33845132337E-01 -0.17788663819E+02  0.18309764956E+02  0.51100000000E-03 0. -1.
        -11    1    4    4    0    0  0.10881043886E+02  0.29742686947E+01 -0.45003653348E+01  0.12144821066E+02  0.51100000000E-03 0.  1.
        -12    1    4    4    0    0  0.98639557334E-02 -0.10474661077E+02 -0.17124771368E+02  0.20074272499E+02  0.00000000000E+00 0.  1.
</event>
<event>
 8    1  0.6016610E-012  0.9118800E+02  0.7816164E-02  0.1184000E+00
        -11   -1    0    0    0    0  0.00000000000E+00  0.00000000000E+00  0.45593999997E+02  0.45594000000E+02  0.51100000000E-03 0. -1.
         11   -1    0    0    0    0 -0.00000000000E+00 -0.00000000000E+00 -0.45593999997E+02  0.45594000000E+02  0.51100000000E-03 0.  1.
         23    2    1    2    0    0  0.00000000000E+00  0.88817841970E-15  0.71054273576E-14  0.91188000000E+02  0.91188000000E+02 0.  0.
    9900012    2    3    3    0    0  0.61986572731E+00 -0.54314358908E+01 -0.40289961334E+02  0.50528859408E+02  0.29999998657E+02 0.  0.
         12    1    3    3    0    0 -0.61986572731E+00  0.54314358908E+01  0.40289961334E+02  0.40659140592E+02  0.00000000000E+00 0. -1.
         11    1    4    4    0    0 -0.52640119991E+01 -0.58455124041E+00  0.60648602798E+00  0.53309800265E+01  0.51100000000E-03 0. -1.
        -11    1    4    4    0    0  0.12007406007E+02 -0.19121002941E+01 -0.29848822011E+02  0.32230204812E+02  0.51100000000E-03 0.  1.
        -12    1    4    4    0    0 -0.61235282807E+01 -0.29347843562E+01 -0.11047625352E+02  0.12967674569E+02  0.00000000000E+00 0.  1.
</event>
<event>
 8    1  0.6016610E-012  0.9118800E+02  0.7816164E-02  0.1184000E+00
        -11   -1    0    0    0    0  0.00000000000E+00  0.00000000000E+00  0.45593999997E+02  0.45594000000E+02  0.51100000000E-03 0.  1.
         11   -1    0    0    0    0 -0.00000000000E+00 -0.00000000000E+00 -0.45593999997E+02  0.45594000000E+02  0.51100000000E-03 0. -1.
         23    2    1    2    0    0  0.71054273576E-14  0.00000000000E+00 -0.17763568394E-14  0.91188000000E+02  0.91188000000E+02 0.  0.
    9900012    2    3    3    0    0 -0.28403309858E+02 -0.26394438833E+02  0.12237575097E+02  0.50528774031E+02  0.29999739143E+02 0.  0.
         12    1    3    3    0    0  0.28403309858E+02  0.26394438833E+02 -0.12237575097E+02  0.40659225969E+02  0.00000000000E+00 0. -1.
         11    1    4    4    0    0  0.56409298180E+00 -0.13822312620E+01 -0.50731646342E+00  0.15767480486E+01  0.51100000000E-03 0. -1.
        -11    1    4    4    0    0 -0.40519461606E+01  0.61148601064E+01  0.11150489567E+01  0.74197787195E+01  0.51100000000E-03 0.  1.
        -12    1    4    4    0    0 -0.24915456679E+02 -0.31127067677E+02  0.11629842603E+02  0.41532247263E+02  0.00000000000E+00 0.  1.
</event>
<event>
 8    1  0.6016610E-012  0.9118800E+02  0.7816164E-02  0.1184000E+00
        -11   -1    0    0    0    0  0.00000000000E+00  0.00000000000E+00  0.45593999997E+02  0.45594000000E+02  0.51100000000E-03 0. -1.
         11   -1    0    0    0    0 -0.00000000000E+00 -0.00000000000E+00 -0.45593999997E+02  0.45594000000E+02  0.51100000000E-03 0.  1.
         23    2    1    2    0    0  0.00000000000E+00  0.35527136788E-14  0.35527136788E-14  0.91188000000E+02  0.91188000000E+02 0.  0.
    9900012    2    3    3    0    0  0.17925132906E+02 -0.19591959516E+02  0.30789754808E+02  0.50528877180E+02  0.30000052675E+02 0.  0.
        -12    1    3    3    0    0 -0.17925132906E+02  0.19591959516E+02 -0.30789754808E+02  0.40659122820E+02  0.00000000000E+00 0.  1.
         11    1    4    4    0    0  0.46748773338E+01 -0.15453786160E+02  0.37079087697E+01  0.16565704708E+02  0.51100000000E-03 0.  1.
        -11    1    4    4    0    0  0.87104148020E+01 -0.66331702917E+01  0.26594536395E+02  0.28760035474E+02  0.51100000000E-03 0. -1.
         12    1    4    4    0    0  0.45398407701E+01  0.24949969360E+01  0.48730964354E+00  0.52031369977E+01  0.00000000000E+00 0. -1.
</event>
<event>
 8    1  0.6016610E-012  0.9118800E+02  0.7816164E-02  0.1184000E+00
        -11   -1    0    0    0    0  0.00000000000E+00  0.00000000000E+00  0.45593999997E+02  0.45594000000E+02  0.51100000000E-03 0. -1.
         11   -1    0    0    0    0 -0.00000000000E+00 -0.00000000000E+00 -0.45593999997E+02  0.45594000000E+02  0.51100000000E-03 0.  1.
         23    2    1    2    0    0  0.00000000000E+00 -0.88817841970E-15  0.22204460493E-14  0.91188000000E+02  0.91188000000E+02 0.  0.
    9900012    2    3    3    0    0 -0.39674259184E+02 -0.79769155329E+01 -0.39339181783E+01  0.50529006709E+02  0.30000446389E+02 0.  0.
         12    1    3    3    0    0  0.39674259184E+02  0.79769155329E+01  0.39339181783E+01  0.40658993291E+02  0.00000000000E+00 0. -1.
         11    1    4    4    0    0 -0.14075411740E+02  0.16375506400E+01 -0.11514802730E+02  0.18258955882E+02  0.51100000000E-03 0. -1.
        -11    1    4    4    0    0 -0.26440939554E+02 -0.56837211582E+01  0.50289519948E+01  0.27508513757E+02  0.51100000000E-03 0.  1.
         12    1    4    4    0    0  0.84209210974E+00 -0.39307450147E+01  0.25519325566E+01  0.47615370696E+01  0.00000000000E+00 0. -1.
</event>
<event>
 8    1  0.6016610E-012  0.9118800E+02  0.7816164E-02  0.1184000E+00
        -11   -1    0    0    0    0  0.00000000000E+00  0.00000000000E+00  0.45593999997E+02  0.45594000000E+02  0.51100000000E-03 0. -1.
         11   -1    0    0    0    0 -0.00000000000E+00 -0.00000000000E+00 -0.45593999997E+02  0.45594000000E+02  0.51100000000E-03 0.  1.
         23    2    1    2    0    0 -0.35527136788E-14  0.35527136788E-14  0.00000000000E+00  0.91188000000E+02  0.91188000000E+02 0.  0.
    9900012    2    3    3    0    0 -0.23760880390E+02  0.28982551113E+02 -0.15766994997E+02  0.50528857889E+02  0.29999994040E+02 0.  0.
         12    1    3    3    0    0  0.23760880390E+02 -0.28982551113E+02  0.15766994997E+02  0.40659142111E+02  0.00000000000E+00 0. -1.
         11    1    4    4    0    0 -0.60633118045E+01  0.11520942622E+02  0.62748364021E+01  0.14452316115E+02  0.51100000000E-03 0. -1.
        -11    1    4    4    0    0 -0.97382652487E+01  0.10010249062E+01 -0.10964213988E+02  0.14698634275E+02  0.51100000000E-03 0.  1.
         12    1    4    4    0    0 -0.79593033372E+01  0.16460583584E+02 -0.11077617412E+02  0.21377907500E+02  0.00000000000E+00 0. -1.
</event>
<event>
 8    1  0.6016610E-012  0.9118800E+02  0.7816164E-02  0.1184000E+00
        -11   -1    0    0    0    0  0.00000000000E+00  0.00000000000E+00  0.45593999997E+02  0.45594000000E+02  0.51100000000E-03 0. -1.
         11   -1    0    0    0    0 -0.00000000000E+00 -0.00000000000E+00 -0.45593999997E+02  0.45594000000E+02  0.51100000000E-03 0.  1.
         23    2    1    2    0    0  0.00000000000E+00 -0.17763568394E-14  0.00000000000E+00  0.91188000000E+02  0.91188000000E+02 0.  0.
    9900012    2    3    3    0    0 -0.29943424376E+02 -0.14949243028E+02 -0.23088448052E+02  0.50528868628E+02  0.30000026681E+02 0.  0.
         12    1    3    3    0    0  0.29943424376E+02  0.14949243028E+02  0.23088448052E+02  0.40659131372E+02  0.00000000000E+00 0. -1.
         11    1    4    4    0    0 -0.19036327987E+02  0.35624508041E+01 -0.20682598714E+01  0.19476923220E+02  0.51100000000E-03 0. -1.
        -11    1    4    4    0    0 -0.86365226352E+01 -0.70420271631E+01 -0.96140438382E+01  0.14717659766E+02  0.51100000000E-03 0.  1.
         12    1    4    4    0    0 -0.22705737536E+01 -0.11469666669E+02 -0.11406144342E+02  0.16334285642E+02  0.00000000000E+00 0. -1.
</event>
<event>
 8    1  0.6016610E-012  0.9118800E+02  0.7816164E-02  0.1184000E+00
        -11   -1    0    0    0    0  0.00000000000E+00  0.00000000000E+00  0.45593999997E+02  0.45594000000E+02  0.51100000000E-03 0. -1.
         11   -1    0    0    0    0 -0.00000000000E+00 -0.00000000000E+00 -0.45593999997E+02  0.45594000000E+02  0.51100000000E-03 0.  1.
         23    2    1    2    0    0 -0.35527136788E-14  0.00000000000E+00  0.00000000000E+00  0.91188000000E+02  0.91188000000E+02 0.  0.
    9900012    2    3    3    0    0 -0.20421874677E+02  0.26204938033E+02 -0.23439580315E+02  0.50528859970E+02  0.30000000365E+02 0.  0.
         12    1    3    3    0    0  0.20421874677E+02 -0.26204938033E+02  0.23439580315E+02  0.40659140030E+02  0.00000000000E+00 0. -1.
         11    1    4    4    0    0  0.29983467286E+01  0.93098805649E+01 -0.16627798262E+02  0.19291128390E+02  0.51100000000E-03 0. -1.
        -11    1    4    4    0    0 -0.12208742318E+02  0.13767477787E+02 -0.15562747721E+01  0.18466695022E+02  0.51100000000E-03 0.  1.
         12    1    4    4    0    0 -0.11211479088E+02  0.31275796815E+01 -0.52555072801E+01  0.12771036558E+02  0.00000000000E+00 0. -1.
</event>
<event>
 8    1  0.6016610E-012  0.9118800E+02  0.7816164E-02  0.1184000E+00
        -11   -1    0    0    0    0  0.00000000000E+00  0.00000000000E+00  0.45593999997E+02  0.45594000000E+02  0.51100000000E-03 0. -1.
         11   -1    0    0    0    0 -0.00000000000E+00 -0.00000000000E+00 -0.45593999997E+02  0.45594000000E+02  0.51100000000E-03 0.  1.
         23    2    1    2    0    0  0.17763568394E-14  0.00000000000E+00  0.00000000000E+00  0.91188000000E+02  0.91188000000E+02 0.  0.
    9900012    2    3    3    0    0  0.14658560608E+02  0.26410703816E+02 -0.27217078693E+02  0.50528830705E+02  0.29999911410E+02 0.  0.
         12    1    3    3    0    0 -0.14658560608E+02 -0.26410703816E+02  0.27217078693E+02  0.40659169295E+02  0.00000000000E+00 0. -1.
         11    1    4    4    0    0 -0.23653436331E+00 -0.32826267223E+01  0.54982212260E+00  0.33367486166E+01  0.51100000000E-03 0. -1.
        -11    1    4    4    0    0  0.52123110719E+01  0.17864578336E+02 -0.25753680629E+02  0.31773627618E+02  0.51100000000E-03 0.  1.
        -12    1    4    4    0    0  0.96827838996E+01  0.11828752203E+02 -0.20132201870E+01  0.15418454470E+02  0.00000000000E+00 0.  1.
</event>
<event>
 8    1  0.6016610E-012  0.9118800E+02  0.7816164E-02  0.1184000E+00
        -11   -1    0    0    0    0  0.00000000000E+00  0.00000000000E+00  0.45593999997E+02  0.45594000000E+02  0.51100000000E-03 0. -1.
         11   -1    0    0    0    0 -0.00000000000E+00 -0.00000000000E+00 -0.45593999997E+02  0.45594000000E+02  0.51100000000E-03 0.  1.
         23    2    1    2    0    0  0.35527136788E-14  0.35527136788E-14 -0.71054273576E-14  0.91188000000E+02  0.91188000000E+02 0.  0.
    9900012    2    3    3    0    0 -0.14370958889E+02 -0.20971804901E+02  0.31730502440E+02  0.50528857789E+02  0.29999993736E+02 0.  0.
        -12    1    3    3    0    0  0.14370958889E+02  0.20971804901E+02 -0.31730502440E+02  0.40659142211E+02  0.00000000000E+00 0.  1.
         11    1    4    4    0    0 -0.20276625121E+02 -0.16024035973E+02  0.15609590704E+02  0.30192227102E+02  0.51100000000E-03 0. -1.
        -11    1    4    4    0    0  0.66944683426E+01 -0.41923206931E+00  0.51980751784E+01  0.84859676961E+01  0.51100000000E-03 0.  1.
        -12    1    4    4    0    0 -0.78880211062E+00 -0.45285368585E+01  0.10922836558E+02  0.11850662991E+02  0.00000000000E+00 0.  1.
</event>
<event>
 8    1  0.6016610E-012  0.9118800E+02  0.7816164E-02  0.1184000E+00
        -11   -1    0    0    0    0  0.00000000000E+00  0.00000000000E+00  0.45593999997E+02  0.45594000000E+02  0.51100000000E-03 0. -1.
         11   -1    0    0    0    0 -0.00000000000E+00 -0.00000000000E+00 -0.45593999997E+02  0.45594000000E+02  0.51100000000E-03 0.  1.
         23    2    1    2    0    0  0.17763568394E-14  0.00000000000E+00  0.00000000000E+00  0.91188000000E+02  0.91188000000E+02 0.  0.
    9900012    2    3    3    0    0 -0.14017680874E+02  0.41276533838E+01 -0.37942462405E+02  0.50528888439E+02  0.30000086900E+02 0.  0.
         12    1    3    3    0    0  0.14017680874E+02 -0.41276533838E+01  0.37942462405E+02  0.40659111561E+02  0.00000000000E+00 0. -1.
         11    1    4    4    0    0  0.80925216092E+01  0.61454263833E+01 -0.10251729068E+02  0.14434442163E+02  0.51100000000E-03 0. -1.
        -11    1    4    4    0    0 -0.19881473961E+02 -0.39185042703E+00 -0.21331785375E+02  0.29162846589E+02  0.51100000000E-03 0.  1.
        -12    1    4    4    0    0 -0.22287285225E+01 -0.16259225724E+01 -0.63589479626E+01  0.69315996877E+01  0.00000000000E+00 0.  1.
</event>
<event>
 8    1  0.6016610E-012  0.9118800E+02  0.7816164E-02  0.1184000E+00
        -11   -1    0    0    0    0  0.00000000000E+00  0.00000000000E+00  0.45593999997E+02  0.45594000000E+02  0.51100000000E-03 0. -1.
         11   -1    0    0    0    0 -0.00000000000E+00 -0.00000000000E+00 -0.45593999997E+02  0.45594000000E+02  0.51100000000E-03 0.  1.
         23    2    1    2    0    0  0.35527136788E-14 -0.44408920985E-15 -0.71054273576E-14  0.91188000000E+02  0.91188000000E+02 0.  0.
    9900012    2    3    3    0    0 -0.20164606582E+02  0.21325814218E+01 -0.35242091450E+02  0.50528877138E+02  0.30000052549E+02 0.  0.
         12    1    3    3    0    0  0.20164606582E+02 -0.21325814218E+01  0.35242091450E+02  0.40659122862E+02  0.00000000000E+00 0. -1.
         11    1    4    4    0    0 -0.49671880836E+00  0.11663899176E+01  0.36262812107E+01  0.38414984960E+01  0.51100000000E-03 0. -1.
        -11    1    4    4    0    0 -0.21600747400E+02  0.19340160768E+01 -0.27037385795E+02  0.34660538618E+02  0.51100000000E-03 0.  1.
         12    1    4    4    0    0  0.19328596267E+01 -0.96782457261E+00 -0.11830986866E+02  0.12026840024E+02  0.00000000000E+00 0. -1.
</event>
<event>
 8    1  0.6016610E-012  0.9118800E+02  0.7816164E-02  0.1184000E+00
        -11   -1    0    0    0    0  0.00000000000E+00  0.00000000000E+00  0.45593999997E+02  0.45594000000E+02  0.51100000000E-03 0. -1.
         11   -1    0    0    0    0 -0.00000000000E+00 -0.00000000000E+00 -0.45593999997E+02  0.45594000000E+02  0.51100000000E-03 0.  1.
         23    2    1    2    0    0  0.00000000000E+00 -0.35527136788E-14  0.00000000000E+00  0.91188000000E+02  0.91188000000E+02 0.  0.
    9900012    2    3    3    0    0  0.17079452432E+02 -0.16215144777E+02 -0.33143978578E+02  0.50528905919E+02  0.30000140031E+02 0.  0.
         12    1    3    3    0    0 -0.17079452432E+02  0.16215144777E+02  0.33143978578E+02  0.40659094081E+02  0.00000000000E+00 0. -1.
         11    1    4    4    0    0  0.10604494541E+02  0.28837341031E+01 -0.12119349739E+01  0.11056220579E+02  0.51100000000E-03 0. -1.
        -11    1    4    4    0    0  0.66168674028E+01 -0.99873262868E+01 -0.25921955230E+02  0.28556564635E+02  0.51100000000E-03 0.  1.
         12    1    4    4    0    0 -0.14190951197E+00 -0.91115525929E+01 -0.60100883744E+01  0.10916120704E+02  0.00000000000E+00 0. -1.
</event>
<event>
 8    1  0.6016610E-012  0.9118800E+02  0.7816164E-02  0.1184000E+00
        -11   -1    0    0    0    0  0.00000000000E+00  0.00000000000E+00  0.45593999997E+02  0.45594000000E+02  0.51100000000E-03 0. -1.
         11   -1    0    0    0    0 -0.00000000000E+00 -0.00000000000E+00 -0.45593999997E+02  0.45594000000E+02  0.51100000000E-03 0.  1.
         23    2    1    2    0    0  0.00000000000E+00  0.00000000000E+00  0.00000000000E+00  0.91188000000E+02  0.91188000000E+02 0.  0.
    9900012    2    3    3    0    0 -0.26592617318E+02  0.26960700204E+02  0.14802666936E+02  0.50528860809E+02  0.30000002915E+02 0.  0.
        -12    1    3    3    0    0  0.26592617318E+02 -0.26960700204E+02 -0.14802666936E+02  0.40659139191E+02  0.00000000000E+00 0.  1.
         11    1    4    4    0    0 -0.25318100924E+02  0.21033682910E+02  0.85899044342E+00  0.32926583728E+02  0.51100000000E-03 0. -1.
        -11    1    4    4    0    0  0.35468752195E+01  0.19183514603E+01  0.31395143132E+01  0.51104741983E+01  0.51100000000E-03 0.  1.
         12    1    4    4    0    0 -0.48213916138E+01  0.40086658343E+01  0.10804162179E+02  0.12491802883E+02  0.00000000000E+00 0. -1.
</event>
<event>
 8    1  0.6016610E-012  0.9118800E+02  0.7816164E-02  0.1184000E+00
        -11   -1    0    0    0    0  0.00000000000E+00  0.00000000000E+00  0.45593999997E+02  0.45594000000E+02  0.51100000000E-03 0. -1.
         11   -1    0    0    0    0 -0.00000000000E+00 -0.00000000000E+00 -0.45593999997E+02  0.45594000000E+02  0.51100000000E-03 0.  1.
         23    2    1    2    0    0 -0.17763568394E-14  0.35527136788E-14  0.71054273576E-14  0.91188000000E+02  0.91188000000E+02 0.  0.
    9900012    2    3    3    0    0 -0.11049284369E+02  0.18130699208E+02  0.34674998347E+02  0.50528874958E+02  0.30000045923E+02 0.  0.
        -12    1    3    3    0    0  0.11049284369E+02 -0.18130699208E+02 -0.34674998347E+02  0.40659125042E+02  0.00000000000E+00 0.  1.
         11    1    4    4    0    0 -0.73470539564E+01  0.12124370291E+02  0.11188295052E+02  0.18059831207E+02  0.51100000000E-03 0. -1.
        -11    1    4    4    0    0  0.82293321955E+01  0.24918977309E+01  0.15385395082E+02  0.17625034604E+02  0.51100000000E-03 0.  1.
        -12    1    4    4    0    0 -0.11931562608E+02  0.35144311856E+01  0.81013082129E+01  0.14844009148E+02  0.00000000000E+00 0.  1.
</event>
<event>
 8    1  0.6016610E-012  0.9118800E+02  0.7816164E-02  0.1184000E+00
        -11   -1    0    0    0    0  0.00000000000E+00  0.00000000000E+00  0.45593999997E+02  0.45594000000E+02  0.51100000000E-03 0. -1.
         11   -1    0    0    0    0 -0.00000000000E+00 -0.00000000000E+00 -0.45593999997E+02  0.45594000000E+02  0.51100000000E-03 0.  1.
         23    2    1    2    0    0 -0.35527136788E-14  0.00000000000E+00  0.88817841970E-15  0.91188000000E+02  0.91188000000E+02 0.  0.
    9900012    2    3    3    0    0  0.18271537952E+02  0.36095543587E+02 -0.40533434968E+01  0.50528844088E+02  0.29999952091E+02 0.  0.
         12    1    3    3    0    0 -0.18271537952E+02 -0.36095543587E+02  0.40533434968E+01  0.40659155912E+02  0.00000000000E+00 0. -1.
         11    1    4    4    0    0  0.14975813773E+02  0.16529980537E+02 -0.45645335227E+01  0.22767305973E+02  0.51100000000E-03 0.  1.
        -11    1    4    4    0    0  0.21794830843E+01 -0.17217003657E+01  0.52365585528E+01  0.59275580472E+01  0.51100000000E-03 0. -1.
        -12    1    4    4    0    0  0.11162410943E+01  0.21287263415E+02 -0.47253685269E+01  0.21833980068E+02  0.00000000000E+00 0.  1.
</event>
<event>
 8    1  0.6016610E-012  0.9118800E+02  0.7816164E-02  0.1184000E+00
        -11   -1    0    0    0    0  0.00000000000E+00  0.00000000000E+00  0.45593999997E+02  0.45594000000E+02  0.51100000000E-03 0. -1.
         11   -1    0    0    0    0 -0.00000000000E+00 -0.00000000000E+00 -0.45593999997E+02  0.45594000000E+02  0.51100000000E-03 0.  1.
         23    2    1    2    0    0  0.00000000000E+00  0.00000000000E+00  0.00000000000E+00  0.91188000000E+02  0.91188000000E+02 0.  0.
    9900012    2    3    3    0    0 -0.17072426418E+02  0.20245649569E+02  0.30851466589E+02  0.50528842840E+02  0.29999948296E+02 0.  0.
        -12    1    3    3    0    0  0.17072426418E+02 -0.20245649569E+02 -0.30851466589E+02  0.40659157160E+02  0.00000000000E+00 0.  1.
         11    1    4    4    0    0 -0.92717261360E+01  0.15810331592E+02  0.65426851362E+00  0.18340107909E+02  0.51100000000E-03 0. -1.
        -11    1    4    4    0    0 -0.30964147344E+01  0.20068872293E+01  0.22774593796E+02  0.23071573492E+02  0.51100000000E-03 0.  1.
         12    1    4    4    0    0 -0.47042855477E+01  0.24284307485E+01  0.74226042789E+01  0.91171614385E+01  0.00000000000E+00 0. -1.
</event>
<event>
 8    1  0.6016610E-012  0.9118800E+02  0.7816164E-02  0.1184000E+00
        -11   -1    0    0    0    0  0.00000000000E+00  0.00000000000E+00  0.45593999997E+02  0.45594000000E+02  0.51100000000E-03 0.  1.
         11   -1    0    0    0    0 -0.00000000000E+00 -0.00000000000E+00 -0.45593999997E+02  0.45594000000E+02  0.51100000000E-03 0. -1.
         23    2    1    2    0    0 -0.35527136788E-14  0.00000000000E+00  0.00000000000E+00  0.91188000000E+02  0.91188000000E+02 0.  0.
    9900012    2    3    3    0    0 -0.27326911163E+02 -0.25623836063E+02  0.15805890090E+02  0.50528841009E+02  0.29999942732E+02 0.  0.
        -12    1    3    3    0    0  0.27326911163E+02  0.25623836063E+02 -0.15805890090E+02  0.40659158991E+02  0.00000000000E+00 0.  1.
         11    1    4    4    0    0 -0.44212187029E+01  0.43446395435E+01  0.41590799284E+01  0.74646509425E+01  0.51100000000E-03 0. -1.
        -11    1    4    4    0    0 -0.23300030801E+02 -0.21926943976E+02  0.13622165736E+02  0.34774210373E+02  0.51100000000E-03 0.  1.
        -12    1    4    4    0    0  0.39433833995E+00 -0.80415316298E+01 -0.19753555749E+01  0.82899796940E+01  0.00000000000E+00 0.  1.
</event>
<event>
 8    1  0.6016610E-012  0.9118800E+02  0.7816164E-02  0.1184000E+00
        -11   -1    0    0    0    0  0.00000000000E+00  0.00000000000E+00  0.45593999997E+02  0.45594000000E+02  0.51100000000E-03 0. -1.
         11   -1    0    0    0    0 -0.00000000000E+00 -0.00000000000E+00 -0.45593999997E+02  0.45594000000E+02  0.51100000000E-03 0.  1.
         23    2    1    2    0    0  0.35527136788E-14  0.00000000000E+00  0.00000000000E+00  0.91188000000E+02  0.91188000000E+02 0.  0.
    9900012    2    3    3    0    0 -0.29936395668E+02  0.86933123939E+01 -0.26103719095E+02  0.50528860602E+02  0.30000002287E+02 0.  0.
         12    1    3    3    0    0  0.29936395668E+02 -0.86933123939E+01  0.26103719095E+02  0.40659139398E+02  0.00000000000E+00 0. -1.
         11    1    4    4    0    0 -0.20689431103E+02  0.47168531686E+01 -0.10390376455E+02  0.23627551424E+02  0.51100000000E-03 0. -1.
        -11    1    4    4    0    0 -0.66273819331E+01  0.43285388703E+01 -0.20199104784E+02  0.21694752231E+02  0.51100000000E-03 0.  1.
        -12    1    4    4    0    0 -0.26195826317E+01 -0.35207964502E+00  0.44857621431E+01  0.52065569473E+01  0.00000000000E+00 0.  1.
</event>
<event>
 8    1  0.6016610E-012  0.9118800E+02  0.7816164E-02  0.1184000E+00
        -11   -1    0    0    0    0  0.00000000000E+00  0.00000000000E+00  0.45593999997E+02  0.45594000000E+02  0.51100000000E-03 0. -1.
         11   -1    0    0    0    0 -0.00000000000E+00 -0.00000000000E+00 -0.45593999997E+02  0.45594000000E+02  0.51100000000E-03 0.  1.
         23    2    1    2    0    0  0.00000000000E+00  0.00000000000E+00 -0.35527136788E-14  0.91188000000E+02  0.91188000000E+02 0.  0.
    9900012    2    3    3    0    0 -0.14966881057E+01 -0.25477358585E+02  0.31651693913E+02  0.50528860766E+02  0.30000002783E+02 0.  0.
        -12    1    3    3    0    0  0.14966881057E+01  0.25477358585E+02 -0.31651693913E+02  0.40659139234E+02  0.00000000000E+00 0.  1.
         11    1    4    4    0    0  0.56216833204E+01 -0.16868398827E+02  0.26755519692E+02  0.32124819635E+02  0.51100000000E-03 0. -1.
        -11    1    4    4    0    0 -0.10523581655E+02 -0.56922962456E+01  0.65319753543E+01  0.13631386932E+02  0.51100000000E-03 0.  1.
         12    1    4    4    0    0  0.34052102294E+01 -0.29166635124E+01 -0.16358011336E+01  0.47726541986E+01  0.00000000000E+00 0. -1.
</event>
<event>
 8    1  0.6016610E-012  0.9118800E+02  0.7816164E-02  0.1184000E+00
        -11   -1    0    0    0    0  0.00000000000E+00  0.00000000000E+00  0.45593999997E+02  0.45594000000E+02  0.51100000000E-03 0. -1.
         11   -1    0    0    0    0 -0.00000000000E+00 -0.00000000000E+00 -0.45593999997E+02  0.45594000000E+02  0.51100000000E-03 0.  1.
         23    2    1    2    0    0  0.00000000000E+00  0.17763568394E-14  0.00000000000E+00  0.91188000000E+02  0.91188000000E+02 0.  0.
    9900012    2    3    3    0    0 -0.19679213691E+02 -0.14175927831E+02 -0.32633342606E+02  0.50528887479E+02  0.30000083981E+02 0.  0.
         12    1    3    3    0    0  0.19679213691E+02  0.14175927831E+02  0.32633342606E+02  0.40659112521E+02  0.00000000000E+00 0. -1.
         11    1    4    4    0    0 -0.31202652463E+01  0.59752126845E+01 -0.13769291585E+02  0.15330773394E+02  0.51100000000E-03 0. -1.
        -11    1    4    4    0    0 -0.17736380869E+02 -0.12560280857E+02 -0.16049256332E+02  0.27017003731E+02  0.51100000000E-03 0.  1.
         12    1    4    4    0    0  0.11774324249E+01 -0.75908596592E+01 -0.28147946887E+01  0.81811103538E+01  0.00000000000E+00 0. -1.
</event>
<event>
 8    1  0.6016610E-012  0.9118800E+02  0.7816164E-02  0.1184000E+00
        -11   -1    0    0    0    0  0.00000000000E+00  0.00000000000E+00  0.45593999997E+02  0.45594000000E+02  0.51100000000E-03 0. -1.
         11   -1    0    0    0    0 -0.00000000000E+00 -0.00000000000E+00 -0.45593999997E+02  0.45594000000E+02  0.51100000000E-03 0.  1.
         23    2    1    2    0    0  0.35527136788E-14 -0.22204460493E-15 -0.35527136788E-14  0.91188000000E+02  0.91188000000E+02 0.  0.
    9900012    2    3    3    0    0  0.30173619833E+02 -0.67193698601E+00 -0.27244568253E+02  0.50528864097E+02  0.30000012908E+02 0.  0.
         12    1    3    3    0    0 -0.30173619833E+02  0.67193698601E+00  0.27244568253E+02  0.40659135903E+02  0.00000000000E+00 0. -1.
         11    1    4    4    0    0  0.25194782307E+02  0.23621823684E+01 -0.53071897089E+01  0.25855816056E+02  0.51100000000E-03 0. -1.
        -11    1    4    4    0    0  0.13437093048E+01  0.19691951970E+01 -0.15733807622E+02  0.15913390179E+02  0.51100000000E-03 0.  1.
         12    1    4    4    0    0  0.36351282204E+01 -0.50033145514E+01 -0.62035709219E+01  0.87596578622E+01  0.00000000000E+00 0. -1.
</event>
<event>
 8    1  0.6016610E-012  0.9118800E+02  0.7816164E-02  0.1184000E+00
        -11   -1    0    0    0    0  0.00000000000E+00  0.00000000000E+00  0.45593999997E+02  0.45594000000E+02  0.51100000000E-03 0. -1.
         11   -1    0    0    0    0 -0.00000000000E+00 -0.00000000000E+00 -0.45593999997E+02  0.45594000000E+02  0.51100000000E-03 0.  1.
         23    2    1    2    0    0  0.00000000000E+00  0.13322676296E-14  0.00000000000E+00  0.91188000000E+02  0.91188000000E+02 0.  0.
    9900012    2    3    3    0    0 -0.14576538205E+02  0.17553868094E+01  0.37915817805E+02  0.50528854796E+02  0.29999984638E+02 0.  0.
        -12    1    3    3    0    0  0.14576538205E+02 -0.17553868094E+01 -0.37915817805E+02  0.40659145204E+02  0.00000000000E+00 0.  1.
         11    1    4    4    0    0 -0.16984741464E+02 -0.41386551448E+01  0.29238535958E+02  0.34066139996E+02  0.51100000000E-03 0. -1.
        -11    1    4    4    0    0  0.22220279582E+01 -0.35006744488E+01  0.84862319381E+00  0.42322915105E+01  0.51100000000E-03 0.  1.
         12    1    4    4    0    0  0.18617530102E+00  0.93947164030E+01  0.78286586535E+01  0.12230423290E+02  0.00000000000E+00 0. -1.
</event>
<event>
 8    1  0.6016610E-012  0.9118800E+02  0.7816164E-02  0.1184000E+00
        -11   -1    0    0    0    0  0.00000000000E+00  0.00000000000E+00  0.45593999997E+02  0.45594000000E+02  0.51100000000E-03 0. -1.
         11   -1    0    0    0    0 -0.00000000000E+00 -0.00000000000E+00 -0.45593999997E+02  0.45594000000E+02  0.51100000000E-03 0.  1.
         23    2    1    2    0    0 -0.44408920985E-15  0.35527136788E-14  0.71054273576E-14  0.91188000000E+02  0.91188000000E+02 0.  0.
    9900012    2    3    3    0    0  0.29986787516E+01 -0.25602686097E+02 -0.31443205473E+02  0.50528870889E+02  0.30000033554E+02 0.  0.
         12    1    3    3    0    0 -0.29986787516E+01  0.25602686097E+02  0.31443205473E+02  0.40659129111E+02  0.00000000000E+00 0. -1.
         11    1    4    4    0    0  0.59786457759E+01 -0.13382810490E+01 -0.18025012226E+02  0.19037758993E+02  0.51100000000E-03 0. -1.
        -11    1    4    4    0    0  0.70713546927E-01 -0.16827301893E+02 -0.12058111230E+01  0.16870597800E+02  0.51100000000E-03 0.  1.
        -12    1    4    4    0    0 -0.30506805712E+01 -0.74371031550E+01 -0.12212382125E+02  0.14620514096E+02  0.00000000000E+00 0.  1.
</event>
<event>
 8    1  0.6016610E-012  0.9118800E+02  0.7816164E-02  0.1184000E+00
        -11   -1    0    0    0    0  0.00000000000E+00  0.00000000000E+00  0.45593999997E+02  0.45594000000E+02  0.51100000000E-03 0.  1.
         11   -1    0    0    0    0 -0.00000000000E+00 -0.00000000000E+00 -0.45593999997E+02  0.45594000000E+02  0.51100000000E-03 0. -1.
         23    2    1    2    0    0 -0.35527136788E-14  0.00000000000E+00  0.88817841970E-15  0.91188000000E+02  0.91188000000E+02 0.  0.
    9900012    2    3    3    0    0 -0.14504020045E+02 -0.37828755623E+02 -0.34328679271E+01  0.50528856728E+02  0.29999990510E+02 0.  0.
         12    1    3    3    0    0  0.14504020045E+02  0.37828755623E+02  0.34328679271E+01  0.40659143272E+02  0.00000000000E+00 0. -1.
         11    1    4    4    0    0  0.82583687685E+01 -0.65035029323E+01  0.23816808189E+01  0.10778154243E+02  0.51100000000E-03 0. -1.
        -11    1    4    4    0    0 -0.35392855240E+01 -0.95991717350E+01 -0.38930121827E+00  0.10238271129E+02  0.51100000000E-03 0.  1.
         12    1    4    4    0    0 -0.19223103289E+02 -0.21726080955E+02 -0.54252475277E+01  0.29512431355E+02  0.00000000000E+00 0. -1.
</event>
<event>
 8    1  0.6016610E-012  0.9118800E+02  0.7816164E-02  0.1184000E+00
        -11   -1    0    0    0    0  0.00000000000E+00  0.00000000000E+00  0.45593999997E+02  0.45594000000E+02  0.51100000000E-03 0. -1.
         11   -1    0    0    0    0 -0.00000000000E+00 -0.00000000000E+00 -0.45593999997E+02  0.45594000000E+02  0.51100000000E-03 0.  1.
         23    2    1    2    0    0  0.00000000000E+00 -0.35527136788E-14  0.00000000000E+00  0.91188000000E+02  0.91188000000E+02 0.  0.
    9900012    2    3    3    0    0 -0.29491077977E+02  0.24823611557E+02 -0.12931754191E+02  0.50528860345E+02  0.30000001506E+02 0.  0.
         12    1    3    3    0    0  0.29491077977E+02 -0.24823611557E+02  0.12931754191E+02  0.40659139655E+02  0.00000000000E+00 0. -1.
         11    1    4    4    0    0 -0.31994915253E+02  0.20450103047E+02 -0.19099725163E+01  0.38020117201E+02  0.51100000000E-03 0. -1.
        -11    1    4    4    0    0  0.20609839085E+01  0.71352532320E+00 -0.48840822117E+01  0.53489281515E+01  0.51100000000E-03 0.  1.
        -12    1    4    4    0    0  0.44285336771E+00  0.36599831872E+01 -0.61376994630E+01  0.71598149930E+01  0.00000000000E+00 0.  1.
</event>
<event>
 8    1  0.7681403E-012  0.9118800E+02  0.7816164E-02  0.1184000E+00
        -11   -1    0    0    0    0  0.00000000000E+00  0.00000000000E+00  0.45593999997E+02  0.45594000000E+02  0.51100000000E-03 0. -1.
         11   -1    0    0    0    0 -0.00000000000E+00 -0.00000000000E+00 -0.45593999997E+02  0.45594000000E+02  0.51100000000E-03 0.  1.
         23    2    1    2    0    0 -0.17763568394E-14  0.00000000000E+00 -0.71054273576E-14  0.91188000000E+02  0.91188000000E+02 0.  0.
    9900012    2    3    3    0    0 -0.13227152146E+02 -0.12719214022E+02  0.36282681285E+02  0.50528819973E+02  0.29999878791E+02 0.  0.
        -12    1    3    3    0    0  0.13227152146E+02  0.12719214022E+02 -0.36282681285E+02  0.40659180027E+02  0.00000000000E+00 0.  1.
         11    1    4    4    0    0 -0.49261243826E+01 -0.61202285386E+01  0.18437504140E+02  0.20041593199E+02  0.51100000000E-03 0. -1.
        -11    1    4    4    0    0  0.75146217044E+01  0.15761214922E+00  0.56842146288E+01  0.94236233560E+01  0.51100000000E-03 0.  1.
        -12    1    4    4    0    0 -0.15815649467E+02 -0.67565976325E+01  0.12160962517E+02  0.21063603418E+02  0.00000000000E+00 0.  1.
</event>
<event>
 8    1  0.6016610E-012  0.9118800E+02  0.7816164E-02  0.1184000E+00
        -11   -1    0    0    0    0  0.00000000000E+00  0.00000000000E+00  0.45593999997E+02  0.45594000000E+02  0.51100000000E-03 0. -1.
         11   -1    0    0    0    0 -0.00000000000E+00 -0.00000000000E+00 -0.45593999997E+02  0.45594000000E+02  0.51100000000E-03 0.  1.
         23    2    1    2    0    0  0.00000000000E+00  0.00000000000E+00  0.00000000000E+00  0.91188000000E+02  0.91188000000E+02 0.  0.
    9900012    2    3    3    0    0  0.18196723733E+02  0.15547785521E+02 -0.32868094975E+02  0.50528855192E+02  0.29999985842E+02 0.  0.
         12    1    3    3    0    0 -0.18196723733E+02 -0.15547785521E+02  0.32868094975E+02  0.40659144808E+02  0.00000000000E+00 0. -1.
         11    1    4    4    0    0 -0.29796436354E+01  0.98925214097E+01 -0.30733808851E+01  0.10778957573E+02  0.51100000000E-03 0. -1.
        -11    1    4    4    0    0  0.20936924041E+02  0.21720865535E+01 -0.18829358013E+02  0.28242122295E+02  0.51100000000E-03 0.  1.
         12    1    4    4    0    0  0.23944332731E+00  0.34831775583E+01 -0.10965356077E+02  0.11507775324E+02  0.00000000000E+00 0. -1.
</event>
<event>
 8    1  0.6016610E-012  0.9118800E+02  0.7816164E-02  0.1184000E+00
        -11   -1    0    0    0    0  0.00000000000E+00  0.00000000000E+00  0.45593999997E+02  0.45594000000E+02  0.51100000000E-03 0. -1.
         11   -1    0    0    0    0 -0.00000000000E+00 -0.00000000000E+00 -0.45593999997E+02  0.45594000000E+02  0.51100000000E-03 0.  1.
         23    2    1    2    0    0  0.88817841970E-15  0.35527136788E-14  0.00000000000E+00  0.91188000000E+02  0.91188000000E+02 0.  0.
    9900012    2    3    3    0    0 -0.49006139513E+01 -0.17393152111E+02  0.36422901855E+02  0.50528861581E+02  0.30000005261E+02 0.  0.
        -12    1    3    3    0    0  0.49006139513E+01  0.17393152111E+02 -0.36422901855E+02  0.40659138419E+02  0.00000000000E+00 0.  1.
         11    1    4    4    0    0  0.65008722433E+01  0.20196438402E+01  0.20648702459E+02  0.21741876982E+02  0.51100000000E-03 0. -1.
        -11    1    4    4    0    0 -0.59670600967E+01 -0.15703618608E+02  0.14260116560E+02  0.22035434376E+02  0.51100000000E-03 0.  1.
        -12    1    4    4    0    0 -0.54344260979E+01 -0.37091773436E+01  0.15140828356E+01  0.67515502229E+01  0.00000000000E+00 0.  1.
</event>
<event>
 8    1  0.6016610E-012  0.9118800E+02  0.7816164E-02  0.1184000E+00
        -11   -1    0    0    0    0  0.00000000000E+00  0.00000000000E+00  0.45593999997E+02  0.45594000000E+02  0.51100000000E-03 0. -1.
         11   -1    0    0    0    0 -0.00000000000E+00 -0.00000000000E+00 -0.45593999997E+02  0.45594000000E+02  0.51100000000E-03 0.  1.
         23    2    1    2    0    0  0.17763568394E-14  0.00000000000E+00  0.00000000000E+00  0.91188000000E+02  0.91188000000E+02 0.  0.
    9900012    2    3    3    0    0 -0.13750868555E+02 -0.28128670345E+02 -0.25939312380E+02  0.50528973842E+02  0.30000346487E+02 0.  0.
         12    1    3    3    0    0  0.13750868555E+02  0.28128670345E+02  0.25939312380E+02  0.40659026158E+02  0.00000000000E+00 0. -1.
         11    1    4    4    0    0  0.31475195327E+01 -0.16813666217E+01  0.85678141605E+00  0.36698702404E+01  0.51100000000E-03 0. -1.
        -11    1    4    4    0    0 -0.18483177790E+02 -0.25525632665E+02 -0.29778465448E+02  0.43358307034E+02  0.51100000000E-03 0.  1.
        -12    1    4    4    0    0  0.15847897021E+01 -0.92167105758E+00  0.29823716513E+01  0.35007965671E+01  0.00000000000E+00 0.  1.
</event>
<event>
 8    1  0.6016610E-012  0.9118800E+02  0.7816164E-02  0.1184000E+00
        -11   -1    0    0    0    0  0.00000000000E+00  0.00000000000E+00  0.45593999997E+02  0.45594000000E+02  0.51100000000E-03 0. -1.
         11   -1    0    0    0    0 -0.00000000000E+00 -0.00000000000E+00 -0.45593999997E+02  0.45594000000E+02  0.51100000000E-03 0.  1.
         23    2    1    2    0    0  0.35527136788E-14 -0.17763568394E-14  0.71054273576E-14  0.91188000000E+02  0.91188000000E+02 0.  0.
    9900012    2    3    3    0    0 -0.18225754804E+02  0.10457119102E+02 -0.34808578164E+02  0.50528848608E+02  0.29999965829E+02 0.  0.
         12    1    3    3    0    0  0.18225754804E+02 -0.10457119102E+02  0.34808578164E+02  0.40659151392E+02  0.00000000000E+00 0. -1.
         11    1    4    4    0    0 -0.21153764024E+02  0.11051514884E+02 -0.12823855173E+02  0.27093707302E+02  0.51100000000E-03 0. -1.
        -11    1    4    4    0    0 -0.24743971143E+00 -0.29147863207E+00 -0.19191104005E+02  0.19194912331E+02  0.51100000000E-03 0.  1.
        -12    1    4    4    0    0  0.31754489312E+01 -0.30291715026E+00 -0.27936189864E+01  0.42402289745E+01  0.00000000000E+00 0.  1.
</event>
<event>
 8    1  0.6016610E-012  0.9118800E+02  0.7816164E-02  0.1184000E+00
        -11   -1    0    0    0    0  0.00000000000E+00  0.00000000000E+00  0.45593999997E+02  0.45594000000E+02  0.51100000000E-03 0. -1.
         11   -1    0    0    0    0 -0.00000000000E+00 -0.00000000000E+00 -0.45593999997E+02  0.45594000000E+02  0.51100000000E-03 0.  1.
         23    2    1    2    0    0  0.00000000000E+00 -0.71054273576E-14  0.35527136788E-14  0.91188000000E+02  0.91188000000E+02 0.  0.
    9900012    2    3    3    0    0 -0.24434756153E+01  0.35978029086E+02 -0.18782337341E+02  0.50528863930E+02  0.30000012402E+02 0.  0.
         12    1    3    3    0    0  0.24434756153E+01 -0.35978029086E+02  0.18782337341E+02  0.40659136070E+02  0.00000000000E+00 0. -1.
         11    1    4    4    0    0 -0.53444216564E+01  0.14506187167E+02  0.47652183582E+01  0.16177132478E+02  0.51100000000E-03 0. -1.
        -11    1    4    4    0    0  0.77779749991E+01  0.15048788692E+02 -0.16310966931E+02  0.23516176957E+02  0.51100000000E-03 0.  1.
         12    1    4    4    0    0 -0.48770289581E+01  0.64230532265E+01 -0.72365887683E+01  0.10835554495E+02  0.00000000000E+00 0. -1.
</event>
<event>
 8    1  0.6016610E-012  0.9118800E+02  0.7816164E-02  0.1184000E+00
        -11   -1    0    0    0    0  0.00000000000E+00  0.00000000000E+00  0.45593999997E+02  0.45594000000E+02  0.51100000000E-03 0.  1.
         11   -1    0    0    0    0 -0.00000000000E+00 -0.00000000000E+00 -0.45593999997E+02  0.45594000000E+02  0.51100000000E-03 0. -1.
         23    2    1    2    0    0  0.00000000000E+00  0.00000000000E+00 -0.35527136788E-14  0.91188000000E+02  0.91188000000E+02 0.  0.
    9900012    2    3    3    0    0  0.22071363365E+02  0.17931846213E+02 -0.29059797567E+02  0.50528830997E+02  0.29999912297E+02 0.  0.
         12    1    3    3    0    0 -0.22071363365E+02 -0.17931846213E+02  0.29059797567E+02  0.40659169003E+02  0.00000000000E+00 0. -1.
         11    1    4    4    0    0  0.34882631924E+01 -0.48483598950E+01 -0.20375440569E+01  0.63107970825E+01  0.51100000000E-03 0. -1.
        -11    1    4    4    0    0  0.14676587292E+02  0.23540625412E+02 -0.14963177541E+02  0.31519199573E+02  0.51100000000E-03 0.  1.
        -12    1    4    4    0    0  0.39065128807E+01 -0.76041930321E+00 -0.12059075969E+02  0.12698834342E+02  0.00000000000E+00 0.  1.
</event>
<event>
 8    1  0.6016610E-012  0.9118800E+02  0.7816164E-02  0.1184000E+00
        -11   -1    0    0    0    0  0.00000000000E+00  0.00000000000E+00  0.45593999997E+02  0.45594000000E+02  0.51100000000E-03 0. -1.
         11   -1    0    0    0    0 -0.00000000000E+00 -0.00000000000E+00 -0.45593999997E+02  0.45594000000E+02  0.51100000000E-03 0.  1.
         23    2    1    2    0    0 -0.58286708793E-15  0.00000000000E+00  0.71054273576E-14  0.91188000000E+02  0.91188000000E+02 0.  0.
    9900012    2    3    3    0    0 -0.33606420669E-01 -0.19338364815E+02  0.35765819043E+02  0.50528839963E+02  0.29999939553E+02 0.  0.
        -12    1    3    3    0    0  0.33606420669E-01  0.19338364815E+02 -0.35765819043E+02  0.40659160037E+02  0.00000000000E+00 0.  1.
         11    1    4    4    0    0 -0.93210154401E+01 -0.10931083569E+02  0.39501184839E+01  0.14898770189E+02  0.51100000000E-03 0. -1.
        -11    1    4    4    0    0  0.59325846870E+01 -0.96453557785E+00  0.57582556882E+01  0.83236649849E+01  0.51100000000E-03 0.  1.
         12    1    4    4    0    0  0.33548243324E+01 -0.74427456673E+01  0.26057444871E+02  0.27306404790E+02  0.00000000000E+00 0. -1.
</event>
<event>
 8    1  0.6016610E-012  0.9118800E+02  0.7816164E-02  0.1184000E+00
        -11   -1    0    0    0    0  0.00000000000E+00  0.00000000000E+00  0.45593999997E+02  0.45594000000E+02  0.51100000000E-03 0. -1.
         11   -1    0    0    0    0 -0.00000000000E+00 -0.00000000000E+00 -0.45593999997E+02  0.45594000000E+02  0.51100000000E-03 0.  1.
         23    2    1    2    0    0  0.00000000000E+00 -0.44408920985E-15  0.00000000000E+00  0.91188000000E+02  0.91188000000E+02 0.  0.
    9900012    2    3    3    0    0 -0.98949586426E+01 -0.27854094482E+01  0.39338256221E+02  0.50528842177E+02  0.29999946282E+02 0.  0.
        -12    1    3    3    0    0  0.98949586426E+01  0.27854094482E+01 -0.39338256221E+02  0.40659157823E+02  0.00000000000E+00 0.  1.
         11    1    4    4    0    0  0.22767182350E+01 -0.41135481674E+01  0.33831654889E+02  0.34156779667E+02  0.51100000000E-03 0. -1.
        -11    1    4    4    0    0 -0.62872202857E+01 -0.25411736661E+01 -0.91314459890E+00  0.68425533130E+01  0.51100000000E-03 0.  1.
        -12    1    4    4    0    0 -0.58844565920E+01  0.38693123852E+01  0.64197459315E+01  0.95295091974E+01  0.00000000000E+00 0.  1.
</event>
<event>
 8    1  0.6016610E-012  0.9118800E+02  0.7816164E-02  0.1184000E+00
        -11   -1    0    0    0    0  0.00000000000E+00  0.00000000000E+00  0.45593999997E+02  0.45594000000E+02  0.51100000000E-03 0. -1.
         11   -1    0    0    0    0 -0.00000000000E+00 -0.00000000000E+00 -0.45593999997E+02  0.45594000000E+02  0.51100000000E-03 0.  1.
         23    2    1    2    0    0  0.00000000000E+00 -0.88817841970E-15  0.71054273576E-14  0.91188000000E+02  0.91188000000E+02 0.  0.
    9900012    2    3    3    0    0 -0.19306902597E+02  0.68569126851E+01  0.35119679349E+02  0.50528860597E+02  0.30000002270E+02 0.  0.
        -12    1    3    3    0    0  0.19306902597E+02 -0.68569126851E+01 -0.35119679349E+02  0.40659139403E+02  0.00000000000E+00 0.  1.
         11    1    4    4    0    0  0.93058234268E+00 -0.77785133897E+01  0.10965818970E+02  0.13476662791E+02  0.51100000000E-03 0.  1.
        -11    1    4    4    0    0 -0.18158524294E+02  0.63167752914E+01  0.19092425289E+02  0.27095282952E+02  0.51100000000E-03 0. -1.
         12    1    4    4    0    0 -0.20789606457E+01  0.83186507834E+01  0.50614350904E+01  0.99569148534E+01  0.00000000000E+00 0. -1.
</event>
<event>
 8    1  0.6016610E-012  0.9118800E+02  0.7816164E-02  0.1184000E+00
        -11   -1    0    0    0    0  0.00000000000E+00  0.00000000000E+00  0.45593999997E+02  0.45594000000E+02  0.51100000000E-03 0. -1.
         11   -1    0    0    0    0 -0.00000000000E+00 -0.00000000000E+00 -0.45593999997E+02  0.45594000000E+02  0.51100000000E-03 0.  1.
         23    2    1    2    0    0 -0.66613381478E-15  0.00000000000E+00  0.00000000000E+00  0.91188000000E+02  0.91188000000E+02 0.  0.
    9900012    2    3    3    0    0 -0.14179327767E+01  0.16029990221E+02  0.37338920511E+02  0.50528854599E+02  0.29999984038E+02 0.  0.
        -12    1    3    3    0    0  0.14179327767E+01 -0.16029990221E+02 -0.37338920511E+02  0.40659145401E+02  0.00000000000E+00 0.  1.
         11    1    4    4    0    0 -0.98160473955E+01  0.14840085533E+02  0.36185840071E+02  0.40323664851E+02  0.51100000000E-03 0. -1.
        -11    1    4    4    0    0  0.35791552210E+01  0.32170149715E+01 -0.15912751671E+00  0.48150658615E+01  0.51100000000E-03 0.  1.
         12    1    4    4    0    0  0.48189593978E+01 -0.20271102843E+01  0.13122079565E+01  0.53901238857E+01  0.00000000000E+00 0. -1.
</event>
<event>
 8    1  0.6016610E-012  0.9118800E+02  0.7816164E-02  0.1184000E+00
        -11   -1    0    0    0    0  0.00000000000E+00  0.00000000000E+00  0.45593999997E+02  0.45594000000E+02  0.51100000000E-03 0. -1.
         11   -1    0    0    0    0 -0.00000000000E+00 -0.00000000000E+00 -0.45593999997E+02  0.45594000000E+02  0.51100000000E-03 0.  1.
         23    2    1    2    0    0  0.00000000000E+00  0.00000000000E+00  0.35527136788E-14  0.91188000000E+02  0.91188000000E+02 0.  0.
    9900012    2    3    3    0    0  0.36450124212E+02 -0.10911140260E+02  0.14335238028E+02  0.50528885570E+02  0.30000078180E+02 0.  0.
        -12    1    3    3    0    0 -0.36450124212E+02  0.10911140260E+02 -0.14335238028E+02  0.40659114430E+02  0.00000000000E+00 0.  1.
         11    1    4    4    0    0  0.31063344597E+02 -0.16254871521E+02  0.18119878159E+02  0.39464949138E+02  0.51100000000E-03 0. -1.
        -11    1    4    4    0    0  0.69647450570E+01  0.33895757272E+01 -0.36113002830E+01  0.85462498977E+01  0.51100000000E-03 0.  1.
         12    1    4    4    0    0 -0.15779654412E+01  0.19541555338E+01 -0.17333984846E+00  0.25176865346E+01  0.00000000000E+00 0. -1.
</event>
<event>
 8    1  0.6016610E-012  0.9118800E+02  0.7816164E-02  0.1184000E+00
        -11   -1    0    0    0    0  0.00000000000E+00  0.00000000000E+00  0.45593999997E+02  0.45594000000E+02  0.51100000000E-03 0. -1.
         11   -1    0    0    0    0 -0.00000000000E+00 -0.00000000000E+00 -0.45593999997E+02  0.45594000000E+02  0.51100000000E-03 0.  1.
         23    2    1    2    0    0  0.17763568394E-14  0.00000000000E+00  0.35527136788E-14  0.91188000000E+02  0.91188000000E+02 0.  0.
    9900012    2    3    3    0    0  0.15834639555E+02  0.31377040018E+02  0.20442879289E+02  0.50528858792E+02  0.29999996784E+02 0.  0.
        -12    1    3    3    0    0 -0.15834639555E+02 -0.31377040018E+02 -0.20442879289E+02  0.40659141208E+02  0.00000000000E+00 0.  1.
         11    1    4    4    0    0  0.13342555730E+02  0.23822311531E+02  0.42768419387E+01  0.27637251986E+02  0.51100000000E-03 0. -1.
        -11    1    4    4    0    0 -0.48462350257E+01  0.68062228932E+01  0.11305074461E+02  0.14057573504E+02  0.51100000000E-03 0.  1.
        -12    1    4    4    0    0  0.73383188501E+01  0.74850559413E+00  0.48609628895E+01  0.88340333021E+01  0.00000000000E+00 0.  1.
</event>
<event>
 8    1  0.6016610E-012  0.9118800E+02  0.7816164E-02  0.1184000E+00
        -11   -1    0    0    0    0  0.00000000000E+00  0.00000000000E+00  0.45593999997E+02  0.45594000000E+02  0.51100000000E-03 0. -1.
         11   -1    0    0    0    0 -0.00000000000E+00 -0.00000000000E+00 -0.45593999997E+02  0.45594000000E+02  0.51100000000E-03 0.  1.
         23    2    1    2    0    0  0.00000000000E+00  0.26645352591E-14  0.17763568394E-14  0.91188000000E+02  0.91188000000E+02 0.  0.
    9900012    2    3    3    0    0 -0.39290185967E+02 -0.27279822864E+01 -0.10099677385E+02  0.50528879450E+02  0.30000059575E+02 0.  0.
         12    1    3    3    0    0  0.39290185967E+02  0.27279822864E+01  0.10099677385E+02  0.40659120550E+02  0.00000000000E+00 0. -1.
         11    1    4    4    0    0 -0.10483900838E+02  0.12241761110E+02  0.86291357198E+00  0.16140554883E+02  0.51100000000E-03 0. -1.
        -11    1    4    4    0    0 -0.16159816786E+02 -0.81260130122E+01 -0.76076344514E+01  0.19622636628E+02  0.51100000000E-03 0.  1.
         12    1    4    4    0    0 -0.12646468343E+02 -0.68437303844E+01 -0.33549565056E+01  0.14765687938E+02  0.00000000000E+00 0. -1.
</event>
<event>
 8    1  0.6016610E-012  0.9118800E+02  0.7816164E-02  0.1184000E+00
        -11   -1    0    0    0    0  0.00000000000E+00  0.00000000000E+00  0.45593999997E+02  0.45594000000E+02  0.51100000000E-03 0. -1.
         11   -1    0    0    0    0 -0.00000000000E+00 -0.00000000000E+00 -0.45593999997E+02  0.45594000000E+02  0.51100000000E-03 0.  1.
         23    2    1    2    0    0  0.00000000000E+00  0.00000000000E+00 -0.35527136788E-14  0.91188000000E+02  0.91188000000E+02 0.  0.
    9900012    2    3    3    0    0  0.89626740422E+01 -0.26458986314E+02 -0.29542512926E+02  0.50528836793E+02  0.29999929916E+02 0.  0.
         12    1    3    3    0    0 -0.89626740422E+01  0.26458986314E+02  0.29542512926E+02  0.40659163207E+02  0.00000000000E+00 0. -1.
         11    1    4    4    0    0 -0.48677887608E+00 -0.24618777555E+01  0.16385558091E+01  0.29971087998E+01  0.51100000000E-03 0. -1.
        -11    1    4    4    0    0  0.63601176781E+01 -0.25554179828E+02 -0.34044681339E+02  0.43040765923E+02  0.51100000000E-03 0.  1.
        -12    1    4    4    0    0  0.30893352402E+01  0.15570712700E+01  0.28636126039E+01  0.44909620697E+01  0.00000000000E+00 0.  1.
</event>
<event>
 8    1  0.6016610E-012  0.9118800E+02  0.7816164E-02  0.1184000E+00
        -11   -1    0    0    0    0  0.00000000000E+00  0.00000000000E+00  0.45593999997E+02  0.45594000000E+02  0.51100000000E-03 0. -1.
         11   -1    0    0    0    0 -0.00000000000E+00 -0.00000000000E+00 -0.45593999997E+02  0.45594000000E+02  0.51100000000E-03 0.  1.
         23    2    1    2    0    0  0.00000000000E+00 -0.88817841970E-15  0.00000000000E+00  0.91188000000E+02  0.91188000000E+02 0.  0.
    9900012    2    3    3    0    0  0.14193160591E+02 -0.66019950128E+01  0.37525108101E+02  0.50528857317E+02  0.29999992300E+02 0.  0.
        -12    1    3    3    0    0 -0.14193160591E+02  0.66019950128E+01 -0.37525108101E+02  0.40659142683E+02  0.00000000000E+00 0.  1.
         11    1    4    4    0    0  0.20930072406E+01 -0.15116534036E+02  0.23207012666E+02  0.27775091678E+02  0.51100000000E-03 0. -1.
        -11    1    4    4    0    0  0.25420234777E+01  0.29996711576E+01  0.10274625435E+02  0.11001265314E+02  0.51100000000E-03 0.  1.
         12    1    4    4    0    0  0.95581298729E+01  0.55148678659E+01  0.40434700005E+01  0.11752500325E+02  0.00000000000E+00 0. -1.
</event>
<event>
 8    1  0.6016610E-012  0.9118800E+02  0.7816164E-02  0.1184000E+00
        -11   -1    0    0    0    0  0.00000000000E+00  0.00000000000E+00  0.45593999997E+02  0.45594000000E+02  0.51100000000E-03 0. -1.
         11   -1    0    0    0    0 -0.00000000000E+00 -0.00000000000E+00 -0.45593999997E+02  0.45594000000E+02  0.51100000000E-03 0.  1.
         23    2    1    2    0    0  0.88817841970E-15  0.00000000000E+00  0.00000000000E+00  0.91188000000E+02  0.91188000000E+02 0.  0.
    9900012    2    3    3    0    0  0.66527097403E+01 -0.16762659395E+02 -0.36440616732E+02  0.50528882392E+02  0.30000068517E+02 0.  0.
         12    1    3    3    0    0 -0.66527097403E+01  0.16762659395E+02  0.36440616732E+02  0.40659117608E+02  0.00000000000E+00 0. -1.
         11    1    4    4    0    0  0.74555581844E+01 -0.95355622098E+01 -0.15342546501E+01  0.12201075038E+02  0.51100000000E-03 0. -1.
        -11    1    4    4    0    0  0.66329222331E+01 -0.35674902340E+01 -0.15929297722E+02  0.17620021853E+02  0.51100000000E-03 0.  1.
         12    1    4    4    0    0 -0.74357706771E+01 -0.36596069512E+01 -0.18977064360E+02  0.20707785501E+02  0.00000000000E+00 0. -1.
</event>
<event>
 8    1  0.6016610E-012  0.9118800E+02  0.7816164E-02  0.1184000E+00
        -11   -1    0    0    0    0  0.00000000000E+00  0.00000000000E+00  0.45593999997E+02  0.45594000000E+02  0.51100000000E-03 0. -1.
         11   -1    0    0    0    0 -0.00000000000E+00 -0.00000000000E+00 -0.45593999997E+02  0.45594000000E+02  0.51100000000E-03 0.  1.
         23    2    1    2    0    0  0.00000000000E+00  0.00000000000E+00  0.00000000000E+00  0.91188000000E+02  0.91188000000E+02 0.  0.
    9900012    2    3    3    0    0  0.24310902449E+02 -0.23904203749E+02  0.22152513851E+02  0.50528870586E+02  0.30000032633E+02 0.  0.
        -12    1    3    3    0    0 -0.24310902449E+02  0.23904203749E+02 -0.22152513851E+02  0.40659129414E+02  0.00000000000E+00 0.  1.
         11    1    4    4    0    0  0.56469451440E+01  0.37802896620E+01  0.11441152555E+02  0.13307086512E+02  0.51100000000E-03 0. -1.
        -11    1    4    4    0    0  0.71979496910E+01 -0.14705777132E+02 -0.85701522039E+00  0.16395268713E+02  0.51100000000E-03 0.  1.
         12    1    4    4    0    0  0.11466007614E+02 -0.12978716279E+02  0.11568376516E+02  0.20826515361E+02  0.00000000000E+00 0. -1.
</event>
<event>
 8    1  0.6016610E-012  0.9118800E+02  0.7816164E-02  0.1184000E+00
        -11   -1    0    0    0    0  0.00000000000E+00  0.00000000000E+00  0.45593999997E+02  0.45594000000E+02  0.51100000000E-03 0. -1.
         11   -1    0    0    0    0 -0.00000000000E+00 -0.00000000000E+00 -0.45593999997E+02  0.45594000000E+02  0.51100000000E-03 0.  1.
         23    2    1    2    0    0 -0.17763568394E-14 -0.35527136788E-14  0.00000000000E+00  0.91188000000E+02  0.91188000000E+02 0.  0.
    9900012    2    3    3    0    0 -0.12785792590E+02 -0.27436960215E+02 -0.27145941529E+02  0.50528863026E+02  0.30000009654E+02 0.  0.
         12    1    3    3    0    0  0.12785792590E+02  0.27436960215E+02  0.27145941529E+02  0.40659136974E+02  0.00000000000E+00 0. -1.
         11    1    4    4    0    0  0.49292188750E+01  0.31193437175E+01 -0.84121394717E+00  0.58936529514E+01  0.51100000000E-03 0. -1.
        -11    1    4    4    0    0 -0.79610923603E+01 -0.10303867708E+02 -0.59737984384E+01  0.14326023501E+02  0.51100000000E-03 0.  1.
         12    1    4    4    0    0 -0.97539191044E+01 -0.20252436224E+02 -0.20330929143E+02  0.30309186573E+02  0.00000000000E+00 0. -1.
</event>
<event>
 8    1  0.6016610E-012  0.9118800E+02  0.7816164E-02  0.1184000E+00
        -11   -1    0    0    0    0  0.00000000000E+00  0.00000000000E+00  0.45593999997E+02  0.45594000000E+02  0.51100000000E-03 0. -1.
         11   -1    0    0    0    0 -0.00000000000E+00 -0.00000000000E+00 -0.45593999997E+02  0.45594000000E+02  0.51100000000E-03 0.  1.
         23    2    1    2    0    0  0.00000000000E+00  0.00000000000E+00 -0.71054273576E-14  0.91188000000E+02  0.91188000000E+02 0.  0.
    9900012    2    3    3    0    0  0.32068370850E+01 -0.15100238281E+02 -0.37614683000E+02  0.50528863543E+02  0.30000011226E+02 0.  0.
         12    1    3    3    0    0 -0.32068370850E+01  0.15100238281E+02  0.37614683000E+02  0.40659136457E+02  0.00000000000E+00 0. -1.
         11    1    4    4    0    0 -0.28696973484E+01  0.47395982007E+01  0.25291350369E+00  0.55464330408E+01  0.51100000000E-03 0. -1.
        -11    1    4    4    0    0 -0.11512915641E+01 -0.38900429442E+01 -0.18210028727E+02  0.18656448024E+02  0.51100000000E-03 0.  1.
         12    1    4    4    0    0  0.72278259975E+01 -0.15949793538E+02 -0.19657567776E+02  0.26325982478E+02  0.00000000000E+00 0. -1.
</event>
<event>
 8    1  0.6016610E-012  0.9118800E+02  0.7816164E-02  0.1184000E+00
        -11   -1    0    0    0    0  0.00000000000E+00  0.00000000000E+00  0.45593999997E+02  0.45594000000E+02  0.51100000000E-03 0. -1.
         11   -1    0    0    0    0 -0.00000000000E+00 -0.00000000000E+00 -0.45593999997E+02  0.45594000000E+02  0.51100000000E-03 0.  1.
         23    2    1    2    0    0  0.00000000000E+00  0.00000000000E+00  0.35527136788E-14  0.91188000000E+02  0.91188000000E+02 0.  0.
    9900012    2    3    3    0    0 -0.20532718239E+02 -0.16833588328E+02  0.30792896097E+02  0.50528872312E+02  0.30000037879E+02 0.  0.
        -12    1    3    3    0    0  0.20532718239E+02  0.16833588328E+02 -0.30792896097E+02  0.40659127688E+02  0.00000000000E+00 0.  1.
         11    1    4    4    0    0 -0.13735116000E+01  0.35835473694E+01  0.28889458783E+01  0.48035772517E+01  0.51100000000E-03 0. -1.
        -11    1    4    4    0    0  0.73750931098E+00 -0.14705165244E+02  0.69882900634E+01  0.16297914072E+02  0.51100000000E-03 0.  1.
        -12    1    4    4    0    0 -0.19896715950E+02 -0.57119704534E+01  0.20915660156E+02  0.29427380988E+02  0.00000000000E+00 0.  1.
</event>
<event>
 8    1  0.6016610E-012  0.9118800E+02  0.7816164E-02  0.1184000E+00
        -11   -1    0    0    0    0  0.00000000000E+00  0.00000000000E+00  0.45593999997E+02  0.45594000000E+02  0.51100000000E-03 0. -1.
         11   -1    0    0    0    0 -0.00000000000E+00 -0.00000000000E+00 -0.45593999997E+02  0.45594000000E+02  0.51100000000E-03 0.  1.
         23    2    1    2    0    0  0.35527136788E-14 -0.17763568394E-14  0.00000000000E+00  0.91188000000E+02  0.91188000000E+02 0.  0.
    9900012    2    3    3    0    0 -0.23068209312E+02  0.10878136880E+02 -0.31665276704E+02  0.50528857220E+02  0.29999992007E+02 0.  0.
         12    1    3    3    0    0  0.23068209312E+02 -0.10878136880E+02  0.31665276704E+02  0.40659142780E+02  0.00000000000E+00 0. -1.
         11    1    4    4    0    0  0.59342145287E+01  0.44575377994E+00 -0.49401808331E+01  0.77342734261E+01  0.51100000000E-03 0. -1.
        -11    1    4    4    0    0 -0.16174823158E+02  0.98459432062E+01 -0.22201665043E+02  0.29180154776E+02  0.51100000000E-03 0.  1.
        -12    1    4    4    0    0 -0.12827600683E+02  0.58643989384E+00 -0.45234308273E+01  0.13614429018E+02  0.00000000000E+00 0.  1.
</event>
<event>
 8    1  0.6016610E-012  0.9118800E+02  0.7816164E-02  0.1184000E+00
        -11   -1    0    0    0    0  0.00000000000E+00  0.00000000000E+00  0.45593999997E+02  0.45594000000E+02  0.51100000000E-03 0. -1.
         11   -1    0    0    0    0 -0.00000000000E+00 -0.00000000000E+00 -0.45593999997E+02  0.45594000000E+02  0.51100000000E-03 0.  1.
         23    2    1    2    0    0  0.00000000000E+00  0.00000000000E+00  0.17763568394E-14  0.91188000000E+02  0.91188000000E+02 0.  0.
    9900012    2    3    3    0    0 -0.85043033113E+01  0.36688677501E+02 -0.15322642350E+02  0.50528860804E+02  0.30000002899E+02 0.  0.
         12    1    3    3    0    0  0.85043033113E+01 -0.36688677501E+02  0.15322642350E+02  0.40659139196E+02  0.00000000000E+00 0. -1.
         11    1    4    4    0    0 -0.32600524264E+01  0.12419829096E+02  0.43932255443E+01  0.13571312668E+02  0.51100000000E-03 0. -1.
        -11    1    4    4    0    0  0.17291681682E+01 -0.43028810325E+00 -0.89510334743E+01  0.91266735958E+01  0.51100000000E-03 0.  1.
         12    1    4    4    0    0 -0.69734190531E+01  0.24699136508E+02 -0.10764834420E+02  0.27830874540E+02  0.00000000000E+00 0. -1.
</event>
<event>
 8    1  0.8131808E-012  0.9118800E+02  0.7816164E-02  0.1184000E+00
        -11   -1    0    0    0    0  0.00000000000E+00  0.00000000000E+00  0.45593999997E+02  0.45594000000E+02  0.51100000000E-03 0. -1.
         11   -1    0    0    0    0 -0.00000000000E+00 -0.00000000000E+00 -0.45593999997E+02  0.45594000000E+02  0.51100000000E-03 0.  1.
         23    2    1    2    0    0  0.00000000000E+00  0.35527136788E-14  0.00000000000E+00  0.91188000000E+02  0.91188000000E+02 0.  0.
    9900012    2    3    3    0    0  0.16304092111E+02 -0.22027176657E+02  0.30035741692E+02  0.50528859453E+02  0.29999998794E+02 0.  0.
        -12    1    3    3    0    0 -0.16304092111E+02  0.22027176657E+02 -0.30035741692E+02  0.40659140547E+02  0.00000000000E+00 0.  1.
         11    1    4    4    0    0 -0.35324980322E+01 -0.11901375073E+02  0.14385828800E+02  0.19001929942E+02  0.51100000000E-03 0. -1.
        -11    1    4    4    0    0  0.19370312803E+02 -0.13487586083E+02  0.11780639667E+02  0.26380058144E+02  0.51100000000E-03 0.  1.
        -12    1    4    4    0    0  0.46627733970E+00  0.33617845002E+01  0.38692732253E+01  0.51468713676E+01  0.00000000000E+00 0.  1.
</event>
<event>
 8    1  0.6016610E-012  0.9118800E+02  0.7816164E-02  0.1184000E+00
        -11   -1    0    0    0    0  0.00000000000E+00  0.00000000000E+00  0.45593999997E+02  0.45594000000E+02  0.51100000000E-03 0. -1.
         11   -1    0    0    0    0 -0.00000000000E+00 -0.00000000000E+00 -0.45593999997E+02  0.45594000000E+02  0.51100000000E-03 0.  1.
         23    2    1    2    0    0  0.00000000000E+00 -0.35527136788E-14  0.00000000000E+00  0.91188000000E+02  0.91188000000E+02 0.  0.
    9900012    2    3    3    0    0 -0.19543004309E+02  0.28757650452E+02 -0.21076874297E+02  0.50528854570E+02  0.29999983951E+02 0.  0.
         12    1    3    3    0    0  0.19543004309E+02 -0.28757650452E+02  0.21076874297E+02  0.40659145430E+02  0.00000000000E+00 0. -1.
         11    1    4    4    0    0  0.34549183927E+01 -0.42333581758E+00 -0.64039666919E+01  0.72887902952E+01  0.51100000000E-03 0. -1.
        -11    1    4    4    0    0 -0.24635461894E+02  0.23922617741E+02 -0.93705705899E+01  0.35595016727E+02  0.51100000000E-03 0.  1.
        -12    1    4    4    0    0  0.16375391928E+01  0.52583685287E+01 -0.53023370150E+01  0.76450475481E+01  0.00000000000E+00 0.  1.
</event>
<event>
 8    1  0.6016610E-012  0.9118800E+02  0.7816164E-02  0.1184000E+00
        -11   -1    0    0    0    0  0.00000000000E+00  0.00000000000E+00  0.45593999997E+02  0.45594000000E+02  0.51100000000E-03 0. -1.
         11   -1    0    0    0    0 -0.00000000000E+00 -0.00000000000E+00 -0.45593999997E+02  0.45594000000E+02  0.51100000000E-03 0.  1.
         23    2    1    2    0    0 -0.71054273576E-14  0.88817841970E-15  0.00000000000E+00  0.91188000000E+02  0.91188000000E+02 0.  0.
    9900012    2    3    3    0    0 -0.38797698244E+02 -0.74709322690E+01  0.95963458584E+01  0.50528855004E+02  0.29999985269E+02 0.  0.
         12    1    3    3    0    0  0.38797698244E+02  0.74709322690E+01 -0.95963458584E+01  0.40659144996E+02  0.00000000000E+00 0. -1.
         11    1    4    4    0    0  0.31226329560E+01  0.40745531170E+01 -0.14291624710E+01  0.53287264249E+01  0.51100000000E-03 0. -1.
        -11    1    4    4    0    0 -0.22448771350E+02 -0.48504438855E+01  0.32741164768E+01  0.23199008168E+02  0.51100000000E-03 0.  1.
         12    1    4    4    0    0 -0.19471559850E+02 -0.66950415005E+01  0.77513918526E+01  0.22001120411E+02  0.00000000000E+00 0. -1.
</event>
<event>
 8    1  0.6016610E-012  0.9118800E+02  0.7816164E-02  0.1184000E+00
        -11   -1    0    0    0    0  0.00000000000E+00  0.00000000000E+00  0.45593999997E+02  0.45594000000E+02  0.51100000000E-03 0. -1.
         11   -1    0    0    0    0 -0.00000000000E+00 -0.00000000000E+00 -0.45593999997E+02  0.45594000000E+02  0.51100000000E-03 0.  1.
         23    2    1    2    0    0  0.00000000000E+00 -0.88817841970E-15  0.00000000000E+00  0.91188000000E+02  0.91188000000E+02 0.  0.
    9900012    2    3    3    0    0 -0.36406208644E+02 -0.44492827206E+01  0.17548749135E+02  0.50528846777E+02  0.29999960265E+02 0.  0.
        -12    1    3    3    0    0  0.36406208644E+02  0.44492827206E+01 -0.17548749135E+02  0.40659153223E+02  0.00000000000E+00 0.  1.
         11    1    4    4    0    0 -0.36403793991E+02  0.23046247890E+01  0.11345593510E+02  0.38200392730E+02  0.51100000000E-03 0. -1.
        -11    1    4    4    0    0 -0.16085567615E+01 -0.78120487881E+01  0.66142350425E+01  0.10361644010E+02  0.51100000000E-03 0.  1.
         12    1    4    4    0    0  0.16061421082E+01  0.10581412785E+01 -0.41107941794E+00  0.19668100378E+01  0.00000000000E+00 0. -1.
</event>
<event>
 8    1  0.6016610E-012  0.9118800E+02  0.7816164E-02  0.1184000E+00
        -11   -1    0    0    0    0  0.00000000000E+00  0.00000000000E+00  0.45593999997E+02  0.45594000000E+02  0.51100000000E-03 0. -1.
         11   -1    0    0    0    0 -0.00000000000E+00 -0.00000000000E+00 -0.45593999997E+02  0.45594000000E+02  0.51100000000E-03 0.  1.
         23    2    1    2    0    0 -0.88817841970E-15  0.35527136788E-14  0.00000000000E+00  0.91188000000E+02  0.91188000000E+02 0.  0.
    9900012    2    3    3    0    0  0.52838621594E+01 -0.25828597838E+02  0.30953685275E+02  0.50528852226E+02  0.29999976827E+02 0.  0.
        -12    1    3    3    0    0 -0.52838621594E+01  0.25828597838E+02 -0.30953685275E+02  0.40659147774E+02  0.00000000000E+00 0.  1.
         11    1    4    4    0    0  0.10323680912E+02 -0.32793793120E+01  0.67132616587E+01  0.12743649344E+02  0.51100000000E-03 0. -1.
        -11    1    4    4    0    0 -0.55103102009E+01 -0.10414175676E+02  0.13323577011E+01  0.11857223571E+02  0.51100000000E-03 0.  1.
        -12    1    4    4    0    0  0.47049144863E+00 -0.12135042850E+02  0.22908065915E+02  0.25927979311E+02  0.00000000000E+00 0.  1.
</event>
<event>
 8    1  0.6016610E-012  0.9118800E+02  0.7816164E-02  0.1184000E+00
        -11   -1    0    0    0    0  0.00000000000E+00  0.00000000000E+00  0.45593999997E+02  0.45594000000E+02  0.51100000000E-03 0. -1.
         11   -1    0    0    0    0 -0.00000000000E+00 -0.00000000000E+00 -0.45593999997E+02  0.45594000000E+02  0.51100000000E-03 0.  1.
         23    2    1    2    0    0  0.71054273576E-14  0.00000000000E+00  0.00000000000E+00  0.91188000000E+02  0.91188000000E+02 0.  0.
    9900012    2    3    3    0    0  0.39382717702E+02 -0.94523178733E+01 -0.35805552293E+01  0.50528866431E+02  0.30000020005E+02 0.  0.
         12    1    3    3    0    0 -0.39382717702E+02  0.94523178733E+01  0.35805552293E+01  0.40659133569E+02  0.00000000000E+00 0. -1.
         11    1    4    4    0    0  0.18702666852E+02 -0.65968197790E+01  0.93276069215E+01  0.21916022214E+02  0.51100000000E-03 0. -1.
        -11    1    4    4    0    0  0.14946970939E+02  0.44756759169E+01 -0.11058402605E+02  0.19124117852E+02  0.51100000000E-03 0.  1.
        -12    1    4    4    0    0  0.57330799116E+01 -0.73311740112E+01 -0.18497595453E+01  0.94887263650E+01  0.00000000000E+00 0.  1.
</event>
<event>
 8    1  0.6016610E-012  0.9118800E+02  0.7816164E-02  0.1184000E+00
        -11   -1    0    0    0    0  0.00000000000E+00  0.00000000000E+00  0.45593999997E+02  0.45594000000E+02  0.51100000000E-03 0. -1.
         11   -1    0    0    0    0 -0.00000000000E+00 -0.00000000000E+00 -0.45593999997E+02  0.45594000000E+02  0.51100000000E-03 0.  1.
         23    2    1    2    0    0 -0.35527136788E-14  0.00000000000E+00  0.35527136788E-14  0.91188000000E+02  0.91188000000E+02 0.  0.
    9900012    2    3    3    0    0  0.19313430049E+02 -0.20430502947E+02 -0.29372626783E+02  0.50528865294E+02  0.30000016547E+02 0.  0.
         12    1    3    3    0    0 -0.19313430049E+02  0.20430502947E+02  0.29372626783E+02  0.40659134706E+02  0.00000000000E+00 0. -1.
         11    1    4    4    0    0 -0.51393158873E+01  0.48706349925E+00  0.20451738407E+01  0.55527051913E+01  0.51100000000E-03 0. -1.
        -11    1    4    4    0    0  0.13062698241E+02 -0.11330092003E+02 -0.16541427763E+02  0.23929561275E+02  0.51100000000E-03 0.  1.
         12    1    4    4    0    0  0.11390047695E+02 -0.95874744428E+01 -0.14876372861E+02  0.21046598827E+02  0.00000000000E+00 0. -1.
</event>
<event>
 8    1  0.6016610E-012  0.9118800E+02  0.7816164E-02  0.1184000E+00
        -11   -1    0    0    0    0  0.00000000000E+00  0.00000000000E+00  0.45593999997E+02  0.45594000000E+02  0.51100000000E-03 0. -1.
         11   -1    0    0    0    0 -0.00000000000E+00 -0.00000000000E+00 -0.45593999997E+02  0.45594000000E+02  0.51100000000E-03 0.  1.
         23    2    1    2    0    0  0.00000000000E+00  0.00000000000E+00  0.00000000000E+00  0.91188000000E+02  0.91188000000E+02 0.  0.
    9900012    2    3    3    0    0  0.36049561858E+01  0.58540871500E+01  0.40073693944E+02  0.50528843691E+02  0.29999950883E+02 0.  0.
        -12    1    3    3    0    0 -0.36049561858E+01 -0.58540871500E+01 -0.40073693944E+02  0.40659156309E+02  0.00000000000E+00 0.  1.
         11    1    4    4    0    0 -0.91598254376E+01  0.13415128305E+01  0.16168997968E+02  0.18631654631E+02  0.51100000000E-03 0. -1.
        -11    1    4    4    0    0  0.91689052213E+01 -0.46715555461E+01  0.16948730533E+02  0.19828053891E+02  0.51100000000E-03 0.  1.
        -12    1    4    4    0    0  0.35958764021E+01  0.91841298655E+01  0.69559654430E+01  0.12069135169E+02  0.00000000000E+00 0.  1.
</event>
<event>
 8    1  0.6016610E-012  0.9118800E+02  0.7816164E-02  0.1184000E+00
        -11   -1    0    0    0    0  0.00000000000E+00  0.00000000000E+00  0.45593999997E+02  0.45594000000E+02  0.51100000000E-03 0. -1.
         11   -1    0    0    0    0 -0.00000000000E+00 -0.00000000000E+00 -0.45593999997E+02  0.45594000000E+02  0.51100000000E-03 0.  1.
         23    2    1    2    0    0 -0.35527136788E-14  0.44408920985E-15  0.00000000000E+00  0.91188000000E+02  0.91188000000E+02 0.  0.
    9900012    2    3    3    0    0 -0.31241057911E+02 -0.25196542190E+01 -0.25900058054E+02  0.50528863708E+02  0.30000011728E+02 0.  0.
         12    1    3    3    0    0  0.31241057911E+02  0.25196542190E+01  0.25900058054E+02  0.40659136292E+02  0.00000000000E+00 0. -1.
         11    1    4    4    0    0 -0.11062139116E+02  0.10543970883E+02 -0.91141723457E+01  0.17793661276E+02  0.51100000000E-03 0. -1.
        -11    1    4    4    0    0 -0.87657930189E+01 -0.84638440134E+01 -0.33279991943E+00  0.12189607819E+02  0.51100000000E-03 0.  1.
        -12    1    4    4    0    0 -0.11413125776E+02 -0.45997810884E+01 -0.16453085789E+02  0.20545594614E+02  0.00000000000E+00 0.  1.
</event>
<event>
 8    1  0.6016610E-012  0.9118800E+02  0.7816164E-02  0.1184000E+00
        -11   -1    0    0    0    0  0.00000000000E+00  0.00000000000E+00  0.45593999997E+02  0.45594000000E+02  0.51100000000E-03 0. -1.
         11   -1    0    0    0    0 -0.00000000000E+00 -0.00000000000E+00 -0.45593999997E+02  0.45594000000E+02  0.51100000000E-03 0.  1.
         23    2    1    2    0    0  0.00000000000E+00  0.00000000000E+00  0.00000000000E+00  0.91188000000E+02  0.91188000000E+02 0.  0.
    9900012    2    3    3    0    0 -0.33630806184E+02  0.13864398858E+02 -0.18163528009E+02  0.50528850599E+02  0.29999971880E+02 0.  0.
         12    1    3    3    0    0  0.33630806184E+02 -0.13864398858E+02  0.18163528009E+02  0.40659149401E+02  0.00000000000E+00 0. -1.
         11    1    4    4    0    0 -0.31497838197E+02  0.59793656753E+00 -0.12410402228E+02  0.33859849719E+02  0.51100000000E-03 0. -1.
        -11    1    4    4    0    0  0.18613884114E+01  0.46103406543E+01 -0.50858918628E+01  0.71124049426E+01  0.51100000000E-03 0.  1.
         12    1    4    4    0    0 -0.39943563980E+01  0.86561216360E+01 -0.66723391859E+00  0.95565959376E+01  0.00000000000E+00 0. -1.
</event>
<event>
 8    1  0.6016610E-012  0.9118800E+02  0.7816164E-02  0.1184000E+00
        -11   -1    0    0    0    0  0.00000000000E+00  0.00000000000E+00  0.45593999997E+02  0.45594000000E+02  0.51100000000E-03 0. -1.
         11   -1    0    0    0    0 -0.00000000000E+00 -0.00000000000E+00 -0.45593999997E+02  0.45594000000E+02  0.51100000000E-03 0.  1.
         23    2    1    2    0    0 -0.11102230246E-15  0.88817841970E-15 -0.71054273576E-14  0.91188000000E+02  0.91188000000E+02 0.  0.
    9900012    2    3    3    0    0 -0.61146616404E+00  0.39582928123E+01 -0.40461392048E+02  0.50528853190E+02  0.29999979756E+02 0.  0.
         12    1    3    3    0    0  0.61146616404E+00 -0.39582928123E+01  0.40461392048E+02  0.40659146810E+02  0.00000000000E+00 0. -1.
         11    1    4    4    0    0  0.18266381290E+01 -0.76938649906E+01 -0.36525487980E+02  0.37371693001E+02  0.51100000000E-03 0. -1.
        -11    1    4    4    0    0 -0.88997230401E-01  0.89107564057E+01 -0.32304421451E+01  0.94786737966E+01  0.51100000000E-03 0.  1.
         12    1    4    4    0    0 -0.23491070626E+01  0.27414013971E+01 -0.70546192284E+00  0.36784863920E+01  0.00000000000E+00 0. -1.
</event>
<event>
 8    1  0.6016610E-012  0.9118800E+02  0.7816164E-02  0.1184000E+00
        -11   -1    0    0    0    0  0.00000000000E+00  0.00000000000E+00  0.45593999997E+02  0.45594000000E+02  0.51100000000E-03 0. -1.
         11   -1    0    0    0    0 -0.00000000000E+00 -0.00000000000E+00 -0.45593999997E+02  0.45594000000E+02  0.51100000000E-03 0.  1.
         23    2    1    2    0    0  0.00000000000E+00  0.00000000000E+00  0.00000000000E+00  0.91188000000E+02  0.91188000000E+02 0.  0.
    9900012    2    3    3    0    0 -0.51511093747E+01  0.21232710295E+02 -0.34289995972E+02  0.50528859108E+02  0.29999997746E+02 0.  0.
         12    1    3    3    0    0  0.51511093747E+01 -0.21232710295E+02  0.34289995972E+02  0.40659140892E+02  0.00000000000E+00 0. -1.
         11    1    4    4    0    0 -0.11804758590E+00 -0.57801023206E+01 -0.12833182766E+02  0.14075301000E+02  0.51100000000E-03 0. -1.
        -11    1    4    4    0    0  0.71217744998E+00  0.10453996903E+02 -0.13799148710E+02  0.17326562075E+02  0.51100000000E-03 0.  1.
         12    1    4    4    0    0 -0.57452392388E+01  0.16558815713E+02 -0.76576644964E+01  0.19126996034E+02  0.00000000000E+00 0. -1.
</event>
<event>
 8    1  0.6016610E-012  0.9118800E+02  0.7816164E-02  0.1184000E+00
        -11   -1    0    0    0    0  0.00000000000E+00  0.00000000000E+00  0.45593999997E+02  0.45594000000E+02  0.51100000000E-03 0. -1.
         11   -1    0    0    0    0 -0.00000000000E+00 -0.00000000000E+00 -0.45593999997E+02  0.45594000000E+02  0.51100000000E-03 0.  1.
         23    2    1    2    0    0  0.00000000000E+00  0.17763568394E-14  0.00000000000E+00  0.91188000000E+02  0.91188000000E+02 0.  0.
    9900012    2    3    3    0    0 -0.50366364136E+01  0.87141459837E+01  0.39393664316E+02  0.50528870215E+02  0.30000031507E+02 0.  0.
        -12    1    3    3    0    0  0.50366364136E+01 -0.87141459837E+01 -0.39393664316E+02  0.40659129785E+02  0.00000000000E+00 0.  1.
         11    1    4    4    0    0 -0.74224013526E+01 -0.87386905345E+01  0.25462819922E+02  0.27925113298E+02  0.51100000000E-03 0. -1.
        -11    1    4    4    0    0  0.23179227602E+01  0.13671341664E+02  0.12092440058E+02  0.18398517756E+02  0.51100000000E-03 0.  1.
         12    1    4    4    0    0  0.67842178778E-01  0.37814948546E+01  0.18384043360E+01  0.42052391608E+01  0.00000000000E+00 0. -1.
</event>
<event>
 8    1  0.6016610E-012  0.9118800E+02  0.7816164E-02  0.1184000E+00
        -11   -1    0    0    0    0  0.00000000000E+00  0.00000000000E+00  0.45593999997E+02  0.45594000000E+02  0.51100000000E-03 0. -1.
         11   -1    0    0    0    0 -0.00000000000E+00 -0.00000000000E+00 -0.45593999997E+02  0.45594000000E+02  0.51100000000E-03 0.  1.
         23    2    1    2    0    0 -0.17763568394E-14  0.35527136788E-14  0.00000000000E+00  0.91188000000E+02  0.91188000000E+02 0.  0.
    9900012    2    3    3    0    0  0.14037984319E+02 -0.20617032339E+02 -0.32109789331E+02  0.50528860841E+02  0.30000003014E+02 0.  0.
         12    1    3    3    0    0 -0.14037984319E+02  0.20617032339E+02  0.32109789331E+02  0.40659139159E+02  0.00000000000E+00 0. -1.
         11    1    4    4    0    0 -0.22131554741E+01  0.22492494927E+01 -0.36413783837E+01  0.48183832587E+01  0.51100000000E-03 0. -1.
        -11    1    4    4    0    0  0.16964107519E+02 -0.25136802214E+02 -0.30176164746E+02  0.42781312374E+02  0.51100000000E-03 0.  1.
        -12    1    4    4    0    0 -0.71296772552E+00  0.22705203815E+01  0.17077537987E+01  0.29291652083E+01  0.00000000000E+00 0.  1.
</event>
<event>
 8    1  0.6847329E-012  0.9118800E+02  0.7816164E-02  0.1184000E+00
        -11   -1    0    0    0    0  0.00000000000E+00  0.00000000000E+00  0.45593999997E+02  0.45594000000E+02  0.51100000000E-03 0. -1.
         11   -1    0    0    0    0 -0.00000000000E+00 -0.00000000000E+00 -0.45593999997E+02  0.45594000000E+02  0.51100000000E-03 0.  1.
         23    2    1    2    0    0  0.26645352591E-14  0.00000000000E+00  0.00000000000E+00  0.91188000000E+02  0.91188000000E+02 0.  0.
    9900012    2    3    3    0    0 -0.29477418082E+01 -0.11320750775E+02  0.38939916062E+02  0.50528860279E+02  0.30000001305E+02 0.  0.
        -12    1    3    3    0    0  0.29477418082E+01  0.11320750775E+02 -0.38939916062E+02  0.40659139721E+02  0.00000000000E+00 0.  1.
         11    1    4    4    0    0  0.56195067635E+01 -0.74884314429E+01  0.23861758215E+02  0.25632771351E+02  0.51100000000E-03 0. -1.
        -11    1    4    4    0    0 -0.13326140158E+02 -0.57026226941E+01  0.95094718794E+01  0.17335973373E+02  0.51100000000E-03 0.  1.
        -12    1    4    4    0    0  0.47588915867E+01  0.18703033625E+01  0.55686859676E+01  0.75601155552E+01  0.00000000000E+00 0.  1.
</event>
<event>
 8    1  0.6016610E-012  0.9118800E+02  0.7816164E-02  0.1184000E+00
        -11   -1    0    0    0    0  0.00000000000E+00  0.00000000000E+00  0.45593999997E+02  0.45594000000E+02  0.51100000000E-03 0. -1.
         11   -1    0    0    0    0 -0.00000000000E+00 -0.00000000000E+00 -0.45593999997E+02  0.45594000000E+02  0.51100000000E-03 0.  1.
         23    2    1    2    0    0 -0.88817841970E-15 -0.35527136788E-14  0.00000000000E+00  0.91188000000E+02  0.91188000000E+02 0.  0.
    9900012    2    3    3    0    0 -0.78863373185E+01 -0.21140565859E+02  0.33823762398E+02  0.50528871334E+02  0.30000034905E+02 0.  0.
        -12    1    3    3    0    0  0.78863373185E+01  0.21140565859E+02 -0.33823762398E+02  0.40659128666E+02  0.00000000000E+00 0.  1.
         11    1    4    4    0    0 -0.68515368666E+01 -0.14840479110E+02  0.68565564905E+01  0.17725567546E+02  0.51100000000E-03 0. -1.
        -11    1    4    4    0    0 -0.23884345091E+01  0.55979697386E+01  0.13336755103E+02  0.14659840433E+02  0.51100000000E-03 0.  1.
        -12    1    4    4    0    0  0.13536340572E+01 -0.11898056488E+02  0.13630450805E+02  0.18143463354E+02  0.00000000000E+00 0.  1.
</event>
<event>
 8    1  0.6016610E-012  0.9118800E+02  0.7816164E-02  0.1184000E+00
        -11   -1    0    0    0    0  0.00000000000E+00  0.00000000000E+00  0.45593999997E+02  0.45594000000E+02  0.51100000000E-03 0. -1.
         11   -1    0    0    0    0 -0.00000000000E+00 -0.00000000000E+00 -0.45593999997E+02  0.45594000000E+02  0.51100000000E-03 0.  1.
         23    2    1    2    0    0  0.66613381478E-15  0.00000000000E+00  0.00000000000E+00  0.91188000000E+02  0.91188000000E+02 0.  0.
    9900012    2    3    3    0    0  0.10671052735E+01 -0.16055682105E+02  0.37339550391E+02  0.50528860007E+02  0.30000000478E+02 0.  0.
        -12    1    3    3    0    0 -0.10671052735E+01  0.16055682105E+02 -0.37339550391E+02  0.40659139993E+02  0.00000000000E+00 0.  1.
         11    1    4    4    0    0 -0.48732947205E+01 -0.20531084447E+02  0.24017605158E+02  0.31970608187E+02  0.51100000000E-03 0. -1.
        -11    1    4    4    0    0  0.85319225589E+01  0.36971832767E+01  0.12769971582E+02  0.15796678170E+02  0.51100000000E-03 0.  1.
         12    1    4    4    0    0 -0.25915225649E+01  0.77821906567E+00  0.55197365102E+00  0.27615736510E+01  0.00000000000E+00 0. -1.
</event>
<event>
 8    1  0.6016610E-012  0.9118800E+02  0.7816164E-02  0.1184000E+00
        -11   -1    0    0    0    0  0.00000000000E+00  0.00000000000E+00  0.45593999997E+02  0.45594000000E+02  0.51100000000E-03 0. -1.
         11   -1    0    0    0    0 -0.00000000000E+00 -0.00000000000E+00 -0.45593999997E+02  0.45594000000E+02  0.51100000000E-03 0.  1.
         23    2    1    2    0    0  0.00000000000E+00  0.00000000000E+00  0.00000000000E+00  0.91188000000E+02  0.91188000000E+02 0.  0.
    9900012    2    3    3    0    0  0.35888310287E+02 -0.86750359371E+00 -0.19090384733E+02  0.50528853833E+02  0.29999981711E+02 0.  0.
         12    1    3    3    0    0 -0.35888310287E+02  0.86750359371E+00  0.19090384733E+02  0.40659146167E+02  0.00000000000E+00 0. -1.
         11    1    4    4    0    0  0.33726113817E+02 -0.40421968622E+01 -0.34626279528E+01  0.34143519169E+02  0.51100000000E-03 0. -1.
        -11    1    4    4    0    0  0.19119151723E+01  0.23265772208E+00 -0.51076171693E+01  0.54586905619E+01  0.51100000000E-03 0.  1.
         12    1    4    4    0    0  0.25028129804E+00  0.29420355464E+01 -0.10520139611E+02  0.10926644102E+02  0.00000000000E+00 0. -1.
</event>
<event>
 8    1  0.6016610E-012  0.9118800E+02  0.7816164E-02  0.1184000E+00
        -11   -1    0    0    0    0  0.00000000000E+00  0.00000000000E+00  0.45593999997E+02  0.45594000000E+02  0.51100000000E-03 0. -1.
         11   -1    0    0    0    0 -0.00000000000E+00 -0.00000000000E+00 -0.45593999997E+02  0.45594000000E+02  0.51100000000E-03 0.  1.
         23    2    1    2    0    0 -0.44408920985E-15  0.00000000000E+00  0.17763568394E-14  0.91188000000E+02  0.91188000000E+02 0.  0.
    9900012    2    3    3    0    0  0.14701738305E+01  0.39690132839E+02 -0.87003740040E+01  0.50528873550E+02  0.30000041641E+02 0.  0.
         12    1    3    3    0    0 -0.14701738305E+01 -0.39690132839E+02  0.87003740040E+01  0.40659126450E+02  0.00000000000E+00 0. -1.
         11    1    4    4    0    0 -0.65355687675E+01  0.11640763610E+02 -0.90871412115E+01  0.16149215838E+02  0.51100000000E-03 0.  1.
        -11    1    4    4    0    0  0.99897557273E+01  0.29794812513E+02  0.16134157288E+01  0.31466318227E+02  0.51100000000E-03 0. -1.
         12    1    4    4    0    0 -0.19840131293E+01 -0.17454432839E+01 -0.12266485212E+01  0.29133394840E+01  0.00000000000E+00 0. -1.
</event>
<event>
 8    1  0.6016610E-012  0.9118800E+02  0.7816164E-02  0.1184000E+00
        -11   -1    0    0    0    0  0.00000000000E+00  0.00000000000E+00  0.45593999997E+02  0.45594000000E+02  0.51100000000E-03 0. -1.
         11   -1    0    0    0    0 -0.00000000000E+00 -0.00000000000E+00 -0.45593999997E+02  0.45594000000E+02  0.51100000000E-03 0.  1.
         23    2    1    2    0    0  0.00000000000E+00  0.44408920985E-15  0.00000000000E+00  0.91188000000E+02  0.91188000000E+02 0.  0.
    9900012    2    3    3    0    0  0.39557623834E+01 -0.39642491128E+01 -0.40271594825E+02  0.50528872159E+02  0.30000037414E+02 0.  0.
         12    1    3    3    0    0 -0.39557623834E+01  0.39642491128E+01  0.40271594825E+02  0.40659127841E+02  0.00000000000E+00 0. -1.
         11    1    4    4    0    0 -0.87431117979E+01 -0.54286516035E+01 -0.30862159880E+02  0.32532832260E+02  0.51100000000E-03 0.  1.
        -11    1    4    4    0    0  0.11593338590E+02  0.29880789860E+00 -0.38661241900E+01  0.12224635059E+02  0.51100000000E-03 0. -1.
        -12    1    4    4    0    0  0.11055355918E+01  0.11655945921E+01 -0.55433107546E+01  0.57714048394E+01  0.00000000000E+00 0.  1.
</event>
<event>
 8    1  0.6016610E-012  0.9118800E+02  0.7816164E-02  0.1184000E+00
        -11   -1    0    0    0    0  0.00000000000E+00  0.00000000000E+00  0.45593999997E+02  0.45594000000E+02  0.51100000000E-03 0. -1.
         11   -1    0    0    0    0 -0.00000000000E+00 -0.00000000000E+00 -0.45593999997E+02  0.45594000000E+02  0.51100000000E-03 0.  1.
         23    2    1    2    0    0 -0.66613381478E-15  0.00000000000E+00  0.00000000000E+00  0.91188000000E+02  0.91188000000E+02 0.  0.
    9900012    2    3    3    0    0 -0.15775222197E+01 -0.27834074058E+02 -0.29596316550E+02  0.50528853325E+02  0.29999980166E+02 0.  0.
         12    1    3    3    0    0  0.15775222197E+01  0.27834074058E+02  0.29596316550E+02  0.40659146675E+02  0.00000000000E+00 0. -1.
         11    1    4    4    0    0 -0.88860670284E+01 -0.10069274749E+02  0.10918843246E+01  0.13473852190E+02  0.51100000000E-03 0. -1.
        -11    1    4    4    0    0  0.62601019256E+01 -0.16711245576E+02 -0.30765747429E+02  0.35566639144E+02  0.51100000000E-03 0.  1.
        -12    1    4    4    0    0  0.10484428832E+01 -0.10535537336E+01  0.77546554732E-01  0.14883619913E+01  0.00000000000E+00 0.  1.
</event>
<event>
 8    1  0.6016610E-012  0.9118800E+02  0.7816164E-02  0.1184000E+00
        -11   -1    0    0    0    0  0.00000000000E+00  0.00000000000E+00  0.45593999997E+02  0.45594000000E+02  0.51100000000E-03 0. -1.
         11   -1    0    0    0    0 -0.00000000000E+00 -0.00000000000E+00 -0.45593999997E+02  0.45594000000E+02  0.51100000000E-03 0.  1.
         23    2    1    2    0    0  0.00000000000E+00 -0.16653345369E-15  0.00000000000E+00  0.91188000000E+02  0.91188000000E+02 0.  0.
    9900012    2    3    3    0    0  0.11223592637E+02 -0.14406129707E+00  0.39079096685E+02  0.50528861014E+02  0.30000003538E+02 0.  0.
        -12    1    3    3    0    0 -0.11223592637E+02  0.14406129707E+00 -0.39079096685E+02  0.40659138986E+02  0.00000000000E+00 0.  1.
         11    1    4    4    0    0  0.96608521451E+00  0.34538357779E+01  0.34848680284E+02  0.35032739259E+02  0.51100000000E-03 0. -1.
        -11    1    4    4    0    0  0.11561403946E+02 -0.42729656009E+01  0.55540292798E+01  0.13519302413E+02  0.51100000000E-03 0.  1.
         12    1    4    4    0    0 -0.13038965237E+01  0.67506852594E+00 -0.13236128780E+01  0.19768193418E+01  0.00000000000E+00 0. -1.
</event>
<event>
 8    1  0.6016610E-012  0.9118800E+02  0.7816164E-02  0.1184000E+00
        -11   -1    0    0    0    0  0.00000000000E+00  0.00000000000E+00  0.45593999997E+02  0.45594000000E+02  0.51100000000E-03 0. -1.
         11   -1    0    0    0    0 -0.00000000000E+00 -0.00000000000E+00 -0.45593999997E+02  0.45594000000E+02  0.51100000000E-03 0.  1.
         23    2    1    2    0    0  0.17763568394E-14  0.00000000000E+00  0.00000000000E+00  0.91188000000E+02  0.91188000000E+02 0.  0.
    9900012    2    3    3    0    0 -0.14648585690E+02 -0.19455468779E+02  0.32558704963E+02  0.50528860843E+02  0.30000003019E+02 0.  0.
        -12    1    3    3    0    0  0.14648585690E+02  0.19455468779E+02 -0.32558704963E+02  0.40659139157E+02  0.00000000000E+00 0.  1.
         11    1    4    4    0    0 -0.96638012839E+01 -0.13916593074E+02  0.19745355615E+02  0.26018064622E+02  0.51100000000E-03 0. -1.
        -11    1    4    4    0    0  0.57181307593E+00  0.68944684669E+01  0.65278374622E+01  0.95117468337E+01  0.51100000000E-03 0.  1.
        -12    1    4    4    0    0 -0.55565974820E+01 -0.12433344172E+02  0.62855118850E+01  0.14999049387E+02  0.00000000000E+00 0.  1.
</event>
<event>
 8    1  0.6016610E-012  0.9118800E+02  0.7816164E-02  0.1184000E+00
        -11   -1    0    0    0    0  0.00000000000E+00  0.00000000000E+00  0.45593999997E+02  0.45594000000E+02  0.51100000000E-03 0. -1.
         11   -1    0    0    0    0 -0.00000000000E+00 -0.00000000000E+00 -0.45593999997E+02  0.45594000000E+02  0.51100000000E-03 0.  1.
         23    2    1    2    0    0 -0.17763568394E-14 -0.88817841970E-15  0.00000000000E+00  0.91188000000E+02  0.91188000000E+02 0.  0.
    9900012    2    3    3    0    0 -0.12282934295E+02 -0.72053764661E+01  0.38083831646E+02  0.50528853947E+02  0.29999982058E+02 0.  0.
        -12    1    3    3    0    0  0.12282934295E+02  0.72053764661E+01 -0.38083831646E+02  0.40659146053E+02  0.00000000000E+00 0.  1.
         11    1    4    4    0    0  0.26275793861E+01 -0.44573762245E+01  0.57515786192E+01  0.77364742041E+01  0.51100000000E-03 0.  1.
        -11    1    4    4    0    0 -0.14265560893E+02 -0.10084010780E+02  0.30586529227E+02  0.35223987160E+02  0.51100000000E-03 0. -1.
        -12    1    4    4    0    0 -0.64495278803E+00  0.73360105380E+01  0.17457237996E+01  0.75683925835E+01  0.00000000000E+00 0.  1.
</event>
<event>
 8    1  0.6016610E-012  0.9118800E+02  0.7816164E-02  0.1184000E+00
        -11   -1    0    0    0    0  0.00000000000E+00  0.00000000000E+00  0.45593999997E+02  0.45594000000E+02  0.51100000000E-03 0. -1.
         11   -1    0    0    0    0 -0.00000000000E+00 -0.00000000000E+00 -0.45593999997E+02  0.45594000000E+02  0.51100000000E-03 0.  1.
         23    2    1    2    0    0  0.00000000000E+00  0.00000000000E+00  0.00000000000E+00  0.91188000000E+02  0.91188000000E+02 0.  0.
    9900012    2    3    3    0    0 -0.74469533320E+01 -0.26507112000E+01 -0.39883364633E+02  0.50528853941E+02  0.29999982040E+02 0.  0.
         12    1    3    3    0    0  0.74469533320E+01  0.26507112000E+01  0.39883364633E+02  0.40659146059E+02  0.00000000000E+00 0. -1.
         11    1    4    4    0    0 -0.51125476344E+01 -0.28140578851E+01  0.22243692232E+01  0.62453890028E+01  0.51100000000E-03 0. -1.
        -11    1    4    4    0    0 -0.79979070244E+01  0.60893038452E+00 -0.23902916811E+02  0.25212828983E+02  0.51100000000E-03 0.  1.
         12    1    4    4    0    0  0.56635013268E+01 -0.44558369941E+00 -0.18204817045E+02  0.19070635956E+02  0.00000000000E+00 0. -1.
</event>
<event>
 8    1  0.6016610E-012  0.9118800E+02  0.7816164E-02  0.1184000E+00
        -11   -1    0    0    0    0  0.00000000000E+00  0.00000000000E+00  0.45593999997E+02  0.45594000000E+02  0.51100000000E-03 0. -1.
         11   -1    0    0    0    0 -0.00000000000E+00 -0.00000000000E+00 -0.45593999997E+02  0.45594000000E+02  0.51100000000E-03 0.  1.
         23    2    1    2    0    0  0.35527136788E-14 -0.88817841970E-15  0.71054273576E-14  0.91188000000E+02  0.91188000000E+02 0.  0.
    9900012    2    3    3    0    0 -0.23480447501E+02 -0.25329265472E+01 -0.33097104744E+02  0.50528862353E+02  0.30000007609E+02 0.  0.
         12    1    3    3    0    0  0.23480447501E+02  0.25329265472E+01  0.33097104744E+02  0.40659137647E+02  0.00000000000E+00 0. -1.
         11    1    4    4    0    0 -0.18101209522E+02  0.76710477746E+01 -0.15115084672E+02  0.24798478684E+02  0.51100000000E-03 0. -1.
        -11    1    4    4    0    0 -0.33225200992E+01 -0.69379292204E+01 -0.37103298255E+00  0.77014068463E+01  0.51100000000E-03 0.  1.
        -12    1    4    4    0    0 -0.20567178802E+01 -0.32660451014E+01 -0.17610987089E+02  0.18028976823E+02  0.00000000000E+00 0.  1.
</event>
<event>
 8    1  0.6016610E-012  0.9118800E+02  0.7816164E-02  0.1184000E+00
        -11   -1    0    0    0    0  0.00000000000E+00  0.00000000000E+00  0.45593999997E+02  0.45594000000E+02  0.51100000000E-03 0.  1.
         11   -1    0    0    0    0 -0.00000000000E+00 -0.00000000000E+00 -0.45593999997E+02  0.45594000000E+02  0.51100000000E-03 0. -1.
         23    2    1    2    0    0  0.00000000000E+00  0.17763568394E-14  0.00000000000E+00  0.91188000000E+02  0.91188000000E+02 0.  0.
    9900012    2    3    3    0    0 -0.38090195802E+02  0.10771305758E+02 -0.92888435817E+01  0.50528847783E+02  0.29999963320E+02 0.  0.
         12    1    3    3    0    0  0.38090195802E+02 -0.10771305758E+02  0.92888435817E+01  0.40659152217E+02  0.00000000000E+00 0. -1.
         11    1    4    4    0    0 -0.26744964747E+02 -0.52147509192E+01 -0.12050642150E+02  0.29794374351E+02  0.51100000000E-03 0. -1.
        -11    1    4    4    0    0 -0.60372738702E+01  0.36079012791E+01  0.16242132996E+01  0.72182890305E+01  0.51100000000E-03 0.  1.
         12    1    4    4    0    0 -0.53079571847E+01  0.12378155398E+02  0.11375852687E+01  0.13516184401E+02  0.00000000000E+00 0. -1.
</event>
<event>
 8    1  0.6016610E-012  0.9118800E+02  0.7816164E-02  0.1184000E+00
        -11   -1    0    0    0    0  0.00000000000E+00  0.00000000000E+00  0.45593999997E+02  0.45594000000E+02  0.51100000000E-03 0.  1.
         11   -1    0    0    0    0 -0.00000000000E+00 -0.00000000000E+00 -0.45593999997E+02  0.45594000000E+02  0.51100000000E-03 0. -1.
         23    2    1    2    0    0  0.00000000000E+00 -0.35527136788E-14 -0.35527136788E-14  0.91188000000E+02  0.91188000000E+02 0.  0.
    9900012    2    3    3    0    0  0.45552193617E+01 -0.25964938916E+02  0.30955407022E+02  0.50528864492E+02  0.30000014111E+02 0.  0.
        -12    1    3    3    0    0 -0.45552193617E+01  0.25964938916E+02 -0.30955407022E+02  0.40659135508E+02  0.00000000000E+00 0.  1.
         11    1    4    4    0    0  0.78962985589E+00  0.47118771202E+01 -0.12351176049E+01  0.49346547057E+01  0.51100000000E-03 0. -1.
        -11    1    4    4    0    0 -0.22712652294E+00 -0.26302480942E+00  0.37420325391E+01  0.37581346826E+01  0.51100000000E-03 0.  1.
         12    1    4    4    0    0  0.39927160287E+01 -0.30413791227E+02  0.28448492088E+02  0.41836075104E+02  0.00000000000E+00 0. -1.
</event>
<event>
 8    1  0.6016610E-012  0.9118800E+02  0.7816164E-02  0.1184000E+00
        -11   -1    0    0    0    0  0.00000000000E+00  0.00000000000E+00  0.45593999997E+02  0.45594000000E+02  0.51100000000E-03 0. -1.
         11   -1    0    0    0    0 -0.00000000000E+00 -0.00000000000E+00 -0.45593999997E+02  0.45594000000E+02  0.51100000000E-03 0.  1.
         23    2    1    2    0    0 -0.17763568394E-14 -0.35527136788E-14  0.00000000000E+00  0.91188000000E+02  0.91188000000E+02 0.  0.
    9900012    2    3    3    0    0 -0.11089819488E+02 -0.26174928376E+02 -0.29069831999E+02  0.50528854605E+02  0.29999984059E+02 0.  0.
         12    1    3    3    0    0  0.11089819488E+02  0.26174928376E+02  0.29069831999E+02  0.40659145395E+02  0.00000000000E+00 0. -1.
         11    1    4    4    0    0 -0.51850063257E+01 -0.29510688767E+01  0.42525170734E+01  0.73264588877E+01  0.51100000000E-03 0. -1.
        -11    1    4    4    0    0 -0.98948516689E+01 -0.14288422749E+02 -0.17996833000E+02  0.25019054988E+02  0.51100000000E-03 0.  1.
         12    1    4    4    0    0  0.39900385066E+01 -0.89354367498E+01 -0.15325516073E+02  0.18183340729E+02  0.00000000000E+00 0. -1.
</event>
<event>
 8    1  0.6016610E-012  0.9118800E+02  0.7816164E-02  0.1184000E+00
        -11   -1    0    0    0    0  0.00000000000E+00  0.00000000000E+00  0.45593999997E+02  0.45594000000E+02  0.51100000000E-03 0. -1.
         11   -1    0    0    0    0 -0.00000000000E+00 -0.00000000000E+00 -0.45593999997E+02  0.45594000000E+02  0.51100000000E-03 0.  1.
         23    2    1    2    0    0  0.00000000000E+00  0.00000000000E+00  0.00000000000E+00  0.91188000000E+02  0.91188000000E+02 0.  0.
    9900012    2    3    3    0    0 -0.13633807497E+02 -0.24470882952E+01 -0.38226909178E+02  0.50528861626E+02  0.30000005399E+02 0.  0.
         12    1    3    3    0    0  0.13633807497E+02  0.24470882952E+01  0.38226909178E+02  0.40659138374E+02  0.00000000000E+00 0. -1.
         11    1    4    4    0    0  0.34958918161E+01  0.94429764526E+00  0.16112263210E+01  0.39634591144E+01  0.51100000000E-03 0. -1.
        -11    1    4    4    0    0 -0.10173769209E+02  0.34770664044E+01 -0.84040565013E+01  0.13646381815E+02  0.51100000000E-03 0.  1.
         12    1    4    4    0    0 -0.69559301045E+01 -0.68684523448E+01 -0.31434078998E+02  0.32919020697E+02  0.00000000000E+00 0. -1.
</event>
<event>
 8    1  0.6016610E-012  0.9118800E+02  0.7816164E-02  0.1184000E+00
        -11   -1    0    0    0    0  0.00000000000E+00  0.00000000000E+00  0.45593999997E+02  0.45594000000E+02  0.51100000000E-03 0. -1.
         11   -1    0    0    0    0 -0.00000000000E+00 -0.00000000000E+00 -0.45593999997E+02  0.45594000000E+02  0.51100000000E-03 0.  1.
         23    2    1    2    0    0  0.00000000000E+00  0.00000000000E+00  0.00000000000E+00  0.91188000000E+02  0.91188000000E+02 0.  0.
    9900012    2    3    3    0    0 -0.10844080101E+02  0.15578461883E+02 -0.35956675543E+02  0.50528867397E+02  0.30000022941E+02 0.  0.
         12    1    3    3    0    0  0.10844080101E+02 -0.15578461883E+02  0.35956675543E+02  0.40659132603E+02  0.00000000000E+00 0. -1.
         11    1    4    4    0    0 -0.12584250291E+02  0.53166436089E+01 -0.20288162651E+02  0.24458936990E+02  0.51100000000E-03 0. -1.
        -11    1    4    4    0    0  0.27913575862E+01  0.13936983854E+02 -0.55595097208E+01  0.15262350563E+02  0.51100000000E-03 0.  1.
         12    1    4    4    0    0 -0.10511873960E+01 -0.36751655793E+01 -0.10109003172E+02  0.10807579845E+02  0.00000000000E+00 0. -1.
</event>
<event>
 8    1  0.6016610E-012  0.9118800E+02  0.7816164E-02  0.1184000E+00
        -11   -1    0    0    0    0  0.00000000000E+00  0.00000000000E+00  0.45593999997E+02  0.45594000000E+02  0.51100000000E-03 0. -1.
         11   -1    0    0    0    0 -0.00000000000E+00 -0.00000000000E+00 -0.45593999997E+02  0.45594000000E+02  0.51100000000E-03 0.  1.
         23    2    1    2    0    0  0.17763568394E-14  0.00000000000E+00  0.71054273576E-14  0.91188000000E+02  0.91188000000E+02 0.  0.
    9900012    2    3    3    0    0  0.13723922184E+02 -0.13982639051E+02  0.35627318997E+02  0.50528854733E+02  0.29999984445E+02 0.  0.
        -12    1    3    3    0    0 -0.13723922184E+02  0.13982639051E+02 -0.35627318997E+02  0.40659145267E+02  0.00000000000E+00 0.  1.
         11    1    4    4    0    0  0.45881372284E+01 -0.14723309286E+01  0.27007150758E+02  0.27433646384E+02  0.51100000000E-03 0. -1.
        -11    1    4    4    0    0  0.70559507532E+01 -0.13147103402E+02  0.76065381265E+00  0.14940259817E+02  0.51100000000E-03 0.  1.
        -12    1    4    4    0    0  0.20798342025E+01  0.63679528026E+00  0.78595144264E+01  0.81549485319E+01  0.00000000000E+00 0.  1.
</event>
<event>
 8    1  0.6016610E-012  0.9118800E+02  0.7816164E-02  0.1184000E+00
        -11   -1    0    0    0    0  0.00000000000E+00  0.00000000000E+00  0.45593999997E+02  0.45594000000E+02  0.51100000000E-03 0. -1.
         11   -1    0    0    0    0 -0.00000000000E+00 -0.00000000000E+00 -0.45593999997E+02  0.45594000000E+02  0.51100000000E-03 0.  1.
         23    2    1    2    0    0 -0.17763568394E-14  0.35527136788E-14  0.10658141036E-13  0.91188000000E+02  0.91188000000E+02 0.  0.
    9900012    2    3    3    0    0  0.11786558043E+02 -0.23387392623E+02 -0.31101019595E+02  0.50528849688E+02  0.29999969113E+02 0.  0.
         12    1    3    3    0    0 -0.11786558043E+02  0.23387392623E+02  0.31101019595E+02  0.40659150312E+02  0.00000000000E+00 0. -1.
         11    1    4    4    0    0  0.46297719729E+01  0.36960049837E+01  0.19649363949E+01  0.62414915411E+01  0.51100000000E-03 0. -1.
        -11    1    4    4    0    0 -0.17474201793E+01 -0.94309349735E+01 -0.12546687786E+02  0.15792890376E+02  0.51100000000E-03 0.  1.
         12    1    4    4    0    0  0.89042062493E+01 -0.17652462634E+02 -0.20519268203E+02  0.28494467771E+02  0.00000000000E+00 0. -1.
</event>
<event>
 8    1  0.6016610E-012  0.9118800E+02  0.7816164E-02  0.1184000E+00
        -11   -1    0    0    0    0  0.00000000000E+00  0.00000000000E+00  0.45593999997E+02  0.45594000000E+02  0.51100000000E-03 0.  1.
         11   -1    0    0    0    0 -0.00000000000E+00 -0.00000000000E+00 -0.45593999997E+02  0.45594000000E+02  0.51100000000E-03 0. -1.
         23    2    1    2    0    0 -0.44408920985E-15 -0.71054273576E-14 -0.35527136788E-14  0.91188000000E+02  0.91188000000E+02 0.  0.
    9900012    2    3    3    0    0 -0.23257700216E+01  0.36545657642E+02  0.17668499548E+02  0.50528804546E+02  0.29999831897E+02 0.  0.
        -12    1    3    3    0    0  0.23257700216E+01 -0.36545657642E+02 -0.17668499548E+02  0.40659195454E+02  0.00000000000E+00 0.  1.
         11    1    4    4    0    0 -0.52068821580E+01  0.79246273501E+01  0.19024580526E+01  0.96711264777E+01  0.51100000000E-03 0. -1.
        -11    1    4    4    0    0  0.13302558570E+02  0.16703103696E+02  0.57139139308E+01  0.22104310671E+02  0.51100000000E-03 0.  1.
        -12    1    4    4    0    0 -0.10421446434E+02  0.11917926596E+02  0.10052127565E+02  0.18753367397E+02  0.00000000000E+00 0.  1.
</event>
<event>
 8    1  0.6016610E-012  0.9118800E+02  0.7816164E-02  0.1184000E+00
        -11   -1    0    0    0    0  0.00000000000E+00  0.00000000000E+00  0.45593999997E+02  0.45594000000E+02  0.51100000000E-03 0. -1.
         11   -1    0    0    0    0 -0.00000000000E+00 -0.00000000000E+00 -0.45593999997E+02  0.45594000000E+02  0.51100000000E-03 0.  1.
         23    2    1    2    0    0  0.00000000000E+00  0.00000000000E+00  0.00000000000E+00  0.91188000000E+02  0.91188000000E+02 0.  0.
    9900012    2    3    3    0    0 -0.17865233736E+02 -0.27140713443E+02 -0.24441402998E+02  0.50528842567E+02  0.29999947468E+02 0.  0.
         12    1    3    3    0    0  0.17865233736E+02  0.27140713443E+02  0.24441402998E+02  0.40659157433E+02  0.00000000000E+00 0. -1.
         11    1    4    4    0    0  0.57184169821E+01 -0.71810718653E+01  0.17541721998E+00  0.91814409206E+01  0.51100000000E-03 0. -1.
        -11    1    4    4    0    0 -0.10431981275E+02 -0.16432190779E+02 -0.12596881290E+02  0.23184575597E+02  0.51100000000E-03 0.  1.
         12    1    4    4    0    0 -0.13151669443E+02 -0.35274507982E+01 -0.12019938928E+02  0.18162826050E+02  0.00000000000E+00 0. -1.
</event>
<event>
 8    1  0.6016610E-012  0.9118800E+02  0.7816164E-02  0.1184000E+00
        -11   -1    0    0    0    0  0.00000000000E+00  0.00000000000E+00  0.45593999997E+02  0.45594000000E+02  0.51100000000E-03 0. -1.
         11   -1    0    0    0    0 -0.00000000000E+00 -0.00000000000E+00 -0.45593999997E+02  0.45594000000E+02  0.51100000000E-03 0.  1.
         23    2    1    2    0    0 -0.17763568394E-14  0.00000000000E+00 -0.35527136788E-14  0.91188000000E+02  0.91188000000E+02 0.  0.
    9900012    2    3    3    0    0 -0.13706985585E+02  0.26613993227E+02  0.27513265918E+02  0.50528857230E+02  0.29999992037E+02 0.  0.
        -12    1    3    3    0    0  0.13706985585E+02 -0.26613993227E+02 -0.27513265918E+02  0.40659142770E+02  0.00000000000E+00 0.  1.
         11    1    4    4    0    0  0.72724519691E+01  0.12273672029E+02  0.21205751280E+01  0.14423190419E+02  0.51100000000E-03 0. -1.
        -11    1    4    4    0    0 -0.12582037052E+02  0.78980568082E+01  0.12421820061E+02  0.19364621649E+02  0.51100000000E-03 0.  1.
         12    1    4    4    0    0 -0.83974005019E+01  0.64422643895E+01  0.12970870729E+02  0.16741045163E+02  0.00000000000E+00 0. -1.
</event>
<event>
 8    1  0.6016610E-012  0.9118800E+02  0.7816164E-02  0.1184000E+00
        -11   -1    0    0    0    0  0.00000000000E+00  0.00000000000E+00  0.45593999997E+02  0.45594000000E+02  0.51100000000E-03 0. -1.
         11   -1    0    0    0    0 -0.00000000000E+00 -0.00000000000E+00 -0.45593999997E+02  0.45594000000E+02  0.51100000000E-03 0.  1.
         23    2    1    2    0    0  0.00000000000E+00  0.00000000000E+00 -0.71054273576E-14  0.91188000000E+02  0.91188000000E+02 0.  0.
    9900012    2    3    3    0    0 -0.22328725947E+01  0.41675262603E+00 -0.40595642677E+02  0.50528860718E+02  0.30000002639E+02 0.  0.
         12    1    3    3    0    0  0.22328725947E+01 -0.41675262603E+00  0.40595642677E+02  0.40659139282E+02  0.00000000000E+00 0. -1.
         11    1    4    4    0    0  0.11791785877E+01 -0.53422549739E+01 -0.16398333107E+01  0.57113224297E+01  0.51100000000E-03 0. -1.
        -11    1    4    4    0    0 -0.34726625415E+01  0.13590468862E+02 -0.21315587097E+02  0.25516945008E+02  0.51100000000E-03 0.  1.
        -12    1    4    4    0    0  0.60611359054E-01 -0.78314612624E+01 -0.17640222270E+02  0.19300593280E+02  0.00000000000E+00 0.  1.
</event>
<event>
 8    1  0.6016610E-012  0.9118800E+02  0.7816164E-02  0.1184000E+00
        -11   -1    0    0    0    0  0.00000000000E+00  0.00000000000E+00  0.45593999997E+02  0.45594000000E+02  0.51100000000E-03 0. -1.
         11   -1    0    0    0    0 -0.00000000000E+00 -0.00000000000E+00 -0.45593999997E+02  0.45594000000E+02  0.51100000000E-03 0.  1.
         23    2    1    2    0    0  0.17763568394E-14 -0.88817841970E-15  0.00000000000E+00  0.91188000000E+02  0.91188000000E+02 0.  0.
    9900012    2    3    3    0    0  0.12199872044E+02 -0.43108762357E+01 -0.38545375051E+02  0.50528850112E+02  0.29999970401E+02 0.  0.
         12    1    3    3    0    0 -0.12199872044E+02  0.43108762357E+01  0.38545375051E+02  0.40659149888E+02  0.00000000000E+00 0. -1.
         11    1    4    4    0    0  0.61821275070E-01  0.36833225520E+01  0.24960211584E+01  0.44498099708E+01  0.51100000000E-03 0. -1.
        -11    1    4    4    0    0  0.16343084810E+01 -0.10076349973E+02 -0.21330800835E+02  0.23647555000E+02  0.51100000000E-03 0.  1.
         12    1    4    4    0    0  0.10503742288E+02  0.20821511856E+01 -0.19710595375E+02  0.22431485141E+02  0.00000000000E+00 0. -1.
</event>
<event>
 8    1  0.6016610E-012  0.9118800E+02  0.7816164E-02  0.1184000E+00
        -11   -1    0    0    0    0  0.00000000000E+00  0.00000000000E+00  0.45593999997E+02  0.45594000000E+02  0.51100000000E-03 0. -1.
         11   -1    0    0    0    0 -0.00000000000E+00 -0.00000000000E+00 -0.45593999997E+02  0.45594000000E+02  0.51100000000E-03 0.  1.
         23    2    1    2    0    0 -0.17763568394E-14  0.00000000000E+00  0.00000000000E+00  0.91188000000E+02  0.91188000000E+02 0.  0.
    9900012    2    3    3    0    0 -0.14837355541E+02  0.85229559171E+01 -0.36883287548E+02  0.50528870677E+02  0.30000032908E+02 0.  0.
         12    1    3    3    0    0  0.14837355541E+02 -0.85229559171E+01  0.36883287548E+02  0.40659129323E+02  0.00000000000E+00 0. -1.
         11    1    4    4    0    0  0.56774681728E+01 -0.81370937876E+00 -0.34995469267E+01  0.67188240607E+01  0.51100000000E-03 0. -1.
        -11    1    4    4    0    0 -0.81139230564E+01  0.10947757645E+02 -0.25820437527E+02  0.29195618492E+02  0.51100000000E-03 0.  1.
        -12    1    4    4    0    0 -0.12400900658E+02 -0.16110923494E+01 -0.75633030943E+01  0.14614428123E+02  0.00000000000E+00 0.  1.
</event>
<event>
 8    1  0.6016610E-012  0.9118800E+02  0.7816164E-02  0.1184000E+00
        -11   -1    0    0    0    0  0.00000000000E+00  0.00000000000E+00  0.45593999997E+02  0.45594000000E+02  0.51100000000E-03 0. -1.
         11   -1    0    0    0    0 -0.00000000000E+00 -0.00000000000E+00 -0.45593999997E+02  0.45594000000E+02  0.51100000000E-03 0.  1.
         23    2    1    2    0    0  0.88817841970E-15 -0.88817841970E-15  0.00000000000E+00  0.91188000000E+02  0.91188000000E+02 0.  0.
    9900012    2    3    3    0    0  0.75942849464E+01  0.72035910950E+01 -0.39288729660E+02  0.50528816943E+02  0.29999869581E+02 0.  0.
         12    1    3    3    0    0 -0.75942849464E+01 -0.72035910950E+01  0.39288729660E+02  0.40659183057E+02  0.00000000000E+00 0. -1.
         11    1    4    4    0    0  0.59894551893E+01 -0.62788100211E+01 -0.71787750021E+01  0.11261964284E+02  0.51100000000E-03 0. -1.
        -11    1    4    4    0    0  0.93169078721E+01  0.96296679671E+01 -0.23687505542E+02  0.27214576912E+02  0.51100000000E-03 0.  1.
        -12    1    4    4    0    0 -0.77120781150E+01  0.38527331490E+01 -0.84224491164E+01  0.12052275747E+02  0.00000000000E+00 0.  1.
</event>
<event>
 8    1  0.6016610E-012  0.9118800E+02  0.7816164E-02  0.1184000E+00
        -11   -1    0    0    0    0  0.00000000000E+00  0.00000000000E+00  0.45593999997E+02  0.45594000000E+02  0.51100000000E-03 0.  1.
         11   -1    0    0    0    0 -0.00000000000E+00 -0.00000000000E+00 -0.45593999997E+02  0.45594000000E+02  0.51100000000E-03 0. -1.
         23    2    1    2    0    0  0.13322676296E-14  0.00000000000E+00  0.00000000000E+00  0.91188000000E+02  0.91188000000E+02 0.  0.
    9900012    2    3    3    0    0  0.29575054246E+01  0.33764537612E+02 -0.22458302914E+02  0.50528853326E+02  0.29999980170E+02 0.  0.
         12    1    3    3    0    0 -0.29575054246E+01 -0.33764537612E+02  0.22458302914E+02  0.40659146674E+02  0.00000000000E+00 0. -1.
         11    1    4    4    0    0  0.51781463152E+00 -0.34729691416E+01  0.80464354276E+00  0.36023739593E+01  0.51100000000E-03 0. -1.
        -11    1    4    4    0    0  0.94025093953E+01  0.24316208679E+02 -0.15263683957E+02  0.30210349810E+02  0.51100000000E-03 0.  1.
         12    1    4    4    0    0 -0.69628186022E+01  0.12921298075E+02 -0.79992624993E+01  0.16716129557E+02  0.00000000000E+00 0. -1.
</event>
<event>
 8    1  0.6016610E-012  0.9118800E+02  0.7816164E-02  0.1184000E+00
        -11   -1    0    0    0    0  0.00000000000E+00  0.00000000000E+00  0.45593999997E+02  0.45594000000E+02  0.51100000000E-03 0.  1.
         11   -1    0    0    0    0 -0.00000000000E+00 -0.00000000000E+00 -0.45593999997E+02  0.45594000000E+02  0.51100000000E-03 0. -1.
         23    2    1    2    0    0 -0.71054273576E-14  0.00000000000E+00  0.00000000000E+00  0.91188000000E+02  0.91188000000E+02 0.  0.
    9900012    2    3    3    0    0  0.39776127734E+02 -0.61380690711E+01 -0.57748974869E+01  0.50528859940E+02  0.30000000273E+02 0.  0.
         12    1    3    3    0    0 -0.39776127734E+02  0.61380690711E+01  0.57748974869E+01  0.40659140060E+02  0.00000000000E+00 0. -1.
         11    1    4    4    0    0  0.25386696776E+00 -0.63374474531E+01  0.31304405513E+01  0.70730012699E+01  0.51100000000E-03 0. -1.
        -11    1    4    4    0    0  0.36132772364E+02 -0.46647824919E+01 -0.62714428009E+01  0.36968478863E+02  0.51100000000E-03 0.  1.
        -12    1    4    4    0    0  0.33894884027E+01  0.48641608739E+01 -0.26338952373E+01  0.64873798070E+01  0.00000000000E+00 0.  1.
</event>
<event>
 8    1  0.6016610E-012  0.9118800E+02  0.7816164E-02  0.1184000E+00
        -11   -1    0    0    0    0  0.00000000000E+00  0.00000000000E+00  0.45593999997E+02  0.45594000000E+02  0.51100000000E-03 0. -1.
         11   -1    0    0    0    0 -0.00000000000E+00 -0.00000000000E+00 -0.45593999997E+02  0.45594000000E+02  0.51100000000E-03 0.  1.
         23    2    1    2    0    0  0.00000000000E+00  0.00000000000E+00  0.00000000000E+00  0.91188000000E+02  0.91188000000E+02 0.  0.
    9900012    2    3    3    0    0 -0.18649205069E+02 -0.29746134957E+02  0.20507077250E+02  0.50528860660E+02  0.30000002461E+02 0.  0.
        -12    1    3    3    0    0  0.18649205069E+02  0.29746134957E+02 -0.20507077250E+02  0.40659139340E+02  0.00000000000E+00 0.  1.
         11    1    4    4    0    0 -0.17910763119E+02 -0.15362793852E+02  0.17884896053E+02  0.29608788856E+02  0.51100000000E-03 0. -1.
        -11    1    4    4    0    0  0.41515540020E+00 -0.15368221728E+02 -0.25020105154E+01  0.15576092256E+02  0.51100000000E-03 0.  1.
        -12    1    4    4    0    0 -0.11535973498E+01  0.98488062390E+00  0.51241917131E+01  0.53439795473E+01  0.00000000000E+00 0.  1.
</event>
<event>
 8    1  0.6016610E-012  0.9118800E+02  0.7816164E-02  0.1184000E+00
        -11   -1    0    0    0    0  0.00000000000E+00  0.00000000000E+00  0.45593999997E+02  0.45594000000E+02  0.51100000000E-03 0.  1.
         11   -1    0    0    0    0 -0.00000000000E+00 -0.00000000000E+00 -0.45593999997E+02  0.45594000000E+02  0.51100000000E-03 0. -1.
         23    2    1    2    0    0 -0.71054273576E-14  0.00000000000E+00 -0.44408920985E-15  0.91188000000E+02  0.91188000000E+02 0.  0.
    9900012    2    3    3    0    0 -0.35411162689E+02  0.19809552896E+02 -0.26070418138E+01  0.50528862085E+02  0.30000006794E+02 0.  0.
        -12    1    3    3    0    0  0.35411162689E+02 -0.19809552896E+02  0.26070418138E+01  0.40659137915E+02  0.00000000000E+00 0.  1.
         11    1    4    4    0    0 -0.73117765587E+01  0.16927986154E+02  0.56011165167E+01  0.19271515202E+02  0.51100000000E-03 0. -1.
        -11    1    4    4    0    0 -0.10858093631E+02 -0.36947708254E+01 -0.12552736201E+01  0.11537991197E+02  0.51100000000E-03 0.  1.
        -12    1    4    4    0    0 -0.17241292500E+02  0.65763375674E+01 -0.69528847104E+01  0.19719355686E+02  0.00000000000E+00 0.  1.
</event>
<event>
 8    1  0.6016610E-012  0.9118800E+02  0.7816164E-02  0.1184000E+00
        -11   -1    0    0    0    0  0.00000000000E+00  0.00000000000E+00  0.45593999997E+02  0.45594000000E+02  0.51100000000E-03 0. -1.
         11   -1    0    0    0    0 -0.00000000000E+00 -0.00000000000E+00 -0.45593999997E+02  0.45594000000E+02  0.51100000000E-03 0.  1.
         23    2    1    2    0    0  0.00000000000E+00  0.71054273576E-14 -0.35527136788E-14  0.91188000000E+02  0.91188000000E+02 0.  0.
    9900012    2    3    3    0    0 -0.13911915428E+02  0.34825216944E+02 -0.15710829386E+02  0.50528840072E+02  0.29999939883E+02 0.  0.
         12    1    3    3    0    0  0.13911915428E+02 -0.34825216944E+02  0.15710829386E+02  0.40659159928E+02  0.00000000000E+00 0. -1.
         11    1    4    4    0    0  0.44434734159E+00  0.10668599112E+02 -0.10509726577E+02  0.14982349768E+02  0.51100000000E-03 0. -1.
        -11    1    4    4    0    0  0.29283000099E+00  0.10908948988E+02  0.63895480009E+01  0.12645838895E+02  0.51100000000E-03 0.  1.
        -12    1    4    4    0    0 -0.14649092770E+02  0.13247668843E+02 -0.11590650810E+02  0.22900651410E+02  0.00000000000E+00 0.  1.
</event>
<event>
 8    1  0.6016610E-012  0.9118800E+02  0.7816164E-02  0.1184000E+00
        -11   -1    0    0    0    0  0.00000000000E+00  0.00000000000E+00  0.45593999997E+02  0.45594000000E+02  0.51100000000E-03 0. -1.
         11   -1    0    0    0    0 -0.00000000000E+00 -0.00000000000E+00 -0.45593999997E+02  0.45594000000E+02  0.51100000000E-03 0.  1.
         23    2    1    2    0    0 -0.71054273576E-14  0.88817841970E-15  0.00000000000E+00  0.91188000000E+02  0.91188000000E+02 0.  0.
    9900012    2    3    3    0    0  0.38508040025E+02 -0.43757710708E+01  0.12294192266E+02  0.50528884386E+02  0.30000074579E+02 0.  0.
        -12    1    3    3    0    0 -0.38508040025E+02  0.43757710708E+01 -0.12294192266E+02  0.40659115614E+02  0.00000000000E+00 0.  1.
         11    1    4    4    0    0  0.11285440696E+02  0.93651295193E+01  0.52595149779E+00  0.14674585100E+02  0.51100000000E-03 0. -1.
        -11    1    4    4    0    0  0.15946961632E+02 -0.14647628744E+02  0.37176099895E+01  0.21969962162E+02  0.51100000000E-03 0.  1.
         12    1    4    4    0    0  0.11275637697E+02  0.90672815392E+00  0.80506307786E+01  0.13884337123E+02  0.00000000000E+00 0. -1.
</event>
<event>
 8    1  0.6016610E-012  0.9118800E+02  0.7816164E-02  0.1184000E+00
        -11   -1    0    0    0    0  0.00000000000E+00  0.00000000000E+00  0.45593999997E+02  0.45594000000E+02  0.51100000000E-03 0. -1.
         11   -1    0    0    0    0 -0.00000000000E+00 -0.00000000000E+00 -0.45593999997E+02  0.45594000000E+02  0.51100000000E-03 0.  1.
         23    2    1    2    0    0  0.00000000000E+00 -0.35527136788E-14  0.00000000000E+00  0.91188000000E+02  0.91188000000E+02 0.  0.
    9900012    2    3    3    0    0 -0.29401193909E+02  0.22680084968E+02  0.16563530709E+02  0.50528843504E+02  0.29999950315E+02 0.  0.
        -12    1    3    3    0    0  0.29401193909E+02 -0.22680084968E+02 -0.16563530709E+02  0.40659156496E+02  0.00000000000E+00 0.  1.
         11    1    4    4    0    0 -0.15512798781E+02 -0.33284790702E+01 -0.90953268769E+00  0.15891914577E+02  0.51100000000E-03 0. -1.
        -11    1    4    4    0    0 -0.51078922831E+01  0.13102653997E+02  0.10447550148E+02  0.17519172632E+02  0.51100000000E-03 0.  1.
         12    1    4    4    0    0 -0.87805028444E+01  0.12905910041E+02  0.70255132492E+01  0.17117756296E+02  0.00000000000E+00 0. -1.
</event>
<event>
 8    1  0.6016610E-012  0.9118800E+02  0.7816164E-02  0.1184000E+00
        -11   -1    0    0    0    0  0.00000000000E+00  0.00000000000E+00  0.45593999997E+02  0.45594000000E+02  0.51100000000E-03 0. -1.
         11   -1    0    0    0    0 -0.00000000000E+00 -0.00000000000E+00 -0.45593999997E+02  0.45594000000E+02  0.51100000000E-03 0.  1.
         23    2    1    2    0    0 -0.88817841970E-15  0.00000000000E+00  0.00000000000E+00  0.91188000000E+02  0.91188000000E+02 0.  0.
    9900012    2    3    3    0    0  0.43883362893E+01 -0.13942366770E+02 -0.37940979544E+02  0.50528867996E+02  0.30000024761E+02 0.  0.
         12    1    3    3    0    0 -0.43883362893E+01  0.13942366770E+02  0.37940979544E+02  0.40659132004E+02  0.00000000000E+00 0. -1.
         11    1    4    4    0    0 -0.14582523172E+01 -0.20846008634E+02 -0.15206775949E+02  0.25844314865E+02  0.51100000000E-03 0. -1.
        -11    1    4    4    0    0  0.20555694527E+01  0.39393139709E+01 -0.14295007592E+02  0.14969662744E+02  0.51100000000E-03 0.  1.
         12    1    4    4    0    0  0.37910191539E+01  0.29643278929E+01 -0.84391960023E+01  0.97148903878E+01  0.00000000000E+00 0. -1.
</event>
<event>
 8    1  0.6016610E-012  0.9118800E+02  0.7816164E-02  0.1184000E+00
        -11   -1    0    0    0    0  0.00000000000E+00  0.00000000000E+00  0.45593999997E+02  0.45594000000E+02  0.51100000000E-03 0. -1.
         11   -1    0    0    0    0 -0.00000000000E+00 -0.00000000000E+00 -0.45593999997E+02  0.45594000000E+02  0.51100000000E-03 0.  1.
         23    2    1    2    0    0  0.00000000000E+00  0.00000000000E+00  0.00000000000E+00  0.91188000000E+02  0.91188000000E+02 0.  0.
    9900012    2    3    3    0    0 -0.37313952800E+02 -0.10650817892E+02 -0.12140602913E+02  0.50528865302E+02  0.30000016571E+02 0.  0.
         12    1    3    3    0    0  0.37313952800E+02  0.10650817892E+02  0.12140602913E+02  0.40659134698E+02  0.00000000000E+00 0. -1.
         11    1    4    4    0    0 -0.10245181420E+02  0.43226742563E+01  0.67807773005E+01  0.13024138977E+02  0.51100000000E-03 0. -1.
        -11    1    4    4    0    0 -0.25163540623E+02 -0.13884604662E+02 -0.13694573873E+02  0.31835944734E+02  0.51100000000E-03 0.  1.
        -12    1    4    4    0    0 -0.19052307575E+01 -0.10888874860E+01 -0.52268063401E+01  0.56687815898E+01  0.00000000000E+00 0.  1.
</event>
<event>
 8    1  0.6016610E-012  0.9118800E+02  0.7816164E-02  0.1184000E+00
        -11   -1    0    0    0    0  0.00000000000E+00  0.00000000000E+00  0.45593999997E+02  0.45594000000E+02  0.51100000000E-03 0. -1.
         11   -1    0    0    0    0 -0.00000000000E+00 -0.00000000000E+00 -0.45593999997E+02  0.45594000000E+02  0.51100000000E-03 0.  1.
         23    2    1    2    0    0  0.17763568394E-14  0.00000000000E+00  0.71054273576E-14  0.91188000000E+02  0.91188000000E+02 0.  0.
    9900012    2    3    3    0    0  0.14273269747E+02  0.17749555382E+02  0.33680751335E+02  0.50528856428E+02  0.29999989599E+02 0.  0.
        -12    1    3    3    0    0 -0.14273269747E+02 -0.17749555382E+02 -0.33680751335E+02  0.40659143572E+02  0.00000000000E+00 0.  1.
         11    1    4    4    0    0  0.31488872233E+01  0.10444872690E+02  0.31964521244E+02  0.33774864543E+02  0.51100000000E-03 0. -1.
        -11    1    4    4    0    0  0.79765643688E+01 -0.71580098309E+00  0.14148701141E+01  0.81326384327E+01  0.51100000000E-03 0.  1.
        -12    1    4    4    0    0  0.31478181550E+01  0.80204836752E+01  0.30135997662E+00  0.86213534528E+01  0.00000000000E+00 0.  1.
</event>
<event>
 8    1  0.6016610E-012  0.9118800E+02  0.7816164E-02  0.1184000E+00
        -11   -1    0    0    0    0  0.00000000000E+00  0.00000000000E+00  0.45593999997E+02  0.45594000000E+02  0.51100000000E-03 0. -1.
         11   -1    0    0    0    0 -0.00000000000E+00 -0.00000000000E+00 -0.45593999997E+02  0.45594000000E+02  0.51100000000E-03 0.  1.
         23    2    1    2    0    0  0.88817841970E-15  0.00000000000E+00 -0.35527136788E-14  0.91188000000E+02  0.91188000000E+02 0.  0.
    9900012    2    3    3    0    0  0.74323138560E+01 -0.31594858398E+02 -0.24488603855E+02  0.50528854839E+02  0.29999984769E+02 0.  0.
         12    1    3    3    0    0 -0.74323138560E+01  0.31594858398E+02  0.24488603855E+02  0.40659145161E+02  0.00000000000E+00 0. -1.
         11    1    4    4    0    0 -0.11272602060E+01 -0.15141082288E+02  0.25304717945E+01  0.15392412943E+02  0.51100000000E-03 0. -1.
        -11    1    4    4    0    0  0.10527221871E+02 -0.15544017394E+02 -0.18541510056E+02  0.26386103776E+02  0.51100000000E-03 0.  1.
        -12    1    4    4    0    0 -0.19676478088E+01 -0.90975871551E+00 -0.84775655940E+01  0.87503381204E+01  0.00000000000E+00 0.  1.
</event>
<event>
 8    1  0.6016610E-012  0.9118800E+02  0.7816164E-02  0.1184000E+00
        -11   -1    0    0    0    0  0.00000000000E+00  0.00000000000E+00  0.45593999997E+02  0.45594000000E+02  0.51100000000E-03 0. -1.
         11   -1    0    0    0    0 -0.00000000000E+00 -0.00000000000E+00 -0.45593999997E+02  0.45594000000E+02  0.51100000000E-03 0.  1.
         23    2    1    2    0    0  0.00000000000E+00  0.00000000000E+00  0.00000000000E+00  0.91188000000E+02  0.91188000000E+02 0.  0.
    9900012    2    3    3    0    0 -0.30223294614E+02 -0.26513765318E+02  0.60612185674E+01  0.50528860078E+02  0.30000000693E+02 0.  0.
        -12    1    3    3    0    0  0.30223294614E+02  0.26513765318E+02 -0.60612185674E+01  0.40659139922E+02  0.00000000000E+00 0.  1.
         11    1    4    4    0    0 -0.32289868792E+02 -0.21817470138E+02 -0.22113221325E+01  0.39032391365E+02  0.51100000000E-03 0. -1.
        -11    1    4    4    0    0  0.87284379730E+00 -0.56879126272E+01  0.41594871346E+01  0.71003901184E+01  0.51100000000E-03 0.  1.
         12    1    4    4    0    0  0.11937303808E+01  0.99161744678E+00  0.41130535652E+01  0.43960785950E+01  0.00000000000E+00 0. -1.
</event>
<event>
 8    1  0.6016610E-012  0.9118800E+02  0.7816164E-02  0.1184000E+00
        -11   -1    0    0    0    0  0.00000000000E+00  0.00000000000E+00  0.45593999997E+02  0.45594000000E+02  0.51100000000E-03 0. -1.
         11   -1    0    0    0    0 -0.00000000000E+00 -0.00000000000E+00 -0.45593999997E+02  0.45594000000E+02  0.51100000000E-03 0.  1.
         23    2    1    2    0    0  0.00000000000E+00  0.00000000000E+00  0.35527136788E-14  0.91188000000E+02  0.91188000000E+02 0.  0.
    9900012    2    3    3    0    0 -0.27297086904E+02 -0.68334955345E+01  0.29348562072E+02  0.50528859449E+02  0.29999998782E+02 0.  0.
        -12    1    3    3    0    0  0.27297086904E+02  0.68334955345E+01 -0.29348562072E+02  0.40659140551E+02  0.00000000000E+00 0.  1.
         11    1    4    4    0    0 -0.98512795955E+01 -0.16251907931E+02  0.12389146943E+02  0.22686189264E+02  0.51100000000E-03 0. -1.
        -11    1    4    4    0    0 -0.81355629287E+01  0.34276245080E+01  0.13706560844E+02  0.16303551894E+02  0.51100000000E-03 0.  1.
         12    1    4    4    0    0 -0.93102443798E+01  0.59907878888E+01  0.32528542849E+01  0.11539118291E+02  0.00000000000E+00 0. -1.
</event>
<event>
 8    1  0.6016610E-012  0.9118800E+02  0.7816164E-02  0.1184000E+00
        -11   -1    0    0    0    0  0.00000000000E+00  0.00000000000E+00  0.45593999997E+02  0.45594000000E+02  0.51100000000E-03 0. -1.
         11   -1    0    0    0    0 -0.00000000000E+00 -0.00000000000E+00 -0.45593999997E+02  0.45594000000E+02  0.51100000000E-03 0.  1.
         23    2    1    2    0    0 -0.35527136788E-14 -0.35527136788E-14  0.00000000000E+00  0.91188000000E+02  0.91188000000E+02 0.  0.
    9900012    2    3    3    0    0  0.30446486559E+02  0.17943974348E+02 -0.20104457300E+02  0.50528880943E+02  0.30000064113E+02 0.  0.
         12    1    3    3    0    0 -0.30446486559E+02 -0.17943974348E+02  0.20104457300E+02  0.40659119057E+02  0.00000000000E+00 0. -1.
         11    1    4    4    0    0  0.13893792348E+02  0.77912917574E+01 -0.10357327486E+02  0.19000419100E+02  0.51100000000E-03 0. -1.
        -11    1    4    4    0    0  0.22952908501E+01 -0.68223282596E+01 -0.52488275483E+01  0.89085752991E+01  0.51100000000E-03 0.  1.
        -12    1    4    4    0    0  0.14257403361E+02  0.16975010851E+02 -0.44983022655E+01  0.22619886544E+02  0.00000000000E+00 0.  1.
</event>
<event>
 8    1  0.6016610E-012  0.9118800E+02  0.7816164E-02  0.1184000E+00
        -11   -1    0    0    0    0  0.00000000000E+00  0.00000000000E+00  0.45593999997E+02  0.45594000000E+02  0.51100000000E-03 0.  1.
         11   -1    0    0    0    0 -0.00000000000E+00 -0.00000000000E+00 -0.45593999997E+02  0.45594000000E+02  0.51100000000E-03 0. -1.
         23    2    1    2    0    0 -0.17763568394E-14  0.00000000000E+00  0.00000000000E+00  0.91188000000E+02  0.91188000000E+02 0.  0.
    9900012    2    3    3    0    0  0.15174644863E+02 -0.32064032567E+02 -0.19869412394E+02  0.50528861051E+02  0.30000003650E+02 0.  0.
         12    1    3    3    0    0 -0.15174644863E+02  0.32064032567E+02  0.19869412394E+02  0.40659138949E+02  0.00000000000E+00 0. -1.
         11    1    4    4    0    0 -0.28881603010E+00 -0.11030518909E+01  0.41105149740E+01  0.42657322684E+01  0.51100000000E-03 0. -1.
        -11    1    4    4    0    0  0.15797650067E+02 -0.20971050441E+02 -0.24951442846E+02  0.36220508067E+02  0.51100000000E-03 0.  1.
        -12    1    4    4    0    0 -0.33418917451E+00 -0.99899302355E+01  0.97151547789E+00  0.10042620716E+02  0.00000000000E+00 0.  1.
</event>
<event>
 8    1  0.6016610E-012  0.9118800E+02  0.7816164E-02  0.1184000E+00
        -11   -1    0    0    0    0  0.00000000000E+00  0.00000000000E+00  0.45593999997E+02  0.45594000000E+02  0.51100000000E-03 0. -1.
         11   -1    0    0    0    0 -0.00000000000E+00 -0.00000000000E+00 -0.45593999997E+02  0.45594000000E+02  0.51100000000E-03 0.  1.
         23    2    1    2    0    0  0.00000000000E+00  0.88817841970E-15  0.00000000000E+00  0.91188000000E+02  0.91188000000E+02 0.  0.
    9900012    2    3    3    0    0 -0.25554108387E+02  0.78767660010E+01 -0.30628573067E+02  0.50528863435E+02  0.30000010896E+02 0.  0.
         12    1    3    3    0    0  0.25554108387E+02 -0.78767660010E+01  0.30628573067E+02  0.40659136565E+02  0.00000000000E+00 0. -1.
         11    1    4    4    0    0 -0.97693372280E+01  0.10057493387E+02 -0.62034904564E+01  0.15332201969E+02  0.51100000000E-03 0. -1.
        -11    1    4    4    0    0 -0.98006695818E+01 -0.10943854584E+02 -0.15148582181E+02  0.21102147278E+02  0.51100000000E-03 0.  1.
        -12    1    4    4    0    0 -0.59841015773E+01  0.87631271974E+01 -0.92765004302E+01  0.14094514188E+02  0.00000000000E+00 0.  1.
</event>
<event>
 8    1  0.6016610E-012  0.9118800E+02  0.7816164E-02  0.1184000E+00
        -11   -1    0    0    0    0  0.00000000000E+00  0.00000000000E+00  0.45593999997E+02  0.45594000000E+02  0.51100000000E-03 0. -1.
         11   -1    0    0    0    0 -0.00000000000E+00 -0.00000000000E+00 -0.45593999997E+02  0.45594000000E+02  0.51100000000E-03 0.  1.
         23    2    1    2    0    0 -0.17763568394E-14  0.00000000000E+00  0.71054273576E-14  0.91188000000E+02  0.91188000000E+02 0.  0.
    9900012    2    3    3    0    0  0.79226939588E+01 -0.23012088601E+02  0.32570547317E+02  0.50528857684E+02  0.29999993416E+02 0.  0.
        -12    1    3    3    0    0 -0.79226939588E+01  0.23012088601E+02 -0.32570547317E+02  0.40659142316E+02  0.00000000000E+00 0.  1.
         11    1    4    4    0    0  0.14174748866E+02 -0.23411321435E+02  0.27179407530E+02  0.38571150757E+02  0.51100000000E-03 0. -1.
        -11    1    4    4    0    0 -0.78586010957E+01  0.34333575221E-01  0.63036004425E+01  0.10074431437E+02  0.51100000000E-03 0.  1.
         12    1    4    4    0    0  0.16065461885E+01  0.36489925904E+00 -0.91246065518E+00  0.18832754903E+01  0.00000000000E+00 0. -1.
</event>
<event>
 8    1  0.6016610E-012  0.9118800E+02  0.7816164E-02  0.1184000E+00
        -11   -1    0    0    0    0  0.00000000000E+00  0.00000000000E+00  0.45593999997E+02  0.45594000000E+02  0.51100000000E-03 0.  1.
         11   -1    0    0    0    0 -0.00000000000E+00 -0.00000000000E+00 -0.45593999997E+02  0.45594000000E+02  0.51100000000E-03 0. -1.
         23    2    1    2    0    0  0.00000000000E+00  0.00000000000E+00  0.00000000000E+00  0.91188000000E+02  0.91188000000E+02 0.  0.
    9900012    2    3    3    0    0 -0.17341694566E+02 -0.35073731050E+02 -0.11057343285E+02  0.50528858092E+02  0.29999994656E+02 0.  0.
         12    1    3    3    0    0  0.17341694566E+02  0.35073731050E+02  0.11057343285E+02  0.40659141908E+02  0.00000000000E+00 0. -1.
         11    1    4    4    0    0 -0.24134059296E+01  0.85764290889E+00  0.13063790027E+01  0.28751879765E+01  0.51100000000E-03 0. -1.
        -11    1    4    4    0    0 -0.14343286468E+02 -0.38709533743E+02 -0.14858653506E+02  0.43874109148E+02  0.51100000000E-03 0.  1.
        -12    1    4    4    0    0 -0.58500216879E+00  0.27781597838E+01  0.24949312182E+01  0.37795609673E+01  0.00000000000E+00 0.  1.
</event>
<event>
 8    1  0.6016610E-012  0.9118800E+02  0.7816164E-02  0.1184000E+00
        -11   -1    0    0    0    0  0.00000000000E+00  0.00000000000E+00  0.45593999997E+02  0.45594000000E+02  0.51100000000E-03 0. -1.
         11   -1    0    0    0    0 -0.00000000000E+00 -0.00000000000E+00 -0.45593999997E+02  0.45594000000E+02  0.51100000000E-03 0.  1.
         23    2    1    2    0    0 -0.17763568394E-14  0.35527136788E-14  0.00000000000E+00  0.91188000000E+02  0.91188000000E+02 0.  0.
    9900012    2    3    3    0    0  0.12087016619E+02 -0.28029743809E+02 -0.26858886267E+02  0.50528901630E+02  0.30000126995E+02 0.  0.
         12    1    3    3    0    0 -0.12087016619E+02  0.28029743809E+02  0.26858886267E+02  0.40659098370E+02  0.00000000000E+00 0. -1.
         11    1    4    4    0    0  0.12849606910E+02 -0.29020259088E+02 -0.12493325337E+02  0.34108225013E+02  0.51100000000E-03 0. -1.
        -11    1    4    4    0    0 -0.24461719524E+01  0.33917192556E+01 -0.45654574788E+01  0.61911968941E+01  0.51100000000E-03 0.  1.
        -12    1    4    4    0    0  0.16835816613E+01 -0.24012039763E+01 -0.98001034516E+01  0.10229479723E+02  0.00000000000E+00 0.  1.
</event>
<event>
 8    1  0.6016610E-012  0.9118800E+02  0.7816164E-02  0.1184000E+00
        -11   -1    0    0    0    0  0.00000000000E+00  0.00000000000E+00  0.45593999997E+02  0.45594000000E+02  0.51100000000E-03 0. -1.
         11   -1    0    0    0    0 -0.00000000000E+00 -0.00000000000E+00 -0.45593999997E+02  0.45594000000E+02  0.51100000000E-03 0.  1.
         23    2    1    2    0    0 -0.88817841970E-15  0.00000000000E+00 -0.71054273576E-14  0.91188000000E+02  0.91188000000E+02 0.  0.
    9900012    2    3    3    0    0  0.70921802467E+01  0.84102778185E+01  0.39142483764E+02  0.50528857991E+02  0.29999994350E+02 0.  0.
        -12    1    3    3    0    0 -0.70921802467E+01 -0.84102778185E+01 -0.39142483764E+02  0.40659142009E+02  0.00000000000E+00 0.  1.
         11    1    4    4    0    0 -0.19343253766E+01  0.15812700270E+02  0.22475865494E+02  0.27549004237E+02  0.51100000000E-03 0. -1.
        -11    1    4    4    0    0  0.27883141406E+01  0.53256256447E+00 -0.67210072219E+00  0.29171969892E+01  0.51100000000E-03 0.  1.
         12    1    4    4    0    0  0.62381914827E+01 -0.79349850156E+01  0.17338718993E+02  0.20062656765E+02  0.00000000000E+00 0. -1.
</event>
<event>
 8    1  0.6016610E-012  0.9118800E+02  0.7816164E-02  0.1184000E+00
        -11   -1    0    0    0    0  0.00000000000E+00  0.00000000000E+00  0.45593999997E+02  0.45594000000E+02  0.51100000000E-03 0. -1.
         11   -1    0    0    0    0 -0.00000000000E+00 -0.00000000000E+00 -0.45593999997E+02  0.45594000000E+02  0.51100000000E-03 0.  1.
         23    2    1    2    0    0  0.00000000000E+00 -0.35527136788E-14  0.00000000000E+00  0.91188000000E+02  0.91188000000E+02 0.  0.
    9900012    2    3    3    0    0  0.50074128564E+01  0.22927890663E+02 -0.33202450012E+02  0.50528867686E+02  0.30000023818E+02 0.  0.
         12    1    3    3    0    0 -0.50074128564E+01 -0.22927890663E+02  0.33202450012E+02  0.40659132314E+02  0.00000000000E+00 0. -1.
         11    1    4    4    0    0 -0.60417949501E+01  0.72937621721E+01 -0.27803452166E+01  0.98707939207E+01  0.51100000000E-03 0. -1.
        -11    1    4    4    0    0  0.63102840049E+01  0.63465746918E+01 -0.28734083036E+02  0.30095617998E+02  0.51100000000E-03 0.  1.
        -12    1    4    4    0    0  0.47389238016E+01  0.92875537989E+01 -0.16880217592E+01  0.10562455767E+02  0.00000000000E+00 0.  1.
</event>
<event>
 8    1  0.6016610E-012  0.9118800E+02  0.7816164E-02  0.1184000E+00
        -11   -1    0    0    0    0  0.00000000000E+00  0.00000000000E+00  0.45593999997E+02  0.45594000000E+02  0.51100000000E-03 0.  1.
         11   -1    0    0    0    0 -0.00000000000E+00 -0.00000000000E+00 -0.45593999997E+02  0.45594000000E+02  0.51100000000E-03 0. -1.
         23    2    1    2    0    0  0.00000000000E+00  0.00000000000E+00 -0.88817841970E-15  0.91188000000E+02  0.91188000000E+02 0.  0.
    9900012    2    3    3    0    0  0.97173842156E+01 -0.39328158019E+02 -0.34690264323E+01  0.50528859410E+02  0.29999998662E+02 0.  0.
        -12    1    3    3    0    0 -0.97173842156E+01  0.39328158019E+02  0.34690264323E+01  0.40659140590E+02  0.00000000000E+00 0.  1.
         11    1    4    4    0    0 -0.29602122421E+01 -0.20679386554E+02 -0.12007995957E+01  0.20924669763E+02  0.51100000000E-03 0. -1.
        -11    1    4    4    0    0  0.97096967689E+01 -0.11086328651E+02 -0.10456223240E+02  0.18069795212E+02  0.51100000000E-03 0.  1.
        -12    1    4    4    0    0  0.29678996888E+01 -0.75624428135E+01  0.81879964034E+01  0.11534394435E+02  0.00000000000E+00 0.  1.
</event>
<event>
 8    1  0.6016610E-012  0.9118800E+02  0.7816164E-02  0.1184000E+00
        -11   -1    0    0    0    0  0.00000000000E+00  0.00000000000E+00  0.45593999997E+02  0.45594000000E+02  0.51100000000E-03 0. -1.
         11   -1    0    0    0    0 -0.00000000000E+00 -0.00000000000E+00 -0.45593999997E+02  0.45594000000E+02  0.51100000000E-03 0.  1.
         23    2    1    2    0    0 -0.35527136788E-14  0.00000000000E+00 -0.53290705182E-14  0.91188000000E+02  0.91188000000E+02 0.  0.
    9900012    2    3    3    0    0  0.31516661874E+02 -0.23648922398E+02  0.10029628737E+02  0.50528868690E+02  0.30000026870E+02 0.  0.
        -12    1    3    3    0    0 -0.31516661874E+02  0.23648922398E+02 -0.10029628737E+02  0.40659131310E+02  0.00000000000E+00 0.  1.
         11    1    4    4    0    0 -0.19547633325E+01 -0.10191625972E+02 -0.41919526030E+01  0.11192086782E+02  0.51100000000E-03 0. -1.
        -11    1    4    4    0    0  0.91376572069E+01 -0.69950337608E+00  0.43219951812E+01  0.10132409724E+02  0.51100000000E-03 0.  1.
         12    1    4    4    0    0  0.24333768000E+02 -0.12757793049E+02  0.98995861590E+01  0.29204372185E+02  0.00000000000E+00 0. -1.
</event>
<event>
 8    1  0.6016610E-012  0.9118800E+02  0.7816164E-02  0.1184000E+00
        -11   -1    0    0    0    0  0.00000000000E+00  0.00000000000E+00  0.45593999997E+02  0.45594000000E+02  0.51100000000E-03 0. -1.
         11   -1    0    0    0    0 -0.00000000000E+00 -0.00000000000E+00 -0.45593999997E+02  0.45594000000E+02  0.51100000000E-03 0.  1.
         23    2    1    2    0    0  0.88817841970E-15  0.00000000000E+00  0.00000000000E+00  0.91188000000E+02  0.91188000000E+02 0.  0.
    9900012    2    3    3    0    0 -0.24717123410E+01  0.10365713761E+02  0.39237835711E+02  0.50528866525E+02  0.30000020290E+02 0.  0.
        -12    1    3    3    0    0  0.24717123410E+01 -0.10365713761E+02 -0.39237835711E+02  0.40659133475E+02  0.00000000000E+00 0.  1.
         11    1    4    4    0    0  0.11314537475E+02  0.81888521273E+01  0.97560301390E+01  0.17036906461E+02  0.51100000000E-03 0. -1.
        -11    1    4    4    0    0 -0.10669431216E+02  0.26659657275E+01  0.27844162806E+02  0.29937293438E+02  0.51100000000E-03 0.  1.
        -12    1    4    4    0    0 -0.31168186000E+01 -0.48910409404E+00  0.16376427651E+01  0.35546666266E+01  0.00000000000E+00 0.  1.
</event>
<event>
 8    1  0.6016610E-012  0.9118800E+02  0.7816164E-02  0.1184000E+00
        -11   -1    0    0    0    0  0.00000000000E+00  0.00000000000E+00  0.45593999997E+02  0.45594000000E+02  0.51100000000E-03 0. -1.
         11   -1    0    0    0    0 -0.00000000000E+00 -0.00000000000E+00 -0.45593999997E+02  0.45594000000E+02  0.51100000000E-03 0.  1.
         23    2    1    2    0    0  0.35527136788E-14 -0.35527136788E-14  0.35527136788E-14  0.91188000000E+02  0.91188000000E+02 0.  0.
    9900012    2    3    3    0    0 -0.17616711499E+02  0.19304093790E+02 -0.31147516269E+02  0.50528876413E+02  0.30000050345E+02 0.  0.
         12    1    3    3    0    0  0.17616711499E+02 -0.19304093790E+02  0.31147516269E+02  0.40659123587E+02  0.00000000000E+00 0. -1.
         11    1    4    4    0    0 -0.22338687014E+01 -0.14419384620E+01 -0.16199923797E+02  0.16416664923E+02  0.51100000000E-03 0. -1.
        -11    1    4    4    0    0 -0.16953401616E+02  0.14661835374E+02 -0.60439923240E+01  0.23214587793E+02  0.51100000000E-03 0.  1.
        -12    1    4    4    0    0  0.15705588187E+01  0.60841968777E+01 -0.89036001481E+01  0.10897623697E+02  0.00000000000E+00 0.  1.
</event>
<event>
 8    1  0.6016610E-012  0.9118800E+02  0.7816164E-02  0.1184000E+00
        -11   -1    0    0    0    0  0.00000000000E+00  0.00000000000E+00  0.45593999997E+02  0.45594000000E+02  0.51100000000E-03 0. -1.
         11   -1    0    0    0    0 -0.00000000000E+00 -0.00000000000E+00 -0.45593999997E+02  0.45594000000E+02  0.51100000000E-03 0.  1.
         23    2    1    2    0    0 -0.44408920985E-15  0.35527136788E-14  0.00000000000E+00  0.91188000000E+02  0.91188000000E+02 0.  0.
    9900012    2    3    3    0    0  0.25122975622E+01 -0.22500226366E+02 -0.33772659165E+02  0.50528876391E+02  0.30000050278E+02 0.  0.
         12    1    3    3    0    0 -0.25122975622E+01  0.22500226366E+02  0.33772659165E+02  0.40659123609E+02  0.00000000000E+00 0. -1.
         11    1    4    4    0    0  0.14999355816E+02 -0.10335984378E+02 -0.19760233840E+02  0.26875269108E+02  0.51100000000E-03 0.  1.
        -11    1    4    4    0    0 -0.86007777787E+01 -0.90759625190E+01 -0.13888840840E+02  0.18688134583E+02  0.51100000000E-03 0. -1.
         12    1    4    4    0    0 -0.38862804751E+01 -0.30882794697E+01 -0.12358448559E+00  0.49654727005E+01  0.00000000000E+00 0. -1.
</event>
<event>
 8    1  0.6016610E-012  0.9118800E+02  0.7816164E-02  0.1184000E+00
        -11   -1    0    0    0    0  0.00000000000E+00  0.00000000000E+00  0.45593999997E+02  0.45594000000E+02  0.51100000000E-03 0. -1.
         11   -1    0    0    0    0 -0.00000000000E+00 -0.00000000000E+00 -0.45593999997E+02  0.45594000000E+02  0.51100000000E-03 0.  1.
         23    2    1    2    0    0 -0.17763568394E-14  0.35527136788E-14  0.00000000000E+00  0.91188000000E+02  0.91188000000E+02 0.  0.
    9900012    2    3    3    0    0 -0.11805056183E+02  0.27406470017E+02 -0.27616874835E+02  0.50528859258E+02  0.29999998200E+02 0.  0.
         12    1    3    3    0    0  0.11805056183E+02 -0.27406470017E+02  0.27616874835E+02  0.40659140742E+02  0.00000000000E+00 0. -1.
         11    1    4    4    0    0  0.21454030115E+01  0.89148150720E+00  0.15326632765E+01  0.27832625352E+01  0.51100000000E-03 0. -1.
        -11    1    4    4    0    0 -0.18870653859E+02  0.24636885981E+02 -0.29003939495E+02  0.42477126014E+02  0.51100000000E-03 0.  1.
        -12    1    4    4    0    0  0.49201946649E+01  0.18781025293E+01 -0.14559861594E+00  0.52684707087E+01  0.00000000000E+00 0.  1.
</event>
<event>
 8    1  0.6016610E-012  0.9118800E+02  0.7816164E-02  0.1184000E+00
        -11   -1    0    0    0    0  0.00000000000E+00  0.00000000000E+00  0.45593999997E+02  0.45594000000E+02  0.51100000000E-03 0. -1.
         11   -1    0    0    0    0 -0.00000000000E+00 -0.00000000000E+00 -0.45593999997E+02  0.45594000000E+02  0.51100000000E-03 0.  1.
         23    2    1    2    0    0 -0.35527136788E-14  0.17763568394E-14  0.00000000000E+00  0.91188000000E+02  0.91188000000E+02 0.  0.
    9900012    2    3    3    0    0  0.17226066329E+02 -0.86247397018E+01 -0.35805615422E+02  0.50528860907E+02  0.30000003212E+02 0.  0.
         12    1    3    3    0    0 -0.17226066329E+02  0.86247397018E+01  0.35805615422E+02  0.40659139093E+02  0.00000000000E+00 0. -1.
         11    1    4    4    0    0  0.11098241119E+02  0.50634701990E+01 -0.45312439664E+01  0.13013141763E+02  0.51100000000E-03 0. -1.
        -11    1    4    4    0    0  0.11090362706E+01 -0.13409268984E+02 -0.13562658096E+02  0.19104558383E+02  0.51100000000E-03 0.  1.
         12    1    4    4    0    0  0.50187889391E+01 -0.27894091702E+00 -0.17711713360E+02  0.18411160761E+02  0.00000000000E+00 0. -1.
</event>
<event>
 8    1  0.6016610E-012  0.9118800E+02  0.7816164E-02  0.1184000E+00
        -11   -1    0    0    0    0  0.00000000000E+00  0.00000000000E+00  0.45593999997E+02  0.45594000000E+02  0.51100000000E-03 0. -1.
         11   -1    0    0    0    0 -0.00000000000E+00 -0.00000000000E+00 -0.45593999997E+02  0.45594000000E+02  0.51100000000E-03 0.  1.
         23    2    1    2    0    0 -0.88817841970E-15  0.00000000000E+00  0.00000000000E+00  0.91188000000E+02  0.91188000000E+02 0.  0.
    9900012    2    3    3    0    0  0.74469078047E+01 -0.23416043965E+02  0.32394406847E+02  0.50528866391E+02  0.30000019883E+02 0.  0.
        -12    1    3    3    0    0 -0.74469078047E+01  0.23416043965E+02 -0.32394406847E+02  0.40659133609E+02  0.00000000000E+00 0.  1.
         11    1    4    4    0    0  0.48858772023E+01 -0.19953258932E+02  0.75411136622E+01  0.21883160960E+02  0.51100000000E-03 0.  1.
        -11    1    4    4    0    0  0.80360098950E+01 -0.12075273163E+01  0.16665709752E+02  0.18541344586E+02  0.51100000000E-03 0. -1.
        -12    1    4    4    0    0 -0.54749792927E+01 -0.22552577164E+01  0.81875834334E+01  0.10104360846E+02  0.00000000000E+00 0.  1.
</event>
<event>
 8    1  0.6016610E-012  0.9118800E+02  0.7816164E-02  0.1184000E+00
        -11   -1    0    0    0    0  0.00000000000E+00  0.00000000000E+00  0.45593999997E+02  0.45594000000E+02  0.51100000000E-03 0. -1.
         11   -1    0    0    0    0 -0.00000000000E+00 -0.00000000000E+00 -0.45593999997E+02  0.45594000000E+02  0.51100000000E-03 0.  1.
         23    2    1    2    0    0  0.17763568394E-14  0.00000000000E+00  0.00000000000E+00  0.91188000000E+02  0.91188000000E+02 0.  0.
    9900012    2    3    3    0    0  0.14942166054E+02 -0.12183379204E+02  0.35797530358E+02  0.50528852998E+02  0.29999979172E+02 0.  0.
        -12    1    3    3    0    0 -0.14942166054E+02  0.12183379204E+02 -0.35797530358E+02  0.40659147002E+02  0.00000000000E+00 0.  1.
         11    1    4    4    0    0  0.67513039228E+00 -0.27316544583E+00  0.80006023572E-01  0.73268112594E+00  0.51100000000E-03 0. -1.
        -11    1    4    4    0    0 -0.87489682587E+01 -0.48838242893E-01  0.78223846327E+01  0.11736120840E+02  0.51100000000E-03 0.  1.
        -12    1    4    4    0    0  0.23016003921E+02 -0.11861375515E+02  0.27895139702E+02  0.38060051032E+02  0.00000000000E+00 0.  1.
</event>
<event>
 8    1  0.6016610E-012  0.9118800E+02  0.7816164E-02  0.1184000E+00
        -11   -1    0    0    0    0  0.00000000000E+00  0.00000000000E+00  0.45593999997E+02  0.45594000000E+02  0.51100000000E-03 0. -1.
         11   -1    0    0    0    0 -0.00000000000E+00 -0.00000000000E+00 -0.45593999997E+02  0.45594000000E+02  0.51100000000E-03 0.  1.
         23    2    1    2    0    0  0.17763568394E-14  0.17763568394E-14  0.00000000000E+00  0.91188000000E+02  0.91188000000E+02 0.  0.
    9900012    2    3    3    0    0  0.10136571446E+02 -0.14449128179E+02  0.36628377189E+02  0.50528863249E+02  0.30000010333E+02 0.  0.
        -12    1    3    3    0    0 -0.10136571446E+02  0.14449128179E+02 -0.36628377189E+02  0.40659136751E+02  0.00000000000E+00 0.  1.
         11    1    4    4    0    0  0.18649914579E+01 -0.48178854689E+00  0.30613302488E+02  0.30673842323E+02  0.51100000000E-03 0. -1.
        -11    1    4    4    0    0  0.10103798938E+02 -0.87177622304E+01  0.38609929953E+01  0.13892206392E+02  0.51100000000E-03 0.  1.
         12    1    4    4    0    0 -0.18322189494E+01 -0.52495774022E+01  0.21540817052E+01  0.59628145345E+01  0.00000000000E+00 0. -1.
</event>
<event>
 8    1  0.6016610E-012  0.9118800E+02  0.7816164E-02  0.1184000E+00
        -11   -1    0    0    0    0  0.00000000000E+00  0.00000000000E+00  0.45593999997E+02  0.45594000000E+02  0.51100000000E-03 0. -1.
         11   -1    0    0    0    0 -0.00000000000E+00 -0.00000000000E+00 -0.45593999997E+02  0.45594000000E+02  0.51100000000E-03 0.  1.
         23    2    1    2    0    0 -0.71054273576E-14 -0.17763568394E-14  0.00000000000E+00  0.91188000000E+02  0.91188000000E+02 0.  0.
    9900012    2    3    3    0    0 -0.32250185165E+02  0.10337663693E+02  0.22499411076E+02  0.50528865324E+02  0.30000016638E+02 0.  0.
        -12    1    3    3    0    0  0.32250185165E+02 -0.10337663693E+02 -0.22499411076E+02  0.40659134676E+02  0.00000000000E+00 0.  1.
         11    1    4    4    0    0 -0.20028600355E+02 -0.16142613492E+00  0.24205575224E+02  0.31417841472E+02  0.51100000000E-03 0. -1.
        -11    1    4    4    0    0 -0.12096057724E+02  0.12182641584E+02 -0.23005972260E+01  0.17321204239E+02  0.51100000000E-03 0.  1.
        -12    1    4    4    0    0 -0.12552708643E+00 -0.16835517554E+01  0.59443307841E+00  0.17898196131E+01  0.00000000000E+00 0.  1.
</event>
<event>
 8    1  0.6016610E-012  0.9118800E+02  0.7816164E-02  0.1184000E+00
        -11   -1    0    0    0    0  0.00000000000E+00  0.00000000000E+00  0.45593999997E+02  0.45594000000E+02  0.51100000000E-03 0.  1.
         11   -1    0    0    0    0 -0.00000000000E+00 -0.00000000000E+00 -0.45593999997E+02  0.45594000000E+02  0.51100000000E-03 0. -1.
         23    2    1    2    0    0  0.17763568394E-14  0.00000000000E+00  0.17763568394E-14  0.91188000000E+02  0.91188000000E+02 0.  0.
    9900012    2    3    3    0    0 -0.43626770481E+01  0.38354660455E+02  0.12769318531E+02  0.50528826061E+02  0.29999897296E+02 0.  0.
        -12    1    3    3    0    0  0.43626770481E+01 -0.38354660455E+02 -0.12769318531E+02  0.40659173939E+02  0.00000000000E+00 0.  1.
         11    1    4    4    0    0  0.59613453655E+01  0.28865231863E+02  0.15466161643E+01  0.29514933015E+02  0.51100000000E-03 0. -1.
        -11    1    4    4    0    0 -0.11452789116E+02  0.73066913780E+01  0.12304418196E+02  0.18329015926E+02  0.51100000000E-03 0.  1.
        -12    1    4    4    0    0  0.11287667024E+01  0.21827372138E+01 -0.10817158293E+01  0.26848771198E+01  0.00000000000E+00 0.  1.
</event>
<event>
 8    1  0.6016610E-012  0.9118800E+02  0.7816164E-02  0.1184000E+00
        -11   -1    0    0    0    0  0.00000000000E+00  0.00000000000E+00  0.45593999997E+02  0.45594000000E+02  0.51100000000E-03 0. -1.
         11   -1    0    0    0    0 -0.00000000000E+00 -0.00000000000E+00 -0.45593999997E+02  0.45594000000E+02  0.51100000000E-03 0.  1.
         23    2    1    2    0    0  0.00000000000E+00  0.00000000000E+00  0.71054273576E-14  0.91188000000E+02  0.91188000000E+02 0.  0.
    9900012    2    3    3    0    0  0.57918465544E+00 -0.12756674421E+02 -0.38601780016E+02  0.50528860591E+02  0.30000002251E+02 0.  0.
         12    1    3    3    0    0 -0.57918465544E+00  0.12756674421E+02  0.38601780016E+02  0.40659139409E+02  0.00000000000E+00 0. -1.
         11    1    4    4    0    0  0.55630439354E+01 -0.48302540207E+01  0.32653051757E+00  0.73746480710E+01  0.51100000000E-03 0. -1.
        -11    1    4    4    0    0  0.16936145635E+01 -0.56906563674E+01 -0.34107236350E+02  0.34620159906E+02  0.51100000000E-03 0.  1.
        -12    1    4    4    0    0 -0.66774738435E+01 -0.22357640326E+01 -0.48210741829E+01  0.85340526139E+01  0.00000000000E+00 0.  1.
</event>
<event>
 8    1  0.6016610E-012  0.9118800E+02  0.7816164E-02  0.1184000E+00
        -11   -1    0    0    0    0  0.00000000000E+00  0.00000000000E+00  0.45593999997E+02  0.45594000000E+02  0.51100000000E-03 0.  1.
         11   -1    0    0    0    0 -0.00000000000E+00 -0.00000000000E+00 -0.45593999997E+02  0.45594000000E+02  0.51100000000E-03 0. -1.
         23    2    1    2    0    0  0.00000000000E+00  0.00000000000E+00  0.17763568394E-14  0.91188000000E+02  0.91188000000E+02 0.  0.
    9900012    2    3    3    0    0  0.21654723839E+02 -0.34000401639E+02 -0.53114967430E+01  0.50528851290E+02  0.29999973981E+02 0.  0.
        -12    1    3    3    0    0 -0.21654723839E+02  0.34000401639E+02  0.53114967430E+01  0.40659148710E+02  0.00000000000E+00 0.  1.
         11    1    4    4    0    0  0.65945060392E+01 -0.15359701006E+02  0.72670528945E+01  0.18226847860E+02  0.51100000000E-03 0. -1.
        -11    1    4    4    0    0  0.13176405973E+02 -0.20324720386E+02 -0.15251507663E+02  0.28623773675E+02  0.51100000000E-03 0.  1.
        -12    1    4    4    0    0  0.18838118270E+01  0.16840197527E+01  0.26729580253E+01  0.36782297552E+01  0.00000000000E+00 0.  1.
</event>
<event>
 8    1  0.6016610E-012  0.9118800E+02  0.7816164E-02  0.1184000E+00
        -11   -1    0    0    0    0  0.00000000000E+00  0.00000000000E+00  0.45593999997E+02  0.45594000000E+02  0.51100000000E-03 0. -1.
         11   -1    0    0    0    0 -0.00000000000E+00 -0.00000000000E+00 -0.45593999997E+02  0.45594000000E+02  0.51100000000E-03 0.  1.
         23    2    1    2    0    0 -0.35527136788E-14  0.35527136788E-14  0.35527136788E-14  0.91188000000E+02  0.91188000000E+02 0.  0.
    9900012    2    3    3    0    0 -0.17746214541E+02  0.23023875955E+02 -0.28427780839E+02  0.50528859355E+02  0.29999998497E+02 0.  0.
         12    1    3    3    0    0  0.17746214541E+02 -0.23023875955E+02  0.28427780839E+02  0.40659140645E+02  0.00000000000E+00 0. -1.
         11    1    4    4    0    0  0.23350362281E+01 -0.56521466226E+00  0.31870537585E+01  0.39911368959E+01  0.51100000000E-03 0. -1.
        -11    1    4    4    0    0 -0.12114368263E+02  0.21532382155E+02 -0.17772503395E+02  0.30434573709E+02  0.51100000000E-03 0.  1.
         12    1    4    4    0    0 -0.79668825066E+01  0.20567084629E+01 -0.13842331203E+02  0.16103148751E+02  0.00000000000E+00 0. -1.
</event>
<event>
 8    1 -0.6016610E-012  0.9118800E+02  0.7816164E-02  0.1184000E+00
        -11   -1    0    0    0    0  0.00000000000E+00  0.00000000000E+00  0.45593999997E+02  0.45594000000E+02  0.51100000000E-03 0.  1.
         11   -1    0    0    0    0 -0.00000000000E+00 -0.00000000000E+00 -0.45593999997E+02  0.45594000000E+02  0.51100000000E-03 0. -1.
         23    2    1    2    0    0  0.00000000000E+00  0.44408920985E-15  0.35527136788E-14  0.91188000000E+02  0.91188000000E+02 0.  0.
    9900012    2    3    3    0    0  0.28978253478E+02  0.31068551104E+01 -0.28350913200E+02  0.50528855855E+02  0.29999987857E+02 0.  0.
         12    1    3    3    0    0 -0.28978253478E+02 -0.31068551104E+01  0.28350913200E+02  0.40659144145E+02  0.00000000000E+00 0. -1.
         11    1    4    4    0    0  0.23006543407E+02  0.10599071720E+02 -0.27555310914E+02  0.37429086560E+02  0.51100000000E-03 0. -1.
        -11    1    4    4    0    0  0.55005315476E+01  0.51658445871E-01 -0.65752673799E+00  0.55399329935E+01  0.51100000000E-03 0.  1.
         12    1    4    4    0    0  0.47117852357E+00 -0.75438750554E+01 -0.13807554804E+00  0.75598363017E+01  0.00000000000E+00 0. -1.
</event>
<event>
 8    1  0.6016610E-012  0.9118800E+02  0.7816164E-02  0.1184000E+00
        -11   -1    0    0    0    0  0.00000000000E+00  0.00000000000E+00  0.45593999997E+02  0.45594000000E+02  0.51100000000E-03 0. -1.
         11   -1    0    0    0    0 -0.00000000000E+00 -0.00000000000E+00 -0.45593999997E+02  0.45594000000E+02  0.51100000000E-03 0.  1.
         23    2    1    2    0    0  0.00000000000E+00 -0.88817841970E-15  0.00000000000E+00  0.91188000000E+02  0.91188000000E+02 0.  0.
    9900012    2    3    3    0    0 -0.88250739541E+01  0.69418970798E+01  0.39078041201E+02  0.50528866101E+02  0.30000018999E+02 0.  0.
        -12    1    3    3    0    0  0.88250739541E+01 -0.69418970798E+01 -0.39078041201E+02  0.40659133899E+02  0.00000000000E+00 0.  1.
         11    1    4    4    0    0  0.49406677983E+01  0.72345466559E+00  0.50980073228E+01  0.71360538024E+01  0.51100000000E-03 0. -1.
        -11    1    4    4    0    0 -0.13194733769E+02  0.54462097675E+01  0.37299269581E+02  0.39937422446E+02  0.51100000000E-03 0.  1.
        -12    1    4    4    0    0 -0.57100798334E+00  0.77223264672E+00 -0.33192357032E+01  0.34553898523E+01  0.00000000000E+00 0.  1.
</event>
<event>
 8    1  0.6016610E-012  0.9118800E+02  0.7816164E-02  0.1184000E+00
        -11   -1    0    0    0    0  0.00000000000E+00  0.00000000000E+00  0.45593999997E+02  0.45594000000E+02  0.51100000000E-03 0. -1.
         11   -1    0    0    0    0 -0.00000000000E+00 -0.00000000000E+00 -0.45593999997E+02  0.45594000000E+02  0.51100000000E-03 0.  1.
         23    2    1    2    0    0  0.88817841970E-15  0.00000000000E+00  0.00000000000E+00  0.91188000000E+02  0.91188000000E+02 0.  0.
    9900012    2    3    3    0    0 -0.65621135965E+01 -0.38062370728E+02  0.12702766992E+02  0.50528859705E+02  0.29999999559E+02 0.  0.
        -12    1    3    3    0    0  0.65621135965E+01  0.38062370728E+02 -0.12702766992E+02  0.40659140295E+02  0.00000000000E+00 0.  1.
         11    1    4    4    0    0  0.61924649784E+01 -0.24463755340E+02  0.55104988478E+01  0.25829973783E+02  0.51100000000E-03 0. -1.
        -11    1    4    4    0    0 -0.49413648568E+01  0.26368854242E+01  0.14033160965E+01  0.57740408482E+01  0.51100000000E-03 0.  1.
         12    1    4    4    0    0 -0.78132137180E+01 -0.16235500813E+02  0.57889520477E+01  0.18924845073E+02  0.00000000000E+00 0. -1.
</event>
<event>
 8    1  0.6016610E-012  0.9118800E+02  0.7816164E-02  0.1184000E+00
        -11   -1    0    0    0    0  0.00000000000E+00  0.00000000000E+00  0.45593999997E+02  0.45594000000E+02  0.51100000000E-03 0. -1.
         11   -1    0    0    0    0 -0.00000000000E+00 -0.00000000000E+00 -0.45593999997E+02  0.45594000000E+02  0.51100000000E-03 0.  1.
         23    2    1    2    0    0  0.00000000000E+00  0.00000000000E+00  0.00000000000E+00  0.91188000000E+02  0.91188000000E+02 0.  0.
    9900012    2    3    3    0    0  0.11626166663E+02 -0.24026581059E+02 -0.30671176581E+02  0.50528863000E+02  0.30000009576E+02 0.  0.
         12    1    3    3    0    0 -0.11626166663E+02  0.24026581059E+02  0.30671176581E+02  0.40659137000E+02  0.00000000000E+00 0. -1.
         11    1    4    4    0    0  0.23737659478E+01  0.25350539036E+01 -0.24030514284E+00  0.34812368337E+01  0.51100000000E-03 0. -1.
        -11    1    4    4    0    0  0.65683451873E+01 -0.15581158690E+02 -0.31440331154E+02  0.35698880766E+02  0.51100000000E-03 0.  1.
        -12    1    4    4    0    0  0.26840555281E+01 -0.10980476273E+02  0.10094597151E+01  0.11348745401E+02  0.00000000000E+00 0.  1.
</event>
<event>
 8    1  0.6016610E-012  0.9118800E+02  0.7816164E-02  0.1184000E+00
        -11   -1    0    0    0    0  0.00000000000E+00  0.00000000000E+00  0.45593999997E+02  0.45594000000E+02  0.51100000000E-03 0. -1.
         11   -1    0    0    0    0 -0.00000000000E+00 -0.00000000000E+00 -0.45593999997E+02  0.45594000000E+02  0.51100000000E-03 0.  1.
         23    2    1    2    0    0  0.00000000000E+00  0.71054273576E-14 -0.35527136788E-14  0.91188000000E+02  0.91188000000E+02 0.  0.
    9900012    2    3    3    0    0  0.82249967495E+01  0.34610014727E+02 -0.19689116318E+02  0.50528868278E+02  0.30000025619E+02 0.  0.
         12    1    3    3    0    0 -0.82249967495E+01 -0.34610014727E+02  0.19689116318E+02  0.40659131722E+02  0.00000000000E+00 0. -1.
         11    1    4    4    0    0 -0.32056290144E+01 -0.32512438577E+01 -0.15580343031E+01  0.48243253570E+01  0.51100000000E-03 0. -1.
        -11    1    4    4    0    0  0.44642156955E+01  0.12368247044E+02 -0.13552489170E+02  0.18883133206E+02  0.51100000000E-03 0.  1.
         12    1    4    4    0    0  0.69664100684E+01  0.25493011541E+02 -0.45785928452E+01  0.26821409715E+02  0.00000000000E+00 0. -1.
</event>
<event>
 8    1  0.6016610E-012  0.9118800E+02  0.7816164E-02  0.1184000E+00
        -11   -1    0    0    0    0  0.00000000000E+00  0.00000000000E+00  0.45593999997E+02  0.45594000000E+02  0.51100000000E-03 0. -1.
         11   -1    0    0    0    0 -0.00000000000E+00 -0.00000000000E+00 -0.45593999997E+02  0.45594000000E+02  0.51100000000E-03 0.  1.
         23    2    1    2    0    0  0.00000000000E+00  0.88817841970E-15  0.00000000000E+00  0.91188000000E+02  0.91188000000E+02 0.  0.
    9900012    2    3    3    0    0 -0.14747930755E+02 -0.63128975843E+01 -0.37360562432E+02  0.50528858805E+02  0.29999996824E+02 0.  0.
         12    1    3    3    0    0  0.14747930755E+02  0.63128975843E+01  0.37360562432E+02  0.40659141195E+02  0.00000000000E+00 0. -1.
         11    1    4    4    0    0  0.27461604606E+01 -0.70755887035E+01 -0.88218760358E+01  0.11637476094E+02  0.51100000000E-03 0. -1.
        -11    1    4    4    0    0 -0.21341297622E+02 -0.19548616037E+01 -0.21015957831E+02  0.30015711750E+02  0.51100000000E-03 0.  1.
        -12    1    4    4    0    0  0.38472064065E+01  0.27175527230E+01 -0.75227285658E+01  0.88756709612E+01  0.00000000000E+00 0.  1.
</event>
<event>
 8    1  0.6016610E-012  0.9118800E+02  0.7816164E-02  0.1184000E+00
        -11   -1    0    0    0    0  0.00000000000E+00  0.00000000000E+00  0.45593999997E+02  0.45594000000E+02  0.51100000000E-03 0. -1.
         11   -1    0    0    0    0 -0.00000000000E+00 -0.00000000000E+00 -0.45593999997E+02  0.45594000000E+02  0.51100000000E-03 0.  1.
         23    2    1    2    0    0  0.17763568394E-14  0.35527136788E-14 -0.35527136788E-14  0.91188000000E+02  0.91188000000E+02 0.  0.
    9900012    2    3    3    0    0  0.10844552552E+02  0.24182581934E+02 -0.30834463315E+02  0.50528859367E+02  0.29999998533E+02 0.  0.
         12    1    3    3    0    0 -0.10844552552E+02 -0.24182581934E+02  0.30834463315E+02  0.40659140633E+02  0.00000000000E+00 0. -1.
         11    1    4    4    0    0 -0.72366021828E+01  0.15212804383E+02 -0.82009029987E+01  0.18736398763E+02  0.51100000000E-03 0. -1.
        -11    1    4    4    0    0  0.14270660106E+02  0.20364134714E+01 -0.14591404744E+02  0.20511163115E+02  0.51100000000E-03 0.  1.
         12    1    4    4    0    0  0.38104946293E+01  0.69333640800E+01 -0.80421555723E+01  0.11281297489E+02  0.00000000000E+00 0. -1.
</event>
<event>
 8    1  0.6016610E-012  0.9118800E+02  0.7816164E-02  0.1184000E+00
        -11   -1    0    0    0    0  0.00000000000E+00  0.00000000000E+00  0.45593999997E+02  0.45594000000E+02  0.51100000000E-03 0. -1.
         11   -1    0    0    0    0 -0.00000000000E+00 -0.00000000000E+00 -0.45593999997E+02  0.45594000000E+02  0.51100000000E-03 0.  1.
         23    2    1    2    0    0  0.35527136788E-14  0.00000000000E+00  0.35527136788E-14  0.91188000000E+02  0.91188000000E+02 0.  0.
    9900012    2    3    3    0    0  0.21396738174E+02 -0.28450597562E+02  0.19644553996E+02  0.50528863169E+02  0.30000010088E+02 0.  0.
        -12    1    3    3    0    0 -0.21396738174E+02  0.28450597562E+02 -0.19644553996E+02  0.40659136831E+02  0.00000000000E+00 0.  1.
         11    1    4    4    0    0  0.12170890016E+02 -0.93726530153E+01  0.20952872159E+02  0.25980762889E+02  0.51100000000E-03 0. -1.
        -11    1    4    4    0    0 -0.99333060855E+00 -0.54377827202E+01 -0.45977194977E+01  0.71899382091E+01  0.51100000000E-03 0.  1.
         12    1    4    4    0    0  0.10219178767E+02 -0.13640161827E+02  0.32894013347E+01  0.17358162071E+02  0.00000000000E+00 0. -1.
</event>
<event>
 8    1  0.6016610E-012  0.9118800E+02  0.7816164E-02  0.1184000E+00
        -11   -1    0    0    0    0  0.00000000000E+00  0.00000000000E+00  0.45593999997E+02  0.45594000000E+02  0.51100000000E-03 0.  1.
         11   -1    0    0    0    0 -0.00000000000E+00 -0.00000000000E+00 -0.45593999997E+02  0.45594000000E+02  0.51100000000E-03 0. -1.
         23    2    1    2    0    0  0.35527136788E-14 -0.71054273576E-14  0.17763568394E-14  0.91188000000E+02  0.91188000000E+02 0.  0.
    9900012    2    3    3    0    0  0.20560679400E+02 -0.33535268474E+02  0.10286398025E+02  0.50528858921E+02  0.29999997175E+02 0.  0.
        -12    1    3    3    0    0 -0.20560679400E+02  0.33535268474E+02 -0.10286398025E+02  0.40659141079E+02  0.00000000000E+00 0.  1.
         11    1    4    4    0    0 -0.45934829908E+00 -0.49646103130E+00 -0.87658072965E+00  0.11071894383E+01  0.51100000000E-03 0. -1.
        -11    1    4    4    0    0 -0.46213997260E+01 -0.91361852252E+01 -0.43042635733E+01  0.11106480138E+02  0.51100000000E-03 0.  1.
        -12    1    4    4    0    0  0.25641427425E+02 -0.23902622217E+02  0.15467242328E+02  0.38315189344E+02  0.00000000000E+00 0.  1.
</event>
<event>
 8    1  0.6016610E-012  0.9118800E+02  0.7816164E-02  0.1184000E+00
        -11   -1    0    0    0    0  0.00000000000E+00  0.00000000000E+00  0.45593999997E+02  0.45594000000E+02  0.51100000000E-03 0. -1.
         11   -1    0    0    0    0 -0.00000000000E+00 -0.00000000000E+00 -0.45593999997E+02  0.45594000000E+02  0.51100000000E-03 0.  1.
         23    2    1    2    0    0 -0.17763568394E-14  0.00000000000E+00  0.00000000000E+00  0.91188000000E+02  0.91188000000E+02 0.  0.
    9900012    2    3    3    0    0 -0.94131584449E+01 -0.14059859256E+02 -0.36971307387E+02  0.50528871085E+02  0.30000034151E+02 0.  0.
         12    1    3    3    0    0  0.94131584449E+01  0.14059859256E+02  0.36971307387E+02  0.40659128915E+02  0.00000000000E+00 0. -1.
         11    1    4    4    0    0 -0.45457370868E+01 -0.11592555100E+01  0.63888684782E+00  0.47345301419E+01  0.51100000000E-03 0. -1.
        -11    1    4    4    0    0 -0.86144521853E+01 -0.87439019221E+01 -0.38240965306E+02  0.40162619873E+02  0.51100000000E-03 0.  1.
        -12    1    4    4    0    0  0.37470308271E+01 -0.41567018243E+01  0.63077107110E+00  0.56317210708E+01  0.00000000000E+00 0.  1.
</event>
<event>
 8    1  0.6016610E-012  0.9118800E+02  0.7816164E-02  0.1184000E+00
        -11   -1    0    0    0    0  0.00000000000E+00  0.00000000000E+00  0.45593999997E+02  0.45594000000E+02  0.51100000000E-03 0. -1.
         11   -1    0    0    0    0 -0.00000000000E+00 -0.00000000000E+00 -0.45593999997E+02  0.45594000000E+02  0.51100000000E-03 0.  1.
         23    2    1    2    0    0  0.88817841970E-15 -0.35527136788E-14  0.00000000000E+00  0.91188000000E+02  0.91188000000E+02 0.  0.
    9900012    2    3    3    0    0 -0.59663801158E+01 -0.21879506469E+02 -0.33746866508E+02  0.50528911297E+02  0.30000156379E+02 0.  0.
         12    1    3    3    0    0  0.59663801158E+01  0.21879506469E+02  0.33746866508E+02  0.40659088703E+02  0.00000000000E+00 0. -1.
         11    1    4    4    0    0  0.11876020295E+01  0.35238134909E+01 -0.12799514908E+02  0.13328737459E+02  0.51100000000E-03 0. -1.
        -11    1    4    4    0    0  0.28083404831E+01 -0.13227343350E+02 -0.40562358979E+01  0.14117451551E+02  0.51100000000E-03 0.  1.
         12    1    4    4    0    0 -0.99623226284E+01 -0.12175976610E+02 -0.16891115702E+02  0.23082722288E+02  0.00000000000E+00 0. -1.
</event>
<event>
 8    1  0.6016610E-012  0.9118800E+02  0.7816164E-02  0.1184000E+00
        -11   -1    0    0    0    0  0.00000000000E+00  0.00000000000E+00  0.45593999997E+02  0.45594000000E+02  0.51100000000E-03 0.  1.
         11   -1    0    0    0    0 -0.00000000000E+00 -0.00000000000E+00 -0.45593999997E+02  0.45594000000E+02  0.51100000000E-03 0. -1.
         23    2    1    2    0    0 -0.17763568394E-14  0.35527136788E-14  0.00000000000E+00  0.91188000000E+02  0.91188000000E+02 0.  0.
    9900012    2    3    3    0    0  0.14257979304E+02 -0.26805954095E+02 -0.27042841110E+02  0.50528875513E+02  0.30000047608E+02 0.  0.
         12    1    3    3    0    0 -0.14257979304E+02  0.26805954095E+02  0.27042841110E+02  0.40659124487E+02  0.00000000000E+00 0. -1.
         11    1    4    4    0    0  0.40357799597E+01 -0.20721874113E+01 -0.15621963354E+02  0.16267366716E+02  0.51100000000E-03 0. -1.
        -11    1    4    4    0    0  0.11194280102E+02 -0.24920714110E+02 -0.14569000855E+02  0.30961422527E+02  0.51100000000E-03 0.  1.
         12    1    4    4    0    0 -0.97208075850E+00  0.18694742581E+00  0.31481230991E+01  0.33000862698E+01  0.00000000000E+00 0. -1.
</event>
<event>
 8    1  0.6016610E-012  0.9118800E+02  0.7816164E-02  0.1184000E+00
        -11   -1    0    0    0    0  0.00000000000E+00  0.00000000000E+00  0.45593999997E+02  0.45594000000E+02  0.51100000000E-03 0. -1.
         11   -1    0    0    0    0 -0.00000000000E+00 -0.00000000000E+00 -0.45593999997E+02  0.45594000000E+02  0.51100000000E-03 0.  1.
         23    2    1    2    0    0  0.71054273576E-14 -0.88817841970E-15 -0.88817841970E-15  0.91188000000E+02  0.91188000000E+02 0.  0.
    9900012    2    3    3    0    0 -0.40185697659E+02 -0.12867213716E+01 -0.60514127117E+01  0.50528861495E+02  0.30000004999E+02 0.  0.
         12    1    3    3    0    0  0.40185697659E+02  0.12867213716E+01  0.60514127117E+01  0.40659138505E+02  0.00000000000E+00 0. -1.
         11    1    4    4    0    0 -0.13749445805E+02 -0.66277503567E+01 -0.11524174179E+02  0.19125400009E+02  0.51100000000E-03 0. -1.
        -11    1    4    4    0    0 -0.27619070772E+02  0.23675482269E+01  0.50263770663E+01  0.28172376924E+02  0.51100000000E-03 0.  1.
         12    1    4    4    0    0  0.11828189175E+01  0.29734807583E+01  0.44638440092E+00  0.32310845617E+01  0.00000000000E+00 0. -1.
</event>
<event>
 8    1  0.9233951E-012  0.9118800E+02  0.7816164E-02  0.1184000E+00
        -11   -1    0    0    0    0  0.00000000000E+00  0.00000000000E+00  0.45593999997E+02  0.45594000000E+02  0.51100000000E-03 0. -1.
         11   -1    0    0    0    0 -0.00000000000E+00 -0.00000000000E+00 -0.45593999997E+02  0.45594000000E+02  0.51100000000E-03 0.  1.
         23    2    1    2    0    0  0.00000000000E+00  0.00000000000E+00  0.00000000000E+00  0.91188000000E+02  0.91188000000E+02 0.  0.
    9900012    2    3    3    0    0  0.44910714783E+01 -0.27614605479E+02  0.29503053509E+02  0.50528851889E+02  0.29999975800E+02 0.  0.
        -12    1    3    3    0    0 -0.44910714783E+01  0.27614605479E+02 -0.29503053509E+02  0.40659148111E+02  0.00000000000E+00 0.  1.
         11    1    4    4    0    0 -0.13119391013E+01 -0.24547604750E+02  0.19666216482E+02  0.31481203188E+02  0.51100000000E-03 0. -1.
        -11    1    4    4    0    0 -0.42697651578E+01  0.23472832624E+01  0.31037331941E+01  0.57770055581E+01  0.51100000000E-03 0.  1.
        -12    1    4    4    0    0  0.10072775737E+02 -0.54142839919E+01  0.67331038323E+01  0.13270643143E+02  0.00000000000E+00 0.  1.
</event>
<event>
 8    1  0.6016610E-012  0.9118800E+02  0.7816164E-02  0.1184000E+00
        -11   -1    0    0    0    0  0.00000000000E+00  0.00000000000E+00  0.45593999997E+02  0.45594000000E+02  0.51100000000E-03 0. -1.
         11   -1    0    0    0    0 -0.00000000000E+00 -0.00000000000E+00 -0.45593999997E+02  0.45594000000E+02  0.51100000000E-03 0.  1.
         23    2    1    2    0    0  0.00000000000E+00  0.35527136788E-14 -0.71054273576E-14  0.91188000000E+02  0.91188000000E+02 0.  0.
    9900012    2    3    3    0    0 -0.10434391664E+02  0.17902047051E+02 -0.34982936335E+02  0.50528860158E+02  0.30000000937E+02 0.  0.
         12    1    3    3    0    0  0.10434391664E+02 -0.17902047051E+02  0.34982936335E+02  0.40659139842E+02  0.00000000000E+00 0. -1.
         11    1    4    4    0    0 -0.63029938973E+01 -0.28963744131E+01 -0.75400769903E+01  0.10245461341E+02  0.51100000000E-03 0. -1.
        -11    1    4    4    0    0 -0.10657662252E+02  0.17958078446E+02 -0.14212822724E+02  0.25260298419E+02  0.51100000000E-03 0.  1.
        -12    1    4    4    0    0  0.65262644855E+01  0.28403430184E+01 -0.13230036621E+02  0.15023100399E+02  0.00000000000E+00 0.  1.
</event>
<event>
 8    1  0.6016610E-012  0.9118800E+02  0.7816164E-02  0.1184000E+00
        -11   -1    0    0    0    0  0.00000000000E+00  0.00000000000E+00  0.45593999997E+02  0.45594000000E+02  0.51100000000E-03 0.  1.
         11   -1    0    0    0    0 -0.00000000000E+00 -0.00000000000E+00 -0.45593999997E+02  0.45594000000E+02  0.51100000000E-03 0. -1.
         23    2    1    2    0    0  0.00000000000E+00 -0.22204460493E-15  0.00000000000E+00  0.91188000000E+02  0.91188000000E+02 0.  0.
    9900012    2    3    3    0    0  0.26693552482E+02 -0.11932284715E+01 -0.30646338405E+02  0.50528836262E+02  0.29999928301E+02 0.  0.
         12    1    3    3    0    0 -0.26693552482E+02  0.11932284715E+01  0.30646338405E+02  0.40659163738E+02  0.00000000000E+00 0. -1.
         11    1    4    4    0    0  0.61199066379E+01  0.74480719300E+00 -0.22420148076E+02  0.23252333970E+02  0.51100000000E-03 0. -1.
        -11    1    4    4    0    0  0.22182205196E+02 -0.29799644816E+00 -0.10039195274E+02  0.24350040477E+02  0.51100000000E-03 0.  1.
        -12    1    4    4    0    0 -0.16085593518E+01 -0.16400392164E+01  0.18130049461E+01  0.29264618150E+01  0.00000000000E+00 0.  1.
</event>
<event>
 8    1  0.6016610E-012  0.9118800E+02  0.7816164E-02  0.1184000E+00
        -11   -1    0    0    0    0  0.00000000000E+00  0.00000000000E+00  0.45593999997E+02  0.45594000000E+02  0.51100000000E-03 0.  1.
         11   -1    0    0    0    0 -0.00000000000E+00 -0.00000000000E+00 -0.45593999997E+02  0.45594000000E+02  0.51100000000E-03 0. -1.
         23    2    1    2    0    0  0.35527136788E-14  0.00000000000E+00  0.17763568394E-14  0.91188000000E+02  0.91188000000E+02 0.  0.
    9900012    2    3    3    0    0 -0.28143853638E+02 -0.27370787437E+02 -0.10579223956E+02  0.50528972933E+02  0.30000343725E+02 0.  0.
         12    1    3    3    0    0  0.28143853638E+02  0.27370787437E+02  0.10579223956E+02  0.40659027067E+02  0.00000000000E+00 0. -1.
         11    1    4    4    0    0 -0.58118945466E+01 -0.21192097255E+01 -0.55804811722E+01  0.83313227315E+01  0.51100000000E-03 0. -1.
        -11    1    4    4    0    0 -0.10665346577E+02 -0.24849995045E+02  0.41599084119E+01  0.27360129926E+02  0.51100000000E-03 0.  1.
        -12    1    4    4    0    0 -0.11666612514E+02 -0.40158266714E+00 -0.91586511958E+01  0.14837520275E+02  0.00000000000E+00 0.  1.
</event>
<event>
 8    1  0.6016610E-012  0.9118800E+02  0.7816164E-02  0.1184000E+00
        -11   -1    0    0    0    0  0.00000000000E+00  0.00000000000E+00  0.45593999997E+02  0.45594000000E+02  0.51100000000E-03 0. -1.
         11   -1    0    0    0    0 -0.00000000000E+00 -0.00000000000E+00 -0.45593999997E+02  0.45594000000E+02  0.51100000000E-03 0.  1.
         23    2    1    2    0    0  0.43021142204E-15  0.00000000000E+00  0.35527136788E-14  0.91188000000E+02  0.91188000000E+02 0.  0.
    9900012    2    3    3    0    0 -0.37435218953E-01  0.30124835571E+02  0.27306748734E+02  0.50528860240E+02  0.30000001186E+02 0.  0.
        -12    1    3    3    0    0  0.37435218953E-01 -0.30124835571E+02 -0.27306748734E+02  0.40659139760E+02  0.00000000000E+00 0.  1.
         11    1    4    4    0    0 -0.14071947328E+02  0.13997457460E+02  0.14217542167E+02  0.24414893456E+02  0.51100000000E-03 0. -1.
        -11    1    4    4    0    0  0.91103684044E+01  0.11069835972E+02  0.12517186616E+02  0.19032079286E+02  0.51100000000E-03 0.  1.
         12    1    4    4    0    0  0.49241437049E+01  0.50575421389E+01  0.57201995179E+00  0.70818874983E+01  0.00000000000E+00 0. -1.
</event>
<event>
 8    1  0.6016610E-012  0.9118800E+02  0.7816164E-02  0.1184000E+00
        -11   -1    0    0    0    0  0.00000000000E+00  0.00000000000E+00  0.45593999997E+02  0.45594000000E+02  0.51100000000E-03 0. -1.
         11   -1    0    0    0    0 -0.00000000000E+00 -0.00000000000E+00 -0.45593999997E+02  0.45594000000E+02  0.51100000000E-03 0.  1.
         23    2    1    2    0    0  0.00000000000E+00  0.00000000000E+00 -0.35527136788E-14  0.91188000000E+02  0.91188000000E+02 0.  0.
    9900012    2    3    3    0    0  0.34745721355E+02  0.14389246759E+01  0.21067275387E+02  0.50528858974E+02  0.29999997338E+02 0.  0.
        -12    1    3    3    0    0 -0.34745721355E+02 -0.14389246759E+01 -0.21067275387E+02  0.40659141026E+02  0.00000000000E+00 0.  1.
         11    1    4    4    0    0  0.22944166791E+02  0.15495328291E+01  0.21856127970E+02  0.31725796631E+02  0.51100000000E-03 0. -1.
        -11    1    4    4    0    0  0.97665144449E+01 -0.56284512207E+01 -0.41704503742E+01  0.12019023427E+02  0.51100000000E-03 0.  1.
        -12    1    4    4    0    0  0.20350401189E+01  0.55178430675E+01  0.33815977908E+01  0.67840389166E+01  0.00000000000E+00 0.  1.
</event>
<event>
 8    1  0.6016610E-012  0.9118800E+02  0.7816164E-02  0.1184000E+00
        -11   -1    0    0    0    0  0.00000000000E+00  0.00000000000E+00  0.45593999997E+02  0.45594000000E+02  0.51100000000E-03 0. -1.
         11   -1    0    0    0    0 -0.00000000000E+00 -0.00000000000E+00 -0.45593999997E+02  0.45594000000E+02  0.51100000000E-03 0.  1.
         23    2    1    2    0    0  0.00000000000E+00  0.17763568394E-14  0.00000000000E+00  0.91188000000E+02  0.91188000000E+02 0.  0.
    9900012    2    3    3    0    0  0.20667816803E+02  0.12525793488E+02  0.32697271641E+02  0.50528859248E+02  0.29999998171E+02 0.  0.
        -12    1    3    3    0    0 -0.20667816803E+02 -0.12525793488E+02 -0.32697271641E+02  0.40659140752E+02  0.00000000000E+00 0.  1.
         11    1    4    4    0    0  0.18155904596E+02  0.19157662733E+01  0.32476786166E+02  0.37256525228E+02  0.51100000000E-03 0. -1.
        -11    1    4    4    0    0  0.26499907817E+01  0.45049577881E+01 -0.33408572015E+01  0.62030978484E+01  0.51100000000E-03 0.  1.
         12    1    4    4    0    0 -0.13807857434E+00  0.61050694271E+01  0.35613426762E+01  0.70692361723E+01  0.00000000000E+00 0. -1.
</event>
<event>
 8    1  0.6016610E-012  0.9118800E+02  0.7816164E-02  0.1184000E+00
        -11   -1    0    0    0    0  0.00000000000E+00  0.00000000000E+00  0.45593999997E+02  0.45594000000E+02  0.51100000000E-03 0. -1.
         11   -1    0    0    0    0 -0.00000000000E+00 -0.00000000000E+00 -0.45593999997E+02  0.45594000000E+02  0.51100000000E-03 0.  1.
         23    2    1    2    0    0  0.17763568394E-14  0.00000000000E+00 -0.71054273576E-14  0.91188000000E+02  0.91188000000E+02 0.  0.
    9900012    2    3    3    0    0 -0.46553685458E+01 -0.10408679197E+02 -0.39027592732E+02  0.50528855231E+02  0.29999985961E+02 0.  0.
         12    1    3    3    0    0  0.46553685458E+01  0.10408679197E+02  0.39027592732E+02  0.40659144769E+02  0.00000000000E+00 0. -1.
         11    1    4    4    0    0  0.12483954300E+02 -0.49262981672E+01 -0.16113683368E+02  0.20970653794E+02  0.51100000000E-03 0. -1.
        -11    1    4    4    0    0 -0.11312838718E+02 -0.10726109128E+01 -0.13781459829E+02  0.17862235284E+02  0.51100000000E-03 0.  1.
         12    1    4    4    0    0 -0.58264841277E+01 -0.44097701167E+01 -0.91324495337E+01  0.11695966153E+02  0.00000000000E+00 0. -1.
</event>
<event>
 8    1  0.6016610E-012  0.9118800E+02  0.7816164E-02  0.1184000E+00
        -11   -1    0    0    0    0  0.00000000000E+00  0.00000000000E+00  0.45593999997E+02  0.45594000000E+02  0.51100000000E-03 0. -1.
         11   -1    0    0    0    0 -0.00000000000E+00 -0.00000000000E+00 -0.45593999997E+02  0.45594000000E+02  0.51100000000E-03 0.  1.
         23    2    1    2    0    0  0.35527136788E-14 -0.17763568394E-14  0.00000000000E+00  0.91188000000E+02  0.91188000000E+02 0.  0.
    9900012    2    3    3    0    0 -0.25028668413E+02 -0.82415921665E+01  0.30964623161E+02  0.50528856238E+02  0.29999989021E+02 0.  0.
        -12    1    3    3    0    0  0.25028668413E+02  0.82415921665E+01 -0.30964623161E+02  0.40659143762E+02  0.00000000000E+00 0.  1.
         11    1    4    4    0    0 -0.51866654299E+01 -0.87584648135E+01  0.18325945749E+02  0.20963122192E+02  0.51100000000E-03 0. -1.
        -11    1    4    4    0    0  0.35089847872E+00  0.39106822203E+01 -0.19890281708E+01  0.44014541343E+01  0.51100000000E-03 0.  1.
        -12    1    4    4    0    0 -0.20192901462E+02 -0.33938095733E+01  0.14627705583E+02  0.25164279912E+02  0.00000000000E+00 0.  1.
</event>
<event>
 8    1  0.6016610E-012  0.9118800E+02  0.7816164E-02  0.1184000E+00
        -11   -1    0    0    0    0  0.00000000000E+00  0.00000000000E+00  0.45593999997E+02  0.45594000000E+02  0.51100000000E-03 0. -1.
         11   -1    0    0    0    0 -0.00000000000E+00 -0.00000000000E+00 -0.45593999997E+02  0.45594000000E+02  0.51100000000E-03 0.  1.
         23    2    1    2    0    0 -0.17763568394E-14 -0.35527136788E-14 -0.71054273576E-14  0.91188000000E+02  0.91188000000E+02 0.  0.
    9900012    2    3    3    0    0 -0.93956849043E+01 -0.21442964209E+02 -0.33242835170E+02  0.50528859588E+02  0.29999999204E+02 0.  0.
         12    1    3    3    0    0  0.93956849043E+01  0.21442964209E+02  0.33242835170E+02  0.40659140412E+02  0.00000000000E+00 0. -1.
         11    1    4    4    0    0 -0.15003732996E+02 -0.50515790924E+01 -0.90099256704E+01  0.18215631090E+02  0.51100000000E-03 0. -1.
        -11    1    4    4    0    0  0.56434314712E+01 -0.80026532564E+01 -0.43151762604E+01  0.10701005763E+02  0.51100000000E-03 0.  1.
        -12    1    4    4    0    0 -0.35383379356E-01 -0.83887318600E+01 -0.19917733239E+02  0.21612222736E+02  0.00000000000E+00 0.  1.
</event>
<event>
 8    1  0.6016610E-012  0.9118800E+02  0.7816164E-02  0.1184000E+00
        -11   -1    0    0    0    0  0.00000000000E+00  0.00000000000E+00  0.45593999997E+02  0.45594000000E+02  0.51100000000E-03 0.  1.
         11   -1    0    0    0    0 -0.00000000000E+00 -0.00000000000E+00 -0.45593999997E+02  0.45594000000E+02  0.51100000000E-03 0. -1.
         23    2    1    2    0    0  0.00000000000E+00 -0.88817841970E-15  0.00000000000E+00  0.91188000000E+02  0.91188000000E+02 0.  0.
    9900012    2    3    3    0    0  0.36975740674E+02  0.40561815860E+01  0.16416698127E+02  0.50528856073E+02  0.29999988520E+02 0.  0.
         12    1    3    3    0    0 -0.36975740674E+02 -0.40561815860E+01 -0.16416698127E+02  0.40659143927E+02  0.00000000000E+00 0. -1.
         11    1    4    4    0    0  0.10862937369E+02 -0.11006294243E+02  0.24182041388E+01  0.15652144670E+02  0.51100000000E-03 0. -1.
        -11    1    4    4    0    0  0.19998216173E+02  0.61316202061E+01  0.73321701578E+01  0.22164975433E+02  0.51100000000E-03 0.  1.
         12    1    4    4    0    0  0.61145871325E+01  0.89308556233E+01  0.66663238305E+01  0.12711735970E+02  0.00000000000E+00 0. -1.
</event>
<event>
 8    1  0.6016610E-012  0.9118800E+02  0.7816164E-02  0.1184000E+00
        -11   -1    0    0    0    0  0.00000000000E+00  0.00000000000E+00  0.45593999997E+02  0.45594000000E+02  0.51100000000E-03 0. -1.
         11   -1    0    0    0    0 -0.00000000000E+00 -0.00000000000E+00 -0.45593999997E+02  0.45594000000E+02  0.51100000000E-03 0.  1.
         23    2    1    2    0    0  0.00000000000E+00  0.00000000000E+00  0.00000000000E+00  0.91188000000E+02  0.91188000000E+02 0.  0.
    9900012    2    3    3    0    0 -0.23756647553E+02 -0.24355425660E+01  0.32906743646E+02  0.50528881122E+02  0.30000064659E+02 0.  0.
        -12    1    3    3    0    0  0.23756647553E+02  0.24355425660E+01 -0.32906743646E+02  0.40659118878E+02  0.00000000000E+00 0.  1.
         11    1    4    4    0    0 -0.17032661545E+02 -0.33575644610E+01  0.70037307039E+01  0.18719963740E+02  0.51100000000E-03 0. -1.
        -11    1    4    4    0    0 -0.62723251743E+01  0.23463393789E+01  0.28246552133E+02  0.29029555271E+02  0.51100000000E-03 0.  1.
         12    1    4    4    0    0 -0.45166083388E+00 -0.14243174839E+01 -0.23435391910E+01  0.27793621109E+01  0.00000000000E+00 0. -1.
</event>
<event>
 8    1  0.6016610E-012  0.9118800E+02  0.7816164E-02  0.1184000E+00
        -11   -1    0    0    0    0  0.00000000000E+00  0.00000000000E+00  0.45593999997E+02  0.45594000000E+02  0.51100000000E-03 0. -1.
         11   -1    0    0    0    0 -0.00000000000E+00 -0.00000000000E+00 -0.45593999997E+02  0.45594000000E+02  0.51100000000E-03 0.  1.
         23    2    1    2    0    0 -0.17763568394E-14  0.00000000000E+00  0.00000000000E+00  0.91188000000E+02  0.91188000000E+02 0.  0.
    9900012    2    3    3    0    0 -0.14232783229E+02 -0.28632260417E+02  0.25115473559E+02  0.50528862440E+02  0.30000007873E+02 0.  0.
        -12    1    3    3    0    0  0.14232783229E+02  0.28632260417E+02 -0.25115473559E+02  0.40659137560E+02  0.00000000000E+00 0.  1.
         11    1    4    4    0    0  0.42838946350E+01 -0.17287037565E+02  0.14811175145E+01  0.17871405384E+02  0.51100000000E-03 0. -1.
        -11    1    4    4    0    0 -0.11831668341E+02 -0.84817166026E+01  0.11677319987E+02  0.18662467538E+02  0.51100000000E-03 0.  1.
         12    1    4    4    0    0 -0.66850095223E+01 -0.28635062492E+01  0.11957036057E+02  0.13994989518E+02  0.00000000000E+00 0. -1.
</event>
<event>
 8    1  0.6016610E-012  0.9118800E+02  0.7816164E-02  0.1184000E+00
        -11   -1    0    0    0    0  0.00000000000E+00  0.00000000000E+00  0.45593999997E+02  0.45594000000E+02  0.51100000000E-03 0. -1.
         11   -1    0    0    0    0 -0.00000000000E+00 -0.00000000000E+00 -0.45593999997E+02  0.45594000000E+02  0.51100000000E-03 0.  1.
         23    2    1    2    0    0  0.00000000000E+00  0.88817841970E-15  0.00000000000E+00  0.91188000000E+02  0.91188000000E+02 0.  0.
    9900012    2    3    3    0    0 -0.14215732674E+02 -0.64177055301E+01  0.37548524030E+02  0.50528860110E+02  0.30000000791E+02 0.  0.
        -12    1    3    3    0    0  0.14215732674E+02  0.64177055301E+01 -0.37548524030E+02  0.40659139890E+02  0.00000000000E+00 0.  1.
         11    1    4    4    0    0 -0.20869689277E+02 -0.26047725644E+01  0.24307315523E+02  0.32143029709E+02  0.51100000000E-03 0. -1.
        -11    1    4    4    0    0  0.81147238205E+01 -0.59050819070E+01  0.11658914978E+02  0.15383401241E+02  0.51100000000E-03 0.  1.
        -12    1    4    4    0    0 -0.14607672167E+01  0.20921489413E+01  0.15822935293E+01  0.30024291610E+01  0.00000000000E+00 0.  1.
</event>
<event>
 8    1  0.6016610E-012  0.9118800E+02  0.7816164E-02  0.1184000E+00
        -11   -1    0    0    0    0  0.00000000000E+00  0.00000000000E+00  0.45593999997E+02  0.45594000000E+02  0.51100000000E-03 0. -1.
         11   -1    0    0    0    0 -0.00000000000E+00 -0.00000000000E+00 -0.45593999997E+02  0.45594000000E+02  0.51100000000E-03 0.  1.
         23    2    1    2    0    0  0.11102230246E-15  0.00000000000E+00  0.00000000000E+00  0.91188000000E+02  0.91188000000E+02 0.  0.
    9900012    2    3    3    0    0  0.74324750517E+00  0.31618858693E+01 -0.40529194178E+02  0.50528861792E+02  0.30000005902E+02 0.  0.
         12    1    3    3    0    0 -0.74324750517E+00 -0.31618858693E+01  0.40529194178E+02  0.40659138208E+02  0.00000000000E+00 0. -1.
         11    1    4    4    0    0  0.56462914860E+01 -0.72895124884E+01 -0.17253102635E+01  0.93805274708E+01  0.51100000000E-03 0. -1.
        -11    1    4    4    0    0 -0.44157062112E+01  0.92799765905E+01 -0.21840860473E+02  0.24137928936E+02  0.51100000000E-03 0.  1.
         12    1    4    4    0    0 -0.48733776960E+00  0.11714217673E+01 -0.16963023442E+02  0.17010405385E+02  0.00000000000E+00 0. -1.
</event>
<event>
 8    1  0.6016610E-012  0.9118800E+02  0.7816164E-02  0.1184000E+00
        -11   -1    0    0    0    0  0.00000000000E+00  0.00000000000E+00  0.45593999997E+02  0.45594000000E+02  0.51100000000E-03 0. -1.
         11   -1    0    0    0    0 -0.00000000000E+00 -0.00000000000E+00 -0.45593999997E+02  0.45594000000E+02  0.51100000000E-03 0.  1.
         23    2    1    2    0    0 -0.88817841970E-15  0.00000000000E+00  0.00000000000E+00  0.91188000000E+02  0.91188000000E+02 0.  0.
    9900012    2    3    3    0    0  0.10113443371E+01  0.19378165518E+02  0.35729954388E+02  0.50528858878E+02  0.29999997045E+02 0.  0.
        -12    1    3    3    0    0 -0.10113443371E+01 -0.19378165518E+02 -0.35729954388E+02  0.40659141122E+02  0.00000000000E+00 0.  1.
         11    1    4    4    0    0 -0.12866747227E+02  0.11489578116E+02  0.25603345846E+02  0.30872235232E+02  0.51100000000E-03 0. -1.
        -11    1    4    4    0    0  0.67180207173E+01  0.67909481569E+01  0.65138801858E+01  0.11561981429E+02  0.51100000000E-03 0.  1.
         12    1    4    4    0    0  0.71600708464E+01  0.10976392451E+01  0.36127283567E+01  0.80946422168E+01  0.00000000000E+00 0. -1.
</event>
<event>
 8    1  0.6016610E-012  0.9118800E+02  0.7816164E-02  0.1184000E+00
        -11   -1    0    0    0    0  0.00000000000E+00  0.00000000000E+00  0.45593999997E+02  0.45594000000E+02  0.51100000000E-03 0. -1.
         11   -1    0    0    0    0 -0.00000000000E+00 -0.00000000000E+00 -0.45593999997E+02  0.45594000000E+02  0.51100000000E-03 0.  1.
         23    2    1    2    0    0  0.00000000000E+00  0.00000000000E+00  0.00000000000E+00  0.91188000000E+02  0.91188000000E+02 0.  0.
    9900012    2    3    3    0    0  0.19369735456E+02  0.12312025628E+02 -0.33561871631E+02  0.50528783897E+02  0.29999769134E+02 0.  0.
         12    1    3    3    0    0 -0.19369735456E+02 -0.12312025628E+02  0.33561871631E+02  0.40659216103E+02  0.00000000000E+00 0. -1.
         11    1    4    4    0    0 -0.11384997917E+01 -0.13354243933E+01 -0.16917381392E+02  0.17008154912E+02  0.51100000000E-03 0. -1.
        -11    1    4    4    0    0  0.20789263960E+02  0.93899518991E+01 -0.85326770487E+01  0.24355107689E+02  0.51100000000E-03 0.  1.
        -12    1    4    4    0    0 -0.28102871232E+00  0.42574981226E+01 -0.81118131895E+01  0.91655212957E+01  0.00000000000E+00 0.  1.
</event>
<event>
 8    1  0.6016610E-012  0.9118800E+02  0.7816164E-02  0.1184000E+00
        -11   -1    0    0    0    0  0.00000000000E+00  0.00000000000E+00  0.45593999997E+02  0.45594000000E+02  0.51100000000E-03 0. -1.
         11   -1    0    0    0    0 -0.00000000000E+00 -0.00000000000E+00 -0.45593999997E+02  0.45594000000E+02  0.51100000000E-03 0.  1.
         23    2    1    2    0    0 -0.35527136788E-14  0.00000000000E+00  0.00000000000E+00  0.91188000000E+02  0.91188000000E+02 0.  0.
    9900012    2    3    3    0    0  0.22532089519E+02 -0.16190234524E+02 -0.29721156915E+02  0.50528856865E+02  0.29999990928E+02 0.  0.
         12    1    3    3    0    0 -0.22532089519E+02  0.16190234524E+02  0.29721156915E+02  0.40659143135E+02  0.00000000000E+00 0. -1.
         11    1    4    4    0    0  0.13781784781E+02 -0.17549443606E+02 -0.77643517014E+01  0.23626377637E+02  0.51100000000E-03 0. -1.
        -11    1    4    4    0    0  0.25987586870E+00 -0.28102047196E+01 -0.14732279641E+02  0.15000161656E+02  0.51100000000E-03 0.  1.
         12    1    4    4    0    0  0.84904288701E+01  0.41694138014E+01 -0.72245255728E+01  0.11902317573E+02  0.00000000000E+00 0. -1.
</event>
<event>
 8    1  0.6016610E-012  0.9118800E+02  0.7816164E-02  0.1184000E+00
        -11   -1    0    0    0    0  0.00000000000E+00  0.00000000000E+00  0.45593999997E+02  0.45594000000E+02  0.51100000000E-03 0. -1.
         11   -1    0    0    0    0 -0.00000000000E+00 -0.00000000000E+00 -0.45593999997E+02  0.45594000000E+02  0.51100000000E-03 0.  1.
         23    2    1    2    0    0  0.00000000000E+00  0.00000000000E+00 -0.17763568394E-14  0.91188000000E+02  0.91188000000E+02 0.  0.
    9900012    2    3    3    0    0 -0.24186789558E+02  0.29943077752E+02  0.13098740200E+02  0.50528859709E+02  0.29999999571E+02 0.  0.
        -12    1    3    3    0    0  0.24186789558E+02 -0.29943077752E+02 -0.13098740200E+02  0.40659140291E+02  0.00000000000E+00 0.  1.
         11    1    4    4    0    0  0.16939630647E+01  0.30617574874E+01  0.69179967367E+01  0.77525833686E+01  0.51100000000E-03 0. -1.
        -11    1    4    4    0    0 -0.25882987491E+02  0.20474133926E+02 -0.11732419018E+01  0.33022654319E+02  0.51100000000E-03 0.  1.
        -12    1    4    4    0    0  0.22348683986E-02  0.64071863390E+01  0.73539853652E+01  0.97536220210E+01  0.00000000000E+00 0.  1.
</event>
<event>
 8    1  0.6016610E-012  0.9118800E+02  0.7816164E-02  0.1184000E+00
        -11   -1    0    0    0    0  0.00000000000E+00  0.00000000000E+00  0.45593999997E+02  0.45594000000E+02  0.51100000000E-03 0. -1.
         11   -1    0    0    0    0 -0.00000000000E+00 -0.00000000000E+00 -0.45593999997E+02  0.45594000000E+02  0.51100000000E-03 0.  1.
         23    2    1    2    0    0  0.17763568394E-14 -0.88817841970E-15 -0.71054273576E-14  0.91188000000E+02  0.91188000000E+02 0.  0.
    9900012    2    3    3    0    0  0.91828108643E+01 -0.73975713636E+01  0.38911672293E+02  0.50528851975E+02  0.29999976063E+02 0.  0.
        -12    1    3    3    0    0 -0.91828108643E+01  0.73975713636E+01 -0.38911672293E+02  0.40659148025E+02  0.00000000000E+00 0.  1.
         11    1    4    4    0    0  0.11236653073E+02  0.40606816374E+01  0.13963999767E+02  0.18377834404E+02  0.51100000000E-03 0. -1.
        -11    1    4    4    0    0  0.25389103301E+01 -0.11298892756E+02  0.67977494117E+01  0.13428344668E+02  0.51100000000E-03 0.  1.
         12    1    4    4    0    0 -0.45927525386E+01 -0.15936024463E+00  0.18149923115E+02  0.18722672903E+02  0.00000000000E+00 0. -1.
</event>
<event>
 8    1  0.6016610E-012  0.9118800E+02  0.7816164E-02  0.1184000E+00
        -11   -1    0    0    0    0  0.00000000000E+00  0.00000000000E+00  0.45593999997E+02  0.45594000000E+02  0.51100000000E-03 0. -1.
         11   -1    0    0    0    0 -0.00000000000E+00 -0.00000000000E+00 -0.45593999997E+02  0.45594000000E+02  0.51100000000E-03 0.  1.
         23    2    1    2    0    0 -0.88817841970E-15 -0.17763568394E-14 -0.71054273576E-14  0.91188000000E+02  0.91188000000E+02 0.  0.
    9900012    2    3    3    0    0  0.19726911204E+01 -0.11984372790E+02 -0.38802698872E+02  0.50528854150E+02  0.29999982676E+02 0.  0.
         12    1    3    3    0    0 -0.19726911204E+01  0.11984372790E+02  0.38802698872E+02  0.40659145850E+02  0.00000000000E+00 0. -1.
         11    1    4    4    0    0  0.39011687767E+01  0.28470618011E+00 -0.23446953867E+00  0.39185649999E+01  0.51100000000E-03 0. -1.
        -11    1    4    4    0    0 -0.11993845323E+02 -0.72904622654E+01 -0.15231305333E+02  0.20712214466E+02  0.51100000000E-03 0.  1.
        -12    1    4    4    0    0  0.10065367667E+02 -0.49786167049E+01 -0.23336924000E+02  0.25898074684E+02  0.00000000000E+00 0.  1.
</event>
<event>
 8    1  0.6016610E-012  0.9118800E+02  0.7816164E-02  0.1184000E+00
        -11   -1    0    0    0    0  0.00000000000E+00  0.00000000000E+00  0.45593999997E+02  0.45594000000E+02  0.51100000000E-03 0. -1.
         11   -1    0    0    0    0 -0.00000000000E+00 -0.00000000000E+00 -0.45593999997E+02  0.45594000000E+02  0.51100000000E-03 0.  1.
         23    2    1    2    0    0  0.00000000000E+00  0.00000000000E+00  0.00000000000E+00  0.91188000000E+02  0.91188000000E+02 0.  0.
    9900012    2    3    3    0    0  0.54544643385E+01 -0.62112392709E+01 -0.39809983008E+02  0.50528863000E+02  0.30000009575E+02 0.  0.
         12    1    3    3    0    0 -0.54544643385E+01  0.62112392709E+01  0.39809983008E+02  0.40659137000E+02  0.00000000000E+00 0. -1.
         11    1    4    4    0    0  0.73234768291E+01  0.77573954219E+01 -0.50456170959E+01  0.11801218104E+02  0.51100000000E-03 0. -1.
        -11    1    4    4    0    0  0.18136424570E+01 -0.13149435914E+02 -0.27826761206E+02  0.30830595247E+02  0.51100000000E-03 0.  1.
        -12    1    4    4    0    0 -0.36826549476E+01 -0.81919877924E+00 -0.69376047057E+01  0.78970496488E+01  0.00000000000E+00 0.  1.
</event>
<event>
 8    1  0.6016610E-012  0.9118800E+02  0.7816164E-02  0.1184000E+00
        -11   -1    0    0    0    0  0.00000000000E+00  0.00000000000E+00  0.45593999997E+02  0.45594000000E+02  0.51100000000E-03 0.  1.
         11   -1    0    0    0    0 -0.00000000000E+00 -0.00000000000E+00 -0.45593999997E+02  0.45594000000E+02  0.51100000000E-03 0. -1.
         23    2    1    2    0    0 -0.11102230246E-15  0.71054273576E-14  0.00000000000E+00  0.91188000000E+02  0.91188000000E+02 0.  0.
    9900012    2    3    3    0    0  0.47968185332E+00  0.37157149982E+02 -0.16500999383E+02  0.50528845187E+02  0.29999955430E+02 0.  0.
        -12    1    3    3    0    0 -0.47968185332E+00 -0.37157149982E+02  0.16500999383E+02  0.40659154813E+02  0.00000000000E+00 0.  1.
         11    1    4    4    0    0 -0.49712721436E+01  0.17968948901E+02  0.29974433538E+01  0.18883361413E+02  0.51100000000E-03 0. -1.
        -11    1    4    4    0    0  0.40946554982E+01  0.29706069554E+01 -0.13302152648E+02  0.14231583702E+02  0.51100000000E-03 0.  1.
        -12    1    4    4    0    0  0.13562984987E+01  0.16217594125E+02 -0.61962900883E+01  0.17413900071E+02  0.00000000000E+00 0.  1.
</event>
<event>
 8    1  0.6016610E-012  0.9118800E+02  0.7816164E-02  0.1184000E+00
        -11   -1    0    0    0    0  0.00000000000E+00  0.00000000000E+00  0.45593999997E+02  0.45594000000E+02  0.51100000000E-03 0. -1.
         11   -1    0    0    0    0 -0.00000000000E+00 -0.00000000000E+00 -0.45593999997E+02  0.45594000000E+02  0.51100000000E-03 0.  1.
         23    2    1    2    0    0  0.00000000000E+00  0.00000000000E+00  0.71054273576E-14  0.91188000000E+02  0.91188000000E+02 0.  0.
    9900012    2    3    3    0    0  0.68264815910E+01  0.11324512148E+02 -0.38448932138E+02  0.50528858237E+02  0.29999995099E+02 0.  0.
         12    1    3    3    0    0 -0.68264815910E+01 -0.11324512148E+02  0.38448932138E+02  0.40659141763E+02  0.00000000000E+00 0. -1.
         11    1    4    4    0    0 -0.13485250622E+01  0.52582792017E+01  0.35593934653E+01  0.64913251427E+01  0.51100000000E-03 0. -1.
        -11    1    4    4    0    0  0.39649772025E+01  0.38451819762E+01 -0.81438357569E+01  0.98401488679E+01  0.51100000000E-03 0.  1.
         12    1    4    4    0    0  0.42100294507E+01  0.22210509700E+01 -0.33864489847E+02  0.34197384227E+02  0.00000000000E+00 0. -1.
</event>
<event>
 8    1  0.6016610E-012  0.9118800E+02  0.7816164E-02  0.1184000E+00
        -11   -1    0    0    0    0  0.00000000000E+00  0.00000000000E+00  0.45593999997E+02  0.45594000000E+02  0.51100000000E-03 0. -1.
         11   -1    0    0    0    0 -0.00000000000E+00 -0.00000000000E+00 -0.45593999997E+02  0.45594000000E+02  0.51100000000E-03 0.  1.
         23    2    1    2    0    0 -0.30531133177E-15  0.00000000000E+00  0.35527136788E-14  0.91188000000E+02  0.91188000000E+02 0.  0.
    9900012    2    3    3    0    0  0.18062549277E+00 -0.27192203063E+02 -0.30227756779E+02  0.50528858188E+02  0.29999994950E+02 0.  0.
         12    1    3    3    0    0 -0.18062549277E+00  0.27192203063E+02  0.30227756779E+02  0.40659141812E+02  0.00000000000E+00 0. -1.
         11    1    4    4    0    0 -0.14957444591E+01 -0.79376684617E-01  0.54457165303E+01  0.56479536944E+01  0.51100000000E-03 0. -1.
        -11    1    4    4    0    0 -0.11594475889E+00 -0.58796206147E+01 -0.88076298479E+01  0.10590454455E+02  0.51100000000E-03 0.  1.
         12    1    4    4    0    0  0.17923147108E+01 -0.21233205763E+02 -0.26865843461E+02  0.34290450039E+02  0.00000000000E+00 0. -1.
</event>
<event>
 8    1  0.6016610E-012  0.9118800E+02  0.7816164E-02  0.1184000E+00
        -11   -1    0    0    0    0  0.00000000000E+00  0.00000000000E+00  0.45593999997E+02  0.45594000000E+02  0.51100000000E-03 0. -1.
         11   -1    0    0    0    0 -0.00000000000E+00 -0.00000000000E+00 -0.45593999997E+02  0.45594000000E+02  0.51100000000E-03 0.  1.
         23    2    1    2    0    0 -0.44408920985E-15  0.00000000000E+00  0.00000000000E+00  0.91188000000E+02  0.91188000000E+02 0.  0.
    9900012    2    3    3    0    0 -0.31407597118E+01 -0.18278427449E+02  0.36182868171E+02  0.50528865348E+02  0.30000016711E+02 0.  0.
        -12    1    3    3    0    0  0.31407597118E+01  0.18278427449E+02 -0.36182868171E+02  0.40659134652E+02  0.00000000000E+00 0.  1.
         11    1    4    4    0    0  0.30781080424E+01 -0.52622018873E+01  0.29899460441E+02  0.30514639974E+02  0.51100000000E-03 0. -1.
        -11    1    4    4    0    0 -0.42528744668E+01 -0.46609578607E+01 -0.33234494934E+01  0.71313944082E+01  0.51100000000E-03 0.  1.
        -12    1    4    4    0    0 -0.19659932874E+01 -0.83552677008E+01  0.96068572235E+01  0.12882830965E+02  0.00000000000E+00 0.  1.
</event>
<event>
 8    1  0.6016610E-012  0.9118800E+02  0.7816164E-02  0.1184000E+00
        -11   -1    0    0    0    0  0.00000000000E+00  0.00000000000E+00  0.45593999997E+02  0.45594000000E+02  0.51100000000E-03 0. -1.
         11   -1    0    0    0    0 -0.00000000000E+00 -0.00000000000E+00 -0.45593999997E+02  0.45594000000E+02  0.51100000000E-03 0.  1.
         23    2    1    2    0    0  0.17763568394E-14  0.00000000000E+00  0.00000000000E+00  0.91188000000E+02  0.91188000000E+02 0.  0.
    9900012    2    3    3    0    0  0.83932914170E+01 -0.25829570931E+02 -0.30258060793E+02  0.50528876568E+02  0.30000050816E+02 0.  0.
         12    1    3    3    0    0 -0.83932914170E+01  0.25829570931E+02  0.30258060793E+02  0.40659123432E+02  0.00000000000E+00 0. -1.
         11    1    4    4    0    0 -0.94020501289E+01 -0.30233328214E+01 -0.81518971830E+01  0.12805956267E+02  0.51100000000E-03 0. -1.
        -11    1    4    4    0    0  0.12658372464E+02 -0.18916257408E+02 -0.21398963169E+02  0.31240595588E+02  0.51100000000E-03 0.  1.
        -12    1    4    4    0    0  0.51369690824E+01 -0.38899807017E+01 -0.70720044099E+00  0.64823247124E+01  0.00000000000E+00 0.  1.
</event>
<event>
 8    1  0.6016610E-012  0.9118800E+02  0.7816164E-02  0.1184000E+00
        -11   -1    0    0    0    0  0.00000000000E+00  0.00000000000E+00  0.45593999997E+02  0.45594000000E+02  0.51100000000E-03 0. -1.
         11   -1    0    0    0    0 -0.00000000000E+00 -0.00000000000E+00 -0.45593999997E+02  0.45594000000E+02  0.51100000000E-03 0.  1.
         23    2    1    2    0    0  0.00000000000E+00 -0.88817841970E-15  0.00000000000E+00  0.91188000000E+02  0.91188000000E+02 0.  0.
    9900012    2    3    3    0    0 -0.22255062067E+02  0.66895121351E+01 -0.33363594041E+02  0.50528846448E+02  0.29999959265E+02 0.  0.
         12    1    3    3    0    0  0.22255062067E+02 -0.66895121351E+01  0.33363594041E+02  0.40659153552E+02  0.00000000000E+00 0. -1.
         11    1    4    4    0    0 -0.78989917106E+01  0.11292529738E+02 -0.53579338337E+00  0.13791387629E+02  0.51100000000E-03 0. -1.
        -11    1    4    4    0    0 -0.36240463793E+00 -0.16833160883E+01 -0.70921292477E+01  0.72981633102E+01  0.51100000000E-03 0.  1.
         12    1    4    4    0    0 -0.13993665718E+02 -0.29197015145E+01 -0.25735671410E+02  0.29439295509E+02  0.00000000000E+00 0. -1.
</event>
<event>
 8    1  0.6016610E-012  0.9118800E+02  0.7816164E-02  0.1184000E+00
        -11   -1    0    0    0    0  0.00000000000E+00  0.00000000000E+00  0.45593999997E+02  0.45594000000E+02  0.51100000000E-03 0. -1.
         11   -1    0    0    0    0 -0.00000000000E+00 -0.00000000000E+00 -0.45593999997E+02  0.45594000000E+02  0.51100000000E-03 0.  1.
         23    2    1    2    0    0 -0.17763568394E-14 -0.35527136788E-14  0.00000000000E+00  0.91188000000E+02  0.91188000000E+02 0.  0.
    9900012    2    3    3    0    0 -0.22591974009E+01 -0.30079082411E+02 -0.27263719164E+02  0.50528861369E+02  0.30000004616E+02 0.  0.
         12    1    3    3    0    0  0.22591974009E+01  0.30079082411E+02  0.27263719164E+02  0.40659138631E+02  0.00000000000E+00 0. -1.
         11    1    4    4    0    0  0.10653444327E+02 -0.82493748267E+01 -0.73805496730E+01  0.15362961134E+02  0.51100000000E-03 0. -1.
        -11    1    4    4    0    0 -0.12948880198E+02 -0.21738998752E+02 -0.21707617313E+02  0.33338839434E+02  0.51100000000E-03 0.  1.
        -12    1    4    4    0    0  0.36238470917E-01 -0.90708832250E-01  0.18244478215E+01  0.18270608015E+01  0.00000000000E+00 0.  1.
</event>
<event>
 8    1  0.6016610E-012  0.9118800E+02  0.7816164E-02  0.1184000E+00
        -11   -1    0    0    0    0  0.00000000000E+00  0.00000000000E+00  0.45593999997E+02  0.45594000000E+02  0.51100000000E-03 0. -1.
         11   -1    0    0    0    0 -0.00000000000E+00 -0.00000000000E+00 -0.45593999997E+02  0.45594000000E+02  0.51100000000E-03 0.  1.
         23    2    1    2    0    0  0.17208456882E-14  0.71054273576E-14  0.00000000000E+00  0.91188000000E+02  0.91188000000E+02 0.  0.
    9900012    2    3    3    0    0  0.35526057725E+00 -0.40474764065E+02 -0.38512891836E+01  0.50528866161E+02  0.30000019183E+02 0.  0.
         12    1    3    3    0    0 -0.35526057725E+00  0.40474764065E+02  0.38512891836E+01  0.40659133839E+02  0.00000000000E+00 0. -1.
         11    1    4    4    0    0 -0.88000177962E+01 -0.25185521602E+01  0.31538745592E+01  0.96814432392E+01  0.51100000000E-03 0. -1.
        -11    1    4    4    0    0  0.96292183079E+01 -0.21022894732E+02 -0.59401417437E+01  0.23874028406E+02  0.51100000000E-03 0.  1.
         12    1    4    4    0    0 -0.47393993445E+00 -0.16933317173E+02 -0.10650219991E+01  0.16973394516E+02  0.00000000000E+00 0. -1.
</event>
<event>
 8    1  0.6016610E-012  0.9118800E+02  0.7816164E-02  0.1184000E+00
        -11   -1    0    0    0    0  0.00000000000E+00  0.00000000000E+00  0.45593999997E+02  0.45594000000E+02  0.51100000000E-03 0.  1.
         11   -1    0    0    0    0 -0.00000000000E+00 -0.00000000000E+00 -0.45593999997E+02  0.45594000000E+02  0.51100000000E-03 0. -1.
         23    2    1    2    0    0  0.00000000000E+00  0.35527136788E-14  0.35527136788E-14  0.91188000000E+02  0.91188000000E+02 0.  0.
    9900012    2    3    3    0    0 -0.32898932202E+02 -0.22159915100E+02 -0.89310359440E+01  0.50528868426E+02  0.30000026068E+02 0.  0.
         12    1    3    3    0    0  0.32898932202E+02  0.22159915100E+02  0.89310359440E+01  0.40659131574E+02  0.00000000000E+00 0. -1.
         11    1    4    4    0    0 -0.13342329175E+02 -0.78407738096E+00 -0.35138230834E+01  0.13819532484E+02  0.51100000000E-03 0. -1.
        -11    1    4    4    0    0  0.19804749222E+01 -0.93314620669E+01  0.39368244771E+01  0.10319740910E+02  0.51100000000E-03 0.  1.
        -12    1    4    4    0    0 -0.21537077949E+02 -0.12044375652E+02 -0.93540373377E+01  0.26389595032E+02  0.00000000000E+00 0.  1.
</event>
<event>
 8    1  0.6016610E-012  0.9118800E+02  0.7816164E-02  0.1184000E+00
        -11   -1    0    0    0    0  0.00000000000E+00  0.00000000000E+00  0.45593999997E+02  0.45594000000E+02  0.51100000000E-03 0. -1.
         11   -1    0    0    0    0 -0.00000000000E+00 -0.00000000000E+00 -0.45593999997E+02  0.45594000000E+02  0.51100000000E-03 0.  1.
         23    2    1    2    0    0  0.00000000000E+00  0.00000000000E+00  0.00000000000E+00  0.91188000000E+02  0.91188000000E+02 0.  0.
    9900012    2    3    3    0    0  0.18915483614E+02 -0.22804054941E+02 -0.27845012652E+02  0.50528866074E+02  0.30000018918E+02 0.  0.
         12    1    3    3    0    0 -0.18915483614E+02  0.22804054941E+02  0.27845012652E+02  0.40659133926E+02  0.00000000000E+00 0. -1.
         11    1    4    4    0    0  0.16898060850E+02 -0.13754616216E+02 -0.72567099420E+00  0.21800470784E+02  0.51100000000E-03 0. -1.
        -11    1    4    4    0    0  0.16038714923E+01 -0.47894592784E+01 -0.12119374136E+02  0.13129758324E+02  0.51100000000E-03 0.  1.
         12    1    4    4    0    0  0.41355127100E+00 -0.42599794461E+01 -0.14999967521E+02  0.15598636965E+02  0.00000000000E+00 0. -1.
</event>
<event>
 8    1  0.6016610E-012  0.9118800E+02  0.7816164E-02  0.1184000E+00
        -11   -1    0    0    0    0  0.00000000000E+00  0.00000000000E+00  0.45593999997E+02  0.45594000000E+02  0.51100000000E-03 0. -1.
         11   -1    0    0    0    0 -0.00000000000E+00 -0.00000000000E+00 -0.45593999997E+02  0.45594000000E+02  0.51100000000E-03 0.  1.
         23    2    1    2    0    0  0.17763568394E-14 -0.17763568394E-14  0.00000000000E+00  0.91188000000E+02  0.91188000000E+02 0.  0.
    9900012    2    3    3    0    0  0.84345455364E+01 -0.11646582494E+02 -0.38031337449E+02  0.50528842725E+02  0.29999947947E+02 0.  0.
         12    1    3    3    0    0 -0.84345455364E+01  0.11646582494E+02  0.38031337449E+02  0.40659157275E+02  0.00000000000E+00 0. -1.
         11    1    4    4    0    0  0.19553272951E+02 -0.92225306141E+01 -0.22333527950E+02  0.31083307819E+02  0.51100000000E-03 0. -1.
        -11    1    4    4    0    0 -0.66655750011E+01 -0.71887722849E+00 -0.89287975735E+01  0.11165576606E+02  0.51100000000E-03 0.  1.
         12    1    4    4    0    0 -0.44531524136E+01 -0.17051746513E+01 -0.67690119248E+01  0.82799582999E+01  0.00000000000E+00 0. -1.
</event>
<event>
 8    1  0.6016610E-012  0.9118800E+02  0.7816164E-02  0.1184000E+00
        -11   -1    0    0    0    0  0.00000000000E+00  0.00000000000E+00  0.45593999997E+02  0.45594000000E+02  0.51100000000E-03 0. -1.
         11   -1    0    0    0    0 -0.00000000000E+00 -0.00000000000E+00 -0.45593999997E+02  0.45594000000E+02  0.51100000000E-03 0.  1.
         23    2    1    2    0    0 -0.17763568394E-14  0.00000000000E+00  0.00000000000E+00  0.91188000000E+02  0.91188000000E+02 0.  0.
    9900012    2    3    3    0    0 -0.15783011672E+02 -0.10108509130E+02 -0.36081562857E+02  0.50528873196E+02  0.30000040565E+02 0.  0.
         12    1    3    3    0    0  0.15783011672E+02  0.10108509130E+02  0.36081562857E+02  0.40659126804E+02  0.00000000000E+00 0. -1.
         11    1    4    4    0    0  0.27040387485E+01 -0.11771788575E+01  0.20112246041E-01  0.29492338631E+01  0.51100000000E-03 0. -1.
        -11    1    4    4    0    0 -0.13429532151E+02 -0.16657578301E+02 -0.21724463864E+02  0.30492287206E+02  0.51100000000E-03 0.  1.
        -12    1    4    4    0    0 -0.50575182697E+01  0.77262480287E+01 -0.14377211240E+02  0.17087352126E+02  0.00000000000E+00 0.  1.
</event>
<event>
 8    1  0.8971557E-012  0.9118800E+02  0.7816164E-02  0.1184000E+00
        -11   -1    0    0    0    0  0.00000000000E+00  0.00000000000E+00  0.45593999997E+02  0.45594000000E+02  0.51100000000E-03 0. -1.
         11   -1    0    0    0    0 -0.00000000000E+00 -0.00000000000E+00 -0.45593999997E+02  0.45594000000E+02  0.51100000000E-03 0.  1.
         23    2    1    2    0    0  0.00000000000E+00  0.88817841970E-15  0.00000000000E+00  0.91188000000E+02  0.91188000000E+02 0.  0.
    9900012    2    3    3    0    0  0.61526124974E+01  0.48750520646E+01  0.39894177218E+02  0.50528854054E+02  0.29999982382E+02 0.  0.
        -12    1    3    3    0    0 -0.61526124974E+01 -0.48750520646E+01 -0.39894177218E+02  0.40659145946E+02  0.00000000000E+00 0.  1.
         11    1    4    4    0    0 -0.19979898518E+01 -0.46594904102E+00  0.18993495393E+02  0.19103977058E+02  0.51100000000E-03 0. -1.
        -11    1    4    4    0    0  0.10324457688E+02 -0.33345563160E+01  0.27536657880E+01  0.11193586017E+02  0.51100000000E-03 0.  1.
        -12    1    4    4    0    0 -0.21738553388E+01  0.86755574216E+01  0.18147016037E+02  0.20231290979E+02  0.00000000000E+00 0.  1.
</event>
<event>
 8    1  0.6016610E-012  0.9118800E+02  0.7816164E-02  0.1184000E+00
        -11   -1    0    0    0    0  0.00000000000E+00  0.00000000000E+00  0.45593999997E+02  0.45594000000E+02  0.51100000000E-03 0. -1.
         11   -1    0    0    0    0 -0.00000000000E+00 -0.00000000000E+00 -0.45593999997E+02  0.45594000000E+02  0.51100000000E-03 0.  1.
         23    2    1    2    0    0  0.00000000000E+00  0.00000000000E+00  0.00000000000E+00  0.91188000000E+02  0.91188000000E+02 0.  0.
    9900012    2    3    3    0    0 -0.20358877189E+02  0.27123714213E+02 -0.22427324960E+02  0.50528872391E+02  0.30000038120E+02 0.  0.
         12    1    3    3    0    0  0.20358877189E+02 -0.27123714213E+02  0.22427324960E+02  0.40659127609E+02  0.00000000000E+00 0. -1.
         11    1    4    4    0    0 -0.17056152865E+02  0.40004060386E+01 -0.36215221752E+01  0.17889410895E+02  0.51100000000E-03 0. -1.
        -11    1    4    4    0    0 -0.24614680065E+01  0.11712126249E+02 -0.17389644204E+02  0.21110008333E+02  0.51100000000E-03 0.  1.
        -12    1    4    4    0    0 -0.84125631685E+00  0.11411181925E+02 -0.14161585810E+01  0.11529453164E+02  0.00000000000E+00 0.  1.
</event>
<event>
 8    1  0.6016610E-012  0.9118800E+02  0.7816164E-02  0.1184000E+00
        -11   -1    0    0    0    0  0.00000000000E+00  0.00000000000E+00  0.45593999997E+02  0.45594000000E+02  0.51100000000E-03 0. -1.
         11   -1    0    0    0    0 -0.00000000000E+00 -0.00000000000E+00 -0.45593999997E+02  0.45594000000E+02  0.51100000000E-03 0.  1.
         23    2    1    2    0    0 -0.17763568394E-14 -0.17763568394E-14  0.00000000000E+00  0.91188000000E+02  0.91188000000E+02 0.  0.
    9900012    2    3    3    0    0  0.11639810970E+02  0.14903705751E+02 -0.35993883971E+02  0.50528864152E+02  0.30000013078E+02 0.  0.
         12    1    3    3    0    0 -0.11639810970E+02 -0.14903705751E+02  0.35993883971E+02  0.40659135848E+02  0.00000000000E+00 0. -1.
         11    1    4    4    0    0 -0.34122698809E+01  0.14871784078E+02 -0.75781602102E+01  0.17036492005E+02  0.51100000000E-03 0. -1.
        -11    1    4    4    0    0  0.10973452473E+02 -0.28688966035E+01 -0.24942573639E+02  0.27400350489E+02  0.51100000000E-03 0.  1.
         12    1    4    4    0    0  0.40786283776E+01  0.29008182766E+01 -0.34731501217E+01  0.60920216583E+01  0.00000000000E+00 0. -1.
</event>
<event>
 8    1  0.6016610E-012  0.9118800E+02  0.7816164E-02  0.1184000E+00
        -11   -1    0    0    0    0  0.00000000000E+00  0.00000000000E+00  0.45593999997E+02  0.45594000000E+02  0.51100000000E-03 0. -1.
         11   -1    0    0    0    0 -0.00000000000E+00 -0.00000000000E+00 -0.45593999997E+02  0.45594000000E+02  0.51100000000E-03 0.  1.
         23    2    1    2    0    0  0.00000000000E+00  0.00000000000E+00  0.00000000000E+00  0.91188000000E+02  0.91188000000E+02 0.  0.
    9900012    2    3    3    0    0  0.14320205712E+02 -0.75588289214E+01 -0.37295720140E+02  0.50528746108E+02  0.29999654269E+02 0.  0.
         12    1    3    3    0    0 -0.14320205712E+02  0.75588289214E+01  0.37295720140E+02  0.40659253892E+02  0.00000000000E+00 0. -1.
         11    1    4    4    0    0  0.45828097855E+01  0.66320062175E+01 -0.22451765077E+02  0.23855133773E+02  0.51100000000E-03 0. -1.
        -11    1    4    4    0    0  0.11133787349E+02 -0.42221331023E+01 -0.63052240069E+01  0.13473807134E+02  0.51100000000E-03 0.  1.
         12    1    4    4    0    0 -0.13963914224E+01 -0.99687020366E+01 -0.85387310561E+01  0.13199805201E+02  0.00000000000E+00 0. -1.
</event>
<event>
 8    1  0.6016610E-012  0.9118800E+02  0.7816164E-02  0.1184000E+00
        -11   -1    0    0    0    0  0.00000000000E+00  0.00000000000E+00  0.45593999997E+02  0.45594000000E+02  0.51100000000E-03 0.  1.
         11   -1    0    0    0    0 -0.00000000000E+00 -0.00000000000E+00 -0.45593999997E+02  0.45594000000E+02  0.51100000000E-03 0. -1.
         23    2    1    2    0    0  0.00000000000E+00 -0.35527136788E-14 -0.26367796835E-15  0.91188000000E+02  0.91188000000E+02 0.  0.
    9900012    2    3    3    0    0  0.32297605439E+02 -0.24698679955E+02 -0.83163761846E-01  0.50528843285E+02  0.29999949649E+02 0.  0.
         12    1    3    3    0    0 -0.32297605439E+02  0.24698679955E+02  0.83163761846E-01  0.40659156715E+02  0.00000000000E+00 0. -1.
         11    1    4    4    0    0 -0.16390019806E+01 -0.66101114403E+01  0.36987876038E+00  0.68203160707E+01  0.51100000000E-03 0. -1.
        -11    1    4    4    0    0  0.23641889066E+02 -0.92098338535E+01 -0.98123172646E+01  0.27203704318E+02  0.51100000000E-03 0.  1.
         12    1    4    4    0    0  0.10294718353E+02 -0.88787346610E+01  0.93592747424E+01  0.16504822897E+02  0.00000000000E+00 0. -1.
</event>
<event>
 8    1  0.6016610E-012  0.9118800E+02  0.7816164E-02  0.1184000E+00
        -11   -1    0    0    0    0  0.00000000000E+00  0.00000000000E+00  0.45593999997E+02  0.45594000000E+02  0.51100000000E-03 0.  1.
         11   -1    0    0    0    0 -0.00000000000E+00 -0.00000000000E+00 -0.45593999997E+02  0.45594000000E+02  0.51100000000E-03 0. -1.
         23    2    1    2    0    0  0.00000000000E+00  0.00000000000E+00 -0.17763568394E-14  0.91188000000E+02  0.91188000000E+02 0.  0.
    9900012    2    3    3    0    0 -0.96831030013E+01  0.37402527963E+02  0.12667053518E+02  0.50528858019E+02  0.29999994436E+02 0.  0.
        -12    1    3    3    0    0  0.96831030013E+01 -0.37402527963E+02 -0.12667053518E+02  0.40659141981E+02  0.00000000000E+00 0.  1.
         11    1    4    4    0    0 -0.91861052572E+01  0.63532446321E+01  0.10973882157E+00  0.11169614587E+02  0.51100000000E-03 0. -1.
        -11    1    4    4    0    0  0.46161684569E+01  0.25298728808E+02  0.16657561157E+02  0.30639990772E+02  0.51100000000E-03 0.  1.
        -12    1    4    4    0    0 -0.51131662010E+01  0.57505545234E+01 -0.41002464607E+01  0.87192526609E+01  0.00000000000E+00 0.  1.
</event>
<event>
 8    1  0.6016610E-012  0.9118800E+02  0.7816164E-02  0.1184000E+00
        -11   -1    0    0    0    0  0.00000000000E+00  0.00000000000E+00  0.45593999997E+02  0.45594000000E+02  0.51100000000E-03 0. -1.
         11   -1    0    0    0    0 -0.00000000000E+00 -0.00000000000E+00 -0.45593999997E+02  0.45594000000E+02  0.51100000000E-03 0.  1.
         23    2    1    2    0    0  0.00000000000E+00  0.00000000000E+00  0.00000000000E+00  0.91188000000E+02  0.91188000000E+02 0.  0.
    9900012    2    3    3    0    0  0.14606418332E+02 -0.20355905735E+02  0.32022725412E+02  0.50528864525E+02  0.30000014209E+02 0.  0.
        -12    1    3    3    0    0 -0.14606418332E+02  0.20355905735E+02 -0.32022725412E+02  0.40659135475E+02  0.00000000000E+00 0.  1.
         11    1    4    4    0    0  0.38925484536E+01 -0.18441256337E+02  0.28882104358E+02  0.34487792350E+02  0.51100000000E-03 0. -1.
        -11    1    4    4    0    0  0.80712769678E+01  0.40343512871E+01  0.30694437403E+01  0.95311587614E+01  0.51100000000E-03 0.  1.
         12    1    4    4    0    0  0.26425929107E+01 -0.59490006848E+01  0.71177313962E-01  0.65099134133E+01  0.00000000000E+00 0. -1.
</event>
<event>
 8    1  0.6016610E-012  0.9118800E+02  0.7816164E-02  0.1184000E+00
        -11   -1    0    0    0    0  0.00000000000E+00  0.00000000000E+00  0.45593999997E+02  0.45594000000E+02  0.51100000000E-03 0. -1.
         11   -1    0    0    0    0 -0.00000000000E+00 -0.00000000000E+00 -0.45593999997E+02  0.45594000000E+02  0.51100000000E-03 0.  1.
         23    2    1    2    0    0 -0.17763568394E-14  0.00000000000E+00  0.00000000000E+00  0.91188000000E+02  0.91188000000E+02 0.  0.
    9900012    2    3    3    0    0 -0.27470905269E+01  0.34017723679E+02  0.22100100948E+02  0.50528849830E+02  0.29999969543E+02 0.  0.
        -12    1    3    3    0    0  0.27470905269E+01 -0.34017723679E+02 -0.22100100948E+02  0.40659150170E+02  0.00000000000E+00 0.  1.
         11    1    4    4    0    0  0.93053599657E+01  0.10217847751E+02 -0.16140213201E+01  0.13913993022E+02  0.51100000000E-03 0. -1.
        -11    1    4    4    0    0 -0.87255584960E+01  0.89757899906E+01  0.12834267218E+02  0.17928150834E+02  0.51100000000E-03 0.  1.
         12    1    4    4    0    0 -0.33268919965E+01  0.14824085937E+02  0.10879855050E+02  0.18686705974E+02  0.00000000000E+00 0. -1.
</event>
<event>
 8    1  0.6016610E-012  0.9118800E+02  0.7816164E-02  0.1184000E+00
        -11   -1    0    0    0    0  0.00000000000E+00  0.00000000000E+00  0.45593999997E+02  0.45594000000E+02  0.51100000000E-03 0. -1.
         11   -1    0    0    0    0 -0.00000000000E+00 -0.00000000000E+00 -0.45593999997E+02  0.45594000000E+02  0.51100000000E-03 0.  1.
         23    2    1    2    0    0  0.88817841970E-15 -0.11102230246E-15  0.00000000000E+00  0.91188000000E+02  0.91188000000E+02 0.  0.
    9900012    2    3    3    0    0 -0.64176033369E+01 -0.85689122555E+00 -0.40140339132E+02  0.50528847023E+02  0.29999961011E+02 0.  0.
         12    1    3    3    0    0  0.64176033369E+01  0.85689122555E+00  0.40140339132E+02  0.40659152977E+02  0.00000000000E+00 0. -1.
         11    1    4    4    0    0  0.71326885955E+01 -0.23984656727E+01 -0.35509129967E+01  0.83208693990E+01  0.51100000000E-03 0. -1.
        -11    1    4    4    0    0 -0.35546791261E+01  0.14472895003E+01 -0.29979425555E+02  0.30224102095E+02  0.51100000000E-03 0.  1.
         12    1    4    4    0    0 -0.99956128063E+01  0.94284946865E-01 -0.66100005807E+01  0.11983875529E+02  0.00000000000E+00 0. -1.
</event>
<event>
 8    1  0.6016610E-012  0.9118800E+02  0.7816164E-02  0.1184000E+00
        -11   -1    0    0    0    0  0.00000000000E+00  0.00000000000E+00  0.45593999997E+02  0.45594000000E+02  0.51100000000E-03 0. -1.
         11   -1    0    0    0    0 -0.00000000000E+00 -0.00000000000E+00 -0.45593999997E+02  0.45594000000E+02  0.51100000000E-03 0.  1.
         23    2    1    2    0    0  0.35527136788E-14 -0.35527136788E-14 -0.35527136788E-14  0.91188000000E+02  0.91188000000E+02 0.  0.
    9900012    2    3    3    0    0  0.18850185747E+02 -0.29894573739E+02 -0.20103498621E+02  0.50528859594E+02  0.29999999222E+02 0.  0.
         12    1    3    3    0    0 -0.18850185747E+02  0.29894573739E+02  0.20103498621E+02  0.40659140406E+02  0.00000000000E+00 0. -1.
         11    1    4    4    0    0  0.10511169553E+01  0.19411340106E+01  0.48800176096E+01  0.53560638749E+01  0.51100000000E-03 0. -1.
        -11    1    4    4    0    0  0.14050944423E+02 -0.27902845594E+02 -0.24531016940E+02  0.39721135731E+02  0.51100000000E-03 0.  1.
        -12    1    4    4    0    0  0.37481243685E+01 -0.39328621558E+01 -0.45249929101E+00  0.54516599882E+01  0.00000000000E+00 0.  1.
</event>
<event>
 8    1  0.6016610E-012  0.9118800E+02  0.7816164E-02  0.1184000E+00
        -11   -1    0    0    0    0  0.00000000000E+00  0.00000000000E+00  0.45593999997E+02  0.45594000000E+02  0.51100000000E-03 0. -1.
         11   -1    0    0    0    0 -0.00000000000E+00 -0.00000000000E+00 -0.45593999997E+02  0.45594000000E+02  0.51100000000E-03 0.  1.
         23    2    1    2    0    0  0.35527136788E-14  0.66613381478E-15 -0.35527136788E-14  0.91188000000E+02  0.91188000000E+02 0.  0.
    9900012    2    3    3    0    0  0.27748899294E+02  0.16931366345E+01  0.29669801285E+02  0.50528865331E+02  0.30000016661E+02 0.  0.
        -12    1    3    3    0    0 -0.27748899294E+02 -0.16931366345E+01 -0.29669801285E+02  0.40659134669E+02  0.00000000000E+00 0.  1.
         11    1    4    4    0    0  0.15599976578E+02 -0.38435121458E+01  0.32828957919E+01  0.16398452973E+02  0.51100000000E-03 0. -1.
        -11    1    4    4    0    0 -0.29314471793E+01  0.58712086700E+01  0.78409327005E+01  0.10224710249E+02  0.51100000000E-03 0.  1.
        -12    1    4    4    0    0  0.15080369895E+02 -0.33455988969E+00  0.18545972793E+02  0.23905702109E+02  0.00000000000E+00 0.  1.
</event>
<event>
 8    1  0.6016610E-012  0.9118800E+02  0.7816164E-02  0.1184000E+00
        -11   -1    0    0    0    0  0.00000000000E+00  0.00000000000E+00  0.45593999997E+02  0.45594000000E+02  0.51100000000E-03 0. -1.
         11   -1    0    0    0    0 -0.00000000000E+00 -0.00000000000E+00 -0.45593999997E+02  0.45594000000E+02  0.51100000000E-03 0.  1.
         23    2    1    2    0    0  0.00000000000E+00  0.00000000000E+00  0.00000000000E+00  0.91188000000E+02  0.91188000000E+02 0.  0.
    9900012    2    3    3    0    0 -0.23780408038E+02  0.18121470197E+02 -0.27554860185E+02  0.50528858243E+02  0.29999995116E+02 0.  0.
         12    1    3    3    0    0  0.23780408038E+02 -0.18121470197E+02  0.27554860185E+02  0.40659141757E+02  0.00000000000E+00 0. -1.
         11    1    4    4    0    0 -0.32781502639E+01 -0.35421072394E+01 -0.38050746925E+01  0.61458430280E+01  0.51100000000E-03 0. -1.
        -11    1    4    4    0    0 -0.25136187030E+02  0.20194168511E+02 -0.22636107110E+02  0.39395757203E+02  0.51100000000E-03 0.  1.
        -12    1    4    4    0    0  0.46339292556E+01  0.14694089251E+01 -0.11136783828E+01  0.49872580117E+01  0.00000000000E+00 0.  1.
</event>
<event>
 8    1  0.6016610E-012  0.9118800E+02  0.7816164E-02  0.1184000E+00
        -11   -1    0    0    0    0  0.00000000000E+00  0.00000000000E+00  0.45593999997E+02  0.45594000000E+02  0.51100000000E-03 0. -1.
         11   -1    0    0    0    0 -0.00000000000E+00 -0.00000000000E+00 -0.45593999997E+02  0.45594000000E+02  0.51100000000E-03 0.  1.
         23    2    1    2    0    0  0.35527136788E-14  0.35527136788E-14  0.00000000000E+00  0.91188000000E+02  0.91188000000E+02 0.  0.
    9900012    2    3    3    0    0  0.24002656444E+02 -0.26720673811E+02 -0.19053711522E+02  0.50528857756E+02  0.29999993634E+02 0.  0.
         12    1    3    3    0    0 -0.24002656444E+02  0.26720673811E+02  0.19053711522E+02  0.40659142244E+02  0.00000000000E+00 0. -1.
         11    1    4    4    0    0  0.61925033913E+01 -0.13648795940E+02 -0.75552800401E+01  0.16784486456E+02  0.51100000000E-03 0. -1.
        -11    1    4    4    0    0  0.93373716525E+01  0.30407046570E+01  0.32197499287E+01  0.10334369069E+02  0.51100000000E-03 0.  1.
        -12    1    4    4    0    0  0.84727814002E+01 -0.16112582529E+02 -0.14718181410E+02  0.23410002230E+02  0.00000000000E+00 0.  1.
</event>
<event>
 8    1  0.6016610E-012  0.9118800E+02  0.7816164E-02  0.1184000E+00
        -11   -1    0    0    0    0  0.00000000000E+00  0.00000000000E+00  0.45593999997E+02  0.45594000000E+02  0.51100000000E-03 0. -1.
         11   -1    0    0    0    0 -0.00000000000E+00 -0.00000000000E+00 -0.45593999997E+02  0.45594000000E+02  0.51100000000E-03 0.  1.
         23    2    1    2    0    0  0.35527136788E-14  0.55511151231E-15 -0.35527136788E-14  0.91188000000E+02  0.91188000000E+02 0.  0.
    9900012    2    3    3    0    0 -0.25076059600E+02 -0.65197278575E+00  0.31998830743E+02  0.50528941938E+02  0.30000249513E+02 0.  0.
        -12    1    3    3    0    0  0.25076059600E+02  0.65197278575E+00 -0.31998830743E+02  0.40659058062E+02  0.00000000000E+00 0.  1.
         11    1    4    4    0    0 -0.25690232895E+02  0.56849694495E+01  0.12738770292E+02  0.29233255252E+02  0.51100000000E-03 0. -1.
        -11    1    4    4    0    0  0.13945173009E+01  0.14827063857E+00  0.91649381925E+01  0.92716101632E+01  0.51100000000E-03 0.  1.
         12    1    4    4    0    0 -0.78034400567E+00 -0.64852128738E+01  0.10095122259E+02  0.12024076522E+02  0.00000000000E+00 0. -1.
</event>
<event>
 8    1  0.6016610E-012  0.9118800E+02  0.7816164E-02  0.1184000E+00
        -11   -1    0    0    0    0  0.00000000000E+00  0.00000000000E+00  0.45593999997E+02  0.45594000000E+02  0.51100000000E-03 0.  1.
         11   -1    0    0    0    0 -0.00000000000E+00 -0.00000000000E+00 -0.45593999997E+02  0.45594000000E+02  0.51100000000E-03 0. -1.
         23    2    1    2    0    0  0.88817841970E-15 -0.71054273576E-14 -0.88817841970E-15  0.91188000000E+02  0.91188000000E+02 0.  0.
    9900012    2    3    3    0    0  0.47231497345E+01 -0.40306318504E+02 -0.25015275248E+01  0.50528867020E+02  0.30000021793E+02 0.  0.
         12    1    3    3    0    0 -0.47231497345E+01  0.40306318504E+02  0.25015275248E+01  0.40659132980E+02  0.00000000000E+00 0. -1.
         11    1    4    4    0    0 -0.59372467747E+01 -0.92659949124E+01 -0.55195149809E+01  0.12311563949E+02  0.51100000000E-03 0. -1.
        -11    1    4    4    0    0  0.44035311468E+01  0.41738492303E-01  0.47336987228E+01  0.64653486002E+01  0.51100000000E-03 0.  1.
        -12    1    4    4    0    0  0.62568653624E+01 -0.31082062084E+02 -0.17157112667E+01  0.31751954471E+02  0.00000000000E+00 0.  1.
</event>
<event>
 8    1  0.6016610E-012  0.9118800E+02  0.7816164E-02  0.1184000E+00
        -11   -1    0    0    0    0  0.00000000000E+00  0.00000000000E+00  0.45593999997E+02  0.45594000000E+02  0.51100000000E-03 0. -1.
         11   -1    0    0    0    0 -0.00000000000E+00 -0.00000000000E+00 -0.45593999997E+02  0.45594000000E+02  0.51100000000E-03 0.  1.
         23    2    1    2    0    0  0.00000000000E+00  0.91593399532E-15  0.00000000000E+00  0.91188000000E+02  0.91188000000E+02 0.  0.
    9900012    2    3    3    0    0  0.76170047008E+01  0.20652136073E+00 -0.39938761202E+02  0.50528855173E+02  0.29999985784E+02 0.  0.
         12    1    3    3    0    0 -0.76170047008E+01 -0.20652136073E+00  0.39938761202E+02  0.40659144827E+02  0.00000000000E+00 0. -1.
         11    1    4    4    0    0  0.12059564005E+02 -0.74301784660E+01 -0.34872917448E+02  0.37639885861E+02  0.51100000000E-03 0. -1.
        -11    1    4    4    0    0 -0.48511212111E+01  0.57001074885E+01 -0.37423545085E-01  0.74850519816E+01  0.51100000000E-03 0.  1.
         12    1    4    4    0    0  0.40856190727E+00  0.19365923382E+01 -0.50284202093E+01  0.54039173307E+01  0.00000000000E+00 0. -1.
</event>
<event>
 8    1  0.6016610E-012  0.9118800E+02  0.7816164E-02  0.1184000E+00
        -11   -1    0    0    0    0  0.00000000000E+00  0.00000000000E+00  0.45593999997E+02  0.45594000000E+02  0.51100000000E-03 0. -1.
         11   -1    0    0    0    0 -0.00000000000E+00 -0.00000000000E+00 -0.45593999997E+02  0.45594000000E+02  0.51100000000E-03 0.  1.
         23    2    1    2    0    0  0.00000000000E+00 -0.11102230246E-15  0.00000000000E+00  0.91188000000E+02  0.91188000000E+02 0.  0.
    9900012    2    3    3    0    0  0.99856396474E+01 -0.34986629256E+00  0.39412343707E+02  0.50528828315E+02  0.29999904147E+02 0.  0.
        -12    1    3    3    0    0 -0.99856396474E+01  0.34986629256E+00 -0.39412343707E+02  0.40659171685E+02  0.00000000000E+00 0.  1.
         11    1    4    4    0    0  0.42474241457E+01  0.10799601476E+02  0.13091920353E+02  0.17494867325E+02  0.51100000000E-03 0. -1.
        -11    1    4    4    0    0  0.64139648565E+01 -0.58858592203E+01  0.31407110355E+01  0.92545313231E+01  0.51100000000E-03 0.  1.
        -12    1    4    4    0    0 -0.67574935478E+00 -0.52636085482E+01  0.23179712319E+02  0.23779429668E+02  0.00000000000E+00 0.  1.
</event>
<event>
 8    1  0.6016610E-012  0.9118800E+02  0.7816164E-02  0.1184000E+00
        -11   -1    0    0    0    0  0.00000000000E+00  0.00000000000E+00  0.45593999997E+02  0.45594000000E+02  0.51100000000E-03 0. -1.
         11   -1    0    0    0    0 -0.00000000000E+00 -0.00000000000E+00 -0.45593999997E+02  0.45594000000E+02  0.51100000000E-03 0.  1.
         23    2    1    2    0    0  0.44408920985E-15  0.00000000000E+00 -0.35527136788E-14  0.91188000000E+02  0.91188000000E+02 0.  0.
    9900012    2    3    3    0    0  0.38770292713E+01 -0.34683512238E+02 -0.20861187144E+02  0.50528849662E+02  0.29999969032E+02 0.  0.
         12    1    3    3    0    0 -0.38770292713E+01  0.34683512238E+02  0.20861187144E+02  0.40659150338E+02  0.00000000000E+00 0. -1.
         11    1    4    4    0    0 -0.47534018908E+01  0.23652646037E+01  0.10012386225E+01  0.54029422745E+01  0.51100000000E-03 0. -1.
        -11    1    4    4    0    0  0.94704894207E+00 -0.19717339410E+02 -0.15600213011E+02  0.25160226973E+02  0.51100000000E-03 0.  1.
         12    1    4    4    0    0  0.76833822200E+01 -0.17331437432E+02 -0.62622127561E+01  0.19965680414E+02  0.00000000000E+00 0. -1.
</event>
<event>
 8    1  0.6016610E-012  0.9118800E+02  0.7816164E-02  0.1184000E+00
        -11   -1    0    0    0    0  0.00000000000E+00  0.00000000000E+00  0.45593999997E+02  0.45594000000E+02  0.51100000000E-03 0. -1.
         11   -1    0    0    0    0 -0.00000000000E+00 -0.00000000000E+00 -0.45593999997E+02  0.45594000000E+02  0.51100000000E-03 0.  1.
         23    2    1    2    0    0  0.00000000000E+00 -0.17763568394E-14  0.88817841970E-15  0.91188000000E+02  0.91188000000E+02 0.  0.
    9900012    2    3    3    0    0  0.39201330405E+02 -0.85256915017E+01  0.66132694598E+01  0.50528842925E+02  0.29999948554E+02 0.  0.
        -12    1    3    3    0    0 -0.39201330405E+02  0.85256915017E+01 -0.66132694598E+01  0.40659157075E+02  0.00000000000E+00 0.  1.
         11    1    4    4    0    0  0.16495278265E+02  0.65007753663E+01 -0.57095251982E+00  0.17739229759E+02  0.51100000000E-03 0. -1.
        -11    1    4    4    0    0 -0.11992192751E+01 -0.56192540773E+01 -0.99080266255E+00  0.58305946036E+01  0.51100000000E-03 0.  1.
         12    1    4    4    0    0  0.23905271416E+02 -0.94072127907E+01  0.81750246422E+01  0.26959018563E+02  0.00000000000E+00 0. -1.
</event>
<event>
 8    1  0.6016610E-012  0.9118800E+02  0.7816164E-02  0.1184000E+00
        -11   -1    0    0    0    0  0.00000000000E+00  0.00000000000E+00  0.45593999997E+02  0.45594000000E+02  0.51100000000E-03 0. -1.
         11   -1    0    0    0    0 -0.00000000000E+00 -0.00000000000E+00 -0.45593999997E+02  0.45594000000E+02  0.51100000000E-03 0.  1.
         23    2    1    2    0    0  0.17763568394E-14 -0.44408920985E-15  0.71054273576E-14  0.91188000000E+02  0.91188000000E+02 0.  0.
    9900012    2    3    3    0    0  0.11421529876E+02 -0.22766060973E+01  0.38955503273E+02  0.50528861848E+02  0.30000006074E+02 0.  0.
        -12    1    3    3    0    0 -0.11421529876E+02  0.22766060973E+01 -0.38955503273E+02  0.40659138152E+02  0.00000000000E+00 0.  1.
         11    1    4    4    0    0  0.98176763279E+01 -0.74084544399E+01  0.36095067063E+02  0.38133001878E+02  0.51100000000E-03 0. -1.
        -11    1    4    4    0    0 -0.27182993136E+01  0.25400567160E+00 -0.26919722917E+01  0.38341081257E+01  0.51100000000E-03 0.  1.
         12    1    4    4    0    0  0.43221528618E+01  0.48778426710E+01  0.55524085011E+01  0.85617518445E+01  0.00000000000E+00 0. -1.
</event>
<event>
 8    1  0.6016610E-012  0.9118800E+02  0.7816164E-02  0.1184000E+00
        -11   -1    0    0    0    0  0.00000000000E+00  0.00000000000E+00  0.45593999997E+02  0.45594000000E+02  0.51100000000E-03 0. -1.
         11   -1    0    0    0    0 -0.00000000000E+00 -0.00000000000E+00 -0.45593999997E+02  0.45594000000E+02  0.51100000000E-03 0.  1.
         23    2    1    2    0    0  0.26645352591E-14  0.35527136788E-14 -0.71054273576E-14  0.91188000000E+02  0.91188000000E+02 0.  0.
    9900012    2    3    3    0    0  0.64087883814E+01  0.23133424074E+02 -0.32816806305E+02  0.50528798655E+02  0.29999813992E+02 0.  0.
         12    1    3    3    0    0 -0.64087883814E+01 -0.23133424074E+02  0.32816806305E+02  0.40659201345E+02  0.00000000000E+00 0. -1.
         11    1    4    4    0    0 -0.35403889077E+01  0.18986745223E+02 -0.65381455776E+01  0.20390639902E+02  0.51100000000E-03 0.  1.
        -11    1    4    4    0    0 -0.47903242001E+00  0.35695076528E+01 -0.32471709741E+01  0.48492243234E+01  0.51100000000E-03 0. -1.
         12    1    4    4    0    0  0.10428209709E+02  0.57717119867E+00 -0.23031489754E+02  0.25288934430E+02  0.00000000000E+00 0. -1.
</event>
<event>
 8    1  0.6758236E-012  0.9118800E+02  0.7816164E-02  0.1184000E+00
        -11   -1    0    0    0    0  0.00000000000E+00  0.00000000000E+00  0.45593999997E+02  0.45594000000E+02  0.51100000000E-03 0. -1.
         11   -1    0    0    0    0 -0.00000000000E+00 -0.00000000000E+00 -0.45593999997E+02  0.45594000000E+02  0.51100000000E-03 0.  1.
         23    2    1    2    0    0  0.00000000000E+00 -0.22204460493E-15  0.71054273576E-14  0.91188000000E+02  0.91188000000E+02 0.  0.
    9900012    2    3    3    0    0  0.19332076105E+01  0.12003657926E+01  0.40595416978E+02  0.50528855280E+02  0.29999986109E+02 0.  0.
        -12    1    3    3    0    0 -0.19332076105E+01 -0.12003657926E+01 -0.40595416978E+02  0.40659144720E+02  0.00000000000E+00 0.  1.
         11    1    4    4    0    0 -0.45186329047E+01 -0.84287117337E+00  0.32963602674E+02  0.33282541620E+02  0.51100000000E-03 0. -1.
        -11    1    4    4    0    0  0.69147543978E+01  0.73769293724E+01  0.48953551080E+01  0.11233762381E+02  0.51100000000E-03 0.  1.
        -12    1    4    4    0    0 -0.46291388254E+00 -0.53336924065E+01  0.27364591962E+01  0.60125512789E+01  0.00000000000E+00 0.  1.
</event>
<event>
 8    1  0.6016610E-012  0.9118800E+02  0.7816164E-02  0.1184000E+00
        -11   -1    0    0    0    0  0.00000000000E+00  0.00000000000E+00  0.45593999997E+02  0.45594000000E+02  0.51100000000E-03 0. -1.
         11   -1    0    0    0    0 -0.00000000000E+00 -0.00000000000E+00 -0.45593999997E+02  0.45594000000E+02  0.51100000000E-03 0.  1.
         23    2    1    2    0    0 -0.35527136788E-14  0.00000000000E+00  0.00000000000E+00  0.91188000000E+02  0.91188000000E+02 0.  0.
    9900012    2    3    3    0    0 -0.24650665939E+02 -0.18725203631E+01 -0.32280069551E+02  0.50528873669E+02  0.30000042005E+02 0.  0.
         12    1    3    3    0    0  0.24650665939E+02  0.18725203631E+01  0.32280069551E+02  0.40659126331E+02  0.00000000000E+00 0. -1.
         11    1    4    4    0    0 -0.11407231955E+02  0.26619915775E+01 -0.25043481276E+01  0.11978434782E+02  0.51100000000E-03 0. -1.
        -11    1    4    4    0    0 -0.81360893040E+00 -0.40651616979E+01 -0.24815177685E+02  0.25159104573E+02  0.51100000000E-03 0.  1.
        -12    1    4    4    0    0 -0.12429825054E+02 -0.46935024270E+00 -0.49605437386E+01  0.13391334314E+02  0.00000000000E+00 0.  1.
</event>
<event>
 8    1  0.6016610E-012  0.9118800E+02  0.7816164E-02  0.1184000E+00
        -11   -1    0    0    0    0  0.00000000000E+00  0.00000000000E+00  0.45593999997E+02  0.45594000000E+02  0.51100000000E-03 0.  1.
         11   -1    0    0    0    0 -0.00000000000E+00 -0.00000000000E+00 -0.45593999997E+02  0.45594000000E+02  0.51100000000E-03 0. -1.
         23    2    1    2    0    0  0.35527136788E-14  0.44408920985E-15  0.71054273576E-14  0.91188000000E+02  0.91188000000E+02 0.  0.
    9900012    2    3    3    0    0  0.18236214379E+02  0.20135059570E+01  0.36284364464E+02  0.50528821139E+02  0.29999882333E+02 0.  0.
        -12    1    3    3    0    0 -0.18236214379E+02 -0.20135059570E+01 -0.36284364464E+02  0.40659178861E+02  0.00000000000E+00 0.  1.
         11    1    4    4    0    0  0.12113978976E+02 -0.10199301482E+01  0.21362071797E+01  0.12343100321E+02  0.51100000000E-03 0. -1.
        -11    1    4    4    0    0 -0.50441623451E+01 -0.60113939665E+00  0.13614666947E+02  0.14531486458E+02  0.51100000000E-03 0.  1.
        -12    1    4    4    0    0  0.11166397748E+02  0.36345755018E+01  0.20533490337E+02  0.23654234360E+02  0.00000000000E+00 0.  1.
</event>
<event>
 8    1  0.6016610E-012  0.9118800E+02  0.7816164E-02  0.1184000E+00
        -11   -1    0    0    0    0  0.00000000000E+00  0.00000000000E+00  0.45593999997E+02  0.45594000000E+02  0.51100000000E-03 0. -1.
         11   -1    0    0    0    0 -0.00000000000E+00 -0.00000000000E+00 -0.45593999997E+02  0.45594000000E+02  0.51100000000E-03 0.  1.
         23    2    1    2    0    0  0.00000000000E+00  0.00000000000E+00  0.00000000000E+00  0.91188000000E+02  0.91188000000E+02 0.  0.
    9900012    2    3    3    0    0  0.12346294488E+02  0.17637088960E+02 -0.34491561017E+02  0.50528859872E+02  0.30000000066E+02 0.  0.
         12    1    3    3    0    0 -0.12346294488E+02 -0.17637088960E+02  0.34491561017E+02  0.40659140128E+02  0.00000000000E+00 0. -1.
         11    1    4    4    0    0  0.84000335549E+00  0.97596002369E+01 -0.45097350723E+01  0.10783928463E+02  0.51100000000E-03 0. -1.
        -11    1    4    4    0    0  0.12973138139E+02  0.64219209935E+01 -0.33029730389E+02  0.36062535577E+02  0.51100000000E-03 0.  1.
        -12    1    4    4    0    0 -0.14668470068E+01  0.14555677298E+01  0.30479044441E+01  0.36823958312E+01  0.00000000000E+00 0.  1.
</event>
<event>
 8    1  0.6016610E-012  0.9118800E+02  0.7816164E-02  0.1184000E+00
        -11   -1    0    0    0    0  0.00000000000E+00  0.00000000000E+00  0.45593999997E+02  0.45594000000E+02  0.51100000000E-03 0. -1.
         11   -1    0    0    0    0 -0.00000000000E+00 -0.00000000000E+00 -0.45593999997E+02  0.45594000000E+02  0.51100000000E-03 0.  1.
         23    2    1    2    0    0  0.00000000000E+00 -0.17763568394E-14  0.00000000000E+00  0.91188000000E+02  0.91188000000E+02 0.  0.
    9900012    2    3    3    0    0  0.35049601740E+02 -0.14933479251E+02  0.14201579564E+02  0.50528828257E+02  0.29999903971E+02 0.  0.
        -12    1    3    3    0    0 -0.35049601740E+02  0.14933479251E+02 -0.14201579564E+02  0.40659171743E+02  0.00000000000E+00 0.  1.
         11    1    4    4    0    0  0.25272936832E+02 -0.96672042716E-01  0.12229023197E+01  0.25302691002E+02  0.51100000000E-03 0. -1.
        -11    1    4    4    0    0  0.94144941913E+01 -0.10281162482E+02  0.14777123266E+02  0.20314979083E+02  0.51100000000E-03 0.  1.
         12    1    4    4    0    0  0.36217071676E+00 -0.45556447264E+01 -0.17984460215E+01  0.49111581723E+01  0.00000000000E+00 0. -1.
</event>
<event>
 8    1  0.6016610E-012  0.9118800E+02  0.7816164E-02  0.1184000E+00
        -11   -1    0    0    0    0  0.00000000000E+00  0.00000000000E+00  0.45593999997E+02  0.45594000000E+02  0.51100000000E-03 0. -1.
         11   -1    0    0    0    0 -0.00000000000E+00 -0.00000000000E+00 -0.45593999997E+02  0.45594000000E+02  0.51100000000E-03 0.  1.
         23    2    1    2    0    0  0.00000000000E+00  0.00000000000E+00  0.00000000000E+00  0.91188000000E+02  0.91188000000E+02 0.  0.
    9900012    2    3    3    0    0 -0.77619803444E+01  0.90629380592E+01 -0.38868757747E+02  0.50528861864E+02  0.30000006122E+02 0.  0.
         12    1    3    3    0    0  0.77619803444E+01 -0.90629380592E+01  0.38868757747E+02  0.40659138136E+02  0.00000000000E+00 0. -1.
         11    1    4    4    0    0  0.23067825460E+01 -0.11347723223E+01  0.15038107433E+01  0.29783218346E+01  0.51100000000E-03 0. -1.
        -11    1    4    4    0    0 -0.69776691356E+01  0.10785876393E+02 -0.42061434671E+02  0.43979396119E+02  0.51100000000E-03 0.  1.
        -12    1    4    4    0    0 -0.30910937548E+01 -0.58816601196E+00  0.16888661798E+01  0.35711439109E+01  0.00000000000E+00 0.  1.
</event>
<event>
 8    1  0.6016610E-012  0.9118800E+02  0.7816164E-02  0.1184000E+00
        -11   -1    0    0    0    0  0.00000000000E+00  0.00000000000E+00  0.45593999997E+02  0.45594000000E+02  0.51100000000E-03 0. -1.
         11   -1    0    0    0    0 -0.00000000000E+00 -0.00000000000E+00 -0.45593999997E+02  0.45594000000E+02  0.51100000000E-03 0.  1.
         23    2    1    2    0    0 -0.88817841970E-15  0.00000000000E+00  0.00000000000E+00  0.91188000000E+02  0.91188000000E+02 0.  0.
    9900012    2    3    3    0    0  0.50399923392E+01 -0.15396097217E+02  0.37292415497E+02  0.50528860979E+02  0.30000003433E+02 0.  0.
        -12    1    3    3    0    0 -0.50399923392E+01  0.15396097217E+02 -0.37292415497E+02  0.40659139021E+02  0.00000000000E+00 0.  1.
         11    1    4    4    0    0 -0.43720714508E+01 -0.16401060388E+02  0.88327887693E+01  0.19134470160E+02  0.51100000000E-03 0. -1.
        -11    1    4    4    0    0  0.69407482619E+01 -0.35940163848E+00  0.74213763221E+01  0.10167594738E+02  0.51100000000E-03 0.  1.
         12    1    4    4    0    0  0.24713155281E+01  0.13643648087E+01  0.21038250405E+02  0.21226796082E+02  0.00000000000E+00 0. -1.
</event>
<event>
 8    1  0.7254542E-012  0.9118800E+02  0.7816164E-02  0.1184000E+00
        -11   -1    0    0    0    0  0.00000000000E+00  0.00000000000E+00  0.45593999997E+02  0.45594000000E+02  0.51100000000E-03 0. -1.
         11   -1    0    0    0    0 -0.00000000000E+00 -0.00000000000E+00 -0.45593999997E+02  0.45594000000E+02  0.51100000000E-03 0.  1.
         23    2    1    2    0    0 -0.35527136788E-14  0.00000000000E+00 -0.35527136788E-14  0.91188000000E+02  0.91188000000E+02 0.  0.
    9900012    2    3    3    0    0  0.26441117611E+02  0.22864557227E+01  0.30802680293E+02  0.50528859656E+02  0.29999999412E+02 0.  0.
        -12    1    3    3    0    0 -0.26441117611E+02 -0.22864557227E+01 -0.30802680293E+02  0.40659140344E+02  0.00000000000E+00 0.  1.
         11    1    4    4    0    0  0.20142467254E+02  0.65491320231E+01  0.17934965975E+02  0.27753794734E+02  0.51100000000E-03 0. -1.
        -11    1    4    4    0    0 -0.47331258592E+01  0.58462360854E+00 -0.47966872564E+00  0.47931563202E+01  0.51100000000E-03 0.  1.
         12    1    4    4    0    0  0.11031776215E+02 -0.48472999089E+01  0.13347383043E+02  0.17981908602E+02  0.00000000000E+00 0. -1.
</event>
<event>
 8    1  0.6016610E-012  0.9118800E+02  0.7816164E-02  0.1184000E+00
        -11   -1    0    0    0    0  0.00000000000E+00  0.00000000000E+00  0.45593999997E+02  0.45594000000E+02  0.51100000000E-03 0. -1.
         11   -1    0    0    0    0 -0.00000000000E+00 -0.00000000000E+00 -0.45593999997E+02  0.45594000000E+02  0.51100000000E-03 0.  1.
         23    2    1    2    0    0  0.00000000000E+00 -0.71054273576E-14 -0.17763568394E-14  0.91188000000E+02  0.91188000000E+02 0.  0.
    9900012    2    3    3    0    0 -0.17180185771E+02 -0.35578343008E+02 -0.96014765214E+01  0.50528860490E+02  0.30000001944E+02 0.  0.
         12    1    3    3    0    0  0.17180185771E+02  0.35578343008E+02  0.96014765214E+01  0.40659139510E+02  0.00000000000E+00 0. -1.
         11    1    4    4    0    0 -0.10007737675E+02 -0.14367677587E+02 -0.17411743744E+02  0.24693193254E+02  0.51100000000E-03 0. -1.
        -11    1    4    4    0    0 -0.14239626855E+01 -0.17167043810E+02  0.34600660751E+01  0.17570063187E+02  0.51100000000E-03 0.  1.
         12    1    4    4    0    0 -0.57484854110E+01 -0.40436216112E+01  0.43502011477E+01  0.82656040481E+01  0.00000000000E+00 0. -1.
</event>
<event>
 8    1  0.6016610E-012  0.9118800E+02  0.7816164E-02  0.1184000E+00
        -11   -1    0    0    0    0  0.00000000000E+00  0.00000000000E+00  0.45593999997E+02  0.45594000000E+02  0.51100000000E-03 0. -1.
         11   -1    0    0    0    0 -0.00000000000E+00 -0.00000000000E+00 -0.45593999997E+02  0.45594000000E+02  0.51100000000E-03 0.  1.
         23    2    1    2    0    0  0.00000000000E+00  0.00000000000E+00  0.00000000000E+00  0.91188000000E+02  0.91188000000E+02 0.  0.
    9900012    2    3    3    0    0  0.16883745090E+02  0.89761962376E+00 -0.36977026138E+02  0.50528843205E+02  0.29999949407E+02 0.  0.
         12    1    3    3    0    0 -0.16883745090E+02 -0.89761962376E+00  0.36977026138E+02  0.40659156795E+02  0.00000000000E+00 0. -1.
         11    1    4    4    0    0  0.25594247281E+00 -0.52972190631E+01 -0.61308934386E+01  0.81064104861E+01  0.51100000000E-03 0. -1.
        -11    1    4    4    0    0  0.16448537117E+02  0.39053762243E+01 -0.34320111353E+02  0.38258023737E+02  0.51100000000E-03 0.  1.
        -12    1    4    4    0    0  0.17926550004E+00  0.22894624625E+01  0.34739786534E+01  0.41644089822E+01  0.00000000000E+00 0.  1.
</event>
<event>
 8    1  0.6016610E-012  0.9118800E+02  0.7816164E-02  0.1184000E+00
        -11   -1    0    0    0    0  0.00000000000E+00  0.00000000000E+00  0.45593999997E+02  0.45594000000E+02  0.51100000000E-03 0. -1.
         11   -1    0    0    0    0 -0.00000000000E+00 -0.00000000000E+00 -0.45593999997E+02  0.45594000000E+02  0.51100000000E-03 0.  1.
         23    2    1    2    0    0  0.17763568394E-14 -0.35527136788E-14  0.71054273576E-14  0.91188000000E+02  0.91188000000E+02 0.  0.
    9900012    2    3    3    0    0 -0.86466149264E+01  0.19466516081E+02 -0.34633169690E+02  0.50528860305E+02  0.30000001382E+02 0.  0.
         12    1    3    3    0    0  0.86466149264E+01 -0.19466516081E+02  0.34633169690E+02  0.40659139695E+02  0.00000000000E+00 0. -1.
         11    1    4    4    0    0 -0.11870864567E+02 -0.20590663653E+01 -0.14839886214E+02  0.19114900025E+02  0.51100000000E-03 0. -1.
        -11    1    4    4    0    0  0.52731566811E+01  0.12915409387E+02 -0.63710913564E+01  0.15336387657E+02  0.51100000000E-03 0.  1.
         12    1    4    4    0    0 -0.20489070407E+01  0.86101730589E+01 -0.13422192119E+02  0.16077572623E+02  0.00000000000E+00 0. -1.
</event>
<event>
 8    1  0.6016610E-012  0.9118800E+02  0.7816164E-02  0.1184000E+00
        -11   -1    0    0    0    0  0.00000000000E+00  0.00000000000E+00  0.45593999997E+02  0.45594000000E+02  0.51100000000E-03 0. -1.
         11   -1    0    0    0    0 -0.00000000000E+00 -0.00000000000E+00 -0.45593999997E+02  0.45594000000E+02  0.51100000000E-03 0.  1.
         23    2    1    2    0    0  0.44408920985E-15  0.00000000000E+00  0.00000000000E+00  0.91188000000E+02  0.91188000000E+02 0.  0.
    9900012    2    3    3    0    0  0.24731013086E+01  0.35695116628E+02  0.19310819529E+02  0.50528864101E+02  0.30000012921E+02 0.  0.
        -12    1    3    3    0    0 -0.24731013086E+01 -0.35695116628E+02 -0.19310819529E+02  0.40659135899E+02  0.00000000000E+00 0.  1.
         11    1    4    4    0    0 -0.41117679766E+01  0.25444556147E+02  0.16087167894E+02  0.30383038764E+02  0.51100000000E-03 0. -1.
        -11    1    4    4    0    0 -0.46233519895E+01 -0.77677205660E-01  0.11430011337E+01  0.47631784787E+01  0.51100000000E-03 0.  1.
         12    1    4    4    0    0  0.11208221275E+02  0.10328237687E+02  0.20806505015E+01  0.15382646858E+02  0.00000000000E+00 0. -1.
</event>
<event>
 8    1  0.6016610E-012  0.9118800E+02  0.7816164E-02  0.1184000E+00
        -11   -1    0    0    0    0  0.00000000000E+00  0.00000000000E+00  0.45593999997E+02  0.45594000000E+02  0.51100000000E-03 0. -1.
         11   -1    0    0    0    0 -0.00000000000E+00 -0.00000000000E+00 -0.45593999997E+02  0.45594000000E+02  0.51100000000E-03 0.  1.
         23    2    1    2    0    0 -0.26645352591E-14  0.35527136788E-14  0.71054273576E-14  0.91188000000E+02  0.91188000000E+02 0.  0.
    9900012    2    3    3    0    0  0.61348670062E+01 -0.21436611219E+02 -0.33999999071E+02  0.50528870268E+02  0.30000031667E+02 0.  0.
         12    1    3    3    0    0 -0.61348670062E+01  0.21436611219E+02  0.33999999071E+02  0.40659129732E+02  0.00000000000E+00 0. -1.
         11    1    4    4    0    0  0.91866587843E+01 -0.35647621370E+01 -0.12828144386E+02  0.16176016733E+02  0.51100000000E-03 0. -1.
        -11    1    4    4    0    0 -0.11321413256E+02 -0.10364674773E+02 -0.15547363940E+02  0.21847686537E+02  0.51100000000E-03 0.  1.
        -12    1    4    4    0    0  0.82696214782E+01 -0.75071743093E+01 -0.56244907449E+01  0.12505166998E+02  0.00000000000E+00 0.  1.
</event>
<event>
 8    1  0.6016610E-012  0.9118800E+02  0.7816164E-02  0.1184000E+00
        -11   -1    0    0    0    0  0.00000000000E+00  0.00000000000E+00  0.45593999997E+02  0.45594000000E+02  0.51100000000E-03 0. -1.
         11   -1    0    0    0    0 -0.00000000000E+00 -0.00000000000E+00 -0.45593999997E+02  0.45594000000E+02  0.51100000000E-03 0.  1.
         23    2    1    2    0    0  0.88817841970E-15  0.00000000000E+00 -0.35527136788E-14  0.91188000000E+02  0.91188000000E+02 0.  0.
    9900012    2    3    3    0    0  0.72619820696E+01 -0.30945352517E+02 -0.25353708962E+02  0.50528907732E+02  0.30000145541E+02 0.  0.
         12    1    3    3    0    0 -0.72619820696E+01  0.30945352517E+02  0.25353708962E+02  0.40659092268E+02  0.00000000000E+00 0. -1.
         11    1    4    4    0    0  0.45120505374E+01 -0.11253488947E+02  0.15367227032E+01  0.12221339143E+02  0.51100000000E-03 0. -1.
        -11    1    4    4    0    0  0.25060118937E+01 -0.11870423972E+02 -0.27894107103E+02  0.30418222700E+02  0.51100000000E-03 0.  1.
        -12    1    4    4    0    0  0.24391963850E+00 -0.78214395978E+01  0.10036754378E+01  0.78893458890E+01  0.00000000000E+00 0.  1.
</event>
<event>
 8    1  0.6016610E-012  0.9118800E+02  0.7816164E-02  0.1184000E+00
        -11   -1    0    0    0    0  0.00000000000E+00  0.00000000000E+00  0.45593999997E+02  0.45594000000E+02  0.51100000000E-03 0. -1.
         11   -1    0    0    0    0 -0.00000000000E+00 -0.00000000000E+00 -0.45593999997E+02  0.45594000000E+02  0.51100000000E-03 0.  1.
         23    2    1    2    0    0 -0.88817841970E-15  0.00000000000E+00  0.00000000000E+00  0.91188000000E+02  0.91188000000E+02 0.  0.
    9900012    2    3    3    0    0 -0.54816639425E+01 -0.45747249489E+01  0.40027348656E+02  0.50528863408E+02  0.30000010815E+02 0.  0.
        -12    1    3    3    0    0  0.54816639425E+01  0.45747249489E+01 -0.40027348656E+02  0.40659136592E+02  0.00000000000E+00 0.  1.
         11    1    4    4    0    0 -0.66325078513E+01 -0.17041955090E+01  0.43569724418E+02  0.44104595326E+02  0.51100000000E-03 0. -1.
        -11    1    4    4    0    0  0.25623683133E+01 -0.73662725276E+00 -0.10903485912E+01  0.28804880479E+01  0.51100000000E-03 0.  1.
         12    1    4    4    0    0 -0.14115244045E+01 -0.21339021872E+01 -0.24520271703E+01  0.35437800345E+01  0.00000000000E+00 0. -1.
</event>
<event>
 8    1  0.6016610E-012  0.9118800E+02  0.7816164E-02  0.1184000E+00
        -11   -1    0    0    0    0  0.00000000000E+00  0.00000000000E+00  0.45593999997E+02  0.45594000000E+02  0.51100000000E-03 0. -1.
         11   -1    0    0    0    0 -0.00000000000E+00 -0.00000000000E+00 -0.45593999997E+02  0.45594000000E+02  0.51100000000E-03 0.  1.
         23    2    1    2    0    0  0.00000000000E+00 -0.35527136788E-14  0.00000000000E+00  0.91188000000E+02  0.91188000000E+02 0.  0.
    9900012    2    3    3    0    0  0.25052620292E+02  0.18521898059E+02  0.26124135854E+02  0.50528868611E+02  0.30000026630E+02 0.  0.
        -12    1    3    3    0    0 -0.25052620292E+02 -0.18521898059E+02 -0.26124135854E+02  0.40659131389E+02  0.00000000000E+00 0.  1.
         11    1    4    4    0    0 -0.15774449055E+00 -0.10657713578E+01  0.15081955222E+02  0.15120387743E+02  0.51100000000E-03 0. -1.
        -11    1    4    4    0    0  0.16534126222E+02  0.86700518202E+01  0.19726585369E+01  0.18773345745E+02  0.51100000000E-03 0.  1.
         12    1    4    4    0    0  0.86762385601E+01  0.10917617596E+02  0.90695220952E+01  0.16635135123E+02  0.00000000000E+00 0. -1.
</event>
<event>
 8    1  0.6016610E-012  0.9118800E+02  0.7816164E-02  0.1184000E+00
        -11   -1    0    0    0    0  0.00000000000E+00  0.00000000000E+00  0.45593999997E+02  0.45594000000E+02  0.51100000000E-03 0. -1.
         11   -1    0    0    0    0 -0.00000000000E+00 -0.00000000000E+00 -0.45593999997E+02  0.45594000000E+02  0.51100000000E-03 0.  1.
         23    2    1    2    0    0  0.00000000000E+00 -0.44408920985E-15  0.00000000000E+00  0.91188000000E+02  0.91188000000E+02 0.  0.
    9900012    2    3    3    0    0  0.36914383294E+02 -0.25822796426E+01  0.16847130567E+02  0.50528859940E+02  0.30000000273E+02 0.  0.
        -12    1    3    3    0    0 -0.36914383294E+02  0.25822796426E+01 -0.16847130567E+02  0.40659140060E+02  0.00000000000E+00 0.  1.
         11    1    4    4    0    0  0.30854557681E+02 -0.76179655344E+01  0.18472551627E+02  0.36759655772E+02  0.51100000000E-03 0. -1.
        -11    1    4    4    0    0  0.15707433743E+01  0.30522168768E+01 -0.61827800049E+01  0.70717771077E+01  0.51100000000E-03 0.  1.
        -12    1    4    4    0    0  0.44890822384E+01  0.19834690150E+01  0.45573589447E+01  0.66974270602E+01  0.00000000000E+00 0.  1.
</event>
<event>
 8    1  0.6016610E-012  0.9118800E+02  0.7816164E-02  0.1184000E+00
        -11   -1    0    0    0    0  0.00000000000E+00  0.00000000000E+00  0.45593999997E+02  0.45594000000E+02  0.51100000000E-03 0. -1.
         11   -1    0    0    0    0 -0.00000000000E+00 -0.00000000000E+00 -0.45593999997E+02  0.45594000000E+02  0.51100000000E-03 0.  1.
         23    2    1    2    0    0  0.00000000000E+00  0.00000000000E+00  0.00000000000E+00  0.91188000000E+02  0.91188000000E+02 0.  0.
    9900012    2    3    3    0    0 -0.17045676238E+02 -0.20369522315E+02  0.30784609766E+02  0.50528871675E+02  0.30000035943E+02 0.  0.
        -12    1    3    3    0    0  0.17045676238E+02  0.20369522315E+02 -0.30784609766E+02  0.40659128325E+02  0.00000000000E+00 0.  1.
         11    1    4    4    0    0 -0.31021898331E+01 -0.10276528208E+02  0.29852092950E+02  0.31723462414E+02  0.51100000000E-03 0. -1.
        -11    1    4    4    0    0 -0.69589506429E+01 -0.87282130911E+01 -0.15463414753E+01  0.11269421903E+02  0.51100000000E-03 0.  1.
         12    1    4    4    0    0 -0.69845357616E+01 -0.13647810154E+01  0.24788582910E+01  0.75359873575E+01  0.00000000000E+00 0. -1.
</event>
<event>
 8    1  0.6016610E-012  0.9118800E+02  0.7816164E-02  0.1184000E+00
        -11   -1    0    0    0    0  0.00000000000E+00  0.00000000000E+00  0.45593999997E+02  0.45594000000E+02  0.51100000000E-03 0. -1.
         11   -1    0    0    0    0 -0.00000000000E+00 -0.00000000000E+00 -0.45593999997E+02  0.45594000000E+02  0.51100000000E-03 0.  1.
         23    2    1    2    0    0  0.00000000000E+00  0.00000000000E+00  0.00000000000E+00  0.91188000000E+02  0.91188000000E+02 0.  0.
    9900012    2    3    3    0    0  0.28997638670E+02 -0.10828610620E+02 -0.26363672688E+02  0.50528867028E+02  0.30000021819E+02 0.  0.
         12    1    3    3    0    0 -0.28997638670E+02  0.10828610620E+02  0.26363672688E+02  0.40659132972E+02  0.00000000000E+00 0. -1.
         11    1    4    4    0    0  0.10695650896E+02 -0.81468525975E+01 -0.22905640041E+00  0.13446955880E+02  0.51100000000E-03 0. -1.
        -11    1    4    4    0    0  0.18481841665E+02  0.34977028834E+01 -0.24104271932E+02  0.30574962346E+02  0.51100000000E-03 0.  1.
        -12    1    4    4    0    0 -0.17985389175E+00 -0.61794609061E+01 -0.20303443558E+01  0.65069488023E+01  0.00000000000E+00 0.  1.
</event>
<event>
 8    1  0.6527012E-012  0.9118800E+02  0.7816164E-02  0.1184000E+00
        -11   -1    0    0    0    0  0.00000000000E+00  0.00000000000E+00  0.45593999997E+02  0.45594000000E+02  0.51100000000E-03 0. -1.
         11   -1    0    0    0    0 -0.00000000000E+00 -0.00000000000E+00 -0.45593999997E+02  0.45594000000E+02  0.51100000000E-03 0.  1.
         23    2    1    2    0    0  0.00000000000E+00  0.17763568394E-14  0.35527136788E-14  0.91188000000E+02  0.91188000000E+02 0.  0.
    9900012    2    3    3    0    0 -0.33555838197E+02  0.72663295519E+01  0.21780087273E+02  0.50528855593E+02  0.29999987061E+02 0.  0.
        -12    1    3    3    0    0  0.33555838197E+02 -0.72663295519E+01 -0.21780087273E+02  0.40659144407E+02  0.00000000000E+00 0.  1.
         11    1    4    4    0    0 -0.17919661535E+02 -0.32892486017E+01  0.16802913662E+02  0.24784497850E+02  0.51100000000E-03 0. -1.
        -11    1    4    4    0    0 -0.17652217527E+02  0.12651082252E+02  0.23836146159E+01  0.21847935479E+02  0.51100000000E-03 0.  1.
        -12    1    4    4    0    0  0.20160408654E+01 -0.20955040987E+01  0.25935589959E+01  0.38964222646E+01  0.00000000000E+00 0.  1.
</event>
<event>
 8    1  0.6016610E-012  0.9118800E+02  0.7816164E-02  0.1184000E+00
        -11   -1    0    0    0    0  0.00000000000E+00  0.00000000000E+00  0.45593999997E+02  0.45594000000E+02  0.51100000000E-03 0. -1.
         11   -1    0    0    0    0 -0.00000000000E+00 -0.00000000000E+00 -0.45593999997E+02  0.45594000000E+02  0.51100000000E-03 0.  1.
         23    2    1    2    0    0  0.44408920985E-15  0.15543122345E-14  0.00000000000E+00  0.91188000000E+02  0.91188000000E+02 0.  0.
    9900012    2    3    3    0    0 -0.24924670367E+01  0.10261179300E+01 -0.40569741699E+02  0.50528815903E+02  0.29999866418E+02 0.  0.
         12    1    3    3    0    0  0.24924670367E+01 -0.10261179300E+01  0.40569741699E+02  0.40659184097E+02  0.00000000000E+00 0. -1.
         11    1    4    4    0    0 -0.41334616915E+01 -0.10261954710E+02 -0.52928698483E+01  0.12264081357E+02  0.51100000000E-03 0. -1.
        -11    1    4    4    0    0  0.96467206197E+00  0.43045981598E+01 -0.27245613577E+02  0.27600427840E+02  0.51100000000E-03 0.  1.
         12    1    4    4    0    0  0.67632259284E+00  0.69834744803E+01 -0.80312582734E+01  0.10664306706E+02  0.00000000000E+00 0. -1.
</event>
<event>
 8    1  0.6016610E-012  0.9118800E+02  0.7816164E-02  0.1184000E+00
        -11   -1    0    0    0    0  0.00000000000E+00  0.00000000000E+00  0.45593999997E+02  0.45594000000E+02  0.51100000000E-03 0. -1.
         11   -1    0    0    0    0 -0.00000000000E+00 -0.00000000000E+00 -0.45593999997E+02  0.45594000000E+02  0.51100000000E-03 0.  1.
         23    2    1    2    0    0  0.00000000000E+00 -0.88817841970E-15  0.00000000000E+00  0.91188000000E+02  0.91188000000E+02 0.  0.
    9900012    2    3    3    0    0 -0.87715733823E+01 -0.76734200801E+01 -0.38953096472E+02  0.50528860805E+02  0.30000002904E+02 0.  0.
         12    1    3    3    0    0  0.87715733823E+01  0.76734200801E+01  0.38953096472E+02  0.40659139195E+02  0.00000000000E+00 0. -1.
         11    1    4    4    0    0 -0.10905482016E+02  0.81539005828E+01 -0.24851105539E+02  0.28337132521E+02  0.51100000000E-03 0. -1.
        -11    1    4    4    0    0  0.74498584079E+00 -0.10604701452E+02 -0.53386382891E+01  0.11896039502E+02  0.51100000000E-03 0.  1.
         12    1    4    4    0    0  0.13889227933E+01 -0.52226192104E+01 -0.87633526434E+01  0.10295688782E+02  0.00000000000E+00 0. -1.
</event>
<event>
 8    1  0.6016610E-012  0.9118800E+02  0.7816164E-02  0.1184000E+00
        -11   -1    0    0    0    0  0.00000000000E+00  0.00000000000E+00  0.45593999997E+02  0.45594000000E+02  0.51100000000E-03 0.  1.
         11   -1    0    0    0    0 -0.00000000000E+00 -0.00000000000E+00 -0.45593999997E+02  0.45594000000E+02  0.51100000000E-03 0. -1.
         23    2    1    2    0    0 -0.88817841970E-15  0.00000000000E+00  0.17763568394E-14  0.91188000000E+02  0.91188000000E+02 0.  0.
    9900012    2    3    3    0    0 -0.60471580497E+01  0.37334192544E+02 -0.14925002357E+02  0.50528858977E+02  0.29999997347E+02 0.  0.
         12    1    3    3    0    0  0.60471580497E+01 -0.37334192544E+02  0.14925002357E+02  0.40659141023E+02  0.00000000000E+00 0. -1.
         11    1    4    4    0    0 -0.10663692222E+02  0.25311744863E+02 -0.19218189961E+02  0.33522195415E+02  0.51100000000E-03 0. -1.
        -11    1    4    4    0    0 -0.15045438285E+01  0.36514543031E+01  0.52755801366E+01  0.65900316159E+01  0.51100000000E-03 0.  1.
         12    1    4    4    0    0  0.61210780004E+01  0.83709933774E+01 -0.98239253294E+00  0.10416631946E+02  0.00000000000E+00 0. -1.
</event>
<event>
 8    1  0.6959252E-012  0.9118800E+02  0.7816164E-02  0.1184000E+00
        -11   -1    0    0    0    0  0.00000000000E+00  0.00000000000E+00  0.45593999997E+02  0.45594000000E+02  0.51100000000E-03 0. -1.
         11   -1    0    0    0    0 -0.00000000000E+00 -0.00000000000E+00 -0.45593999997E+02  0.45594000000E+02  0.51100000000E-03 0.  1.
         23    2    1    2    0    0  0.88817841970E-15  0.00000000000E+00  0.00000000000E+00  0.91188000000E+02  0.91188000000E+02 0.  0.
    9900012    2    3    3    0    0  0.25258764605E+01  0.64629292166E+01  0.40062652015E+02  0.50528860899E+02  0.30000003190E+02 0.  0.
        -12    1    3    3    0    0 -0.25258764605E+01 -0.64629292166E+01 -0.40062652015E+02  0.40659139101E+02  0.00000000000E+00 0.  1.
         11    1    4    4    0    0 -0.76562041161E+00  0.60889060667E+01  0.13234888365E+02  0.14588461948E+02  0.51100000000E-03 0. -1.
        -11    1    4    4    0    0  0.11868052585E+02 -0.55400916965E+01  0.18146837112E+02  0.22379700301E+02  0.51100000000E-03 0.  1.
        -12    1    4    4    0    0 -0.85765557131E+01  0.59141148464E+01  0.86809265377E+01  0.13560698650E+02  0.00000000000E+00 0.  1.
</event>
<event>
 8    1  0.6016610E-012  0.9118800E+02  0.7816164E-02  0.1184000E+00
        -11   -1    0    0    0    0  0.00000000000E+00  0.00000000000E+00  0.45593999997E+02  0.45594000000E+02  0.51100000000E-03 0. -1.
         11   -1    0    0    0    0 -0.00000000000E+00 -0.00000000000E+00 -0.45593999997E+02  0.45594000000E+02  0.51100000000E-03 0.  1.
         23    2    1    2    0    0  0.35527136788E-14 -0.17763568394E-14  0.71054273576E-14  0.91188000000E+02  0.91188000000E+02 0.  0.
    9900012    2    3    3    0    0 -0.23847945279E+02  0.37798080433E+01 -0.32713209529E+02  0.50528861783E+02  0.30000005875E+02 0.  0.
         12    1    3    3    0    0  0.23847945279E+02 -0.37798080433E+01  0.32713209529E+02  0.40659138217E+02  0.00000000000E+00 0. -1.
         11    1    4    4    0    0 -0.10114690195E+02  0.13753589818E+02 -0.10739514664E+02  0.20169416603E+02  0.51100000000E-03 0. -1.
        -11    1    4    4    0    0  0.41122067229E+00 -0.42844339109E+01 -0.98060901499E+00  0.44144162332E+01  0.51100000000E-03 0.  1.
         12    1    4    4    0    0 -0.14144475756E+02 -0.56893478635E+01 -0.20993085850E+02  0.25945028947E+02  0.00000000000E+00 0. -1.
</event>
<event>
 8    1  0.6016610E-012  0.9118800E+02  0.7816164E-02  0.1184000E+00
        -11   -1    0    0    0    0  0.00000000000E+00  0.00000000000E+00  0.45593999997E+02  0.45594000000E+02  0.51100000000E-03 0. -1.
         11   -1    0    0    0    0 -0.00000000000E+00 -0.00000000000E+00 -0.45593999997E+02  0.45594000000E+02  0.51100000000E-03 0.  1.
         23    2    1    2    0    0 -0.35527136788E-14 -0.35527136788E-14 -0.35527136788E-14  0.91188000000E+02  0.91188000000E+02 0.  0.
    9900012    2    3    3    0    0  0.24894494026E+02 -0.22513343444E+02 -0.22947316154E+02  0.50528858537E+02  0.29999996008E+02 0.  0.
         12    1    3    3    0    0 -0.24894494026E+02  0.22513343444E+02  0.22947316154E+02  0.40659141463E+02  0.00000000000E+00 0. -1.
         11    1    4    4    0    0  0.10502230144E+02 -0.80491372888E+01  0.58063756810E+01  0.14449894391E+02  0.51100000000E-03 0. -1.
        -11    1    4    4    0    0  0.70318930014E+01 -0.24883844999E+01 -0.73492781581E+01  0.10471459607E+02  0.51100000000E-03 0.  1.
         12    1    4    4    0    0  0.73603708807E+01 -0.11975821656E+02 -0.21404413677E+02  0.25607504538E+02  0.00000000000E+00 0. -1.
</event>
<event>
 8    1  0.6016610E-012  0.9118800E+02  0.7816164E-02  0.1184000E+00
        -11   -1    0    0    0    0  0.00000000000E+00  0.00000000000E+00  0.45593999997E+02  0.45594000000E+02  0.51100000000E-03 0. -1.
         11   -1    0    0    0    0 -0.00000000000E+00 -0.00000000000E+00 -0.45593999997E+02  0.45594000000E+02  0.51100000000E-03 0.  1.
         23    2    1    2    0    0  0.00000000000E+00  0.18735013541E-15  0.00000000000E+00  0.91188000000E+02  0.91188000000E+02 0.  0.
    9900012    2    3    3    0    0 -0.93271154835E+01 -0.32438357600E-01  0.39574845183E+02  0.50528874250E+02  0.30000043770E+02 0.  0.
        -12    1    3    3    0    0  0.93271154835E+01  0.32438357600E-01 -0.39574845183E+02  0.40659125750E+02  0.00000000000E+00 0.  1.
         11    1    4    4    0    0  0.22145645795E+01  0.28743018512E+01 -0.35842686789E+01  0.51002832894E+01  0.51100000000E-03 0.  1.
        -11    1    4    4    0    0 -0.90121453404E+01 -0.64270426593E+00  0.39132137893E+02  0.40161624080E+02  0.51100000000E-03 0. -1.
        -12    1    4    4    0    0 -0.25295347227E+01 -0.22640359429E+01  0.40269759695E+01  0.52669668807E+01  0.00000000000E+00 0.  1.
</event>
