<event>
 7    1  0.5837204E-012  0.5930198E+02  0.7816164E-02  0.1266605E+00
        -11   -1    0    0    0    0  0.00000000000E+00  0.00000000000E+00  0.45593999997E+02  0.45594000000E+02  0.51100000000E-03 0. -1.
         11   -1    0    0    0    0 -0.00000000000E+00 -0.00000000000E+00 -0.45593999997E+02  0.45594000000E+02  0.51100000000E-03 0.  1.
    9900012    2    1    2    0    0 -0.11634309102E+02  0.12701377191E+02  0.26833494697E+02  0.59301975342E+02  0.50000057109E+02 0.  0.
         12    1    1    2    0    0  0.11634309102E+02 -0.12701377191E+02 -0.26833494697E+02  0.31886024658E+02  0.00000000000E+00 0. -1.
         11    1    3    3    0    0  0.18013418661E+01  0.21382935483E+01  0.11336330726E+02  0.11676023570E+02  0.51100000000E-03 0. -1.
        -11    1    3    3    0    0  0.12646912234E+02  0.13835421483E+02  0.62102689135E+01  0.19746663438E+02  0.51100000000E-03 0.  1.
         12    1    3    3    0    0 -0.26082563203E+02 -0.32723378408E+01  0.92868950575E+01  0.27879288334E+02  0.00000000000E+00 0. -1.
</event>
<event>
 7    1  0.5837204E-012  0.5930197E+02  0.7816164E-02  0.1266605E+00
        -11   -1    0    0    0    0  0.00000000000E+00  0.00000000000E+00  0.45593999997E+02  0.45594000000E+02  0.51100000000E-03 0.  1.
         11   -1    0    0    0    0 -0.00000000000E+00 -0.00000000000E+00 -0.45593999997E+02  0.45594000000E+02  0.51100000000E-03 0. -1.
    9900012    2    1    2    0    0 -0.19844037666E+02 -0.19703758050E+02  0.15319760913E+02  0.59301968786E+02  0.50000045153E+02 0.  0.
         12    1    1    2    0    0  0.19844037666E+02  0.19703758050E+02 -0.15319760913E+02  0.31886031214E+02  0.00000000000E+00 0. -1.
         11    1    3    3    0    0 -0.46945143277E+01  0.91691182521E+01 -0.21515134428E+01  0.10523317189E+02  0.51100000000E-03 0. -1.
        -11    1    3    3    0    0 -0.13708856092E+02 -0.29481749281E+01 -0.45406270213E+01  0.14739123609E+02  0.51100000000E-03 0.  1.
        -12    1    3    3    0    0 -0.14406672462E+01 -0.25924701374E+02  0.22011901377E+02  0.34039527988E+02  0.00000000000E+00 0.  1.
</event>
<event>
 7    1  0.5837204E-012  0.5930195E+02  0.7816164E-02  0.1266605E+00
        -11   -1    0    0    0    0  0.00000000000E+00  0.00000000000E+00  0.45593999997E+02  0.45594000000E+02  0.51100000000E-03 0.  1.
         11   -1    0    0    0    0 -0.00000000000E+00 -0.00000000000E+00 -0.45593999997E+02  0.45594000000E+02  0.51100000000E-03 0. -1.
    9900012    2    1    2    0    0  0.98173956802E+01  0.18069290301E+02  0.24368827512E+02  0.59301948751E+02  0.50000008614E+02 0.  0.
         12    1    1    2    0    0 -0.98173956802E+01 -0.18069290301E+02 -0.24368827512E+02  0.31886051249E+02  0.00000000000E+00 0. -1.
         11    1    3    3    0    0 -0.10818312039E+02  0.13762185667E+02  0.34169761758E+01  0.17835620431E+02  0.51100000000E-03 0. -1.
        -11    1    3    3    0    0  0.15257596481E+02  0.15865185556E+02  0.17867567093E+02  0.28350455326E+02  0.51100000000E-03 0.  1.
        -12    1    3    3    0    0  0.53781112381E+01 -0.11558080922E+02  0.30842842434E+01  0.13115872994E+02  0.00000000000E+00 0.  1.
</event>
<event>
 7    1  0.5837204E-012  0.5930193E+02  0.7816164E-02  0.1266605E+00
        -11   -1    0    0    0    0  0.00000000000E+00  0.00000000000E+00  0.45593999997E+02  0.45594000000E+02  0.51100000000E-03 0.  1.
         11   -1    0    0    0    0 -0.00000000000E+00 -0.00000000000E+00 -0.45593999997E+02  0.45594000000E+02  0.51100000000E-03 0. -1.
    9900012    2    1    2    0    0  0.26348699704E+02 -0.17612600246E+02  0.35019337439E+01  0.59301934023E+02  0.49999981755E+02 0.  0.
         12    1    1    2    0    0 -0.26348699704E+02  0.17612600246E+02 -0.35019337439E+01  0.31886065977E+02  0.00000000000E+00 0. -1.
         11    1    3    3    0    0  0.78633132598E+01  0.10253216044E+02 -0.24070102701E+00  0.12923547188E+02  0.51100000000E-03 0. -1.
        -11    1    3    3    0    0 -0.33496908080E+00  0.13768043323E+01 -0.91730689843E+01  0.92818634609E+01  0.51100000000E-03 0.  1.
        -12    1    3    3    0    0  0.18820355525E+02 -0.29242620623E+02  0.12915703755E+02  0.37096523375E+02  0.00000000000E+00 0.  1.
</event>
<event>
 7    1  0.5837204E-012  0.5930195E+02  0.7816164E-02  0.1266605E+00
        -11   -1    0    0    0    0  0.00000000000E+00  0.00000000000E+00  0.45593999997E+02  0.45594000000E+02  0.51100000000E-03 0.  1.
         11   -1    0    0    0    0 -0.00000000000E+00 -0.00000000000E+00 -0.45593999997E+02  0.45594000000E+02  0.51100000000E-03 0. -1.
    9900012    2    1    2    0    0  0.29869925373E+02 -0.73051683149E+01  0.84345786227E+01  0.59301952229E+02  0.50000014958E+02 0.  0.
         12    1    1    2    0    0 -0.29869925373E+02  0.73051683149E+01 -0.84345786227E+01  0.31886047771E+02  0.00000000000E+00 0. -1.
         11    1    3    3    0    0 -0.21024137231E+01  0.33776783156E+01  0.39000922488E+01  0.55713170864E+01  0.51100000000E-03 0. -1.
        -11    1    3    3    0    0  0.68905103946E+01  0.14632883224E+02 -0.48375933184E+01  0.16882023407E+02  0.51100000000E-03 0.  1.
         12    1    3    3    0    0  0.25081828701E+02 -0.25315729855E+02  0.93720796923E+01  0.36848611736E+02  0.00000000000E+00 0. -1.
</event>
<event>
 7    1  0.5837204E-012  0.5930195E+02  0.7816164E-02  0.1266605E+00
        -11   -1    0    0    0    0  0.00000000000E+00  0.00000000000E+00  0.45593999997E+02  0.45594000000E+02  0.51100000000E-03 0.  1.
         11   -1    0    0    0    0 -0.00000000000E+00 -0.00000000000E+00 -0.45593999997E+02  0.45594000000E+02  0.51100000000E-03 0. -1.
    9900012    2    1    2    0    0  0.23482635593E+02  0.18031195132E+02 -0.11839014524E+02  0.59301946039E+02  0.50000003669E+02 0.  0.
         12    1    1    2    0    0 -0.23482635593E+02 -0.18031195132E+02  0.11839014524E+02  0.31886053961E+02  0.00000000000E+00 0. -1.
         11    1    3    3    0    0  0.15303731502E+02  0.68773389528E+01 -0.14232557491E+01  0.16838279192E+02  0.51100000000E-03 0. -1.
        -11    1    3    3    0    0  0.18661617811E+02 -0.72221958987E+01 -0.49873815691E+01  0.20622562113E+02  0.51100000000E-03 0.  1.
        -12    1    3    3    0    0 -0.10482713720E+02  0.18376052078E+02 -0.54283772061E+01  0.21841104734E+02  0.00000000000E+00 0.  1.
</event>
<event>
 7    1  0.5837204E-012  0.5930193E+02  0.7816164E-02  0.1266605E+00
        -11   -1    0    0    0    0  0.00000000000E+00  0.00000000000E+00  0.45593999997E+02  0.45594000000E+02  0.51100000000E-03 0.  1.
         11   -1    0    0    0    0 -0.00000000000E+00 -0.00000000000E+00 -0.45593999997E+02  0.45594000000E+02  0.51100000000E-03 0. -1.
    9900012    2    1    2    0    0 -0.57895073947E+00  0.16605930733E+02  0.27214510973E+02  0.59301925814E+02  0.49999966783E+02 0.  0.
         12    1    1    2    0    0  0.57895073947E+00 -0.16605930733E+02 -0.27214510973E+02  0.31886074186E+02  0.00000000000E+00 0. -1.
         11    1    3    3    0    0 -0.10991476294E+02  0.20863611041E+00  0.17470264202E+02  0.20641371362E+02  0.51100000000E-03 0. -1.
        -11    1    3    3    0    0  0.11476534088E+02  0.13009694512E+02  0.20778769399E+02  0.27068805736E+02  0.51100000000E-03 0.  1.
        -12    1    3    3    0    0 -0.10640085338E+01  0.33876001113E+01 -0.11034522628E+02  0.11591748717E+02  0.00000000000E+00 0.  1.
</event>
<event>
 7    1  0.5837204E-012  0.5930195E+02  0.7816164E-02  0.1266605E+00
        -11   -1    0    0    0    0  0.00000000000E+00  0.00000000000E+00  0.45593999997E+02  0.45594000000E+02  0.51100000000E-03 0.  1.
         11   -1    0    0    0    0 -0.00000000000E+00 -0.00000000000E+00 -0.45593999997E+02  0.45594000000E+02  0.51100000000E-03 0. -1.
    9900012    2    1    2    0    0  0.27013592456E+02  0.14032072470E+02  0.94914225806E+01  0.59301947598E+02  0.50000006511E+02 0.  0.
         12    1    1    2    0    0 -0.27013592456E+02 -0.14032072470E+02 -0.94914225806E+01  0.31886052402E+02  0.00000000000E+00 0. -1.
         11    1    3    3    0    0  0.11288497949E+02  0.21766831260E+02  0.55553078905E+01  0.25141332007E+02  0.51100000000E-03 0. -1.
        -11    1    3    3    0    0  0.19719807686E+02  0.14758501048E+01  0.10277282740E+02  0.22286127736E+02  0.51100000000E-03 0.  1.
         12    1    3    3    0    0 -0.39947131792E+01 -0.92106088943E+01 -0.63411680501E+01  0.11874487855E+02  0.00000000000E+00 0. -1.
</event>
<event>
 7    1  0.5837204E-012  0.5930196E+02  0.7816164E-02  0.1266605E+00
        -11   -1    0    0    0    0  0.00000000000E+00  0.00000000000E+00  0.45593999997E+02  0.45594000000E+02  0.51100000000E-03 0. -1.
         11   -1    0    0    0    0 -0.00000000000E+00 -0.00000000000E+00 -0.45593999997E+02  0.45594000000E+02  0.51100000000E-03 0.  1.
    9900012    2    1    2    0    0 -0.19201310827E+02 -0.58860956360E+01 -0.24766577363E+02  0.59301955818E+02  0.50000021502E+02 0.  0.
         12    1    1    2    0    0  0.19201310827E+02  0.58860956360E+01  0.24766577363E+02  0.31886044182E+02  0.00000000000E+00 0. -1.
         11    1    3    3    0    0 -0.26771529098E+02 -0.81026247223E+01 -0.73638586569E+01  0.28923929751E+02  0.51100000000E-03 0. -1.
        -11    1    3    3    0    0 -0.58536444125E+01  0.67275302595E+01 -0.12575258908E+02  0.15416288566E+02  0.51100000000E-03 0.  1.
         12    1    3    3    0    0  0.13423862684E+02 -0.45110011732E+01 -0.48274597982E+01  0.14961737501E+02  0.00000000000E+00 0. -1.
</event>
<event>
 7    1  0.5837204E-012  0.5930201E+02  0.7816164E-02  0.1266605E+00
        -11   -1    0    0    0    0  0.00000000000E+00  0.00000000000E+00  0.45593999997E+02  0.45594000000E+02  0.51100000000E-03 0.  1.
         11   -1    0    0    0    0 -0.00000000000E+00 -0.00000000000E+00 -0.45593999997E+02  0.45594000000E+02  0.51100000000E-03 0. -1.
    9900012    2    1    2    0    0 -0.23193401835E+02 -0.29538254815E+01  0.21680806927E+02  0.59302009931E+02  0.50000120192E+02 0.  0.
         12    1    1    2    0    0  0.23193401835E+02  0.29538254815E+01 -0.21680806927E+02  0.31885990069E+02  0.00000000000E+00 0. -1.
         11    1    3    3    0    0 -0.11997127091E+02  0.41592935086E+01  0.49095844753E+01  0.13613772472E+02  0.51100000000E-03 0. -1.
        -11    1    3    3    0    0 -0.88459571103E+01 -0.11195128518E+02  0.29143959931E+02  0.32449225884E+02  0.51100000000E-03 0.  1.
         12    1    3    3    0    0 -0.23503176340E+01  0.40820095282E+01 -0.12372737479E+02  0.13239011576E+02  0.00000000000E+00 0. -1.
</event>
<event>
 7    1  0.5837204E-012  0.5930189E+02  0.7816164E-02  0.1266605E+00
        -11   -1    0    0    0    0  0.00000000000E+00  0.00000000000E+00  0.45593999997E+02  0.45594000000E+02  0.51100000000E-03 0.  1.
         11   -1    0    0    0    0 -0.00000000000E+00 -0.00000000000E+00 -0.45593999997E+02  0.45594000000E+02  0.51100000000E-03 0. -1.
    9900012    2    1    2    0    0 -0.22447489496E+02  0.55858411535E+01  0.21946126419E+02  0.59301892196E+02  0.49999905472E+02 0.  0.
         12    1    1    2    0    0  0.22447489496E+02 -0.55858411535E+01 -0.21946126419E+02  0.31886107804E+02  0.00000000000E+00 0. -1.
         11    1    3    3    0    0 -0.14273248242E+01 -0.28984750077E+01  0.10013188940E+02  0.10521519212E+02  0.51100000000E-03 0.  1.
        -11    1    3    3    0    0  0.51386722201E+01 -0.39778043868E+01 -0.10354447353E+02  0.12224706956E+02  0.51100000000E-03 0. -1.
         12    1    3    3    0    0 -0.26158836892E+02  0.12462120548E+02  0.22287384832E+02  0.36555666028E+02  0.00000000000E+00 0. -1.
</event>
<event>
 7    1  0.5837204E-012  0.5930192E+02  0.7816164E-02  0.1266605E+00
        -11   -1    0    0    0    0  0.00000000000E+00  0.00000000000E+00  0.45593999997E+02  0.45594000000E+02  0.51100000000E-03 0.  1.
         11   -1    0    0    0    0 -0.00000000000E+00 -0.00000000000E+00 -0.45593999997E+02  0.45594000000E+02  0.51100000000E-03 0. -1.
    9900012    2    1    2    0    0  0.56148497631E+01 -0.99215145661E+01  0.29778499039E+02  0.59301921624E+02  0.49999959141E+02 0.  0.
         12    1    1    2    0    0 -0.56148497631E+01  0.99215145661E+01 -0.29778499039E+02  0.31886078376E+02  0.00000000000E+00 0. -1.
         11    1    3    3    0    0  0.16066050021E+00 -0.73095825874E+01  0.27707022724E+02  0.28655451800E+02  0.51100000000E-03 0. -1.
        -11    1    3    3    0    0  0.17010144822E+02 -0.30956835722E+01  0.61971049857E+01  0.18366610850E+02  0.51100000000E-03 0.  1.
         12    1    3    3    0    0 -0.11555955560E+02  0.48375159354E+00 -0.41256286698E+01  0.12279858974E+02  0.00000000000E+00 0. -1.
</event>
<event>
 7    1  0.5837204E-012  0.5930189E+02  0.7816164E-02  0.1266605E+00
        -11   -1    0    0    0    0  0.00000000000E+00  0.00000000000E+00  0.45593999997E+02  0.45594000000E+02  0.51100000000E-03 0. -1.
         11   -1    0    0    0    0 -0.00000000000E+00 -0.00000000000E+00 -0.45593999997E+02  0.45594000000E+02  0.51100000000E-03 0.  1.
    9900012    2    1    2    0    0  0.30982464936E+02 -0.17438993375E+01 -0.73327825584E+01  0.59301889882E+02  0.49999901251E+02 0.  0.
         12    1    1    2    0    0 -0.30982464936E+02  0.17438993375E+01  0.73327825584E+01  0.31886110118E+02  0.00000000000E+00 0. -1.
         11    1    3    3    0    0 -0.87878404376E+01  0.62858642929E+01 -0.44152399216E+01  0.11671871028E+02  0.51100000000E-03 0. -1.
        -11    1    3    3    0    0  0.12892766616E+02  0.87036442576E+00 -0.12263060960E+02  0.17814702625E+02  0.51100000000E-03 0.  1.
         12    1    3    3    0    0  0.26877538758E+02 -0.89001280561E+01  0.93455183235E+01  0.29815316229E+02  0.00000000000E+00 0. -1.
</event>
<event>
 7    1  0.5837204E-012  0.5930194E+02  0.7816164E-02  0.1266605E+00
        -11   -1    0    0    0    0  0.00000000000E+00  0.00000000000E+00  0.45593999997E+02  0.45594000000E+02  0.51100000000E-03 0. -1.
         11   -1    0    0    0    0 -0.00000000000E+00 -0.00000000000E+00 -0.45593999997E+02  0.45594000000E+02  0.51100000000E-03 0.  1.
    9900012    2    1    2    0    0 -0.77323060485E+00  0.67247795420E+01 -0.31159275450E+02  0.59301937339E+02  0.49999987801E+02 0.  0.
         12    1    1    2    0    0  0.77323060485E+00 -0.67247795420E+01  0.31159275450E+02  0.31886062661E+02  0.00000000000E+00 0. -1.
         11    1    3    3    0    0 -0.16305632228E+02  0.14234666952E+02 -0.15496132112E+02  0.26620095723E+02  0.51100000000E-03 0. -1.
        -11    1    3    3    0    0  0.67725562833E+01  0.21131816940E+01 -0.18101682579E+02  0.19442324139E+02  0.51100000000E-03 0.  1.
        -12    1    3    3    0    0  0.87598453403E+01 -0.96230691045E+01  0.24385392413E+01  0.13239517476E+02  0.00000000000E+00 0.  1.
</event>
<event>
 7    1  0.5837204E-012  0.5930204E+02  0.7816164E-02  0.1266604E+00
        -11   -1    0    0    0    0  0.00000000000E+00  0.00000000000E+00  0.45593999997E+02  0.45594000000E+02  0.51100000000E-03 0.  1.
         11   -1    0    0    0    0 -0.00000000000E+00 -0.00000000000E+00 -0.45593999997E+02  0.45594000000E+02  0.51100000000E-03 0. -1.
    9900012    2    1    2    0    0  0.19197881628E+02  0.21460813482E+02  0.13696332971E+02  0.59302035828E+02  0.50000167421E+02 0.  0.
         12    1    1    2    0    0 -0.19197881628E+02 -0.21460813482E+02 -0.13696332971E+02  0.31885964172E+02  0.00000000000E+00 0. -1.
         11    1    3    3    0    0  0.57447147434E+01 -0.16753850785E+01 -0.12974830067E+02  0.14288277649E+02  0.51100000000E-03 0. -1.
        -11    1    3    3    0    0 -0.52546378425E+01  0.53927569120E+01 -0.51253754231E+00  0.75469027396E+01  0.51100000000E-03 0.  1.
        -12    1    3    3    0    0  0.18707804728E+02  0.17743441649E+02  0.27183700580E+02  0.37466855439E+02  0.00000000000E+00 0.  1.
</event>
<event>
 7    1  0.5837204E-012  0.5930194E+02  0.7816164E-02  0.1266605E+00
        -11   -1    0    0    0    0  0.00000000000E+00  0.00000000000E+00  0.45593999997E+02  0.45594000000E+02  0.51100000000E-03 0. -1.
         11   -1    0    0    0    0 -0.00000000000E+00 -0.00000000000E+00 -0.45593999997E+02  0.45594000000E+02  0.51100000000E-03 0.  1.
    9900012    2    1    2    0    0  0.69570181146E+00 -0.30841070470E+02 -0.80663049752E+01  0.59301938708E+02  0.49999990299E+02 0.  0.
         12    1    1    2    0    0 -0.69570181146E+00  0.30841070470E+02  0.80663049752E+01  0.31886061292E+02  0.00000000000E+00 0. -1.
         11    1    3    3    0    0 -0.14710160111E+02 -0.92148422204E+01 -0.14464807043E+02  0.22594972244E+02  0.51100000000E-03 0. -1.
        -11    1    3    3    0    0  0.10039308317E+01 -0.10410681026E+02 -0.82347924457E+01  0.13311722782E+02  0.51100000000E-03 0.  1.
         12    1    3    3    0    0  0.14401931090E+02 -0.11215547224E+02  0.14633294514E+02  0.23395243683E+02  0.00000000000E+00 0. -1.
</event>
<event>
 7    1  0.5837204E-012  0.5930194E+02  0.7816164E-02  0.1266605E+00
        -11   -1    0    0    0    0  0.00000000000E+00  0.00000000000E+00  0.45593999997E+02  0.45594000000E+02  0.51100000000E-03 0. -1.
         11   -1    0    0    0    0 -0.00000000000E+00 -0.00000000000E+00 -0.45593999997E+02  0.45594000000E+02  0.51100000000E-03 0.  1.
    9900012    2    1    2    0    0 -0.32387098942E+01 -0.31719475353E+02 -0.32647522431E+00  0.59301938084E+02  0.49999989160E+02 0.  0.
         12    1    1    2    0    0  0.32387098942E+01  0.31719475353E+02  0.32647522431E+00  0.31886061916E+02  0.00000000000E+00 0. -1.
         11    1    3    3    0    0 -0.82079695500E+01 -0.19264904102E+02  0.13597693114E+02  0.24968070660E+02  0.51100000000E-03 0. -1.
        -11    1    3    3    0    0 -0.93909499725E+01 -0.22919244649E+01  0.27965197628E+01  0.10062970843E+02  0.51100000000E-03 0.  1.
         12    1    3    3    0    0  0.14360209628E+02 -0.10162646786E+02 -0.16720688101E+02  0.24270896581E+02  0.00000000000E+00 0. -1.
</event>
<event>
 7    1  0.5837204E-012  0.5930195E+02  0.7816164E-02  0.1266605E+00
        -11   -1    0    0    0    0  0.00000000000E+00  0.00000000000E+00  0.45593999997E+02  0.45594000000E+02  0.51100000000E-03 0.  1.
         11   -1    0    0    0    0 -0.00000000000E+00 -0.00000000000E+00 -0.45593999997E+02  0.45594000000E+02  0.51100000000E-03 0. -1.
    9900012    2    1    2    0    0  0.10717338300E+02 -0.14240048871E+02  0.26440114606E+02  0.59301953013E+02  0.50000016387E+02 0.  0.
         12    1    1    2    0    0 -0.10717338300E+02  0.14240048871E+02 -0.26440114606E+02  0.31886046987E+02  0.00000000000E+00 0. -1.
         11    1    3    3    0    0  0.11938846624E+02 -0.20876096043E+02  0.10648115127E+02  0.26300756657E+02  0.51100000000E-03 0. -1.
        -11    1    3    3    0    0  0.78588189210E+01  0.86528288626E+01 -0.29696727052E+01  0.12060324971E+02  0.51100000000E-03 0.  1.
        -12    1    3    3    0    0 -0.90803272446E+01 -0.20167816914E+01  0.18761672184E+02  0.20940871386E+02  0.00000000000E+00 0.  1.
</event>
<event>
 7    1  0.5837204E-012  0.5930195E+02  0.7816164E-02  0.1266605E+00
        -11   -1    0    0    0    0  0.00000000000E+00  0.00000000000E+00  0.45593999997E+02  0.45594000000E+02  0.51100000000E-03 0.  1.
         11   -1    0    0    0    0 -0.00000000000E+00 -0.00000000000E+00 -0.45593999997E+02  0.45594000000E+02  0.51100000000E-03 0. -1.
    9900012    2    1    2    0    0  0.72196281668E+01  0.31022820701E+02  0.14770572242E+01  0.59301950806E+02  0.50000012363E+02 0.  0.
         12    1    1    2    0    0 -0.72196281668E+01 -0.31022820701E+02 -0.14770572242E+01  0.31886049194E+02  0.00000000000E+00 0. -1.
         11    1    3    3    0    0  0.75674319981E+00 -0.29463630081E+01  0.11764282944E+02  0.12151216758E+02  0.51100000000E-03 0. -1.
        -11    1    3    3    0    0  0.47740038593E+01  0.26651931753E+02  0.72867571591E+01  0.28039497306E+02  0.51100000000E-03 0.  1.
         12    1    3    3    0    0  0.16888811077E+01  0.73172519560E+01 -0.17573982879E+02  0.19111236742E+02  0.00000000000E+00 0. -1.
</event>
<event>
 7    1  0.5837204E-012  0.5930193E+02  0.7816164E-02  0.1266605E+00
        -11   -1    0    0    0    0  0.00000000000E+00  0.00000000000E+00  0.45593999997E+02  0.45594000000E+02  0.51100000000E-03 0.  1.
         11   -1    0    0    0    0 -0.00000000000E+00 -0.00000000000E+00 -0.45593999997E+02  0.45594000000E+02  0.51100000000E-03 0. -1.
    9900012    2    1    2    0    0 -0.16540622185E+01 -0.29105669193E+02  0.12916859629E+02  0.59301934648E+02  0.49999982893E+02 0.  0.
         12    1    1    2    0    0  0.16540622185E+01  0.29105669193E+02 -0.12916859629E+02  0.31886065352E+02  0.00000000000E+00 0. -1.
         11    1    3    3    0    0  0.56154981672E+01  0.26164039973E+01  0.20709816374E+01  0.65321018629E+01  0.51100000000E-03 0. -1.
        -11    1    3    3    0    0 -0.18653845081E+02 -0.84456799217E+00  0.26977985201E+01  0.18866831968E+02  0.51100000000E-03 0.  1.
        -12    1    3    3    0    0  0.11384284696E+02 -0.30877505198E+02  0.81480794711E+01  0.33903000816E+02  0.00000000000E+00 0.  1.
</event>
<event>
 7    1  0.5837204E-012  0.5930193E+02  0.7816164E-02  0.1266605E+00
        -11   -1    0    0    0    0  0.00000000000E+00  0.00000000000E+00  0.45593999997E+02  0.45594000000E+02  0.51100000000E-03 0.  1.
         11   -1    0    0    0    0 -0.00000000000E+00 -0.00000000000E+00 -0.45593999997E+02  0.45594000000E+02  0.51100000000E-03 0. -1.
    9900012    2    1    2    0    0  0.15683564070E+02  0.26380967118E+02 -0.86482311295E+01  0.59301929221E+02  0.49999972997E+02 0.  0.
         12    1    1    2    0    0 -0.15683564070E+02 -0.26380967118E+02  0.86482311295E+01  0.31886070779E+02  0.00000000000E+00 0. -1.
         11    1    3    3    0    0 -0.42386463777E+01  0.45618456734E+01 -0.12325333614E+02  0.13809069774E+02  0.51100000000E-03 0. -1.
        -11    1    3    3    0    0 -0.93249330021E+01  0.76435702507E+01 -0.27382985659E+01  0.12364336657E+02  0.51100000000E-03 0.  1.
        -12    1    3    3    0    0  0.29247143450E+02  0.14175551194E+02  0.64154010504E+01  0.33128522790E+02  0.00000000000E+00 0.  1.
</event>
<event>
 7    1  0.5837204E-012  0.5930201E+02  0.7816164E-02  0.1266605E+00
        -11   -1    0    0    0    0  0.00000000000E+00  0.00000000000E+00  0.45593999997E+02  0.45594000000E+02  0.51100000000E-03 0. -1.
         11   -1    0    0    0    0 -0.00000000000E+00 -0.00000000000E+00 -0.45593999997E+02  0.45594000000E+02  0.51100000000E-03 0.  1.
    9900012    2    1    2    0    0  0.60809624806E+00 -0.25730655301E+00 -0.31879156423E+02  0.59302006179E+02  0.50000113348E+02 0.  0.
         12    1    1    2    0    0 -0.60809624806E+00  0.25730655301E+00  0.31879156423E+02  0.31885993821E+02  0.00000000000E+00 0. -1.
         11    1    3    3    0    0  0.14141888615E+02  0.32146367423E+01 -0.18450804007E+02  0.23468256683E+02  0.51100000000E-03 0. -1.
        -11    1    3    3    0    0  0.46055802041E+01  0.70919729755E+01  0.32132612533E+01  0.90461316509E+01  0.51100000000E-03 0.  1.
        -12    1    3    3    0    0 -0.18139372571E+02 -0.10563916271E+02 -0.16641613670E+02  0.26787617845E+02  0.00000000000E+00 0.  1.
</event>
<event>
 7    1  0.5837204E-012  0.5930199E+02  0.7816164E-02  0.1266605E+00
        -11   -1    0    0    0    0  0.00000000000E+00  0.00000000000E+00  0.45593999997E+02  0.45594000000E+02  0.51100000000E-03 0.  1.
         11   -1    0    0    0    0 -0.00000000000E+00 -0.00000000000E+00 -0.45593999997E+02  0.45594000000E+02  0.51100000000E-03 0. -1.
    9900012    2    1    2    0    0 -0.24491190017E+02 -0.11928116719E+02  0.16571643626E+02  0.59301988500E+02  0.50000081107E+02 0.  0.
         12    1    1    2    0    0  0.24491190017E+02  0.11928116719E+02 -0.16571643626E+02  0.31886011500E+02  0.00000000000E+00 0. -1.
         11    1    3    3    0    0 -0.21564471685E+02 -0.33634352168E+01  0.64809615645E+01  0.22767125391E+02  0.51100000000E-03 0. -1.
        -11    1    3    3    0    0 -0.13617773424E+02 -0.47338583156E+01 -0.69908210060E+01  0.16022632311E+02  0.51100000000E-03 0.  1.
        -12    1    3    3    0    0  0.10691055092E+02 -0.38308231862E+01  0.17081503067E+02  0.20512230798E+02  0.00000000000E+00 0.  1.
</event>
<event>
 7    1  0.5837204E-012  0.5930195E+02  0.7816164E-02  0.1266605E+00
        -11   -1    0    0    0    0  0.00000000000E+00  0.00000000000E+00  0.45593999997E+02  0.45594000000E+02  0.51100000000E-03 0. -1.
         11   -1    0    0    0    0 -0.00000000000E+00 -0.00000000000E+00 -0.45593999997E+02  0.45594000000E+02  0.51100000000E-03 0.  1.
    9900012    2    1    2    0    0 -0.19133235725E+02 -0.19436748696E+02  0.16518232645E+02  0.59301954166E+02  0.50000018490E+02 0.  0.
         12    1    1    2    0    0  0.19133235725E+02  0.19436748696E+02 -0.16518232645E+02  0.31886045834E+02  0.00000000000E+00 0. -1.
         11    1    3    3    0    0  0.27003387563E+01 -0.58539548015E+01  0.19357171836E+02  0.20402468428E+02  0.51100000000E-03 0. -1.
        -11    1    3    3    0    0 -0.79014952590E+01  0.84365833395E+01  0.35104500741E+01  0.12080265964E+02  0.51100000000E-03 0.  1.
        -12    1    3    3    0    0 -0.13932079223E+02 -0.22019377234E+02 -0.63493892649E+01  0.26819219774E+02  0.00000000000E+00 0.  1.
</event>
<event>
 7    1  0.5837204E-012  0.5930195E+02  0.7816164E-02  0.1266605E+00
        -11   -1    0    0    0    0  0.00000000000E+00  0.00000000000E+00  0.45593999997E+02  0.45594000000E+02  0.51100000000E-03 0. -1.
         11   -1    0    0    0    0 -0.00000000000E+00 -0.00000000000E+00 -0.45593999997E+02  0.45594000000E+02  0.51100000000E-03 0.  1.
    9900012    2    1    2    0    0  0.10589693182E+01 -0.43571904203E+01 -0.31569189611E+02  0.59301948863E+02  0.50000008819E+02 0.  0.
         12    1    1    2    0    0 -0.10589693182E+01  0.43571904203E+01  0.31569189611E+02  0.31886051137E+02  0.00000000000E+00 0. -1.
         11    1    3    3    0    0  0.31492580179E+01 -0.91671686288E+01  0.67706415680E+01  0.11823552522E+02  0.51100000000E-03 0. -1.
        -11    1    3    3    0    0 -0.14202993775E+01  0.10399791981E+02 -0.19752078771E+01  0.10680560378E+02  0.51100000000E-03 0.  1.
        -12    1    3    3    0    0 -0.66998932216E+00 -0.55898137726E+01 -0.36364623302E+02  0.36797835964E+02  0.00000000000E+00 0.  1.
</event>
<event>
 7    1  0.5837204E-012  0.5930192E+02  0.7816164E-02  0.1266605E+00
        -11   -1    0    0    0    0  0.00000000000E+00  0.00000000000E+00  0.45593999997E+02  0.45594000000E+02  0.51100000000E-03 0. -1.
         11   -1    0    0    0    0 -0.00000000000E+00 -0.00000000000E+00 -0.45593999997E+02  0.45594000000E+02  0.51100000000E-03 0.  1.
    9900012    2    1    2    0    0  0.29989803275E+02  0.10562391807E+02  0.24019536324E+01  0.59301924631E+02  0.49999964625E+02 0.  0.
         12    1    1    2    0    0 -0.29989803275E+02 -0.10562391807E+02 -0.24019536324E+01  0.31886075369E+02  0.00000000000E+00 0. -1.
         11    1    3    3    0    0  0.25851116437E+02 -0.11022920119E+02  0.60970087050E+01  0.28756886209E+02  0.51100000000E-03 0. -1.
        -11    1    3    3    0    0  0.75205955387E+01  0.93934621621E+00 -0.57640391712E+01  0.95218630740E+01  0.51100000000E-03 0.  1.
         12    1    3    3    0    0 -0.33819087007E+01  0.20645965709E+02  0.20689840986E+01  0.21023175349E+02  0.00000000000E+00 0. -1.
</event>
<event>
 7    1  0.5837204E-012  0.5930193E+02  0.7816164E-02  0.1266605E+00
        -11   -1    0    0    0    0  0.00000000000E+00  0.00000000000E+00  0.45593999997E+02  0.45594000000E+02  0.51100000000E-03 0.  1.
         11   -1    0    0    0    0 -0.00000000000E+00 -0.00000000000E+00 -0.45593999997E+02  0.45594000000E+02  0.51100000000E-03 0. -1.
    9900012    2    1    2    0    0 -0.11400726220E+02 -0.27227134259E+02  0.12059354050E+02  0.59301930653E+02  0.49999975607E+02 0.  0.
         12    1    1    2    0    0  0.11400726220E+02  0.27227134259E+02 -0.12059354050E+02  0.31886069347E+02  0.00000000000E+00 0. -1.
         11    1    3    3    0    0 -0.12139205701E+02 -0.14129908476E+02  0.17483767931E+01  0.18710196425E+02  0.51100000000E-03 0. -1.
        -11    1    3    3    0    0 -0.72146173108E+01  0.74879777215E+01  0.14784350075E+02  0.18074775813E+02  0.51100000000E-03 0.  1.
         12    1    3    3    0    0  0.79530967916E+01 -0.20585203504E+02 -0.44733728174E+01  0.22516958415E+02  0.00000000000E+00 0. -1.
</event>
<event>
 7    1  0.5837204E-012  0.5930194E+02  0.7816164E-02  0.1266605E+00
        -11   -1    0    0    0    0  0.00000000000E+00  0.00000000000E+00  0.45593999997E+02  0.45594000000E+02  0.51100000000E-03 0.  1.
         11   -1    0    0    0    0 -0.00000000000E+00 -0.00000000000E+00 -0.45593999997E+02  0.45594000000E+02  0.51100000000E-03 0. -1.
    9900012    2    1    2    0    0  0.20180927372E+02  0.78835146504E+01  0.23394466486E+02  0.59301941997E+02  0.49999996297E+02 0.  0.
         12    1    1    2    0    0 -0.20180927372E+02 -0.78835146504E+01 -0.23394466486E+02  0.31886058003E+02  0.00000000000E+00 0. -1.
         11    1    3    3    0    0  0.28863441214E+01  0.20445400974E+01 -0.84842270459E+01  0.91920202037E+01  0.51100000000E-03 0. -1.
        -11    1    3    3    0    0 -0.29454797746E+01  0.10734611680E+02 -0.10164533819E+01  0.11177697292E+02  0.51100000000E-03 0.  1.
         12    1    3    3    0    0  0.20240063025E+02 -0.48956371271E+01  0.32895146913E+02  0.38932224501E+02  0.00000000000E+00 0. -1.
</event>
<event>
 7    1  0.5837204E-012  0.5930192E+02  0.7816164E-02  0.1266605E+00
        -11   -1    0    0    0    0  0.00000000000E+00  0.00000000000E+00  0.45593999997E+02  0.45594000000E+02  0.51100000000E-03 0. -1.
         11   -1    0    0    0    0 -0.00000000000E+00 -0.00000000000E+00 -0.45593999997E+02  0.45594000000E+02  0.51100000000E-03 0.  1.
    9900012    2    1    2    0    0  0.20875223943E+00 -0.31308347373E+02  0.60386871097E+01  0.59301922556E+02  0.49999960842E+02 0.  0.
         12    1    1    2    0    0 -0.20875223943E+00  0.31308347373E+02 -0.60386871097E+01  0.31886077444E+02  0.00000000000E+00 0. -1.
         11    1    3    3    0    0  0.59640775968E+01 -0.45202974147E+00  0.23160120730E+01  0.64139273968E+01  0.51100000000E-03 0. -1.
        -11    1    3    3    0    0  0.17477754605E+02 -0.18306662830E+02 -0.34020994669E+01  0.25537816881E+02  0.51100000000E-03 0.  1.
        -12    1    3    3    0    0 -0.23233079962E+02 -0.12549654801E+02  0.71247745035E+01  0.27350178279E+02  0.00000000000E+00 0.  1.
</event>
<event>
 7    1  0.5837204E-012  0.5930192E+02  0.7816164E-02  0.1266605E+00
        -11   -1    0    0    0    0  0.00000000000E+00  0.00000000000E+00  0.45593999997E+02  0.45594000000E+02  0.51100000000E-03 0.  1.
         11   -1    0    0    0    0 -0.00000000000E+00 -0.00000000000E+00 -0.45593999997E+02  0.45594000000E+02  0.51100000000E-03 0. -1.
    9900012    2    1    2    0    0  0.81095851077E+01 -0.30828878872E+02  0.73264682687E+00  0.59301922874E+02  0.49999961421E+02 0.  0.
         12    1    1    2    0    0 -0.81095851077E+01  0.30828878872E+02 -0.73264682687E+00  0.31886077126E+02  0.00000000000E+00 0. -1.
         11    1    3    3    0    0  0.56344635645E+01 -0.16928556020E+02 -0.18061429582E+02  0.25387761370E+02  0.51100000000E-03 0. -1.
        -11    1    3    3    0    0  0.14015929133E+01 -0.46140856132E+01 -0.58355418502E+01  0.75701913904E+01  0.51100000000E-03 0.  1.
        -12    1    3    3    0    0  0.10735286298E+01 -0.92862372383E+01  0.24629618259E+02  0.26343970113E+02  0.00000000000E+00 0.  1.
</event>
<event>
 7    1  0.5837204E-012  0.5930195E+02  0.7816164E-02  0.1266605E+00
        -11   -1    0    0    0    0  0.00000000000E+00  0.00000000000E+00  0.45593999997E+02  0.45594000000E+02  0.51100000000E-03 0.  1.
         11   -1    0    0    0    0 -0.00000000000E+00 -0.00000000000E+00 -0.45593999997E+02  0.45594000000E+02  0.51100000000E-03 0. -1.
    9900012    2    1    2    0    0  0.21759736865E+02  0.11534093796E+02  0.20253365679E+02  0.59301948356E+02  0.50000007893E+02 0.  0.
         12    1    1    2    0    0 -0.21759736865E+02 -0.11534093796E+02 -0.20253365679E+02  0.31886051644E+02  0.00000000000E+00 0. -1.
         11    1    3    3    0    0  0.51996544091E+01  0.16866914441E+02  0.39155593050E+01  0.18079292399E+02  0.51100000000E-03 0. -1.
        -11    1    3    3    0    0 -0.41194803595E+01 -0.41988212798E+01  0.19413331290E+02  0.20284911896E+02  0.51100000000E-03 0.  1.
        -12    1    3    3    0    0  0.20679562816E+02 -0.11339993652E+01 -0.30755249166E+01  0.20937744060E+02  0.00000000000E+00 0.  1.
</event>
<event>
 7    1  0.5837204E-012  0.5930194E+02  0.7816164E-02  0.1266605E+00
        -11   -1    0    0    0    0  0.00000000000E+00  0.00000000000E+00  0.45593999997E+02  0.45594000000E+02  0.51100000000E-03 0.  1.
         11   -1    0    0    0    0 -0.00000000000E+00 -0.00000000000E+00 -0.45593999997E+02  0.45594000000E+02  0.51100000000E-03 0. -1.
    9900012    2    1    2    0    0 -0.27408869967E+02  0.97499982994E+01  0.13054197401E+02  0.59301942083E+02  0.49999996453E+02 0.  0.
         12    1    1    2    0    0  0.27408869967E+02 -0.97499982994E+01 -0.13054197401E+02  0.31886057917E+02  0.00000000000E+00 0. -1.
         11    1    3    3    0    0 -0.15592371760E+02 -0.53220612064E+00 -0.64556229744E+01  0.16884323164E+02  0.51100000000E-03 0. -1.
        -11    1    3    3    0    0 -0.20334502798E+02 -0.29828197452E+01  0.53727603843E+01  0.21242781646E+02  0.51100000000E-03 0.  1.
        -12    1    3    3    0    0  0.85180045912E+01  0.13265024165E+02  0.14137059991E+02  0.21174837272E+02  0.00000000000E+00 0.  1.
</event>
<event>
 7    1  0.5837204E-012  0.5930196E+02  0.7816164E-02  0.1266605E+00
        -11   -1    0    0    0    0  0.00000000000E+00  0.00000000000E+00  0.45593999997E+02  0.45594000000E+02  0.51100000000E-03 0. -1.
         11   -1    0    0    0    0 -0.00000000000E+00 -0.00000000000E+00 -0.45593999997E+02  0.45594000000E+02  0.51100000000E-03 0.  1.
    9900012    2    1    2    0    0 -0.28979883459E+02 -0.98987669656E+01 -0.88825762343E+01  0.59301962408E+02  0.50000033522E+02 0.  0.
         12    1    1    2    0    0  0.28979883459E+02  0.98987669656E+01  0.88825762343E+01  0.31886037592E+02  0.00000000000E+00 0. -1.
         11    1    3    3    0    0 -0.30235609511E+01  0.84485827958E+01 -0.27156260268E+01  0.93752385069E+01  0.51100000000E-03 0. -1.
        -11    1    3    3    0    0  0.97846398844E+01 -0.35694737620E+01  0.14268447595E+01  0.10512668873E+02  0.51100000000E-03 0.  1.
        -12    1    3    3    0    0 -0.35740962392E+02 -0.14777875999E+02 -0.75937949670E+01  0.39414055028E+02  0.00000000000E+00 0.  1.
</event>
<event>
 7    1  0.5837204E-012  0.5930194E+02  0.7816164E-02  0.1266605E+00
        -11   -1    0    0    0    0  0.00000000000E+00  0.00000000000E+00  0.45593999997E+02  0.45594000000E+02  0.51100000000E-03 0.  1.
         11   -1    0    0    0    0 -0.00000000000E+00 -0.00000000000E+00 -0.45593999997E+02  0.45594000000E+02  0.51100000000E-03 0. -1.
    9900012    2    1    2    0    0 -0.54897391239E+01 -0.29781147452E+02  0.99833414379E+01  0.59301935874E+02  0.49999985129E+02 0.  0.
         12    1    1    2    0    0  0.54897391239E+01  0.29781147452E+02 -0.99833414379E+01  0.31886064126E+02  0.00000000000E+00 0. -1.
         11    1    3    3    0    0 -0.45360024621E+01 -0.14043582836E+02  0.94795339403E+01  0.17540213830E+02  0.51100000000E-03 0. -1.
        -11    1    3    3    0    0  0.74385744999E+01 -0.20231334692E+02  0.13662422571E+02  0.25520601184E+02  0.51100000000E-03 0.  1.
         12    1    3    3    0    0 -0.83923111617E+01  0.44937700764E+01 -0.13158615074E+02  0.16241120860E+02  0.00000000000E+00 0. -1.
</event>
<event>
 7    1  0.5837204E-012  0.5930196E+02  0.7816164E-02  0.1266605E+00
        -11   -1    0    0    0    0  0.00000000000E+00  0.00000000000E+00  0.45593999997E+02  0.45594000000E+02  0.51100000000E-03 0.  1.
         11   -1    0    0    0    0 -0.00000000000E+00 -0.00000000000E+00 -0.45593999997E+02  0.45594000000E+02  0.51100000000E-03 0. -1.
    9900012    2    1    2    0    0 -0.21681763803E+02 -0.10682689490E+02  0.20796656574E+02  0.59301958211E+02  0.50000025866E+02 0.  0.
         12    1    1    2    0    0  0.21681763803E+02  0.10682689490E+02 -0.20796656574E+02  0.31886041789E+02  0.00000000000E+00 0. -1.
         11    1    3    3    0    0  0.22065625473E+01  0.52671274914E+01  0.17313495793E+01  0.59673379252E+01  0.51100000000E-03 0. -1.
        -11    1    3    3    0    0 -0.24973805829E+02  0.35730518744E+01  0.22110404673E+02  0.33545903957E+02  0.51100000000E-03 0.  1.
         12    1    3    3    0    0  0.10854794781E+01 -0.19522868855E+02 -0.30450976783E+01  0.19788716328E+02  0.00000000000E+00 0. -1.
</event>
<event>
 7    1  0.5837204E-012  0.5930192E+02  0.7816164E-02  0.1266605E+00
        -11   -1    0    0    0    0  0.00000000000E+00  0.00000000000E+00  0.45593999997E+02  0.45594000000E+02  0.51100000000E-03 0. -1.
         11   -1    0    0    0    0 -0.00000000000E+00 -0.00000000000E+00 -0.45593999997E+02  0.45594000000E+02  0.51100000000E-03 0.  1.
    9900012    2    1    2    0    0  0.89432502396E+01  0.19666040362E+02 -0.23451802960E+02  0.59301922624E+02  0.49999960965E+02 0.  0.
         12    1    1    2    0    0 -0.89432502396E+01 -0.19666040362E+02  0.23451802960E+02  0.31886077376E+02  0.00000000000E+00 0. -1.
         11    1    3    3    0    0  0.12968643400E+01  0.61521576243E+01  0.16994253302E+01  0.65129829774E+01  0.51100000000E-03 0. -1.
        -11    1    3    3    0    0  0.13007220392E+02  0.21536274272E+02 -0.32182658070E+02  0.40849998440E+02  0.51100000000E-03 0.  1.
         12    1    3    3    0    0 -0.53608344926E+01 -0.80223915343E+01  0.70314297800E+01  0.11938941207E+02  0.00000000000E+00 0. -1.
</event>
<event>
 7    1  0.5837204E-012  0.5930194E+02  0.7816164E-02  0.1266605E+00
        -11   -1    0    0    0    0  0.00000000000E+00  0.00000000000E+00  0.45593999997E+02  0.45594000000E+02  0.51100000000E-03 0. -1.
         11   -1    0    0    0    0 -0.00000000000E+00 -0.00000000000E+00 -0.45593999997E+02  0.45594000000E+02  0.51100000000E-03 0.  1.
    9900012    2    1    2    0    0  0.77888399509E+01  0.29583037980E+02 -0.89943761345E+01  0.59301937748E+02  0.49999988546E+02 0.  0.
         12    1    1    2    0    0 -0.77888399509E+01 -0.29583037980E+02  0.89943761345E+01  0.31886062252E+02  0.00000000000E+00 0. -1.
         11    1    3    3    0    0  0.22208322446E+02  0.31294093477E+02  0.14548187731E+00  0.38373832721E+02  0.51100000000E-03 0. -1.
        -11    1    3    3    0    0 -0.44493828014E+01 -0.45675012598E+01  0.96388287442E+00  0.64488871543E+01  0.51100000000E-03 0.  1.
        -12    1    3    3    0    0 -0.99700996939E+01  0.28564457626E+01 -0.10103740886E+02  0.14479217872E+02  0.00000000000E+00 0.  1.
</event>
<event>
 7    1  0.5837204E-012  0.5930194E+02  0.7816164E-02  0.1266605E+00
        -11   -1    0    0    0    0  0.00000000000E+00  0.00000000000E+00  0.45593999997E+02  0.45594000000E+02  0.51100000000E-03 0. -1.
         11   -1    0    0    0    0 -0.00000000000E+00 -0.00000000000E+00 -0.45593999997E+02  0.45594000000E+02  0.51100000000E-03 0.  1.
    9900012    2    1    2    0    0 -0.16454537230E+02 -0.13158350870E+02 -0.23933797076E+02  0.59301942928E+02  0.49999997995E+02 0.  0.
         12    1    1    2    0    0  0.16454537230E+02  0.13158350870E+02  0.23933797076E+02  0.31886057072E+02  0.00000000000E+00 0. -1.
         11    1    3    3    0    0 -0.98132508903E+01 -0.86103444173E+01 -0.19076343217E+02  0.23115899178E+02  0.51100000000E-03 0. -1.
        -11    1    3    3    0    0 -0.19848873413E+02 -0.45396898316E+01 -0.91159424959E+01  0.22308898838E+02  0.51100000000E-03 0.  1.
         12    1    3    3    0    0  0.13207587073E+02 -0.83166215731E-02  0.42584886365E+01  0.13877144912E+02  0.00000000000E+00 0. -1.
</event>
<event>
 7    1  0.5837204E-012  0.5930195E+02  0.7816164E-02  0.1266605E+00
        -11   -1    0    0    0    0  0.00000000000E+00  0.00000000000E+00  0.45593999997E+02  0.45594000000E+02  0.51100000000E-03 0. -1.
         11   -1    0    0    0    0 -0.00000000000E+00 -0.00000000000E+00 -0.45593999997E+02  0.45594000000E+02  0.51100000000E-03 0.  1.
    9900012    2    1    2    0    0 -0.81207489464E+01  0.28804805011E+02  0.11002583961E+02  0.59301949617E+02  0.50000010194E+02 0.  0.
         12    1    1    2    0    0  0.81207489464E+01 -0.28804805011E+02 -0.11002583961E+02  0.31886050383E+02  0.00000000000E+00 0. -1.
         11    1    3    3    0    0  0.21379116090E+01  0.13765876437E+02 -0.14882873560E+02  0.20385532757E+02  0.51100000000E-03 0. -1.
        -11    1    3    3    0    0  0.11129892993E+01  0.94881547584E+01 -0.59095370637E+00  0.95714707565E+01  0.51100000000E-03 0.  1.
         12    1    3    3    0    0 -0.11371649855E+02  0.55507738160E+01  0.26476411227E+02  0.29344946104E+02  0.00000000000E+00 0. -1.
</event>
<event>
 7    1  0.5837204E-012  0.5930180E+02  0.7816164E-02  0.1266605E+00
        -11   -1    0    0    0    0  0.00000000000E+00  0.00000000000E+00  0.45593999997E+02  0.45594000000E+02  0.51100000000E-03 0. -1.
         11   -1    0    0    0    0 -0.00000000000E+00 -0.00000000000E+00 -0.45593999997E+02  0.45594000000E+02  0.51100000000E-03 0.  1.
    9900012    2    1    2    0    0  0.28855080994E+00  0.29566334723E+02 -0.11936434097E+02  0.59301798133E+02  0.49999733923E+02 0.  0.
         12    1    1    2    0    0 -0.28855080994E+00 -0.29566334723E+02  0.11936434097E+02  0.31886201867E+02  0.00000000000E+00 0. -1.
         11    1    3    3    0    0 -0.21813786626E+01 -0.38041661641E+01  0.11332204701E+02  0.12151088705E+02  0.51100000000E-03 0. -1.
        -11    1    3    3    0    0  0.63598135298E+01  0.21859725009E-01 -0.81267221228E+01  0.10319463102E+02  0.51100000000E-03 0.  1.
        -12    1    3    3    0    0 -0.38898840573E+01  0.33348641162E+02 -0.15141916675E+02  0.36831246326E+02  0.00000000000E+00 0.  1.
</event>
<event>
 7    1  0.5837204E-012  0.5930194E+02  0.7816164E-02  0.1266605E+00
        -11   -1    0    0    0    0  0.00000000000E+00  0.00000000000E+00  0.45593999997E+02  0.45594000000E+02  0.51100000000E-03 0. -1.
         11   -1    0    0    0    0 -0.00000000000E+00 -0.00000000000E+00 -0.45593999997E+02  0.45594000000E+02  0.51100000000E-03 0.  1.
    9900012    2    1    2    0    0  0.14928538494E+02 -0.28175074551E+02  0.15826900445E+00  0.59301935072E+02  0.49999983667E+02 0.  0.
         12    1    1    2    0    0 -0.14928538494E+02  0.28175074551E+02 -0.15826900445E+00  0.31886064928E+02  0.00000000000E+00 0. -1.
         11    1    3    3    0    0  0.17637922404E+02 -0.85578317552E+01 -0.52031521022E+01  0.20283135437E+02  0.51100000000E-03 0. -1.
        -11    1    3    3    0    0 -0.71966696560E+01 -0.12322688736E+02 -0.12653181662E+02  0.19072066439E+02  0.51100000000E-03 0.  1.
         12    1    3    3    0    0  0.44872857460E+01 -0.72945540594E+01  0.18014602769E+02  0.19946733196E+02  0.00000000000E+00 0. -1.
</event>
<event>
 7    1  0.5837204E-012  0.5930194E+02  0.7816164E-02  0.1266605E+00
        -11   -1    0    0    0    0  0.00000000000E+00  0.00000000000E+00  0.45593999997E+02  0.45594000000E+02  0.51100000000E-03 0.  1.
         11   -1    0    0    0    0 -0.00000000000E+00 -0.00000000000E+00 -0.45593999997E+02  0.45594000000E+02  0.51100000000E-03 0. -1.
    9900012    2    1    2    0    0 -0.72522218868E+01 -0.89232262611E+01  0.29740580078E+02  0.59301940466E+02  0.49999993504E+02 0.  0.
         12    1    1    2    0    0  0.72522218868E+01  0.89232262611E+01 -0.29740580078E+02  0.31886059534E+02  0.00000000000E+00 0. -1.
         11    1    3    3    0    0 -0.98171090408E+01 -0.21178218178E+01 -0.15086599236E+01  0.10155631649E+02  0.51100000000E-03 0. -1.
        -11    1    3    3    0    0 -0.15681696500E+02 -0.97536061715E+01  0.10064843791E+02  0.21032106867E+02  0.51100000000E-03 0.  1.
        -12    1    3    3    0    0  0.18246583654E+02  0.29482017281E+01  0.21184396211E+02  0.28114201950E+02  0.00000000000E+00 0.  1.
</event>
<event>
 7    1  0.5837204E-012  0.5930193E+02  0.7816164E-02  0.1266605E+00
        -11   -1    0    0    0    0  0.00000000000E+00  0.00000000000E+00  0.45593999997E+02  0.45594000000E+02  0.51100000000E-03 0.  1.
         11   -1    0    0    0    0 -0.00000000000E+00 -0.00000000000E+00 -0.45593999997E+02  0.45594000000E+02  0.51100000000E-03 0. -1.
    9900012    2    1    2    0    0 -0.12361857182E+02  0.18708523125E+02 -0.22669292599E+02  0.59301934432E+02  0.49999982500E+02 0.  0.
         12    1    1    2    0    0  0.12361857182E+02 -0.18708523125E+02  0.22669292599E+02  0.31886065568E+02  0.00000000000E+00 0. -1.
         11    1    3    3    0    0 -0.38214652808E+01 -0.35727157806E+01  0.67822714284E+01  0.85654597618E+01  0.51100000000E-03 0. -1.
        -11    1    3    3    0    0  0.18131816091E+01  0.57097210324E+01  0.71000479077E+01  0.92897374758E+01  0.51100000000E-03 0.  1.
         12    1    3    3    0    0 -0.10353573510E+02  0.16571517873E+02 -0.36551611935E+02  0.41446737194E+02  0.00000000000E+00 0. -1.
</event>
<event>
 7    1  0.5837204E-012  0.5930197E+02  0.7816164E-02  0.1266605E+00
        -11   -1    0    0    0    0  0.00000000000E+00  0.00000000000E+00  0.45593999997E+02  0.45594000000E+02  0.51100000000E-03 0.  1.
         11   -1    0    0    0    0 -0.00000000000E+00 -0.00000000000E+00 -0.45593999997E+02  0.45594000000E+02  0.51100000000E-03 0. -1.
    9900012    2    1    2    0    0  0.19251281244E+02  0.56602087841E+01  0.24780422159E+02  0.59301966766E+02  0.50000041470E+02 0.  0.
         12    1    1    2    0    0 -0.19251281244E+02 -0.56602087841E+01 -0.24780422159E+02  0.31886033234E+02  0.00000000000E+00 0. -1.
         11    1    3    3    0    0  0.20708909782E+01 -0.26708625159E+01 -0.10162008681E+01  0.35291302735E+01  0.51100000000E-03 0. -1.
        -11    1    3    3    0    0  0.50626741110E+01 -0.14055458247E+02  0.26373144559E+02  0.30310548162E+02  0.51100000000E-03 0.  1.
         12    1    3    3    0    0  0.12117716154E+02  0.22386529547E+02 -0.57652153152E+00  0.25462288331E+02  0.00000000000E+00 0. -1.
</event>
<event>
 7    1  0.5837204E-012  0.5930198E+02  0.7816164E-02  0.1266605E+00
        -11   -1    0    0    0    0  0.00000000000E+00  0.00000000000E+00  0.45593999997E+02  0.45594000000E+02  0.51100000000E-03 0. -1.
         11   -1    0    0    0    0 -0.00000000000E+00 -0.00000000000E+00 -0.45593999997E+02  0.45594000000E+02  0.51100000000E-03 0.  1.
    9900012    2    1    2    0    0 -0.20234979980E+02  0.10702821585E+02 -0.22197148533E+02  0.59301981000E+02  0.50000067428E+02 0.  0.
         12    1    1    2    0    0  0.20234979980E+02 -0.10702821585E+02  0.22197148533E+02  0.31886019000E+02  0.00000000000E+00 0. -1.
         11    1    3    3    0    0 -0.31733800334E+00 -0.86669139225E+01 -0.77226867192E+01  0.11612751215E+02  0.51100000000E-03 0. -1.
        -11    1    3    3    0    0  0.87721286122E+01 -0.20696298307E+01 -0.61729655580E+01  0.10924244233E+02  0.51100000000E-03 0.  1.
         12    1    3    3    0    0 -0.28689770589E+02  0.21439365338E+02 -0.83014962563E+01  0.36764985552E+02  0.00000000000E+00 0. -1.
</event>
<event>
 7    1  0.5837204E-012  0.5930199E+02  0.7816164E-02  0.1266605E+00
        -11   -1    0    0    0    0  0.00000000000E+00  0.00000000000E+00  0.45593999997E+02  0.45594000000E+02  0.51100000000E-03 0.  1.
         11   -1    0    0    0    0 -0.00000000000E+00 -0.00000000000E+00 -0.45593999997E+02  0.45594000000E+02  0.51100000000E-03 0. -1.
    9900012    2    1    2    0    0  0.29211508142E+02  0.51632456951E+01  0.11693852670E+02  0.59301992030E+02  0.50000087544E+02 0.  0.
         12    1    1    2    0    0 -0.29211508142E+02 -0.51632456951E+01 -0.11693852670E+02  0.31886007970E+02  0.00000000000E+00 0. -1.
         11    1    3    3    0    0  0.22536149678E+02 -0.13159221892E+02  0.73889555079E+01  0.27122681041E+02  0.51100000000E-03 0. -1.
        -11    1    3    3    0    0  0.15225624164E+02  0.84514359072E+01  0.71314660715E+01  0.18817656833E+02  0.51100000000E-03 0.  1.
         12    1    3    3    0    0 -0.85502657009E+01  0.98710316794E+01 -0.28265689093E+01  0.13361654155E+02  0.00000000000E+00 0. -1.
</event>
<event>
 7    1  0.5837204E-012  0.5930194E+02  0.7816164E-02  0.1266605E+00
        -11   -1    0    0    0    0  0.00000000000E+00  0.00000000000E+00  0.45593999997E+02  0.45594000000E+02  0.51100000000E-03 0. -1.
         11   -1    0    0    0    0 -0.00000000000E+00 -0.00000000000E+00 -0.45593999997E+02  0.45594000000E+02  0.51100000000E-03 0.  1.
    9900012    2    1    2    0    0 -0.24626764885E+02  0.12038591179E+01  0.20218658278E+02  0.59301937714E+02  0.49999988486E+02 0.  0.
         12    1    1    2    0    0  0.24626764885E+02 -0.12038591179E+01 -0.20218658278E+02  0.31886062286E+02  0.00000000000E+00 0. -1.
         11    1    3    3    0    0 -0.16641964471E+02 -0.99364753198E+01  0.94447795289E+01  0.21561363219E+02  0.51100000000E-03 0. -1.
        -11    1    3    3    0    0 -0.18828018627E+02  0.11553198977E+01  0.12893206609E+02  0.22848716078E+02  0.51100000000E-03 0.  1.
        -12    1    3    3    0    0  0.10843218213E+02  0.99850145400E+01 -0.21193278592E+01  0.14891858418E+02  0.00000000000E+00 0.  1.
</event>
<event>
 7    1  0.5837204E-012  0.5930196E+02  0.7816164E-02  0.1266605E+00
        -11   -1    0    0    0    0  0.00000000000E+00  0.00000000000E+00  0.45593999997E+02  0.45594000000E+02  0.51100000000E-03 0.  1.
         11   -1    0    0    0    0 -0.00000000000E+00 -0.00000000000E+00 -0.45593999997E+02  0.45594000000E+02  0.51100000000E-03 0. -1.
    9900012    2    1    2    0    0  0.21434526050E+02  0.14042166690E+02  0.18976246945E+02  0.59301963864E+02  0.50000036176E+02 0.  0.
         12    1    1    2    0    0 -0.21434526050E+02 -0.14042166690E+02 -0.18976246945E+02  0.31886036136E+02  0.00000000000E+00 0. -1.
         11    1    3    3    0    0 -0.12145606840E+01  0.62614067632E+01 -0.19466573551E+01  0.66685716183E+01  0.51100000000E-03 0. -1.
        -11    1    3    3    0    0 -0.83890050077E+00  0.18965904694E+02  0.18496432418E+02  0.26505231698E+02  0.51100000000E-03 0.  1.
         12    1    3    3    0    0  0.23487987235E+02 -0.11185144767E+02  0.24264718822E+01  0.26128160548E+02  0.00000000000E+00 0. -1.
</event>
<event>
 7    1  0.5837204E-012  0.5930194E+02  0.7816164E-02  0.1266605E+00
        -11   -1    0    0    0    0  0.00000000000E+00  0.00000000000E+00  0.45593999997E+02  0.45594000000E+02  0.51100000000E-03 0.  1.
         11   -1    0    0    0    0 -0.00000000000E+00 -0.00000000000E+00 -0.45593999997E+02  0.45594000000E+02  0.51100000000E-03 0. -1.
    9900012    2    1    2    0    0  0.22822823616E+02 -0.21397052738E+02  0.61648835892E+01  0.59301938260E+02  0.49999989480E+02 0.  0.
         12    1    1    2    0    0 -0.22822823616E+02  0.21397052738E+02 -0.61648835892E+01  0.31886061740E+02  0.00000000000E+00 0. -1.
         11    1    3    3    0    0  0.21745574317E+02 -0.16304064655E+02 -0.12619591983E+01  0.27208180166E+02  0.51100000000E-03 0. -1.
        -11    1    3    3    0    0  0.10348514321E+02  0.45553218702E+01  0.13320734103E+02  0.17472397182E+02  0.51100000000E-03 0.  1.
         12    1    3    3    0    0 -0.92712650228E+01 -0.96483099529E+01 -0.58938913151E+01  0.14621360911E+02  0.00000000000E+00 0. -1.
</event>
<event>
 7    1  0.5837204E-012  0.5930195E+02  0.7816164E-02  0.1266605E+00
        -11   -1    0    0    0    0  0.00000000000E+00  0.00000000000E+00  0.45593999997E+02  0.45594000000E+02  0.51100000000E-03 0.  1.
         11   -1    0    0    0    0 -0.00000000000E+00 -0.00000000000E+00 -0.45593999997E+02  0.45594000000E+02  0.51100000000E-03 0. -1.
    9900012    2    1    2    0    0 -0.16014624886E+02 -0.18220872228E+02  0.20694241036E+02  0.59301952784E+02  0.50000015969E+02 0.  0.
         12    1    1    2    0    0  0.16014624886E+02  0.18220872228E+02 -0.20694241036E+02  0.31886047216E+02  0.00000000000E+00 0. -1.
         11    1    3    3    0    0  0.89937472150E+01  0.67980385662E+01 -0.15481766617E+01  0.11379704238E+02  0.51100000000E-03 0. -1.
        -11    1    3    3    0    0 -0.11080112011E+02  0.18991980852E+01  0.18513466460E+01  0.11393126007E+02  0.51100000000E-03 0.  1.
        -12    1    3    3    0    0 -0.13928260090E+02 -0.26918108880E+02  0.20391071052E+02  0.36529122539E+02  0.00000000000E+00 0.  1.
</event>
<event>
 7    1  0.5837204E-012  0.5930192E+02  0.7816164E-02  0.1266605E+00
        -11   -1    0    0    0    0  0.00000000000E+00  0.00000000000E+00  0.45593999997E+02  0.45594000000E+02  0.51100000000E-03 0.  1.
         11   -1    0    0    0    0 -0.00000000000E+00 -0.00000000000E+00 -0.45593999997E+02  0.45594000000E+02  0.51100000000E-03 0. -1.
    9900012    2    1    2    0    0  0.18976602430E+02 -0.99444494684E+01  0.23616072590E+02  0.59301915267E+02  0.49999947547E+02 0.  0.
         12    1    1    2    0    0 -0.18976602430E+02  0.99444494684E+01 -0.23616072590E+02  0.31886084733E+02  0.00000000000E+00 0. -1.
         11    1    3    3    0    0 -0.10803269506E+02 -0.57267414601E+01 -0.80549212171E+00  0.12253775646E+02  0.51100000000E-03 0. -1.
        -11    1    3    3    0    0  0.32714929627E+01 -0.79909538930E+00 -0.57976908425E+01  0.67048071570E+01  0.51100000000E-03 0.  1.
        -12    1    3    3    0    0  0.26508378973E+02 -0.34186126190E+01  0.30219255554E+02  0.40343332464E+02  0.00000000000E+00 0.  1.
</event>
<event>
 7    1  0.5837204E-012  0.5930196E+02  0.7816164E-02  0.1266605E+00
        -11   -1    0    0    0    0  0.00000000000E+00  0.00000000000E+00  0.45593999997E+02  0.45594000000E+02  0.51100000000E-03 0.  1.
         11   -1    0    0    0    0 -0.00000000000E+00 -0.00000000000E+00 -0.45593999997E+02  0.45594000000E+02  0.51100000000E-03 0. -1.
    9900012    2    1    2    0    0 -0.15317298919E+02 -0.48407880990E+01  0.27543903387E+02  0.59301960901E+02  0.50000030773E+02 0.  0.
         12    1    1    2    0    0  0.15317298919E+02  0.48407880990E+01 -0.27543903387E+02  0.31886039099E+02  0.00000000000E+00 0. -1.
         11    1    3    3    0    0  0.16708517036E+01 -0.34351223407E+01  0.13104118617E+02  0.13649532443E+02  0.51100000000E-03 0. -1.
        -11    1    3    3    0    0 -0.15321134525E+02 -0.18119239898E+02  0.35367652995E+00  0.23731184230E+02  0.51100000000E-03 0.  1.
         12    1    3    3    0    0 -0.16670160982E+01  0.16713574139E+02  0.14086108240E+02  0.21921244229E+02  0.00000000000E+00 0. -1.
</event>
<event>
 7    1  0.5837204E-012  0.5930191E+02  0.7816164E-02  0.1266605E+00
        -11   -1    0    0    0    0  0.00000000000E+00  0.00000000000E+00  0.45593999997E+02  0.45594000000E+02  0.51100000000E-03 0. -1.
         11   -1    0    0    0    0 -0.00000000000E+00 -0.00000000000E+00 -0.45593999997E+02  0.45594000000E+02  0.51100000000E-03 0.  1.
    9900012    2    1    2    0    0  0.19258520572E+02  0.57647813713E+01 -0.24750741366E+02  0.59301913426E+02  0.49999944189E+02 0.  0.
         12    1    1    2    0    0 -0.19258520572E+02 -0.57647813713E+01  0.24750741366E+02  0.31886086574E+02  0.00000000000E+00 0. -1.
         11    1    3    3    0    0  0.96875374147E+01  0.14504383440E+02  0.66422792271E+01  0.18664013334E+02  0.51100000000E-03 0. -1.
        -11    1    3    3    0    0 -0.38673180836E+01  0.51508322440E+01 -0.69231622060E+01  0.94560772605E+01  0.51100000000E-03 0.  1.
        -12    1    3    3    0    0  0.13438301241E+02 -0.13890434312E+02 -0.24469858387E+02  0.31181822831E+02  0.00000000000E+00 0.  1.
</event>
<event>
 7    1  0.5837204E-012  0.5930192E+02  0.7816164E-02  0.1266605E+00
        -11   -1    0    0    0    0  0.00000000000E+00  0.00000000000E+00  0.45593999997E+02  0.45594000000E+02  0.51100000000E-03 0. -1.
         11   -1    0    0    0    0 -0.00000000000E+00 -0.00000000000E+00 -0.45593999997E+02  0.45594000000E+02  0.51100000000E-03 0.  1.
    9900012    2    1    2    0    0  0.22063809715E+02  0.18991587626E+02 -0.13008848495E+02  0.59301917787E+02  0.49999952144E+02 0.  0.
         12    1    1    2    0    0 -0.22063809715E+02 -0.18991587626E+02  0.13008848495E+02  0.31886082213E+02  0.00000000000E+00 0. -1.
         11    1    3    3    0    0  0.90058328318E+01  0.70815602633E+01 -0.29433561825E+01  0.11828646019E+02  0.51100000000E-03 0. -1.
        -11    1    3    3    0    0 -0.66688955311E+01 -0.26875320176E+01 -0.19805707422E+02  0.21070430529E+02  0.51100000000E-03 0.  1.
         12    1    3    3    0    0  0.19726872415E+02  0.14597559380E+02  0.97402151098E+01  0.26402841239E+02  0.00000000000E+00 0. -1.
</event>
<event>
 7    1  0.5837204E-012  0.5930195E+02  0.7816164E-02  0.1266605E+00
        -11   -1    0    0    0    0  0.00000000000E+00  0.00000000000E+00  0.45593999997E+02  0.45594000000E+02  0.51100000000E-03 0.  1.
         11   -1    0    0    0    0 -0.00000000000E+00 -0.00000000000E+00 -0.45593999997E+02  0.45594000000E+02  0.51100000000E-03 0. -1.
    9900012    2    1    2    0    0  0.19860554848E+02  0.17193178507E+02  0.18074105191E+02  0.59301948120E+02  0.50000007463E+02 0.  0.
         12    1    1    2    0    0 -0.19860554848E+02 -0.17193178507E+02 -0.18074105191E+02  0.31886051880E+02  0.00000000000E+00 0. -1.
         11    1    3    3    0    0 -0.77621949226E+01  0.11370175069E+02 -0.28482763418E+01  0.14058635406E+02  0.51100000000E-03 0. -1.
        -11    1    3    3    0    0 -0.46812718878E+01  0.61962167984E+01  0.48968776362E+01  0.91807853665E+01  0.51100000000E-03 0.  1.
        -12    1    3    3    0    0  0.32304021659E+02 -0.37321336007E+00  0.16025503896E+02  0.36062527347E+02  0.00000000000E+00 0.  1.
</event>
<event>
 7    1  0.5837204E-012  0.5930194E+02  0.7816164E-02  0.1266605E+00
        -11   -1    0    0    0    0  0.00000000000E+00  0.00000000000E+00  0.45593999997E+02  0.45594000000E+02  0.51100000000E-03 0. -1.
         11   -1    0    0    0    0 -0.00000000000E+00 -0.00000000000E+00 -0.45593999997E+02  0.45594000000E+02  0.51100000000E-03 0.  1.
    9900012    2    1    2    0    0 -0.20684187050E+02  0.55554982721E+01 -0.23622486534E+02  0.59301936822E+02  0.49999986858E+02 0.  0.
         12    1    1    2    0    0  0.20684187050E+02 -0.55554982721E+01  0.23622486534E+02  0.31886063178E+02  0.00000000000E+00 0. -1.
         11    1    3    3    0    0 -0.14849107383E+01  0.80073283703E+01 -0.11789284194E+02  0.14328624833E+02  0.51100000000E-03 0. -1.
        -11    1    3    3    0    0 -0.97198697426E+01 -0.24682293776E+01 -0.26034339726E+02  0.27899011977E+02  0.51100000000E-03 0.  1.
         12    1    3    3    0    0 -0.94794065693E+01  0.16399279395E-01  0.14201137386E+02  0.17074300012E+02  0.00000000000E+00 0. -1.
</event>
<event>
 7    1  0.5837204E-012  0.5930190E+02  0.7816164E-02  0.1266605E+00
        -11   -1    0    0    0    0  0.00000000000E+00  0.00000000000E+00  0.45593999997E+02  0.45594000000E+02  0.51100000000E-03 0. -1.
         11   -1    0    0    0    0 -0.00000000000E+00 -0.00000000000E+00 -0.45593999997E+02  0.45594000000E+02  0.51100000000E-03 0.  1.
    9900012    2    1    2    0    0 -0.27530348740E+02  0.99146235988E+01  0.12668998225E+02  0.59301899911E+02  0.49999919541E+02 0.  0.
         12    1    1    2    0    0  0.27530348740E+02 -0.99146235988E+01 -0.12668998225E+02  0.31886100089E+02  0.00000000000E+00 0. -1.
         11    1    3    3    0    0 -0.20396473201E+02  0.11659743557E+02  0.28982240442E+01  0.23672039239E+02  0.51100000000E-03 0. -1.
        -11    1    3    3    0    0 -0.19480540064E+01  0.15621444628E+02  0.18514786983E+01  0.15850943830E+02  0.51100000000E-03 0.  1.
        -12    1    3    3    0    0 -0.51858215332E+01 -0.17366564586E+02  0.79192954827E+01  0.19778916842E+02  0.00000000000E+00 0.  1.
</event>
<event>
 7    1  0.5837204E-012  0.5930193E+02  0.7816164E-02  0.1266605E+00
        -11   -1    0    0    0    0  0.00000000000E+00  0.00000000000E+00  0.45593999997E+02  0.45594000000E+02  0.51100000000E-03 0.  1.
         11   -1    0    0    0    0 -0.00000000000E+00 -0.00000000000E+00 -0.45593999997E+02  0.45594000000E+02  0.51100000000E-03 0. -1.
    9900012    2    1    2    0    0 -0.29746426984E+02  0.85899682725E+01  0.76212687193E+01  0.59301933919E+02  0.49999981564E+02 0.  0.
         12    1    1    2    0    0  0.29746426984E+02 -0.85899682725E+01 -0.76212687193E+01  0.31886066081E+02  0.00000000000E+00 0. -1.
         11    1    3    3    0    0 -0.16794373007E+02 -0.10819502298E+02 -0.66325775857E+01  0.21050028037E+02  0.51100000000E-03 0. -1.
        -11    1    3    3    0    0 -0.10667625059E+02  0.34052684660E+00  0.15708787238E+02  0.18991581811E+02  0.51100000000E-03 0.  1.
        -12    1    3    3    0    0 -0.22844289179E+01  0.19068943724E+02 -0.14549409331E+01  0.19260324071E+02  0.00000000000E+00 0.  1.
</event>
<event>
 7    1  0.5837204E-012  0.5930204E+02  0.7816164E-02  0.1266604E+00
        -11   -1    0    0    0    0  0.00000000000E+00  0.00000000000E+00  0.45593999997E+02  0.45594000000E+02  0.51100000000E-03 0.  1.
         11   -1    0    0    0    0 -0.00000000000E+00 -0.00000000000E+00 -0.45593999997E+02  0.45594000000E+02  0.51100000000E-03 0. -1.
    9900012    2    1    2    0    0  0.12477918596E+02  0.25644769214E+02  0.14260489378E+02  0.59302043877E+02  0.50000182101E+02 0.  0.
         12    1    1    2    0    0 -0.12477918596E+02 -0.25644769214E+02 -0.14260489378E+02  0.31885956123E+02  0.00000000000E+00 0. -1.
         11    1    3    3    0    0  0.13787266409E+01  0.27240005052E+02  0.96709105491E+01  0.28938646711E+02  0.51100000000E-03 0. -1.
        -11    1    3    3    0    0  0.14620144785E+02  0.42321773338E+01  0.12665176811E+02  0.19800673282E+02  0.51100000000E-03 0.  1.
         12    1    3    3    0    0 -0.35209528296E+01 -0.58274131712E+01 -0.80755979813E+01  0.10562723884E+02  0.00000000000E+00 0. -1.
</event>
<event>
 7    1  0.5837204E-012  0.5930192E+02  0.7816164E-02  0.1266605E+00
        -11   -1    0    0    0    0  0.00000000000E+00  0.00000000000E+00  0.45593999997E+02  0.45594000000E+02  0.51100000000E-03 0.  1.
         11   -1    0    0    0    0 -0.00000000000E+00 -0.00000000000E+00 -0.45593999997E+02  0.45594000000E+02  0.51100000000E-03 0. -1.
    9900012    2    1    2    0    0  0.18843082483E+02 -0.25419726578E+02  0.39367374590E+01  0.59301919047E+02  0.49999954440E+02 0.  0.
         12    1    1    2    0    0 -0.18843082483E+02  0.25419726578E+02 -0.39367374590E+01  0.31886080953E+02  0.00000000000E+00 0. -1.
         11    1    3    3    0    0  0.17600585550E+02 -0.19318403070E+02 -0.54215183099E+01  0.26690338512E+02  0.51100000000E-03 0.  1.
        -11    1    3    3    0    0  0.13458066147E+02  0.53339123754E+01  0.50626624290E+01  0.15336254979E+02  0.51100000000E-03 0. -1.
         12    1    3    3    0    0 -0.12215569213E+02 -0.11435235883E+02  0.42955933399E+01  0.17275325556E+02  0.00000000000E+00 0. -1.
</event>
<event>
 7    1  0.5837204E-012  0.5930193E+02  0.7816164E-02  0.1266605E+00
        -11   -1    0    0    0    0  0.00000000000E+00  0.00000000000E+00  0.45593999997E+02  0.45594000000E+02  0.51100000000E-03 0.  1.
         11   -1    0    0    0    0 -0.00000000000E+00 -0.00000000000E+00 -0.45593999997E+02  0.45594000000E+02  0.51100000000E-03 0. -1.
    9900012    2    1    2    0    0  0.28190816010E+01  0.31704238139E+02  0.19014268428E+01  0.59301931551E+02  0.49999977246E+02 0.  0.
         12    1    1    2    0    0 -0.28190816010E+01 -0.31704238139E+02 -0.19014268428E+01  0.31886068449E+02  0.00000000000E+00 0. -1.
         11    1    3    3    0    0  0.69390286008E+01  0.58193202610E+01  0.10814912641E+01  0.91205389007E+01  0.51100000000E-03 0. -1.
        -11    1    3    3    0    0  0.90666099533E+01  0.32413210170E+02 -0.56135909472E+01  0.34122309611E+02  0.51100000000E-03 0.  1.
        -12    1    3    3    0    0 -0.13186556953E+02 -0.65282922918E+01  0.64335265258E+01  0.16059083040E+02  0.00000000000E+00 0.  1.
</event>
<event>
 7    1  0.5837204E-012  0.5930197E+02  0.7816164E-02  0.1266605E+00
        -11   -1    0    0    0    0  0.00000000000E+00  0.00000000000E+00  0.45593999997E+02  0.45594000000E+02  0.51100000000E-03 0.  1.
         11   -1    0    0    0    0 -0.00000000000E+00 -0.00000000000E+00 -0.45593999997E+02  0.45594000000E+02  0.51100000000E-03 0. -1.
    9900012    2    1    2    0    0  0.37219261185E+01  0.27523244293E+02  0.15663243942E+02  0.59301969811E+02  0.50000047023E+02 0.  0.
         12    1    1    2    0    0 -0.37219261185E+01 -0.27523244293E+02 -0.15663243942E+02  0.31886030189E+02  0.00000000000E+00 0. -1.
         11    1    3    3    0    0 -0.99608972820E+01  0.23459292886E+02 -0.28521508745E+01  0.25645519341E+02  0.51100000000E-03 0. -1.
        -11    1    3    3    0    0  0.21207043648E+00  0.12190952990E+02  0.62098580649E+01  0.13683078825E+02  0.51100000000E-03 0.  1.
         12    1    3    3    0    0  0.13470752964E+02 -0.81270015835E+01  0.12305536752E+02  0.19973371646E+02  0.00000000000E+00 0. -1.
</event>
<event>
 7    1  0.5837204E-012  0.5930192E+02  0.7816164E-02  0.1266605E+00
        -11   -1    0    0    0    0  0.00000000000E+00  0.00000000000E+00  0.45593999997E+02  0.45594000000E+02  0.51100000000E-03 0.  1.
         11   -1    0    0    0    0 -0.00000000000E+00 -0.00000000000E+00 -0.45593999997E+02  0.45594000000E+02  0.51100000000E-03 0. -1.
    9900012    2    1    2    0    0  0.13819745960E+02 -0.16121903344E+01  0.28690375802E+02  0.59301918401E+02  0.49999953263E+02 0.  0.
         12    1    1    2    0    0 -0.13819745960E+02  0.16121903344E+01 -0.28690375802E+02  0.31886081599E+02  0.00000000000E+00 0. -1.
         11    1    3    3    0    0  0.12170178142E+02 -0.18269824945E+02  0.13514835029E+02  0.25778877121E+02  0.51100000000E-03 0. -1.
        -11    1    3    3    0    0  0.56384875627E+01 -0.23614338651E+01  0.12489690988E+02  0.13905441134E+02  0.51100000000E-03 0.  1.
         12    1    3    3    0    0 -0.39889197443E+01  0.19019068476E+02  0.26858497858E+01  0.19617600146E+02  0.00000000000E+00 0. -1.
</event>
<event>
 7    1  0.5837204E-012  0.5930194E+02  0.7816164E-02  0.1266605E+00
        -11   -1    0    0    0    0  0.00000000000E+00  0.00000000000E+00  0.45593999997E+02  0.45594000000E+02  0.51100000000E-03 0.  1.
         11   -1    0    0    0    0 -0.00000000000E+00 -0.00000000000E+00 -0.45593999997E+02  0.45594000000E+02  0.51100000000E-03 0. -1.
    9900012    2    1    2    0    0  0.14926201972E+02 -0.20976593514E+01 -0.28098555596E+02  0.59301944950E+02  0.50000001682E+02 0.  0.
         12    1    1    2    0    0 -0.14926201972E+02  0.20976593514E+01  0.28098555596E+02  0.31886055050E+02  0.00000000000E+00 0. -1.
         11    1    3    3    0    0 -0.24810235378E+00  0.53293264747E+01 -0.18820479001E+01  0.56573297598E+01  0.51100000000E-03 0. -1.
        -11    1    3    3    0    0  0.28196776961E+02 -0.11544833922E+02 -0.92051733497E+01  0.31828864855E+02  0.51100000000E-03 0.  1.
         12    1    3    3    0    0 -0.13022472635E+02  0.41178480958E+01 -0.17011334346E+02  0.21815750336E+02  0.00000000000E+00 0. -1.
</event>
<event>
 7    1  0.5837204E-012  0.5930194E+02  0.7816164E-02  0.1266605E+00
        -11   -1    0    0    0    0  0.00000000000E+00  0.00000000000E+00  0.45593999997E+02  0.45594000000E+02  0.51100000000E-03 0.  1.
         11   -1    0    0    0    0 -0.00000000000E+00 -0.00000000000E+00 -0.45593999997E+02  0.45594000000E+02  0.51100000000E-03 0. -1.
    9900012    2    1    2    0    0 -0.69773072226E+01 -0.30284045429E+02  0.71354602913E+01  0.59301936944E+02  0.49999987081E+02 0.  0.
         12    1    1    2    0    0  0.69773072226E+01  0.30284045429E+02 -0.71354602913E+01  0.31886063056E+02  0.00000000000E+00 0. -1.
         11    1    3    3    0    0  0.81783555205E+00  0.91565208248E+00 -0.13889523722E+02  0.13943677535E+02  0.51100000000E-03 0. -1.
        -11    1    3    3    0    0 -0.60580679450E+01 -0.76598307927E+00  0.12168233329E+02  0.13614434249E+02  0.51100000000E-03 0.  1.
        -12    1    3    3    0    0 -0.17370748296E+01 -0.30433714432E+02  0.88567506843E+01  0.31743825160E+02  0.00000000000E+00 0.  1.
</event>
<event>
 7    1  0.5837204E-012  0.5930169E+02  0.7816164E-02  0.1266606E+00
        -11   -1    0    0    0    0  0.00000000000E+00  0.00000000000E+00  0.45593999997E+02  0.45594000000E+02  0.51100000000E-03 0.  1.
         11   -1    0    0    0    0 -0.00000000000E+00 -0.00000000000E+00 -0.45593999997E+02  0.45594000000E+02  0.51100000000E-03 0. -1.
    9900012    2    1    2    0    0 -0.98486682565E+01  0.91577962900E+01  0.28911508686E+02  0.59301688928E+02  0.49999534757E+02 0.  0.
         12    1    1    2    0    0  0.98486682565E+01 -0.91577962900E+01 -0.28911508686E+02  0.31886311072E+02  0.00000000000E+00 0. -1.
         11    1    3    3    0    0 -0.41605191185E+01 -0.12306833785E+02  0.41891419890E+01  0.13649798094E+02  0.51100000000E-03 0.  1.
        -11    1    3    3    0    0  0.61210925472E+01 -0.59447507027E+01  0.55923156448E+01  0.10202050256E+02  0.51100000000E-03 0. -1.
        -12    1    3    3    0    0 -0.11809241685E+02  0.27409380777E+02  0.19130051052E+02  0.35449840578E+02  0.00000000000E+00 0.  1.
</event>
<event>
 7    1  0.5837204E-012  0.5930184E+02  0.7816164E-02  0.1266605E+00
        -11   -1    0    0    0    0  0.00000000000E+00  0.00000000000E+00  0.45593999997E+02  0.45594000000E+02  0.51100000000E-03 0.  1.
         11   -1    0    0    0    0 -0.00000000000E+00 -0.00000000000E+00 -0.45593999997E+02  0.45594000000E+02  0.51100000000E-03 0. -1.
    9900012    2    1    2    0    0  0.13860893280E+02  0.26992663160E+02 -0.97978931830E+01  0.59301844104E+02  0.49999817763E+02 0.  0.
         12    1    1    2    0    0 -0.13860893280E+02 -0.26992663160E+02  0.97978931830E+01  0.31886155896E+02  0.00000000000E+00 0. -1.
         11    1    3    3    0    0  0.14250917428E+02 -0.17324728716E+00  0.49231491732E+01  0.15078330816E+02  0.51100000000E-03 0. -1.
        -11    1    3    3    0    0  0.33244902603E+01  0.29062000569E+02 -0.34373434597E+00  0.29253551342E+02  0.51100000000E-03 0.  1.
         12    1    3    3    0    0 -0.37145144078E+01 -0.18960901221E+01 -0.14377308010E+02  0.14969961946E+02  0.00000000000E+00 0. -1.
</event>
<event>
 7    1  0.5837204E-012  0.5930208E+02  0.7816164E-02  0.1266604E+00
        -11   -1    0    0    0    0  0.00000000000E+00  0.00000000000E+00  0.45593999997E+02  0.45594000000E+02  0.51100000000E-03 0. -1.
         11   -1    0    0    0    0 -0.00000000000E+00 -0.00000000000E+00 -0.45593999997E+02  0.45594000000E+02  0.51100000000E-03 0.  1.
    9900012    2    1    2    0    0 -0.68520048439E+00 -0.31715075369E+02  0.32243688535E+01  0.59302077402E+02  0.50000243243E+02 0.  0.
         12    1    1    2    0    0  0.68520048439E+00  0.31715075369E+02 -0.32243688535E+01  0.31885922598E+02  0.00000000000E+00 0. -1.
         11    1    3    3    0    0  0.11812155217E+02 -0.24751720123E+02  0.14365425564E+02  0.30960298961E+02  0.51100000000E-03 0. -1.
        -11    1    3    3    0    0  0.40609268615E+01 -0.79080357435E+01 -0.68155820092E+01  0.11201799618E+02  0.51100000000E-03 0.  1.
        -12    1    3    3    0    0 -0.16558282563E+02  0.94468049660E+00 -0.43254747011E+01  0.17139978823E+02  0.00000000000E+00 0.  1.
</event>
<event>
 7    1  0.5837204E-012  0.5930195E+02  0.7816164E-02  0.1266605E+00
        -11   -1    0    0    0    0  0.00000000000E+00  0.00000000000E+00  0.45593999997E+02  0.45594000000E+02  0.51100000000E-03 0.  1.
         11   -1    0    0    0    0 -0.00000000000E+00 -0.00000000000E+00 -0.45593999997E+02  0.45594000000E+02  0.51100000000E-03 0. -1.
    9900012    2    1    2    0    0  0.18144096676E+02  0.83436092548E+01  0.24857520905E+02  0.59301946542E+02  0.50000004586E+02 0.  0.
         12    1    1    2    0    0 -0.18144096676E+02 -0.83436092548E+01 -0.24857520905E+02  0.31886053458E+02  0.00000000000E+00 0. -1.
         11    1    3    3    0    0  0.92066753339E+01 -0.72339505726E+00  0.96647979020E+00  0.92854862317E+01  0.51100000000E-03 0. -1.
        -11    1    3    3    0    0  0.13162745150E+02 -0.14656388825E+02  0.87312916873E+01  0.21547692407E+02  0.51100000000E-03 0.  1.
        -12    1    3    3    0    0 -0.42253238076E+01  0.23723393138E+02  0.15159749427E+02  0.28468767903E+02  0.00000000000E+00 0.  1.
</event>
<event>
 7    1  0.5837204E-012  0.5930193E+02  0.7816164E-02  0.1266605E+00
        -11   -1    0    0    0    0  0.00000000000E+00  0.00000000000E+00  0.45593999997E+02  0.45594000000E+02  0.51100000000E-03 0.  1.
         11   -1    0    0    0    0 -0.00000000000E+00 -0.00000000000E+00 -0.45593999997E+02  0.45594000000E+02  0.51100000000E-03 0. -1.
    9900012    2    1    2    0    0 -0.25397406154E+02  0.14351273644E+02 -0.12873788282E+02  0.59301925935E+02  0.49999967003E+02 0.  0.
         12    1    1    2    0    0  0.25397406154E+02 -0.14351273644E+02  0.12873788282E+02  0.31886074065E+02  0.00000000000E+00 0. -1.
         11    1    3    3    0    0 -0.13517385734E+02  0.22735305572E+02 -0.39635547682E+01  0.26745534267E+02  0.51100000000E-03 0. -1.
        -11    1    3    3    0    0  0.90640707631E+01 -0.39432209408E+01 -0.22893010505E+01  0.10146293399E+02  0.51100000000E-03 0.  1.
        -12    1    3    3    0    0 -0.20944091183E+02 -0.44408109877E+01 -0.66209324636E+01  0.22410098269E+02  0.00000000000E+00 0.  1.
</event>
<event>
 7    1  0.5837204E-012  0.5930195E+02  0.7816164E-02  0.1266605E+00
        -11   -1    0    0    0    0  0.00000000000E+00  0.00000000000E+00  0.45593999997E+02  0.45594000000E+02  0.51100000000E-03 0.  1.
         11   -1    0    0    0    0 -0.00000000000E+00 -0.00000000000E+00 -0.45593999997E+02  0.45594000000E+02  0.51100000000E-03 0. -1.
    9900012    2    1    2    0    0  0.76687371040E+01 -0.21668103174E+02  0.22099865649E+02  0.59301948415E+02  0.50000008002E+02 0.  0.
         12    1    1    2    0    0 -0.76687371040E+01  0.21668103174E+02 -0.22099865649E+02  0.31886051585E+02  0.00000000000E+00 0. -1.
         11    1    3    3    0    0 -0.86981064466E+01 -0.22305279281E+02  0.13038602314E+02  0.27261468965E+02  0.51100000000E-03 0. -1.
        -11    1    3    3    0    0  0.11221515660E+02 -0.11646263272E+02  0.44540792217E+00  0.16178882854E+02  0.51100000000E-03 0.  1.
        -12    1    3    3    0    0  0.51453278903E+01  0.12283439379E+02  0.86158554132E+01  0.15861596596E+02  0.00000000000E+00 0.  1.
</event>
<event>
 7    1  0.5837204E-012  0.5930195E+02  0.7816164E-02  0.1266605E+00
        -11   -1    0    0    0    0  0.00000000000E+00  0.00000000000E+00  0.45593999997E+02  0.45594000000E+02  0.51100000000E-03 0.  1.
         11   -1    0    0    0    0 -0.00000000000E+00 -0.00000000000E+00 -0.45593999997E+02  0.45594000000E+02  0.51100000000E-03 0. -1.
    9900012    2    1    2    0    0  0.90334042011E+01 -0.25173659465E+02  0.17361011023E+02  0.59301949350E+02  0.50000009706E+02 0.  0.
         12    1    1    2    0    0 -0.90334042011E+01  0.25173659465E+02 -0.17361011023E+02  0.31886050650E+02  0.00000000000E+00 0. -1.
         11    1    3    3    0    0  0.78990011839E+01  0.10132923527E+02 -0.12664493740E+01  0.12910238309E+02  0.51100000000E-03 0. -1.
        -11    1    3    3    0    0  0.11443833242E+02 -0.15553102462E+02  0.39483749646E+01  0.19709134446E+02  0.51100000000E-03 0.  1.
        -12    1    3    3    0    0 -0.10309430225E+02 -0.19753480530E+02  0.14679085432E+02  0.26682576595E+02  0.00000000000E+00 0.  1.
</event>
<event>
 7    1  0.5837204E-012  0.5930198E+02  0.7816164E-02  0.1266605E+00
        -11   -1    0    0    0    0  0.00000000000E+00  0.00000000000E+00  0.45593999997E+02  0.45594000000E+02  0.51100000000E-03 0. -1.
         11   -1    0    0    0    0 -0.00000000000E+00 -0.00000000000E+00 -0.45593999997E+02  0.45594000000E+02  0.51100000000E-03 0.  1.
    9900012    2    1    2    0    0  0.22174856131E+02  0.22641067428E+02 -0.35179252542E+01  0.59301984620E+02  0.50000074031E+02 0.  0.
         12    1    1    2    0    0 -0.22174856131E+02 -0.22641067428E+02  0.35179252542E+01  0.31886015380E+02  0.00000000000E+00 0. -1.
         11    1    3    3    0    0  0.17534379605E+02  0.12124716903E+01  0.12726675007E+02  0.21700064809E+02  0.51100000000E-03 0. -1.
        -11    1    3    3    0    0  0.34442300661E+01 -0.10599879737E+01 -0.14581517758E+02  0.15020218229E+02  0.51100000000E-03 0.  1.
        -12    1    3    3    0    0  0.11962464598E+01  0.22488583712E+02 -0.16630825034E+01  0.22581701582E+02  0.00000000000E+00 0.  1.
</event>
<event>
 7    1  0.5837204E-012  0.5930194E+02  0.7816164E-02  0.1266605E+00
        -11   -1    0    0    0    0  0.00000000000E+00  0.00000000000E+00  0.45593999997E+02  0.45594000000E+02  0.51100000000E-03 0.  1.
         11   -1    0    0    0    0 -0.00000000000E+00 -0.00000000000E+00 -0.45593999997E+02  0.45594000000E+02  0.51100000000E-03 0. -1.
    9900012    2    1    2    0    0 -0.85240233440E+01 -0.24458957536E+02  0.18596263768E+02  0.59301943426E+02  0.49999998903E+02 0.  0.
         12    1    1    2    0    0  0.85240233440E+01  0.24458957536E+02 -0.18596263768E+02  0.31886056574E+02  0.00000000000E+00 0. -1.
         11    1    3    3    0    0  0.10441313307E+02 -0.16973271307E+02  0.13277172926E+02  0.23945694469E+02  0.51100000000E-03 0. -1.
        -11    1    3    3    0    0 -0.56646779491E-01 -0.36554726599E+01  0.13804153932E+02  0.14280068461E+02  0.51100000000E-03 0.  1.
         12    1    3    3    0    0 -0.18908689872E+02 -0.38302135694E+01 -0.84850630902E+01  0.21076180496E+02  0.00000000000E+00 0. -1.
</event>
<event>
 7    1  0.5837204E-012  0.5930194E+02  0.7816164E-02  0.1266605E+00
        -11   -1    0    0    0    0  0.00000000000E+00  0.00000000000E+00  0.45593999997E+02  0.45594000000E+02  0.51100000000E-03 0. -1.
         11   -1    0    0    0    0 -0.00000000000E+00 -0.00000000000E+00 -0.45593999997E+02  0.45594000000E+02  0.51100000000E-03 0.  1.
    9900012    2    1    2    0    0 -0.39950708828E+00 -0.30632089833E+02 -0.88451253981E+01  0.59301940715E+02  0.49999993958E+02 0.  0.
         12    1    1    2    0    0  0.39950708828E+00  0.30632089833E+02  0.88451253981E+01  0.31886059285E+02  0.00000000000E+00 0. -1.
         11    1    3    3    0    0 -0.85370300195E+00  0.50166440352E+01 -0.26195557320E+01  0.57234254329E+01  0.51100000000E-03 0. -1.
        -11    1    3    3    0    0 -0.16590859009E+02 -0.10816474736E+02 -0.11645456353E+02  0.22975408208E+02  0.51100000000E-03 0.  1.
         12    1    3    3    0    0  0.17045054922E+02 -0.24832259132E+02  0.54198866870E+01  0.30603107074E+02  0.00000000000E+00 0. -1.
</event>
<event>
 7    1  0.5837204E-012  0.5930192E+02  0.7816164E-02  0.1266605E+00
        -11   -1    0    0    0    0  0.00000000000E+00  0.00000000000E+00  0.45593999997E+02  0.45594000000E+02  0.51100000000E-03 0. -1.
         11   -1    0    0    0    0 -0.00000000000E+00 -0.00000000000E+00 -0.45593999997E+02  0.45594000000E+02  0.51100000000E-03 0.  1.
    9900012    2    1    2    0    0 -0.72583668664E+01  0.11992981501E+00 -0.31048735040E+02  0.59301918079E+02  0.49999952675E+02 0.  0.
         12    1    1    2    0    0  0.72583668664E+01 -0.11992981501E+00  0.31048735040E+02  0.31886081921E+02  0.00000000000E+00 0. -1.
         11    1    3    3    0    0  0.75122064072E+01 -0.13291089485E+00 -0.15688290983E+02  0.17394636663E+02  0.51100000000E-03 0. -1.
        -11    1    3    3    0    0 -0.10726616110E+02  0.74068716730E+01 -0.25629981730E+02  0.28754443220E+02  0.51100000000E-03 0.  1.
         12    1    3    3    0    0 -0.40439571633E+01 -0.71540309631E+01  0.10269537674E+02  0.13152838195E+02  0.00000000000E+00 0. -1.
</event>
<event>
 7    1  0.5837204E-012  0.5930193E+02  0.7816164E-02  0.1266605E+00
        -11   -1    0    0    0    0  0.00000000000E+00  0.00000000000E+00  0.45593999997E+02  0.45594000000E+02  0.51100000000E-03 0.  1.
         11   -1    0    0    0    0 -0.00000000000E+00 -0.00000000000E+00 -0.45593999997E+02  0.45594000000E+02  0.51100000000E-03 0. -1.
    9900012    2    1    2    0    0 -0.25251256774E+01 -0.98388128555E+00  0.31770692516E+02  0.59301934312E+02  0.49999982282E+02 0.  0.
         12    1    1    2    0    0  0.25251256774E+01  0.98388128555E+00 -0.31770692516E+02  0.31886065688E+02  0.00000000000E+00 0. -1.
         11    1    3    3    0    0  0.90390050359E+01 -0.54922105557E+00 -0.26401827664E+01  0.94326995663E+01  0.51100000000E-03 0. -1.
        -11    1    3    3    0    0 -0.29901847378E+01 -0.13780918792E+02  0.30393349349E+02  0.33505381843E+02  0.51100000000E-03 0.  1.
         12    1    3    3    0    0 -0.85739459756E+01  0.13346258562E+02  0.40175259334E+01  0.16363852903E+02  0.00000000000E+00 0. -1.
</event>
<event>
 7    1  0.5837204E-012  0.5930195E+02  0.7816164E-02  0.1266605E+00
        -11   -1    0    0    0    0  0.00000000000E+00  0.00000000000E+00  0.45593999997E+02  0.45594000000E+02  0.51100000000E-03 0.  1.
         11   -1    0    0    0    0 -0.00000000000E+00 -0.00000000000E+00 -0.45593999997E+02  0.45594000000E+02  0.51100000000E-03 0. -1.
    9900012    2    1    2    0    0 -0.25529808082E+02  0.48889367300E+01  0.18467469497E+02  0.59301949246E+02  0.50000009518E+02 0.  0.
         12    1    1    2    0    0  0.25529808082E+02 -0.48889367300E+01 -0.18467469497E+02  0.31886050754E+02  0.00000000000E+00 0. -1.
         11    1    3    3    0    0 -0.71017982310E+01 -0.69104254641E+01  0.22470689030E+02  0.24558529759E+02  0.51100000000E-03 0. -1.
        -11    1    3    3    0    0 -0.11902903708E+02 -0.47368199696E+01  0.62151557808E+01  0.14238846222E+02  0.51100000000E-03 0.  1.
         12    1    3    3    0    0 -0.65251061427E+01  0.16536182164E+02 -0.10218375313E+02  0.20504573265E+02  0.00000000000E+00 0. -1.
</event>
<event>
 7    1  0.5837204E-012  0.5930170E+02  0.7816164E-02  0.1266606E+00
        -11   -1    0    0    0    0  0.00000000000E+00  0.00000000000E+00  0.45593999997E+02  0.45594000000E+02  0.51100000000E-03 0. -1.
         11   -1    0    0    0    0 -0.00000000000E+00 -0.00000000000E+00 -0.45593999997E+02  0.45594000000E+02  0.51100000000E-03 0.  1.
    9900012    2    1    2    0    0  0.62881283134E+01  0.18421528083E+02 -0.25255555712E+02  0.59301696531E+02  0.49999548623E+02 0.  0.
         12    1    1    2    0    0 -0.62881283134E+01 -0.18421528083E+02  0.25255555712E+02  0.31886303469E+02  0.00000000000E+00 0. -1.
         11    1    3    3    0    0 -0.44549791450E+01 -0.78034888948E+00  0.11290099437E+02  0.12162324166E+02  0.51100000000E-03 0. -1.
        -11    1    3    3    0    0 -0.25387718583E+00  0.37068208391E+01  0.19600561575E+01  0.42008088222E+01  0.51100000000E-03 0.  1.
        -12    1    3    3    0    0  0.10996984644E+02  0.15495056134E+02 -0.38505711307E+02  0.42938563542E+02  0.00000000000E+00 0.  1.
</event>
<event>
 7    1  0.5837204E-012  0.5930196E+02  0.7816164E-02  0.1266605E+00
        -11   -1    0    0    0    0  0.00000000000E+00  0.00000000000E+00  0.45593999997E+02  0.45594000000E+02  0.51100000000E-03 0. -1.
         11   -1    0    0    0    0 -0.00000000000E+00 -0.00000000000E+00 -0.45593999997E+02  0.45594000000E+02  0.51100000000E-03 0.  1.
    9900012    2    1    2    0    0 -0.27278458443E+02  0.13830561516E+02 -0.90178039476E+01  0.59301960501E+02  0.50000030043E+02 0.  0.
         12    1    1    2    0    0  0.27278458443E+02 -0.13830561516E+02  0.90178039476E+01  0.31886039499E+02  0.00000000000E+00 0. -1.
         11    1    3    3    0    0  0.47189422201E+01 -0.63243613785E+01 -0.57246613078E+01  0.97487286285E+01  0.51100000000E-03 0. -1.
        -11    1    3    3    0    0 -0.14465903325E+02  0.26145300833E+02  0.28951961846E+01  0.30020347697E+02  0.51100000000E-03 0.  1.
         12    1    3    3    0    0 -0.17531497339E+02 -0.59903779386E+01 -0.61883388245E+01  0.19532884175E+02  0.00000000000E+00 0. -1.
</event>
<event>
 7    1  0.5837204E-012  0.5930203E+02  0.7816164E-02  0.1266604E+00
        -11   -1    0    0    0    0  0.00000000000E+00  0.00000000000E+00  0.45593999997E+02  0.45594000000E+02  0.51100000000E-03 0.  1.
         11   -1    0    0    0    0 -0.00000000000E+00 -0.00000000000E+00 -0.45593999997E+02  0.45594000000E+02  0.51100000000E-03 0. -1.
    9900012    2    1    2    0    0  0.15440130501E+01 -0.23070173949E+02 -0.21956729654E+02  0.59302033190E+02  0.50000162610E+02 0.  0.
         12    1    1    2    0    0 -0.15440130501E+01  0.23070173949E+02  0.21956729654E+02  0.31885966810E+02  0.00000000000E+00 0. -1.
         11    1    3    3    0    0  0.75694509829E+01 -0.81230990806E+01 -0.29373126013E+02  0.31401621915E+02  0.51100000000E-03 0. -1.
        -11    1    3    3    0    0  0.69979159698E+01  0.74156852810E-01  0.23758628215E+01  0.73906056292E+01  0.51100000000E-03 0.  1.
         12    1    3    3    0    0 -0.13023353903E+02 -0.15021231721E+02  0.50405335369E+01  0.20509805646E+02  0.00000000000E+00 0. -1.
</event>
<event>
 7    1  0.5837204E-012  0.5930190E+02  0.7816164E-02  0.1266605E+00
        -11   -1    0    0    0    0  0.00000000000E+00  0.00000000000E+00  0.45593999997E+02  0.45594000000E+02  0.51100000000E-03 0. -1.
         11   -1    0    0    0    0 -0.00000000000E+00 -0.00000000000E+00 -0.45593999997E+02  0.45594000000E+02  0.51100000000E-03 0.  1.
    9900012    2    1    2    0    0 -0.14131964075E+02 -0.20690759742E+02 -0.19720638107E+02  0.59301897782E+02  0.49999915659E+02 0.  0.
         12    1    1    2    0    0  0.14131964075E+02  0.20690759742E+02  0.19720638107E+02  0.31886102218E+02  0.00000000000E+00 0. -1.
         11    1    3    3    0    0  0.34465899131E+01 -0.80344461802E+01  0.20782224599E+01  0.89861179776E+01  0.51100000000E-03 0. -1.
        -11    1    3    3    0    0 -0.36120266513E+01 -0.20647650450E+02 -0.26276835918E+02  0.33613156825E+02  0.51100000000E-03 0.  1.
         12    1    3    3    0    0 -0.13966527337E+02  0.79913368890E+01  0.44779753511E+01  0.16702622979E+02  0.00000000000E+00 0. -1.
</event>
<event>
 7    1  0.5837204E-012  0.5930196E+02  0.7816164E-02  0.1266605E+00
        -11   -1    0    0    0    0  0.00000000000E+00  0.00000000000E+00  0.45593999997E+02  0.45594000000E+02  0.51100000000E-03 0.  1.
         11   -1    0    0    0    0 -0.00000000000E+00 -0.00000000000E+00 -0.45593999997E+02  0.45594000000E+02  0.51100000000E-03 0. -1.
    9900012    2    1    2    0    0 -0.24057840241E+02  0.20917195949E+02 -0.64074248297E+00  0.59301963646E+02  0.50000035779E+02 0.  0.
         12    1    1    2    0    0  0.24057840241E+02 -0.20917195949E+02  0.64074248297E+00  0.31886036354E+02  0.00000000000E+00 0. -1.
         11    1    3    3    0    0 -0.74234142066E+01  0.13873633728E+02  0.11298910480E+02  0.19371375005E+02  0.51100000000E-03 0. -1.
        -11    1    3    3    0    0  0.92320539164E+01 -0.29943354672E+01  0.48428038070E-01  0.97056277459E+01  0.51100000000E-03 0.  1.
         12    1    3    3    0    0 -0.25866479951E+02  0.10037897688E+02 -0.11988081001E+02  0.30224960895E+02  0.00000000000E+00 0. -1.
</event>
<event>
 7    1  0.5837204E-012  0.5930195E+02  0.7816164E-02  0.1266605E+00
        -11   -1    0    0    0    0  0.00000000000E+00  0.00000000000E+00  0.45593999997E+02  0.45594000000E+02  0.51100000000E-03 0. -1.
         11   -1    0    0    0    0 -0.00000000000E+00 -0.00000000000E+00 -0.45593999997E+02  0.45594000000E+02  0.51100000000E-03 0.  1.
    9900012    2    1    2    0    0 -0.25207518375E+02  0.15969250534E+02 -0.11237616368E+02  0.59301953414E+02  0.50000017118E+02 0.  0.
         12    1    1    2    0    0  0.25207518375E+02 -0.15969250534E+02  0.11237616368E+02  0.31886046586E+02  0.00000000000E+00 0. -1.
         11    1    3    3    0    0 -0.18384220500E+02  0.76989665947E+01  0.62645044955E+01  0.20892526579E+02  0.51100000000E-03 0. -1.
        -11    1    3    3    0    0  0.49905790060E+01 -0.56804987424E+01  0.52631066091E+01  0.92127214338E+01  0.51100000000E-03 0.  1.
         12    1    3    3    0    0 -0.11813876881E+02  0.13950782682E+02 -0.22765227473E+02  0.29196705401E+02  0.00000000000E+00 0. -1.
</event>
<event>
 7    1  0.5837204E-012  0.5930188E+02  0.7816164E-02  0.1266605E+00
        -11   -1    0    0    0    0  0.00000000000E+00  0.00000000000E+00  0.45593999997E+02  0.45594000000E+02  0.51100000000E-03 0. -1.
         11   -1    0    0    0    0 -0.00000000000E+00 -0.00000000000E+00 -0.45593999997E+02  0.45594000000E+02  0.51100000000E-03 0.  1.
    9900012    2    1    2    0    0 -0.23864725321E+01 -0.84335822074E-01 -0.31796580176E+02  0.59301876457E+02  0.49999876768E+02 0.  0.
         12    1    1    2    0    0  0.23864725321E+01  0.84335822074E-01  0.31796580176E+02  0.31886123543E+02  0.00000000000E+00 0. -1.
         11    1    3    3    0    0  0.52261617898E+01  0.51205269611E+01 -0.17527060928E+02  0.18992904687E+02  0.51100000000E-03 0. -1.
        -11    1    3    3    0    0 -0.19662573605E+02  0.10165717472E+01 -0.17529285136E+02  0.26361450198E+02  0.51100000000E-03 0.  1.
         12    1    3    3    0    0  0.12049939284E+02 -0.62214345304E+01  0.32597658880E+01  0.13947521572E+02  0.00000000000E+00 0. -1.
</event>
<event>
 7    1  0.5837204E-012  0.5930194E+02  0.7816164E-02  0.1266605E+00
        -11   -1    0    0    0    0  0.00000000000E+00  0.00000000000E+00  0.45593999997E+02  0.45594000000E+02  0.51100000000E-03 0. -1.
         11   -1    0    0    0    0 -0.00000000000E+00 -0.00000000000E+00 -0.45593999997E+02  0.45594000000E+02  0.51100000000E-03 0.  1.
    9900012    2    1    2    0    0  0.22530777645E+02  0.17614075478E+01  0.22494049364E+02  0.59301941062E+02  0.49999994592E+02 0.  0.
         12    1    1    2    0    0 -0.22530777645E+02 -0.17614075478E+01 -0.22494049364E+02  0.31886058938E+02  0.00000000000E+00 0. -1.
         11    1    3    3    0    0 -0.62775182985E+01 -0.52817067746E+01  0.23737444298E+02  0.25115133376E+02  0.51100000000E-03 0. -1.
        -11    1    3    3    0    0  0.14980244316E+02 -0.30630433567E+01  0.47976465684E+01  0.16025210365E+02  0.51100000000E-03 0.  1.
        -12    1    3    3    0    0  0.13828051627E+02  0.10106157679E+02 -0.60410415027E+01  0.18161597321E+02  0.00000000000E+00 0.  1.
</event>
<event>
 7    1  0.5837204E-012  0.5930194E+02  0.7816164E-02  0.1266605E+00
        -11   -1    0    0    0    0  0.00000000000E+00  0.00000000000E+00  0.45593999997E+02  0.45594000000E+02  0.51100000000E-03 0.  1.
         11   -1    0    0    0    0 -0.00000000000E+00 -0.00000000000E+00 -0.45593999997E+02  0.45594000000E+02  0.51100000000E-03 0. -1.
    9900012    2    1    2    0    0  0.73099867293E+01  0.20519173910E+02  0.23286222683E+02  0.59301943944E+02  0.49999999848E+02 0.  0.
         12    1    1    2    0    0 -0.73099867293E+01 -0.20519173910E+02 -0.23286222683E+02  0.31886056056E+02  0.00000000000E+00 0. -1.
         11    1    3    3    0    0  0.15459025773E+02  0.87680185648E+01 -0.89665424770E+01  0.19906243032E+02  0.51100000000E-03 0. -1.
        -11    1    3    3    0    0  0.20910104069E+01  0.88379472874E+01  0.55369592416E+01  0.10636707887E+02  0.51100000000E-03 0.  1.
        -12    1    3    3    0    0 -0.10240049450E+02  0.29132080576E+01  0.26715805919E+02  0.28758993025E+02  0.00000000000E+00 0.  1.
</event>
<event>
 7    1  0.5837204E-012  0.5930194E+02  0.7816164E-02  0.1266605E+00
        -11   -1    0    0    0    0  0.00000000000E+00  0.00000000000E+00  0.45593999997E+02  0.45594000000E+02  0.51100000000E-03 0.  1.
         11   -1    0    0    0    0 -0.00000000000E+00 -0.00000000000E+00 -0.45593999997E+02  0.45594000000E+02  0.51100000000E-03 0. -1.
    9900012    2    1    2    0    0 -0.21979522432E+02 -0.21981139379E+02 -0.71028768956E+01  0.59301941057E+02  0.49999994582E+02 0.  0.
         12    1    1    2    0    0  0.21979522432E+02  0.21981139379E+02  0.71028768956E+01  0.31886058943E+02  0.00000000000E+00 0. -1.
         11    1    3    3    0    0 -0.16723873813E+02  0.64701692513E+01  0.13544799804E+01  0.17982926951E+02  0.51100000000E-03 0. -1.
        -11    1    3    3    0    0 -0.13452443697E+02 -0.28021662412E+02 -0.25136656757E+01  0.31184937408E+02  0.51100000000E-03 0.  1.
         12    1    3    3    0    0  0.81967950782E+01 -0.42964621827E+00 -0.59436912003E+01  0.10134076698E+02  0.00000000000E+00 0. -1.
</event>
<event>
 7    1  0.5837204E-012  0.5930196E+02  0.7816164E-02  0.1266605E+00
        -11   -1    0    0    0    0  0.00000000000E+00  0.00000000000E+00  0.45593999997E+02  0.45594000000E+02  0.51100000000E-03 0.  1.
         11   -1    0    0    0    0 -0.00000000000E+00 -0.00000000000E+00 -0.45593999997E+02  0.45594000000E+02  0.51100000000E-03 0. -1.
    9900012    2    1    2    0    0  0.25232011616E+02  0.10886393977E+02 -0.16172551798E+02  0.59301962057E+02  0.50000032882E+02 0.  0.
         12    1    1    2    0    0 -0.25232011616E+02 -0.10886393977E+02  0.16172551798E+02  0.31886037943E+02  0.00000000000E+00 0. -1.
         11    1    3    3    0    0 -0.29931304573E+01  0.55219778991E+01 -0.22832629913E+00  0.62851573578E+01  0.51100000000E-03 0. -1.
        -11    1    3    3    0    0 -0.69142530163E+01  0.11792993846E+02 -0.96762679414E+01  0.16748485310E+02  0.51100000000E-03 0.  1.
        -12    1    3    3    0    0  0.35139395090E+02 -0.64285777690E+01 -0.62679575580E+01  0.36268319390E+02  0.00000000000E+00 0.  1.
</event>
<event>
 7    1  0.5837204E-012  0.5930194E+02  0.7816164E-02  0.1266605E+00
        -11   -1    0    0    0    0  0.00000000000E+00  0.00000000000E+00  0.45593999997E+02  0.45594000000E+02  0.51100000000E-03 0.  1.
         11   -1    0    0    0    0 -0.00000000000E+00 -0.00000000000E+00 -0.45593999997E+02  0.45594000000E+02  0.51100000000E-03 0. -1.
    9900012    2    1    2    0    0  0.13996526689E+02 -0.56888590229E+01  0.28079442574E+02  0.59301937659E+02  0.49999988385E+02 0.  0.
         12    1    1    2    0    0 -0.13996526689E+02  0.56888590229E+01 -0.28079442574E+02  0.31886062341E+02  0.00000000000E+00 0. -1.
         11    1    3    3    0    0  0.23875151529E+02  0.50390346049E+01  0.10591186434E+02  0.26600525570E+02  0.51100000000E-03 0. -1.
        -11    1    3    3    0    0 -0.25846047488E+01  0.47705511633E+01 -0.28356173896E+01  0.61220148931E+01  0.51100000000E-03 0.  1.
        -12    1    3    3    0    0 -0.72940200915E+01 -0.15498444791E+02  0.20323873530E+02  0.26579397196E+02  0.00000000000E+00 0.  1.
</event>
<event>
 7    1  0.5837204E-012  0.5930211E+02  0.7816164E-02  0.1266604E+00
        -11   -1    0    0    0    0  0.00000000000E+00  0.00000000000E+00  0.45593999997E+02  0.45594000000E+02  0.51100000000E-03 0.  1.
         11   -1    0    0    0    0 -0.00000000000E+00 -0.00000000000E+00 -0.45593999997E+02  0.45594000000E+02  0.51100000000E-03 0. -1.
    9900012    2    1    2    0    0  0.15404850448E+02  0.23033060337E+02  0.15775898602E+02  0.59302105587E+02  0.50000294644E+02 0.  0.
         12    1    1    2    0    0 -0.15404850448E+02 -0.23033060337E+02 -0.15775898602E+02  0.31885894413E+02  0.00000000000E+00 0. -1.
         11    1    3    3    0    0 -0.10762987985E+02 -0.13754182728E+01  0.41419261602E+01  0.11614182639E+02  0.51100000000E-03 0. -1.
        -11    1    3    3    0    0  0.21262501200E+02  0.29710288685E+01  0.13906172115E+02  0.25579339182E+02  0.51100000000E-03 0.  1.
        -12    1    3    3    0    0  0.49053372325E+01  0.21437449742E+02 -0.22721996739E+01  0.22108583766E+02  0.00000000000E+00 0.  1.
</event>
<event>
 7    1  0.5837204E-012  0.5930192E+02  0.7816164E-02  0.1266605E+00
        -11   -1    0    0    0    0  0.00000000000E+00  0.00000000000E+00  0.45593999997E+02  0.45594000000E+02  0.51100000000E-03 0.  1.
         11   -1    0    0    0    0 -0.00000000000E+00 -0.00000000000E+00 -0.45593999997E+02  0.45594000000E+02  0.51100000000E-03 0. -1.
    9900012    2    1    2    0    0 -0.94439121119E+01 -0.22744766711E+02 -0.20253644255E+02  0.59301921622E+02  0.49999959138E+02 0.  0.
         12    1    1    2    0    0  0.94439121119E+01  0.22744766711E+02  0.20253644255E+02  0.31886078378E+02  0.00000000000E+00 0. -1.
         11    1    3    3    0    0 -0.11031338102E+02 -0.30530804415E+01  0.52633850057E+01  0.12598211876E+02  0.51100000000E-03 0.  1.
        -11    1    3    3    0    0  0.74230677513E+01 -0.22572353232E+02 -0.38387788743E+01  0.24069675710E+02  0.51100000000E-03 0. -1.
         12    1    3    3    0    0 -0.58356417617E+01  0.28806669631E+01 -0.21678250386E+02  0.22634034036E+02  0.00000000000E+00 0. -1.
</event>
<event>
 7    1  0.5837204E-012  0.5930197E+02  0.7816164E-02  0.1266605E+00
        -11   -1    0    0    0    0  0.00000000000E+00  0.00000000000E+00  0.45593999997E+02  0.45594000000E+02  0.51100000000E-03 0.  1.
         11   -1    0    0    0    0 -0.00000000000E+00 -0.00000000000E+00 -0.45593999997E+02  0.45594000000E+02  0.51100000000E-03 0. -1.
    9900012    2    1    2    0    0 -0.57100911322E+01  0.23276141360E+02  0.21031767382E+02  0.59301966434E+02  0.50000040863E+02 0.  0.
         12    1    1    2    0    0  0.57100911322E+01 -0.23276141360E+02 -0.21031767382E+02  0.31886033566E+02  0.00000000000E+00 0. -1.
         11    1    3    3    0    0  0.73335487731E+01 -0.86522653946E+01  0.36805119489E+01  0.11924294635E+02  0.51100000000E-03 0. -1.
        -11    1    3    3    0    0  0.17000607475E+00  0.55184264395E+01  0.16968460793E+02  0.17844063281E+02  0.51100000000E-03 0.  1.
         12    1    3    3    0    0 -0.13213645980E+02  0.26409980315E+02  0.38279464030E+00  0.29533608518E+02  0.00000000000E+00 0. -1.
</event>
<event>
 7    1  0.5837204E-012  0.5930197E+02  0.7816164E-02  0.1266605E+00
        -11   -1    0    0    0    0  0.00000000000E+00  0.00000000000E+00  0.45593999997E+02  0.45594000000E+02  0.51100000000E-03 0.  1.
         11   -1    0    0    0    0 -0.00000000000E+00 -0.00000000000E+00 -0.45593999997E+02  0.45594000000E+02  0.51100000000E-03 0. -1.
    9900012    2    1    2    0    0  0.23451629585E+02 -0.21411113274E+02  0.28816921994E+01  0.59301970900E+02  0.50000049008E+02 0.  0.
         12    1    1    2    0    0 -0.23451629585E+02  0.21411113274E+02 -0.28816921994E+01  0.31886029100E+02  0.00000000000E+00 0. -1.
         11    1    3    3    0    0 -0.44802742988E+01 -0.16795931097E+02 -0.48652021613E+01  0.18051214683E+02  0.51100000000E-03 0. -1.
        -11    1    3    3    0    0  0.14178849118E-01 -0.36303563347E-01  0.12554396664E+02  0.12554457171E+02  0.51100000000E-03 0.  1.
        -12    1    3    3    0    0  0.27917725035E+02 -0.45788786138E+01 -0.48075023035E+01  0.28696299045E+02  0.00000000000E+00 0.  1.
</event>
<event>
 7    1  0.5837204E-012  0.5930199E+02  0.7816164E-02  0.1266605E+00
        -11   -1    0    0    0    0  0.00000000000E+00  0.00000000000E+00  0.45593999997E+02  0.45594000000E+02  0.51100000000E-03 0.  1.
         11   -1    0    0    0    0 -0.00000000000E+00 -0.00000000000E+00 -0.45593999997E+02  0.45594000000E+02  0.51100000000E-03 0. -1.
    9900012    2    1    2    0    0  0.27485357174E+02  0.37809155476E+01  0.15715519392E+02  0.59301988473E+02  0.50000081057E+02 0.  0.
         12    1    1    2    0    0 -0.27485357174E+02 -0.37809155476E+01 -0.15715519392E+02  0.31886011527E+02  0.00000000000E+00 0. -1.
         11    1    3    3    0    0  0.11064272593E+02  0.12680564183E+01  0.12852158294E+01  0.11210614394E+02  0.51100000000E-03 0. -1.
        -11    1    3    3    0    0  0.23377231735E+02  0.13864812483E+02  0.19912372640E+02  0.33693182889E+02  0.51100000000E-03 0.  1.
         12    1    3    3    0    0 -0.69561471541E+01 -0.11351953354E+02 -0.54820690772E+01  0.14398191190E+02  0.00000000000E+00 0. -1.
</event>
<event>
 7    1  0.5837204E-012  0.5930182E+02  0.7816164E-02  0.1266605E+00
        -11   -1    0    0    0    0  0.00000000000E+00  0.00000000000E+00  0.45593999997E+02  0.45594000000E+02  0.51100000000E-03 0.  1.
         11   -1    0    0    0    0 -0.00000000000E+00 -0.00000000000E+00 -0.45593999997E+02  0.45594000000E+02  0.51100000000E-03 0. -1.
    9900012    2    1    2    0    0 -0.31031074163E+02 -0.42579859189E+01  0.59724727865E+01  0.59301820565E+02  0.49999774833E+02 0.  0.
         12    1    1    2    0    0  0.31031074163E+02  0.42579859189E+01 -0.59724727865E+01  0.31886179435E+02  0.00000000000E+00 0. -1.
         11    1    3    3    0    0 -0.70434574658E+01  0.13774383854E+02  0.15266370190E+02  0.21734902868E+02  0.51100000000E-03 0. -1.
        -11    1    3    3    0    0 -0.52461899895E+01 -0.11292199114E+02  0.46098461020E+01  0.13277309652E+02  0.51100000000E-03 0.  1.
        -12    1    3    3    0    0 -0.18741426707E+02 -0.67401706587E+01 -0.13903743505E+02  0.24289608045E+02  0.00000000000E+00 0.  1.
</event>
<event>
 7    1  0.5837204E-012  0.5930192E+02  0.7816164E-02  0.1266605E+00
        -11   -1    0    0    0    0  0.00000000000E+00  0.00000000000E+00  0.45593999997E+02  0.45594000000E+02  0.51100000000E-03 0. -1.
         11   -1    0    0    0    0 -0.00000000000E+00 -0.00000000000E+00 -0.45593999997E+02  0.45594000000E+02  0.51100000000E-03 0.  1.
    9900012    2    1    2    0    0 -0.19329961138E+01  0.31751370520E+02 -0.21991464471E+01  0.59301917629E+02  0.49999951855E+02 0.  0.
         12    1    1    2    0    0  0.19329961138E+01 -0.31751370520E+02  0.21991464471E+01  0.31886082371E+02  0.00000000000E+00 0. -1.
         11    1    3    3    0    0 -0.73576005424E+00 -0.93252297426E+01  0.71881707293E+01  0.11797078083E+02  0.51100000000E-03 0. -1.
        -11    1    3    3    0    0 -0.38955139604E+01  0.57334801929E+01 -0.98636363129E+01  0.12055668613E+02  0.51100000000E-03 0.  1.
        -12    1    3    3    0    0  0.26982779008E+01  0.35343120070E+02  0.47631913654E+00  0.35449170933E+02  0.00000000000E+00 0.  1.
</event>
<event>
 7    1  0.5837204E-012  0.5930196E+02  0.7816164E-02  0.1266605E+00
        -11   -1    0    0    0    0  0.00000000000E+00  0.00000000000E+00  0.45593999997E+02  0.45594000000E+02  0.51100000000E-03 0.  1.
         11   -1    0    0    0    0 -0.00000000000E+00 -0.00000000000E+00 -0.45593999997E+02  0.45594000000E+02  0.51100000000E-03 0. -1.
    9900012    2    1    2    0    0 -0.26133954439E+02 -0.14634296381E+02 -0.10934956513E+02  0.59301961062E+02  0.50000031066E+02 0.  0.
         12    1    1    2    0    0  0.26133954439E+02  0.14634296381E+02  0.10934956513E+02  0.31886038938E+02  0.00000000000E+00 0. -1.
         11    1    3    3    0    0 -0.16467627957E+02 -0.15731341056E+02 -0.44106195630E+01  0.23197228867E+02  0.51100000000E-03 0. -1.
        -11    1    3    3    0    0 -0.97618730458E+01 -0.12510927115E+02 -0.13480446577E+02  0.20821621042E+02  0.51100000000E-03 0.  1.
        -12    1    3    3    0    0  0.95546563388E-01  0.13607971789E+02  0.69561096269E+01  0.15283111153E+02  0.00000000000E+00 0.  1.
</event>
<event>
 7    1  0.5837204E-012  0.5930195E+02  0.7816164E-02  0.1266605E+00
        -11   -1    0    0    0    0  0.00000000000E+00  0.00000000000E+00  0.45593999997E+02  0.45594000000E+02  0.51100000000E-03 0.  1.
         11   -1    0    0    0    0 -0.00000000000E+00 -0.00000000000E+00 -0.45593999997E+02  0.45594000000E+02  0.51100000000E-03 0. -1.
    9900012    2    1    2    0    0 -0.18858023371E+02 -0.18887937950E+02  0.17445361825E+02  0.59301954546E+02  0.50000019183E+02 0.  0.
         12    1    1    2    0    0  0.18858023371E+02  0.18887937950E+02 -0.17445361825E+02  0.31886045454E+02  0.00000000000E+00 0. -1.
         11    1    3    3    0    0 -0.14528016309E+02 -0.20589195644E+01  0.98033836158E+01  0.17646776993E+02  0.51100000000E-03 0. -1.
        -11    1    3    3    0    0  0.16028957410E+01  0.60862711238E+01  0.15487919848E+02  0.16717883611E+02  0.51100000000E-03 0.  1.
         12    1    3    3    0    0 -0.59329028030E+01 -0.22915289510E+02 -0.78459416388E+01  0.24937293943E+02  0.00000000000E+00 0. -1.
</event>
<event>
 7    1  0.5837204E-012  0.5930181E+02  0.7816164E-02  0.1266605E+00
        -11   -1    0    0    0    0  0.00000000000E+00  0.00000000000E+00  0.45593999997E+02  0.45594000000E+02  0.51100000000E-03 0. -1.
         11   -1    0    0    0    0 -0.00000000000E+00 -0.00000000000E+00 -0.45593999997E+02  0.45594000000E+02  0.51100000000E-03 0.  1.
    9900012    2    1    2    0    0 -0.13808009506E+02  0.23516032415E+02 -0.16524646267E+02  0.59301814256E+02  0.49999763326E+02 0.  0.
         12    1    1    2    0    0  0.13808009506E+02 -0.23516032415E+02  0.16524646267E+02  0.31886185744E+02  0.00000000000E+00 0. -1.
         11    1    3    3    0    0 -0.11695040609E+02  0.77319581877E+01 -0.13013071761E+02  0.19128439277E+02  0.51100000000E-03 0. -1.
        -11    1    3    3    0    0 -0.81701604504E+01 -0.46434106938E+01 -0.13654389465E+02  0.16575739397E+02  0.51100000000E-03 0.  1.
         12    1    3    3    0    0  0.60571915536E+01  0.20427484921E+02  0.10142814958E+02  0.23597635581E+02  0.00000000000E+00 0. -1.
</event>
<event>
 7    1  0.5837204E-012  0.5930167E+02  0.7816164E-02  0.1266606E+00
        -11   -1    0    0    0    0  0.00000000000E+00  0.00000000000E+00  0.45593999997E+02  0.45594000000E+02  0.51100000000E-03 0.  1.
         11   -1    0    0    0    0 -0.00000000000E+00 -0.00000000000E+00 -0.45593999997E+02  0.45594000000E+02  0.51100000000E-03 0. -1.
    9900012    2    1    2    0    0 -0.22441843600E+02 -0.10448702242E+02  0.20097917402E+02  0.59301670537E+02  0.49999501217E+02 0.  0.
         12    1    1    2    0    0  0.22441843600E+02  0.10448702242E+02 -0.20097917402E+02  0.31886329463E+02  0.00000000000E+00 0. -1.
         11    1    3    3    0    0 -0.14962374410E+02 -0.11911770687E+02 -0.10590872251E+02  0.21861598847E+02  0.51100000000E-03 0. -1.
        -11    1    3    3    0    0  0.75821314103E+00 -0.28496914998E+01 -0.19284016747E+01  0.35234020621E+01  0.51100000000E-03 0.  1.
        -12    1    3    3    0    0 -0.82376823309E+01  0.43127599444E+01  0.32617191328E+02  0.33916669628E+02  0.00000000000E+00 0.  1.
</event>
<event>
 7    1  0.5837204E-012  0.5930195E+02  0.7816164E-02  0.1266605E+00
        -11   -1    0    0    0    0  0.00000000000E+00  0.00000000000E+00  0.45593999997E+02  0.45594000000E+02  0.51100000000E-03 0.  1.
         11   -1    0    0    0    0 -0.00000000000E+00 -0.00000000000E+00 -0.45593999997E+02  0.45594000000E+02  0.51100000000E-03 0. -1.
    9900012    2    1    2    0    0  0.19440783673E+02 -0.82268770416E+01  0.23897587745E+02  0.59301948571E+02  0.50000008286E+02 0.  0.
         12    1    1    2    0    0 -0.19440783673E+02  0.82268770416E+01 -0.23897587745E+02  0.31886051429E+02  0.00000000000E+00 0. -1.
         11    1    3    3    0    0  0.42430440792E+01  0.67732844428E+01  0.16510458602E+01  0.81612963366E+01  0.51100000000E-03 0. -1.
        -11    1    3    3    0    0 -0.47990772007E+01  0.85645731445E+01  0.17229529746E+02  0.19830273590E+02  0.51100000000E-03 0.  1.
         12    1    3    3    0    0  0.19996816795E+02 -0.23564734629E+02  0.50170121384E+01  0.31310378644E+02  0.00000000000E+00 0. -1.
</event>
<event>
 7    1  0.5837204E-012  0.5930195E+02  0.7816164E-02  0.1266605E+00
        -11   -1    0    0    0    0  0.00000000000E+00  0.00000000000E+00  0.45593999997E+02  0.45594000000E+02  0.51100000000E-03 0.  1.
         11   -1    0    0    0    0 -0.00000000000E+00 -0.00000000000E+00 -0.45593999997E+02  0.45594000000E+02  0.51100000000E-03 0. -1.
    9900012    2    1    2    0    0 -0.26920311996E+02  0.41015010853E+01  0.16588985361E+02  0.59301953767E+02  0.50000017762E+02 0.  0.
         12    1    1    2    0    0  0.26920311996E+02 -0.41015010853E+01 -0.16588985361E+02  0.31886046233E+02  0.00000000000E+00 0. -1.
         11    1    3    3    0    0 -0.10711779879E+01 -0.83492630329E+01  0.56986243592E+01  0.10165231691E+02  0.51100000000E-03 0. -1.
        -11    1    3    3    0    0 -0.94530465122E+01 -0.13850709714E+02  0.19661382806E+01  0.16883955341E+02  0.51100000000E-03 0.  1.
         12    1    3    3    0    0 -0.16396087495E+02  0.26301473832E+02  0.89242227208E+01  0.32252766735E+02  0.00000000000E+00 0. -1.
</event>
<event>
 7    1  0.5837204E-012  0.5930204E+02  0.7816164E-02  0.1266604E+00
        -11   -1    0    0    0    0  0.00000000000E+00  0.00000000000E+00  0.45593999997E+02  0.45594000000E+02  0.51100000000E-03 0.  1.
         11   -1    0    0    0    0 -0.00000000000E+00 -0.00000000000E+00 -0.45593999997E+02  0.45594000000E+02  0.51100000000E-03 0. -1.
    9900012    2    1    2    0    0  0.15420518360E+02 -0.15473813842E+02  0.23226780221E+02  0.59302037246E+02  0.50000170007E+02 0.  0.
         12    1    1    2    0    0 -0.15420518360E+02  0.15473813842E+02 -0.23226780221E+02  0.31885962754E+02  0.00000000000E+00 0. -1.
         11    1    3    3    0    0  0.12423996119E+02 -0.22021230158E+02  0.78660348214E+01  0.26479515882E+02  0.51100000000E-03 0. -1.
        -11    1    3    3    0    0  0.50283912844E+01  0.22642615639E+01  0.23098680942E+02  0.23747855921E+02  0.51100000000E-03 0.  1.
         12    1    3    3    0    0 -0.20318690429E+01  0.42831547528E+01 -0.77379355423E+01  0.90746654428E+01  0.00000000000E+00 0. -1.
</event>
<event>
 7    1  0.5837204E-012  0.5930197E+02  0.7816164E-02  0.1266605E+00
        -11   -1    0    0    0    0  0.00000000000E+00  0.00000000000E+00  0.45593999997E+02  0.45594000000E+02  0.51100000000E-03 0.  1.
         11   -1    0    0    0    0 -0.00000000000E+00 -0.00000000000E+00 -0.45593999997E+02  0.45594000000E+02  0.51100000000E-03 0. -1.
    9900012    2    1    2    0    0  0.27307616521E+02  0.15391060147E+02  0.58419459230E+01  0.59301968816E+02  0.50000045207E+02 0.  0.
         12    1    1    2    0    0 -0.27307616521E+02 -0.15391060147E+02 -0.58419459230E+01  0.31886031184E+02  0.00000000000E+00 0. -1.
         11    1    3    3    0    0  0.23472861794E+02  0.28089052991E+01 -0.19185823619E+01  0.23718055323E+02  0.51100000000E-03 0. -1.
        -11    1    3    3    0    0  0.25444280345E+01  0.17018395059E+02 -0.81328171309E+01  0.19032671887E+02  0.51100000000E-03 0.  1.
        -12    1    3    3    0    0  0.12903266928E+01 -0.44362402111E+01  0.15893345416E+02  0.16551241606E+02  0.00000000000E+00 0.  1.
</event>
<event>
 7    1  0.5837204E-012  0.5930193E+02  0.7816164E-02  0.1266605E+00
        -11   -1    0    0    0    0  0.00000000000E+00  0.00000000000E+00  0.45593999997E+02  0.45594000000E+02  0.51100000000E-03 0. -1.
         11   -1    0    0    0    0 -0.00000000000E+00 -0.00000000000E+00 -0.45593999997E+02  0.45594000000E+02  0.51100000000E-03 0.  1.
    9900012    2    1    2    0    0 -0.18506588226E+02  0.53005098374E+01 -0.25419128322E+02  0.59301932557E+02  0.49999979081E+02 0.  0.
         12    1    1    2    0    0  0.18506588226E+02 -0.53005098374E+01  0.25419128322E+02  0.31886067443E+02  0.00000000000E+00 0. -1.
         11    1    3    3    0    0  0.10165131155E+02 -0.55785713525E+01 -0.80015370585E+01  0.14088113617E+02  0.51100000000E-03 0. -1.
        -11    1    3    3    0    0  0.23344775002E+01  0.93712998535E+01 -0.86284807607E+01  0.12950742320E+02  0.51100000000E-03 0.  1.
        -12    1    3    3    0    0 -0.31006196881E+02  0.15077813364E+01 -0.87891105029E+01  0.32263076620E+02  0.00000000000E+00 0.  1.
</event>
<event>
 7    1  0.5837204E-012  0.5930207E+02  0.7816164E-02  0.1266604E+00
        -11   -1    0    0    0    0  0.00000000000E+00  0.00000000000E+00  0.45593999997E+02  0.45594000000E+02  0.51100000000E-03 0.  1.
         11   -1    0    0    0    0 -0.00000000000E+00 -0.00000000000E+00 -0.45593999997E+02  0.45594000000E+02  0.51100000000E-03 0. -1.
    9900012    2    1    2    0    0 -0.26555514539E+02 -0.14995625334E+02  0.93085051829E+01  0.59302072064E+02  0.50000233508E+02 0.  0.
         12    1    1    2    0    0  0.26555514539E+02  0.14995625334E+02 -0.93085051829E+01  0.31885927936E+02  0.00000000000E+00 0. -1.
         11    1    3    3    0    0 -0.22794457309E+02 -0.18020763498E+02  0.85081407102E+01  0.30277444735E+02  0.51100000000E-03 0. -1.
        -11    1    3    3    0    0 -0.12808537922E+02  0.63607468930E+01  0.85427600328E+01  0.16658226015E+02  0.51100000000E-03 0.  1.
         12    1    3    3    0    0  0.90474806920E+01 -0.33356087290E+01 -0.77423955602E+01  0.12366401315E+02  0.00000000000E+00 0. -1.
</event>
<event>
 7    1  0.5837204E-012  0.5930195E+02  0.7816164E-02  0.1266605E+00
        -11   -1    0    0    0    0  0.00000000000E+00  0.00000000000E+00  0.45593999997E+02  0.45594000000E+02  0.51100000000E-03 0.  1.
         11   -1    0    0    0    0 -0.00000000000E+00 -0.00000000000E+00 -0.45593999997E+02  0.45594000000E+02  0.51100000000E-03 0. -1.
    9900012    2    1    2    0    0 -0.10090822777E+02  0.14991275950E+02  0.26270838280E+02  0.59301952850E+02  0.50000016090E+02 0.  0.
         12    1    1    2    0    0  0.10090822777E+02 -0.14991275950E+02 -0.26270838280E+02  0.31886047150E+02  0.00000000000E+00 0. -1.
         11    1    3    3    0    0 -0.71896002783E+01 -0.11523811321E+02  0.46791355363E+01  0.14366032478E+02  0.51100000000E-03 0. -1.
        -11    1    3    3    0    0 -0.15864000724E+02  0.16964070636E+02  0.14161173983E+02  0.27202666420E+02  0.51100000000E-03 0.  1.
         12    1    3    3    0    0  0.12962778226E+02  0.95510166352E+01  0.74305287602E+01  0.17733253953E+02  0.00000000000E+00 0. -1.
</event>
<event>
 7    1  0.5837204E-012  0.5930197E+02  0.7816164E-02  0.1266605E+00
        -11   -1    0    0    0    0  0.00000000000E+00  0.00000000000E+00  0.45593999997E+02  0.45594000000E+02  0.51100000000E-03 0.  1.
         11   -1    0    0    0    0 -0.00000000000E+00 -0.00000000000E+00 -0.45593999997E+02  0.45594000000E+02  0.51100000000E-03 0. -1.
    9900012    2    1    2    0    0  0.25987179907E+02  0.16614929122E+02 -0.80826565043E+01  0.59301972882E+02  0.50000052623E+02 0.  0.
         12    1    1    2    0    0 -0.25987179907E+02 -0.16614929122E+02  0.80826565043E+01  0.31886027118E+02  0.00000000000E+00 0. -1.
         11    1    3    3    0    0  0.55090605875E+01 -0.64708866439E+01  0.94804668010E+00  0.85510768494E+01  0.51100000000E-03 0. -1.
        -11    1    3    3    0    0  0.39605747302E+00  0.26445902321E+02  0.37461618796E+01  0.26712849720E+02  0.51100000000E-03 0.  1.
         12    1    3    3    0    0  0.20082061846E+02 -0.33600865551E+01 -0.12776865064E+02  0.24038046312E+02  0.00000000000E+00 0. -1.
</event>
<event>
 7    1  0.5837204E-012  0.5930199E+02  0.7816164E-02  0.1266605E+00
        -11   -1    0    0    0    0  0.00000000000E+00  0.00000000000E+00  0.45593999997E+02  0.45594000000E+02  0.51100000000E-03 0. -1.
         11   -1    0    0    0    0 -0.00000000000E+00 -0.00000000000E+00 -0.45593999997E+02  0.45594000000E+02  0.51100000000E-03 0.  1.
    9900012    2    1    2    0    0  0.27234902759E+01  0.30887970957E+02  0.74319138430E+01  0.59301992214E+02  0.50000087881E+02 0.  0.
         12    1    1    2    0    0 -0.27234902759E+01 -0.30887970957E+02 -0.74319138430E+01  0.31886007786E+02  0.00000000000E+00 0. -1.
         11    1    3    3    0    0 -0.31816468370E+00  0.80252186128E+00 -0.76729033693E+01  0.77213157220E+01  0.51100000000E-03 0. -1.
        -11    1    3    3    0    0 -0.17139201131E+02  0.21194826139E+02  0.88528483758E+01  0.28659131095E+02  0.51100000000E-03 0.  1.
         12    1    3    3    0    0  0.20180856090E+02  0.88906229566E+01  0.62519688365E+01  0.22921545398E+02  0.00000000000E+00 0. -1.
</event>
<event>
 7    1  0.5837204E-012  0.5930203E+02  0.7816164E-02  0.1266604E+00
        -11   -1    0    0    0    0  0.00000000000E+00  0.00000000000E+00  0.45593999997E+02  0.45594000000E+02  0.51100000000E-03 0. -1.
         11   -1    0    0    0    0 -0.00000000000E+00 -0.00000000000E+00 -0.45593999997E+02  0.45594000000E+02  0.51100000000E-03 0.  1.
    9900012    2    1    2    0    0  0.12700397971E+02 -0.23795855313E+02 -0.17005058888E+02  0.59302033393E+02  0.50000162980E+02 0.  0.
         12    1    1    2    0    0 -0.12700397971E+02  0.23795855313E+02  0.17005058888E+02  0.31885966607E+02  0.00000000000E+00 0. -1.
         11    1    3    3    0    0  0.22289006059E+02 -0.21780452455E+02 -0.54718329833E+01  0.31640620359E+02  0.51100000000E-03 0. -1.
        -11    1    3    3    0    0  0.76245796578E+01  0.82677959550E+00 -0.29380315243E+01  0.82127832649E+01  0.51100000000E-03 0.  1.
         12    1    3    3    0    0 -0.17213187745E+02 -0.28421824541E+01 -0.85951943802E+01  0.19448629769E+02  0.00000000000E+00 0. -1.
</event>
<event>
 7    1  0.5837204E-012  0.5930194E+02  0.7816164E-02  0.1266605E+00
        -11   -1    0    0    0    0  0.00000000000E+00  0.00000000000E+00  0.45593999997E+02  0.45594000000E+02  0.51100000000E-03 0.  1.
         11   -1    0    0    0    0 -0.00000000000E+00 -0.00000000000E+00 -0.45593999997E+02  0.45594000000E+02  0.51100000000E-03 0. -1.
    9900012    2    1    2    0    0 -0.13105097294E+02  0.11418488790E+02  0.26731911996E+02  0.59301943795E+02  0.49999999575E+02 0.  0.
         12    1    1    2    0    0  0.13105097294E+02 -0.11418488790E+02 -0.26731911996E+02  0.31886056205E+02  0.00000000000E+00 0. -1.
         11    1    3    3    0    0 -0.28816620628E+01  0.24686699947E+02 -0.21801170759E+01  0.24949750324E+02  0.51100000000E-03 0. -1.
        -11    1    3    3    0    0  0.27852293431E+00 -0.35625472212E+01  0.26483583775E+01  0.44478219484E+01  0.51100000000E-03 0.  1.
        -12    1    3    3    0    0 -0.10501958166E+02 -0.97056639359E+01  0.26263670695E+02  0.29904371522E+02  0.00000000000E+00 0.  1.
</event>
<event>
 7    1  0.5837204E-012  0.5930193E+02  0.7816164E-02  0.1266605E+00
        -11   -1    0    0    0    0  0.00000000000E+00  0.00000000000E+00  0.45593999997E+02  0.45594000000E+02  0.51100000000E-03 0. -1.
         11   -1    0    0    0    0 -0.00000000000E+00 -0.00000000000E+00 -0.45593999997E+02  0.45594000000E+02  0.51100000000E-03 0.  1.
    9900012    2    1    2    0    0 -0.18658798677E+02 -0.83676537673E+01 -0.24465343355E+02  0.59301930579E+02  0.49999975473E+02 0.  0.
         12    1    1    2    0    0  0.18658798677E+02  0.83676537673E+01  0.24465343355E+02  0.31886069421E+02  0.00000000000E+00 0. -1.
         11    1    3    3    0    0 -0.16999595295E+02 -0.45703410311E+01 -0.75218070538E+01  0.19142931828E+02  0.51100000000E-03 0. -1.
        -11    1    3    3    0    0 -0.21521120201E+01 -0.19719511531E+02 -0.13100635180E+02  0.23772197281E+02  0.51100000000E-03 0.  1.
         12    1    3    3    0    0  0.49290863810E+00  0.15922198795E+02 -0.38429011209E+01  0.16386801470E+02  0.00000000000E+00 0. -1.
</event>
<event>
 7    1  0.5837204E-012  0.5930194E+02  0.7816164E-02  0.1266605E+00
        -11   -1    0    0    0    0  0.00000000000E+00  0.00000000000E+00  0.45593999997E+02  0.45594000000E+02  0.51100000000E-03 0.  1.
         11   -1    0    0    0    0 -0.00000000000E+00 -0.00000000000E+00 -0.45593999997E+02  0.45594000000E+02  0.51100000000E-03 0. -1.
    9900012    2    1    2    0    0  0.18923826647E+02 -0.23726577500E+02 -0.97805477712E+01  0.59301940201E+02  0.49999993021E+02 0.  0.
         12    1    1    2    0    0 -0.18923826647E+02  0.23726577500E+02  0.97805477712E+01  0.31886059799E+02  0.00000000000E+00 0. -1.
         11    1    3    3    0    0 -0.12433951440E+02 -0.12671658765E+02 -0.80296711940E+01  0.19484601715E+02  0.51100000000E-03 0. -1.
        -11    1    3    3    0    0  0.10689444991E+02 -0.56975523345E+01 -0.11173266031E+02  0.16479326773E+02  0.51100000000E-03 0.  1.
        -12    1    3    3    0    0  0.20668333095E+02 -0.53573664004E+01  0.94223894537E+01  0.23338011713E+02  0.00000000000E+00 0.  1.
</event>
<event>
 7    1  0.5837204E-012  0.5930196E+02  0.7816164E-02  0.1266605E+00
        -11   -1    0    0    0    0  0.00000000000E+00  0.00000000000E+00  0.45593999997E+02  0.45594000000E+02  0.51100000000E-03 0.  1.
         11   -1    0    0    0    0 -0.00000000000E+00 -0.00000000000E+00 -0.45593999997E+02  0.45594000000E+02  0.51100000000E-03 0. -1.
    9900012    2    1    2    0    0  0.21010946446E+02  0.22942268358E+02  0.69937283636E+01  0.59301956276E+02  0.50000022338E+02 0.  0.
         12    1    1    2    0    0 -0.21010946446E+02 -0.22942268358E+02 -0.69937283636E+01  0.31886043724E+02  0.00000000000E+00 0. -1.
         11    1    3    3    0    0  0.76282911915E+00  0.19288446536E+01  0.10754232591E+02  0.10952436662E+02  0.51100000000E-03 0. -1.
        -11    1    3    3    0    0  0.27189300658E+02  0.20890296421E+02  0.75209989481E+01  0.35103104994E+02  0.51100000000E-03 0.  1.
         12    1    3    3    0    0 -0.69411833313E+01  0.12312728314E+00 -0.11281503175E+02  0.13246414619E+02  0.00000000000E+00 0. -1.
</event>
<event>
 7    1  0.5837204E-012  0.5930234E+02  0.7816164E-02  0.1266603E+00
        -11   -1    0    0    0    0  0.00000000000E+00  0.00000000000E+00  0.45593999997E+02  0.45594000000E+02  0.51100000000E-03 0.  1.
         11   -1    0    0    0    0 -0.00000000000E+00 -0.00000000000E+00 -0.45593999997E+02  0.45594000000E+02  0.51100000000E-03 0. -1.
    9900012    2    1    2    0    0  0.25980340371E+02 -0.64819988155E+01  0.17311881065E+02  0.59302335189E+02  0.50000713378E+02 0.  0.
         12    1    1    2    0    0 -0.25980340371E+02  0.64819988155E+01 -0.17311881065E+02  0.31885664811E+02  0.00000000000E+00 0. -1.
         11    1    3    3    0    0  0.26143566416E+02  0.79900063643E+00  0.16380189640E+02  0.30861546945E+02  0.51100000000E-03 0. -1.
        -11    1    3    3    0    0  0.10072588486E+02 -0.12074472794E+02  0.48869482953E+01  0.16466092310E+02  0.51100000000E-03 0.  1.
         12    1    3    3    0    0 -0.10235814530E+02  0.47934733423E+01 -0.39552568700E+01  0.11974695933E+02  0.00000000000E+00 0. -1.
</event>
<event>
 7    1  0.5837204E-012  0.5930196E+02  0.7816164E-02  0.1266605E+00
        -11   -1    0    0    0    0  0.00000000000E+00  0.00000000000E+00  0.45593999997E+02  0.45594000000E+02  0.51100000000E-03 0. -1.
         11   -1    0    0    0    0 -0.00000000000E+00 -0.00000000000E+00 -0.45593999997E+02  0.45594000000E+02  0.51100000000E-03 0.  1.
    9900012    2    1    2    0    0  0.20092877450E+02 -0.24636047259E+02  0.24619662901E+01  0.59301955611E+02  0.50000021125E+02 0.  0.
         12    1    1    2    0    0 -0.20092877450E+02  0.24636047259E+02 -0.24619662901E+01  0.31886044389E+02  0.00000000000E+00 0. -1.
         11    1    3    3    0    0  0.99476745799E+01 -0.82477818225E+01  0.22638120821E+01  0.13118954987E+02  0.51100000000E-03 0. -1.
        -11    1    3    3    0    0 -0.22265951098E+01 -0.22377908419E+02  0.14172302188E+02  0.26581622609E+02  0.51100000000E-03 0.  1.
        -12    1    3    3    0    0  0.12371797980E+02  0.59896429818E+01 -0.13974147980E+02  0.19601378015E+02  0.00000000000E+00 0.  1.
</event>
<event>
 7    1  0.5837204E-012  0.5930194E+02  0.7816164E-02  0.1266605E+00
        -11   -1    0    0    0    0  0.00000000000E+00  0.00000000000E+00  0.45593999997E+02  0.45594000000E+02  0.51100000000E-03 0.  1.
         11   -1    0    0    0    0 -0.00000000000E+00 -0.00000000000E+00 -0.45593999997E+02  0.45594000000E+02  0.51100000000E-03 0. -1.
    9900012    2    1    2    0    0  0.15659688468E+02 -0.69055337107E+01  0.26903694861E+02  0.59301936651E+02  0.49999986547E+02 0.  0.
         12    1    1    2    0    0 -0.15659688468E+02  0.69055337107E+01 -0.26903694861E+02  0.31886063349E+02  0.00000000000E+00 0. -1.
         11    1    3    3    0    0  0.20870298697E+01  0.11763749294E+02 -0.70840999727E+01  0.13889779113E+02  0.51100000000E-03 0. -1.
        -11    1    3    3    0    0  0.39280382952E+01  0.36736399751E+01  0.93214103672E+01  0.10761682350E+02  0.51100000000E-03 0.  1.
         12    1    3    3    0    0  0.96446203029E+01 -0.22342922980E+02  0.24666384466E+02  0.34650475187E+02  0.00000000000E+00 0. -1.
</event>
<event>
 7    1  0.5837204E-012  0.5930176E+02  0.7816164E-02  0.1266605E+00
        -11   -1    0    0    0    0  0.00000000000E+00  0.00000000000E+00  0.45593999997E+02  0.45594000000E+02  0.51100000000E-03 0.  1.
         11   -1    0    0    0    0 -0.00000000000E+00 -0.00000000000E+00 -0.45593999997E+02  0.45594000000E+02  0.51100000000E-03 0. -1.
    9900012    2    1    2    0    0 -0.13073736225E+02 -0.15556843400E+02  0.24572223443E+02  0.59301762838E+02  0.49999669552E+02 0.  0.
         12    1    1    2    0    0  0.13073736225E+02  0.15556843400E+02 -0.24572223443E+02  0.31886237162E+02  0.00000000000E+00 0. -1.
         11    1    3    3    0    0 -0.17857483750E+01 -0.12889513908E+02  0.25859227161E+01  0.13267081918E+02  0.51100000000E-03 0. -1.
        -11    1    3    3    0    0 -0.17425582285E+02 -0.17211041090E+02  0.15390112004E+02  0.28926223416E+02  0.51100000000E-03 0.  1.
         12    1    3    3    0    0  0.61375944354E+01  0.14543711598E+02  0.65961887231E+01  0.17108457504E+02  0.00000000000E+00 0. -1.
</event>
<event>
 7    1  0.5837204E-012  0.5930196E+02  0.7816164E-02  0.1266605E+00
        -11   -1    0    0    0    0  0.00000000000E+00  0.00000000000E+00  0.45593999997E+02  0.45594000000E+02  0.51100000000E-03 0.  1.
         11   -1    0    0    0    0 -0.00000000000E+00 -0.00000000000E+00 -0.45593999997E+02  0.45594000000E+02  0.51100000000E-03 0. -1.
    9900012    2    1    2    0    0  0.12021017192E+02 -0.14052748398E+02  0.25975660374E+02  0.59301960363E+02  0.50000029792E+02 0.  0.
         12    1    1    2    0    0 -0.12021017192E+02  0.14052748398E+02 -0.25975660374E+02  0.31886039637E+02  0.00000000000E+00 0. -1.
         11    1    3    3    0    0 -0.20813688715E+01 -0.12025669212E+01  0.11473712058E+02  0.11722812471E+02  0.51100000000E-03 0. -1.
        -11    1    3    3    0    0  0.10118256274E+02 -0.14731496188E+02  0.28090731425E+02  0.33293922602E+02  0.51100000000E-03 0.  1.
         12    1    3    3    0    0  0.39841297897E+01  0.18813147111E+01 -0.13588783109E+02  0.14285225290E+02  0.00000000000E+00 0. -1.
</event>
<event>
 7    1  0.5837204E-012  0.5930195E+02  0.7816164E-02  0.1266605E+00
        -11   -1    0    0    0    0  0.00000000000E+00  0.00000000000E+00  0.45593999997E+02  0.45594000000E+02  0.51100000000E-03 0.  1.
         11   -1    0    0    0    0 -0.00000000000E+00 -0.00000000000E+00 -0.45593999997E+02  0.45594000000E+02  0.51100000000E-03 0. -1.
    9900012    2    1    2    0    0  0.22732988142E+02 -0.11266515918E+02  0.19313133120E+02  0.59301949104E+02  0.50000009258E+02 0.  0.
         12    1    1    2    0    0 -0.22732988142E+02  0.11266515918E+02 -0.19313133120E+02  0.31886050896E+02  0.00000000000E+00 0. -1.
         11    1    3    3    0    0  0.12239703088E+02 -0.31718256227E+01 -0.15101755599E+02  0.19696035944E+02  0.51100000000E-03 0. -1.
        -11    1    3    3    0    0  0.73420720561E+01  0.28419079945E+01  0.17835458286E+02  0.19495795333E+02  0.51100000000E-03 0.  1.
        -12    1    3    3    0    0  0.31512129979E+01 -0.10936598290E+02  0.16579430433E+02  0.20110117827E+02  0.00000000000E+00 0.  1.
</event>
<event>
 7    1  0.5837204E-012  0.5930190E+02  0.7816164E-02  0.1266605E+00
        -11   -1    0    0    0    0  0.00000000000E+00  0.00000000000E+00  0.45593999997E+02  0.45594000000E+02  0.51100000000E-03 0.  1.
         11   -1    0    0    0    0 -0.00000000000E+00 -0.00000000000E+00 -0.45593999997E+02  0.45594000000E+02  0.51100000000E-03 0. -1.
    9900012    2    1    2    0    0  0.21481251529E+02  0.10757021360E+02  0.20965820538E+02  0.59301901044E+02  0.49999921609E+02 0.  0.
         12    1    1    2    0    0 -0.21481251529E+02 -0.10757021360E+02 -0.20965820538E+02  0.31886098956E+02  0.00000000000E+00 0. -1.
         11    1    3    3    0    0  0.36106887742E+01  0.98814030903E+01  0.27542639416E+02  0.29483490070E+02  0.51100000000E-03 0. -1.
        -11    1    3    3    0    0  0.52582640404E+01  0.10058695034E+02  0.27006974292E+01  0.11667067042E+02  0.51100000000E-03 0.  1.
         12    1    3    3    0    0  0.12612298714E+02 -0.91830767638E+01 -0.92775163076E+01  0.18151343932E+02  0.00000000000E+00 0. -1.
</event>
<event>
 7    1  0.5837204E-012  0.5930197E+02  0.7816164E-02  0.1266605E+00
        -11   -1    0    0    0    0  0.00000000000E+00  0.00000000000E+00  0.45593999997E+02  0.45594000000E+02  0.51100000000E-03 0. -1.
         11   -1    0    0    0    0 -0.00000000000E+00 -0.00000000000E+00 -0.45593999997E+02  0.45594000000E+02  0.51100000000E-03 0.  1.
    9900012    2    1    2    0    0 -0.19136400416E+02  0.12861642472E+02 -0.22024876596E+02  0.59301970817E+02  0.50000048858E+02 0.  0.
         12    1    1    2    0    0  0.19136400416E+02 -0.12861642472E+02  0.22024876596E+02  0.31886029183E+02  0.00000000000E+00 0. -1.
         11    1    3    3    0    0  0.14406189890E+02  0.46018329013E+01 -0.46832859564E+01  0.15831877362E+02  0.51100000000E-03 0. -1.
        -11    1    3    3    0    0 -0.38716410137E+00  0.65807158635E+01 -0.19266104105E+01  0.68678632232E+01  0.51100000000E-03 0.  1.
         12    1    3    3    0    0 -0.33155426205E+02  0.16790937070E+01 -0.15414980229E+02  0.36602230232E+02  0.00000000000E+00 0. -1.
</event>
<event>
 7    1  0.5837204E-012  0.5930194E+02  0.7816164E-02  0.1266605E+00
        -11   -1    0    0    0    0  0.00000000000E+00  0.00000000000E+00  0.45593999997E+02  0.45594000000E+02  0.51100000000E-03 0.  1.
         11   -1    0    0    0    0 -0.00000000000E+00 -0.00000000000E+00 -0.45593999997E+02  0.45594000000E+02  0.51100000000E-03 0. -1.
    9900012    2    1    2    0    0 -0.71955624902E-01 -0.24464996676E+02  0.20449446238E+02  0.59301935781E+02  0.49999984960E+02 0.  0.
         12    1    1    2    0    0  0.71955624902E-01  0.24464996676E+02 -0.20449446238E+02  0.31886064219E+02  0.00000000000E+00 0. -1.
         11    1    3    3    0    0 -0.10036804695E+02 -0.11025497164E+02  0.14401225835E+02  0.20729069975E+02  0.51100000000E-03 0. -1.
        -11    1    3    3    0    0  0.35160388427E+01 -0.23584660335E+02 -0.22716967296E+01  0.23953274068E+02  0.51100000000E-03 0.  1.
         12    1    3    3    0    0  0.64488102278E+01  0.10145160824E+02  0.83199171320E+01  0.14619591738E+02  0.00000000000E+00 0. -1.
</event>
<event>
 7    1  0.5837204E-012  0.5930191E+02  0.7816164E-02  0.1266605E+00
        -11   -1    0    0    0    0  0.00000000000E+00  0.00000000000E+00  0.45593999997E+02  0.45594000000E+02  0.51100000000E-03 0.  1.
         11   -1    0    0    0    0 -0.00000000000E+00 -0.00000000000E+00 -0.45593999997E+02  0.45594000000E+02  0.51100000000E-03 0. -1.
    9900012    2    1    2    0    0 -0.30141049163E+02  0.29715941665E+01 -0.99704408437E+01  0.59301907308E+02  0.49999933032E+02 0.  0.
         12    1    1    2    0    0  0.30141049163E+02 -0.29715941665E+01  0.99704408437E+01  0.31886092692E+02  0.00000000000E+00 0. -1.
         11    1    3    3    0    0 -0.26536465937E+02 -0.10676943100E+01 -0.11770162428E+01  0.26584005775E+02  0.51100000000E-03 0. -1.
        -11    1    3    3    0    0 -0.70057890121E+01  0.12873162505E+02  0.54324506866E+01  0.15630448275E+02  0.51100000000E-03 0.  1.
         12    1    3    3    0    0  0.34012057855E+01 -0.88338740284E+01 -0.14225875287E+02  0.17087453258E+02  0.00000000000E+00 0. -1.
</event>
<event>
 7    1  0.5837204E-012  0.5930192E+02  0.7816164E-02  0.1266605E+00
        -11   -1    0    0    0    0  0.00000000000E+00  0.00000000000E+00  0.45593999997E+02  0.45594000000E+02  0.51100000000E-03 0.  1.
         11   -1    0    0    0    0 -0.00000000000E+00 -0.00000000000E+00 -0.45593999997E+02  0.45594000000E+02  0.51100000000E-03 0. -1.
    9900012    2    1    2    0    0  0.73236626783E+01 -0.26710116951E+02  0.15800498254E+02  0.59301919532E+02  0.49999955325E+02 0.  0.
         12    1    1    2    0    0 -0.73236626783E+01  0.26710116951E+02 -0.15800498254E+02  0.31886080468E+02  0.00000000000E+00 0. -1.
         11    1    3    3    0    0 -0.10041619049E+02 -0.94366962528E+01 -0.49761440340E+01  0.14650848406E+02  0.51100000000E-03 0. -1.
        -11    1    3    3    0    0  0.11312147853E+02 -0.32512823511E+01 -0.64586647286E+01  0.13425716976E+02  0.51100000000E-03 0.  1.
         12    1    3    3    0    0  0.60531338738E+01 -0.14022138347E+02  0.27235307016E+02  0.31225354150E+02  0.00000000000E+00 0. -1.
</event>
<event>
 7    1  0.5837204E-012  0.5930197E+02  0.7816164E-02  0.1266605E+00
        -11   -1    0    0    0    0  0.00000000000E+00  0.00000000000E+00  0.45593999997E+02  0.45594000000E+02  0.51100000000E-03 0.  1.
         11   -1    0    0    0    0 -0.00000000000E+00 -0.00000000000E+00 -0.45593999997E+02  0.45594000000E+02  0.51100000000E-03 0. -1.
    9900012    2    1    2    0    0 -0.18898696468E+02  0.15676181875E+01  0.25633979334E+02  0.59301967769E+02  0.50000043298E+02 0.  0.
         12    1    1    2    0    0  0.18898696468E+02 -0.15676181875E+01 -0.25633979334E+02  0.31886032231E+02  0.00000000000E+00 0. -1.
         11    1    3    3    0    0  0.49509356123E+01 -0.35134511326E+01 -0.19261156885E+01  0.63691462697E+01  0.51100000000E-03 0. -1.
        -11    1    3    3    0    0 -0.12138817744E+02 -0.13572213530E+01 -0.82304546342E+01  0.14728656753E+02  0.51100000000E-03 0.  1.
         12    1    3    3    0    0 -0.11710814337E+02  0.64382906730E+01  0.35790549656E+02  0.38204164746E+02  0.00000000000E+00 0. -1.
</event>
<event>
 7    1  0.5837204E-012  0.5930194E+02  0.7816164E-02  0.1266605E+00
        -11   -1    0    0    0    0  0.00000000000E+00  0.00000000000E+00  0.45593999997E+02  0.45594000000E+02  0.51100000000E-03 0.  1.
         11   -1    0    0    0    0 -0.00000000000E+00 -0.00000000000E+00 -0.45593999997E+02  0.45594000000E+02  0.51100000000E-03 0. -1.
    9900012    2    1    2    0    0  0.24640629313E+02 -0.10406845654E+02  0.17356777446E+02  0.59301940778E+02  0.49999994073E+02 0.  0.
         12    1    1    2    0    0 -0.24640629313E+02  0.10406845654E+02 -0.17356777446E+02  0.31886059222E+02  0.00000000000E+00 0. -1.
         11    1    3    3    0    0  0.34265229791E+01  0.60153288155E+01 -0.52595830450E+00  0.69427568648E+01  0.51100000000E-03 0. -1.
        -11    1    3    3    0    0  0.15900174839E+02  0.97821066669E+01  0.17545616386E+02  0.25619403299E+02  0.51100000000E-03 0.  1.
         12    1    3    3    0    0  0.53139314947E+01 -0.26204281137E+02  0.33711936435E+00  0.26739780614E+02  0.00000000000E+00 0. -1.
</event>
<event>
 7    1  0.5837204E-012  0.5930193E+02  0.7816164E-02  0.1266605E+00
        -11   -1    0    0    0    0  0.00000000000E+00  0.00000000000E+00  0.45593999997E+02  0.45594000000E+02  0.51100000000E-03 0. -1.
         11   -1    0    0    0    0 -0.00000000000E+00 -0.00000000000E+00 -0.45593999997E+02  0.45594000000E+02  0.51100000000E-03 0.  1.
    9900012    2    1    2    0    0  0.47320837746E+01 -0.11658755376E+02 -0.29298503007E+02  0.59301929809E+02  0.49999974069E+02 0.  0.
         12    1    1    2    0    0 -0.47320837746E+01  0.11658755376E+02  0.29298503007E+02  0.31886070191E+02  0.00000000000E+00 0. -1.
         11    1    3    3    0    0 -0.53639778889E+01 -0.17776539482E+02 -0.22205022648E+02  0.28945477122E+02  0.51100000000E-03 0. -1.
        -11    1    3    3    0    0  0.13187702600E+02 -0.72174828276E+01 -0.21175615166E+00  0.15035039047E+02  0.51100000000E-03 0.  1.
        -12    1    3    3    0    0 -0.30916409361E+01  0.13335266934E+02 -0.68817242070E+01  0.15321413640E+02  0.00000000000E+00 0.  1.
</event>
<event>
 7    1  0.5837204E-012  0.5930200E+02  0.7816164E-02  0.1266605E+00
        -11   -1    0    0    0    0  0.00000000000E+00  0.00000000000E+00  0.45593999997E+02  0.45594000000E+02  0.51100000000E-03 0.  1.
         11   -1    0    0    0    0 -0.00000000000E+00 -0.00000000000E+00 -0.45593999997E+02  0.45594000000E+02  0.51100000000E-03 0. -1.
    9900012    2    1    2    0    0  0.16046835326E+02  0.27213096005E+02  0.43201052836E+01  0.59302002637E+02  0.50000106890E+02 0.  0.
         12    1    1    2    0    0 -0.16046835326E+02 -0.27213096005E+02 -0.43201052836E+01  0.31885997363E+02  0.00000000000E+00 0. -1.
         11    1    3    3    0    0  0.47179656406E+01  0.63023897212E+01  0.59961887950E+01  0.98961404755E+01  0.51100000000E-03 0. -1.
        -11    1    3    3    0    0  0.14912705377E+02 -0.97739968612E+01  0.32447131974E+01  0.18123133291E+02  0.51100000000E-03 0.  1.
         12    1    3    3    0    0 -0.35838356914E+01  0.30684703145E+02 -0.49207967088E+01  0.31282728871E+02  0.00000000000E+00 0. -1.
</event>
<event>
 7    1  0.5837204E-012  0.5930192E+02  0.7816164E-02  0.1266605E+00
        -11   -1    0    0    0    0  0.00000000000E+00  0.00000000000E+00  0.45593999997E+02  0.45594000000E+02  0.51100000000E-03 0. -1.
         11   -1    0    0    0    0 -0.00000000000E+00 -0.00000000000E+00 -0.45593999997E+02  0.45594000000E+02  0.51100000000E-03 0.  1.
    9900012    2    1    2    0    0  0.12989064890E+02  0.18014178786E+02 -0.22880024757E+02  0.59301921894E+02  0.49999959634E+02 0.  0.
         12    1    1    2    0    0 -0.12989064890E+02 -0.18014178786E+02  0.22880024757E+02  0.31886078106E+02  0.00000000000E+00 0. -1.
         11    1    3    3    0    0  0.11671228990E+01  0.79897606770E+01  0.21861825193E+01  0.83652761942E+01  0.51100000000E-03 0. -1.
        -11    1    3    3    0    0  0.36851189799E+01 -0.11038589362E+02  0.55510427984E+01  0.12893588849E+02  0.51100000000E-03 0.  1.
        -12    1    3    3    0    0  0.81368230114E+01  0.21063007471E+02 -0.30617250075E+02  0.38043056851E+02  0.00000000000E+00 0.  1.
</event>
<event>
 7    1  0.5837204E-012  0.5930194E+02  0.7816164E-02  0.1266605E+00
        -11   -1    0    0    0    0  0.00000000000E+00  0.00000000000E+00  0.45593999997E+02  0.45594000000E+02  0.51100000000E-03 0.  1.
         11   -1    0    0    0    0 -0.00000000000E+00 -0.00000000000E+00 -0.45593999997E+02  0.45594000000E+02  0.51100000000E-03 0. -1.
    9900012    2    1    2    0    0  0.11852603917E+02 -0.29045593425E+02  0.57087887731E+01  0.59301937429E+02  0.49999987965E+02 0.  0.
         12    1    1    2    0    0 -0.11852603917E+02  0.29045593425E+02 -0.57087887731E+01  0.31886062571E+02  0.00000000000E+00 0. -1.
         11    1    3    3    0    0 -0.31686264783E+01  0.39597870871E+01 -0.47645891616E+01  0.69585499692E+01  0.51100000000E-03 0. -1.
        -11    1    3    3    0    0  0.39270933903E+01 -0.33808451861E+02 -0.38005042058E+01  0.34247296422E+02  0.51100000000E-03 0.  1.
         12    1    3    3    0    0  0.11094137005E+02  0.80307134818E+00  0.14273882140E+02  0.18096091038E+02  0.00000000000E+00 0. -1.
</event>
<event>
 7    1  0.5837204E-012  0.5930193E+02  0.7816164E-02  0.1266605E+00
        -11   -1    0    0    0    0  0.00000000000E+00  0.00000000000E+00  0.45593999997E+02  0.45594000000E+02  0.51100000000E-03 0.  1.
         11   -1    0    0    0    0 -0.00000000000E+00 -0.00000000000E+00 -0.45593999997E+02  0.45594000000E+02  0.51100000000E-03 0. -1.
    9900012    2    1    2    0    0 -0.19882808085E+02 -0.20688678398E+02  0.13905903904E+02  0.59301927263E+02  0.49999969425E+02 0.  0.
         12    1    1    2    0    0  0.19882808085E+02  0.20688678398E+02 -0.13905903904E+02  0.31886072737E+02  0.00000000000E+00 0. -1.
         11    1    3    3    0    0  0.20606615506E+01 -0.54969706535E+01 -0.10972175133E+02  0.12443939883E+02  0.51100000000E-03 0. -1.
        -11    1    3    3    0    0 -0.23694556953E+02 -0.11666817197E+01  0.84420787781E+01  0.25180585176E+02  0.51100000000E-03 0.  1.
        -12    1    3    3    0    0  0.17510873175E+01 -0.14025026025E+02  0.16436000259E+02  0.21677402204E+02  0.00000000000E+00 0.  1.
</event>
<event>
 7    1  0.5837204E-012  0.5930196E+02  0.7816164E-02  0.1266605E+00
        -11   -1    0    0    0    0  0.00000000000E+00  0.00000000000E+00  0.45593999997E+02  0.45594000000E+02  0.51100000000E-03 0.  1.
         11   -1    0    0    0    0 -0.00000000000E+00 -0.00000000000E+00 -0.45593999997E+02  0.45594000000E+02  0.51100000000E-03 0. -1.
    9900012    2    1    2    0    0 -0.80566823706E+01  0.27326471137E+02  0.14320393208E+02  0.59301955761E+02  0.50000021399E+02 0.  0.
         12    1    1    2    0    0  0.80566823706E+01 -0.27326471137E+02 -0.14320393208E+02  0.31886044239E+02  0.00000000000E+00 0. -1.
         11    1    3    3    0    0  0.99439886701E+01  0.19968764893E+01 -0.42213603359E+01  0.10985914151E+02  0.51100000000E-03 0. -1.
        -11    1    3    3    0    0  0.76964571008E+01  0.13021890764E+02  0.17083832088E+01  0.15222472349E+02  0.51100000000E-03 0.  1.
        -12    1    3    3    0    0 -0.25697128142E+02  0.12307703884E+02  0.16833370335E+02  0.33093569261E+02  0.00000000000E+00 0.  1.
</event>
<event>
 7    1  0.5837204E-012  0.5930194E+02  0.7816164E-02  0.1266605E+00
        -11   -1    0    0    0    0  0.00000000000E+00  0.00000000000E+00  0.45593999997E+02  0.45594000000E+02  0.51100000000E-03 0.  1.
         11   -1    0    0    0    0 -0.00000000000E+00 -0.00000000000E+00 -0.45593999997E+02  0.45594000000E+02  0.51100000000E-03 0. -1.
    9900012    2    1    2    0    0 -0.14105213039E+02  0.20738594307E+02  0.19689452878E+02  0.59301939043E+02  0.49999990909E+02 0.  0.
         12    1    1    2    0    0  0.14105213039E+02 -0.20738594307E+02 -0.19689452878E+02  0.31886060957E+02  0.00000000000E+00 0. -1.
         11    1    3    3    0    0  0.22848189241E+00 -0.43806060492E+01  0.13046741800E+01  0.45764711635E+01  0.51100000000E-03 0. -1.
        -11    1    3    3    0    0  0.10254891967E+02  0.19349932174E+02  0.19670295375E+02  0.29436426495E+02  0.51100000000E-03 0.  1.
        -12    1    3    3    0    0 -0.24588586898E+02  0.57692681817E+01 -0.12855166776E+01  0.25289041384E+02  0.00000000000E+00 0.  1.
</event>
<event>
 7    1  0.5837204E-012  0.5930194E+02  0.7816164E-02  0.1266605E+00
        -11   -1    0    0    0    0  0.00000000000E+00  0.00000000000E+00  0.45593999997E+02  0.45594000000E+02  0.51100000000E-03 0.  1.
         11   -1    0    0    0    0 -0.00000000000E+00 -0.00000000000E+00 -0.45593999997E+02  0.45594000000E+02  0.51100000000E-03 0. -1.
    9900012    2    1    2    0    0  0.40287122540E+01 -0.23536419142E+02  0.21131191869E+02  0.59301940064E+02  0.49999992770E+02 0.  0.
         12    1    1    2    0    0 -0.40287122540E+01  0.23536419142E+02 -0.21131191869E+02  0.31886059936E+02  0.00000000000E+00 0. -1.
         11    1    3    3    0    0  0.27303717616E+00 -0.36322058825E+01  0.11262988468E+02  0.11837329867E+02  0.51100000000E-03 0. -1.
        -11    1    3    3    0    0  0.83494370810E+01 -0.45857986421E+01  0.24189165385E+02  0.25997276224E+02  0.51100000000E-03 0.  1.
         12    1    3    3    0    0 -0.45937620032E+01 -0.15318414618E+02 -0.14320961985E+02  0.21467333973E+02  0.00000000000E+00 0. -1.
</event>
<event>
 7    1  0.5837204E-012  0.5930196E+02  0.7816164E-02  0.1266605E+00
        -11   -1    0    0    0    0  0.00000000000E+00  0.00000000000E+00  0.45593999997E+02  0.45594000000E+02  0.51100000000E-03 0.  1.
         11   -1    0    0    0    0 -0.00000000000E+00 -0.00000000000E+00 -0.45593999997E+02  0.45594000000E+02  0.51100000000E-03 0. -1.
    9900012    2    1    2    0    0  0.65304007001E+01  0.10903128634E+02  0.29243719499E+02  0.59301961089E+02  0.50000031116E+02 0.  0.
         12    1    1    2    0    0 -0.65304007001E+01 -0.10903128634E+02 -0.29243719499E+02  0.31886038911E+02  0.00000000000E+00 0. -1.
         11    1    3    3    0    0 -0.19803527406E+01  0.47027411418E+01 -0.11566690680E+02  0.12642227050E+02  0.51100000000E-03 0. -1.
        -11    1    3    3    0    0  0.36070620058E+01  0.54575193060E+01  0.10913591409E+01  0.66322302678E+01  0.51100000000E-03 0.  1.
        -12    1    3    3    0    0  0.49036914348E+01  0.74286818604E+00  0.39719051038E+02  0.40027503772E+02  0.00000000000E+00 0.  1.
</event>
<event>
 7    1  0.5837204E-012  0.5930193E+02  0.7816164E-02  0.1266605E+00
        -11   -1    0    0    0    0  0.00000000000E+00  0.00000000000E+00  0.45593999997E+02  0.45594000000E+02  0.51100000000E-03 0. -1.
         11   -1    0    0    0    0 -0.00000000000E+00 -0.00000000000E+00 -0.45593999997E+02  0.45594000000E+02  0.51100000000E-03 0.  1.
    9900012    2    1    2    0    0  0.27061973305E+01  0.24386379381E+02 -0.20364250178E+02  0.59301926416E+02  0.49999967880E+02 0.  0.
         12    1    1    2    0    0 -0.27061973305E+01 -0.24386379381E+02  0.20364250178E+02  0.31886073584E+02  0.00000000000E+00 0. -1.
         11    1    3    3    0    0 -0.12133643868E+02  0.20138312183E+02  0.51796739757E+01  0.24075006829E+02  0.51100000000E-03 0. -1.
        -11    1    3    3    0    0 -0.19366059737E+01  0.64665438485E+01 -0.11036026799E+02  0.12936789394E+02  0.51100000000E-03 0.  1.
         12    1    3    3    0    0  0.16776447172E+02 -0.22184766503E+01 -0.14507897355E+02  0.22290130193E+02  0.00000000000E+00 0. -1.
</event>
<event>
 7    1  0.5837204E-012  0.5930194E+02  0.7816164E-02  0.1266605E+00
        -11   -1    0    0    0    0  0.00000000000E+00  0.00000000000E+00  0.45593999997E+02  0.45594000000E+02  0.51100000000E-03 0.  1.
         11   -1    0    0    0    0 -0.00000000000E+00 -0.00000000000E+00 -0.45593999997E+02  0.45594000000E+02  0.51100000000E-03 0. -1.
    9900012    2    1    2    0    0 -0.12033836008E+02 -0.27706504126E+02 -0.10210638267E+02  0.59301941702E+02  0.49999995759E+02 0.  0.
         12    1    1    2    0    0  0.12033836008E+02  0.27706504126E+02  0.10210638267E+02  0.31886058298E+02  0.00000000000E+00 0. -1.
         11    1    3    3    0    0 -0.18866020082E+02 -0.17289506347E+02 -0.20394727599E+02  0.32723060028E+02  0.51100000000E-03 0. -1.
        -11    1    3    3    0    0  0.38331169411E+01 -0.12272454700E+02 -0.27710072003E+01  0.13152353821E+02  0.51100000000E-03 0.  1.
         12    1    3    3    0    0  0.29990671330E+01  0.18554569216E+01  0.12955096532E+02  0.13426527854E+02  0.00000000000E+00 0. -1.
</event>
<event>
 7    1  0.5837204E-012  0.5930184E+02  0.7816164E-02  0.1266605E+00
        -11   -1    0    0    0    0  0.00000000000E+00  0.00000000000E+00  0.45593999997E+02  0.45594000000E+02  0.51100000000E-03 0.  1.
         11   -1    0    0    0    0 -0.00000000000E+00 -0.00000000000E+00 -0.45593999997E+02  0.45594000000E+02  0.51100000000E-03 0. -1.
    9900012    2    1    2    0    0 -0.58229529187E+01 -0.78372193890E+01  0.30354540236E+02  0.59301844676E+02  0.49999818805E+02 0.  0.
         12    1    1    2    0    0  0.58229529187E+01  0.78372193890E+01 -0.30354540236E+02  0.31886155324E+02  0.00000000000E+00 0. -1.
         11    1    3    3    0    0 -0.10128318448E+02  0.57483518825E+01 -0.21364387521E+01  0.11840217682E+02  0.51100000000E-03 0. -1.
        -11    1    3    3    0    0 -0.88573535877E+01 -0.57785604312E+01 -0.10168240527E+01  0.10624424909E+02  0.51100000000E-03 0.  1.
         12    1    3    3    0    0  0.13162719117E+02 -0.78070108403E+01  0.33507803041E+02  0.36837202085E+02  0.00000000000E+00 0. -1.
</event>
<event>
 7    1  0.5837204E-012  0.5930194E+02  0.7816164E-02  0.1266605E+00
        -11   -1    0    0    0    0  0.00000000000E+00  0.00000000000E+00  0.45593999997E+02  0.45594000000E+02  0.51100000000E-03 0.  1.
         11   -1    0    0    0    0 -0.00000000000E+00 -0.00000000000E+00 -0.45593999997E+02  0.45594000000E+02  0.51100000000E-03 0. -1.
    9900012    2    1    2    0    0  0.31307809480E+02 -0.44877093489E+01 -0.40499666889E+01  0.59301941921E+02  0.49999996157E+02 0.  0.
         12    1    1    2    0    0 -0.31307809480E+02  0.44877093489E+01  0.40499666889E+01  0.31886058079E+02  0.00000000000E+00 0. -1.
         11    1    3    3    0    0  0.62532318798E+01  0.84663291722E+01 -0.92750798437E+01  0.14028854015E+02  0.51100000000E-03 0. -1.
        -11    1    3    3    0    0  0.21614592230E+02 -0.13233616974E+01 -0.11573320227E+02  0.24553688619E+02  0.51100000000E-03 0.  1.
        -12    1    3    3    0    0  0.34399853706E+01 -0.11630676824E+02  0.16798433382E+02  0.20719399287E+02  0.00000000000E+00 0.  1.
</event>
<event>
 7    1  0.5837204E-012  0.5930190E+02  0.7816164E-02  0.1266605E+00
        -11   -1    0    0    0    0  0.00000000000E+00  0.00000000000E+00  0.45593999997E+02  0.45594000000E+02  0.51100000000E-03 0.  1.
         11   -1    0    0    0    0 -0.00000000000E+00 -0.00000000000E+00 -0.45593999997E+02  0.45594000000E+02  0.51100000000E-03 0. -1.
    9900012    2    1    2    0    0 -0.62254911462E+01  0.52899692170E+01  0.30821789938E+02  0.59301901943E+02  0.49999923247E+02 0.  0.
         12    1    1    2    0    0  0.62254911462E+01 -0.52899692170E+01 -0.30821789938E+02  0.31886098057E+02  0.00000000000E+00 0. -1.
         11    1    3    3    0    0 -0.14893821272E+02 -0.95252275598E+01  0.65881185795E+01  0.18866880474E+02  0.51100000000E-03 0. -1.
        -11    1    3    3    0    0 -0.65247009974E+01  0.97562965366E+01  0.42803534616E+00  0.11744797135E+02  0.51100000000E-03 0.  1.
        -12    1    3    3    0    0  0.15193031123E+02  0.50589002402E+01  0.23805636012E+02  0.28690224334E+02  0.00000000000E+00 0.  1.
</event>
<event>
 7    1  0.5837204E-012  0.5930196E+02  0.7816164E-02  0.1266605E+00
        -11   -1    0    0    0    0  0.00000000000E+00  0.00000000000E+00  0.45593999997E+02  0.45594000000E+02  0.51100000000E-03 0. -1.
         11   -1    0    0    0    0 -0.00000000000E+00 -0.00000000000E+00 -0.45593999997E+02  0.45594000000E+02  0.51100000000E-03 0.  1.
    9900012    2    1    2    0    0 -0.23336348614E+02 -0.21713568630E+02 -0.80948678340E+00  0.59301960765E+02  0.50000030524E+02 0.  0.
         12    1    1    2    0    0  0.23336348614E+02  0.21713568630E+02  0.80948678340E+00  0.31886039235E+02  0.00000000000E+00 0. -1.
         11    1    3    3    0    0 -0.75779609821E+01 -0.24026915915E+02  0.54680785138E+01  0.25780187430E+02  0.51100000000E-03 0. -1.
        -11    1    3    3    0    0 -0.38793789651E+01 -0.11034578215E+02 -0.98597188655E+01  0.15297893773E+02  0.51100000000E-03 0.  1.
         12    1    3    3    0    0 -0.11879008666E+02  0.13347925500E+02  0.35821535682E+01  0.18223879561E+02  0.00000000000E+00 0. -1.
</event>
<event>
 7    1  0.5837204E-012  0.5930196E+02  0.7816164E-02  0.1266605E+00
        -11   -1    0    0    0    0  0.00000000000E+00  0.00000000000E+00  0.45593999997E+02  0.45594000000E+02  0.51100000000E-03 0. -1.
         11   -1    0    0    0    0 -0.00000000000E+00 -0.00000000000E+00 -0.45593999997E+02  0.45594000000E+02  0.51100000000E-03 0.  1.
    9900012    2    1    2    0    0 -0.24146588983E+02 -0.20750958661E+02  0.17492187013E+01  0.59301955859E+02  0.50000021578E+02 0.  0.
         12    1    1    2    0    0  0.24146588983E+02  0.20750958661E+02 -0.17492187013E+01  0.31886044141E+02  0.00000000000E+00 0. -1.
         11    1    3    3    0    0  0.73286309588E+01  0.46896012823E+01 -0.89935000039E+01  0.12513362238E+02  0.51100000000E-03 0. -1.
        -11    1    3    3    0    0 -0.15193670605E+02  0.37467684301E-01  0.51272085309E+01  0.16035501173E+02  0.51100000000E-03 0.  1.
         12    1    3    3    0    0 -0.16281549337E+02 -0.25478027628E+02  0.56155101744E+01  0.30753092449E+02  0.00000000000E+00 0. -1.
</event>
<event>
 7    1  0.5837204E-012  0.5930192E+02  0.7816164E-02  0.1266605E+00
        -11   -1    0    0    0    0  0.00000000000E+00  0.00000000000E+00  0.45593999997E+02  0.45594000000E+02  0.51100000000E-03 0.  1.
         11   -1    0    0    0    0 -0.00000000000E+00 -0.00000000000E+00 -0.45593999997E+02  0.45594000000E+02  0.51100000000E-03 0. -1.
    9900012    2    1    2    0    0 -0.32630668122E+01 -0.11769826000E+02  0.29454131826E+02  0.59301916975E+02  0.49999950662E+02 0.  0.
         12    1    1    2    0    0  0.32630668122E+01  0.11769826000E+02 -0.29454131826E+02  0.31886083025E+02  0.00000000000E+00 0. -1.
         11    1    3    3    0    0  0.29330319170E+01  0.27722363525E+01  0.19193707423E+01  0.44689993207E+01  0.51100000000E-03 0. -1.
        -11    1    3    3    0    0 -0.23047590344E+01  0.21768533198E+01  0.35688490605E+02  0.35829024080E+02  0.51100000000E-03 0.  1.
         12    1    3    3    0    0 -0.38913396948E+01 -0.16718915672E+02 -0.81537295215E+01  0.19003893574E+02  0.00000000000E+00 0. -1.
</event>
<event>
 7    1  0.5837204E-012  0.5930196E+02  0.7816164E-02  0.1266605E+00
        -11   -1    0    0    0    0  0.00000000000E+00  0.00000000000E+00  0.45593999997E+02  0.45594000000E+02  0.51100000000E-03 0.  1.
         11   -1    0    0    0    0 -0.00000000000E+00 -0.00000000000E+00 -0.45593999997E+02  0.45594000000E+02  0.51100000000E-03 0. -1.
    9900012    2    1    2    0    0 -0.12804222115E+02  0.57947257008E+01  0.28621535910E+02  0.59301964377E+02  0.50000037113E+02 0.  0.
         12    1    1    2    0    0  0.12804222115E+02 -0.57947257008E+01 -0.28621535910E+02  0.31886035623E+02  0.00000000000E+00 0. -1.
         11    1    3    3    0    0  0.10314035007E+02 -0.58795123201E+01  0.48956764488E+01  0.12841948116E+02  0.51100000000E-03 0. -1.
        -11    1    3    3    0    0 -0.15256194966E+02  0.40616075287E+01  0.29960042560E+02  0.33865207677E+02  0.51100000000E-03 0.  1.
         12    1    3    3    0    0 -0.78620621560E+01  0.76126304922E+01 -0.62341830993E+01  0.12594808584E+02  0.00000000000E+00 0. -1.
</event>
<event>
 7    1  0.5837204E-012  0.5930168E+02  0.7816164E-02  0.1266606E+00
        -11   -1    0    0    0    0  0.00000000000E+00  0.00000000000E+00  0.45593999997E+02  0.45594000000E+02  0.51100000000E-03 0. -1.
         11   -1    0    0    0    0 -0.00000000000E+00 -0.00000000000E+00 -0.45593999997E+02  0.45594000000E+02  0.51100000000E-03 0.  1.
    9900012    2    1    2    0    0 -0.17228261237E+00  0.31880352945E+02 -0.59252611778E+00  0.59301675778E+02  0.49999510774E+02 0.  0.
         12    1    1    2    0    0  0.17228261237E+00 -0.31880352945E+02  0.59252611778E+00  0.31886324222E+02  0.00000000000E+00 0. -1.
         11    1    3    3    0    0 -0.18090609229E+00 -0.56170191405E+01  0.62255204786E+01  0.83869384479E+01  0.51100000000E-03 0. -1.
        -11    1    3    3    0    0  0.26140575089E+01  0.28198746921E+02  0.11214506857E+02  0.30459280833E+02  0.51100000000E-03 0.  1.
        -12    1    3    3    0    0 -0.26054340290E+01  0.92986251651E+01 -0.18032553454E+02  0.20455456497E+02  0.00000000000E+00 0.  1.
</event>
<event>
 7    1  0.5837204E-012  0.5930200E+02  0.7816164E-02  0.1266605E+00
        -11   -1    0    0    0    0  0.00000000000E+00  0.00000000000E+00  0.45593999997E+02  0.45594000000E+02  0.51100000000E-03 0.  1.
         11   -1    0    0    0    0 -0.00000000000E+00 -0.00000000000E+00 -0.45593999997E+02  0.45594000000E+02  0.51100000000E-03 0. -1.
    9900012    2    1    2    0    0 -0.30705587503E+02  0.24506693051E+01 -0.82388246347E+01  0.59301998130E+02  0.50000098669E+02 0.  0.
         12    1    1    2    0    0  0.30705587503E+02 -0.24506693051E+01  0.82388246347E+01  0.31886001870E+02  0.00000000000E+00 0. -1.
         11    1    3    3    0    0 -0.13094101000E+02 -0.17138450903E+02 -0.70165890162E+01  0.22680707705E+02  0.51100000000E-03 0. -1.
        -11    1    3    3    0    0 -0.16002395113E+02 -0.37720324006E+00  0.26348869345E+01  0.16222255116E+02  0.51100000000E-03 0.  1.
        -12    1    3    3    0    0 -0.16090913900E+01  0.19966323448E+02 -0.38571225529E+01  0.20399035308E+02  0.00000000000E+00 0.  1.
</event>
<event>
 7    1  0.5837204E-012  0.5930193E+02  0.7816164E-02  0.1266605E+00
        -11   -1    0    0    0    0  0.00000000000E+00  0.00000000000E+00  0.45593999997E+02  0.45594000000E+02  0.51100000000E-03 0.  1.
         11   -1    0    0    0    0 -0.00000000000E+00 -0.00000000000E+00 -0.45593999997E+02  0.45594000000E+02  0.51100000000E-03 0. -1.
    9900012    2    1    2    0    0 -0.10440904904E+02 -0.18254116265E+02  0.23968650127E+02  0.59301930240E+02  0.49999974854E+02 0.  0.
         12    1    1    2    0    0  0.10440904904E+02  0.18254116265E+02 -0.23968650127E+02  0.31886069760E+02  0.00000000000E+00 0. -1.
         11    1    3    3    0    0 -0.73607123298E+01 -0.97380503026E+01 -0.95403984571E+01  0.15492866509E+02  0.51100000000E-03 0. -1.
        -11    1    3    3    0    0 -0.12045866735E+01  0.95941777367E+01  0.14995245543E+02  0.17842552078E+02  0.51100000000E-03 0.  1.
        -12    1    3    3    0    0 -0.18756059011E+01 -0.18110243699E+02  0.18513803041E+02  0.25966511652E+02  0.00000000000E+00 0.  1.
</event>
<event>
 7    1  0.5837204E-012  0.5930194E+02  0.7816164E-02  0.1266605E+00
        -11   -1    0    0    0    0  0.00000000000E+00  0.00000000000E+00  0.45593999997E+02  0.45594000000E+02  0.51100000000E-03 0.  1.
         11   -1    0    0    0    0 -0.00000000000E+00 -0.00000000000E+00 -0.45593999997E+02  0.45594000000E+02  0.51100000000E-03 0. -1.
    9900012    2    1    2    0    0 -0.11497762721E+02  0.70574241792E+01  0.28891439230E+02  0.59301936517E+02  0.49999986303E+02 0.  0.
         12    1    1    2    0    0  0.11497762721E+02 -0.70574241792E+01 -0.28891439230E+02  0.31886063483E+02  0.00000000000E+00 0. -1.
         11    1    3    3    0    0  0.85352910076E-01  0.16456519226E+02  0.18075707725E+02  0.24444948766E+02  0.51100000000E-03 0. -1.
        -11    1    3    3    0    0 -0.10377488866E+02 -0.39903337990E+01  0.20716191244E+02  0.23511180721E+02  0.51100000000E-03 0.  1.
         12    1    3    3    0    0 -0.12056267651E+01 -0.54087612474E+01 -0.99004597386E+01  0.11345807030E+02  0.00000000000E+00 0. -1.
</event>
<event>
 7    1  0.5837204E-012  0.5930195E+02  0.7816164E-02  0.1266605E+00
        -11   -1    0    0    0    0  0.00000000000E+00  0.00000000000E+00  0.45593999997E+02  0.45594000000E+02  0.51100000000E-03 0.  1.
         11   -1    0    0    0    0 -0.00000000000E+00 -0.00000000000E+00 -0.45593999997E+02  0.45594000000E+02  0.51100000000E-03 0. -1.
    9900012    2    1    2    0    0 -0.13767029230E+02 -0.20428496697E+02  0.20245144969E+02  0.59301945588E+02  0.50000002846E+02 0.  0.
         12    1    1    2    0    0  0.13767029230E+02  0.20428496697E+02 -0.20245144969E+02  0.31886054412E+02  0.00000000000E+00 0. -1.
         11    1    3    3    0    0 -0.58106478006E+01  0.39007988806E+01  0.26473185506E+02  0.27382647988E+02  0.51100000000E-03 0. -1.
        -11    1    3    3    0    0 -0.32050064990E+01 -0.73343875929E+01  0.63764190861E+01  0.10233475883E+02  0.51100000000E-03 0.  1.
         12    1    3    3    0    0 -0.47513749305E+01 -0.16994907985E+02 -0.12604459623E+02  0.21685821717E+02  0.00000000000E+00 0. -1.
</event>
<event>
 7    1  0.5837204E-012  0.5930194E+02  0.7816164E-02  0.1266605E+00
        -11   -1    0    0    0    0  0.00000000000E+00  0.00000000000E+00  0.45593999997E+02  0.45594000000E+02  0.51100000000E-03 0.  1.
         11   -1    0    0    0    0 -0.00000000000E+00 -0.00000000000E+00 -0.45593999997E+02  0.45594000000E+02  0.51100000000E-03 0. -1.
    9900012    2    1    2    0    0 -0.23707535895E+02 -0.19567561483E+02  0.84725565534E+01  0.59301938230E+02  0.49999989427E+02 0.  0.
         12    1    1    2    0    0  0.23707535895E+02  0.19567561483E+02 -0.84725565534E+01  0.31886061770E+02  0.00000000000E+00 0. -1.
         11    1    3    3    0    0 -0.29864463639E+02 -0.19073724135E+02  0.23925250216E+01  0.35516437280E+02  0.51100000000E-03 0. -1.
        -11    1    3    3    0    0 -0.68442822578E+01  0.32298190706E+01 -0.22580272218E+01  0.78977603185E+01  0.51100000000E-03 0.  1.
        -12    1    3    3    0    0  0.13001210001E+02 -0.37236564190E+01  0.83380587536E+01  0.15887740632E+02  0.00000000000E+00 0.  1.
</event>
<event>
 7    1  0.5837204E-012  0.5930205E+02  0.7816164E-02  0.1266604E+00
        -11   -1    0    0    0    0  0.00000000000E+00  0.00000000000E+00  0.45593999997E+02  0.45594000000E+02  0.51100000000E-03 0. -1.
         11   -1    0    0    0    0 -0.00000000000E+00 -0.00000000000E+00 -0.45593999997E+02  0.45594000000E+02  0.51100000000E-03 0.  1.
    9900012    2    1    2    0    0 -0.23649136105E+02  0.47583103570E+01 -0.20851628199E+02  0.59302053966E+02  0.50000200501E+02 0.  0.
         12    1    1    2    0    0  0.23649136105E+02 -0.47583103570E+01  0.20851628199E+02  0.31885946034E+02  0.00000000000E+00 0. -1.
         11    1    3    3    0    0 -0.15466163468E+02  0.24161210179E+02 -0.76211884446E+01  0.29682466260E+02  0.51100000000E-03 0. -1.
        -11    1    3    3    0    0 -0.12145403972E+02 -0.97324824171E+01 -0.50981043400E+01  0.16377506519E+02  0.51100000000E-03 0.  1.
        -12    1    3    3    0    0  0.39624313356E+01 -0.96704174050E+01 -0.81323354140E+01  0.13242081187E+02  0.00000000000E+00 0.  1.
</event>
<event>
 7    1  0.5837204E-012  0.5930196E+02  0.7816164E-02  0.1266605E+00
        -11   -1    0    0    0    0  0.00000000000E+00  0.00000000000E+00  0.45593999997E+02  0.45594000000E+02  0.51100000000E-03 0. -1.
         11   -1    0    0    0    0 -0.00000000000E+00 -0.00000000000E+00 -0.45593999997E+02  0.45594000000E+02  0.51100000000E-03 0.  1.
    9900012    2    1    2    0    0  0.64243780665E+01 -0.29973568925E+02  0.87767948124E+01  0.59301959249E+02  0.50000027759E+02 0.  0.
         12    1    1    2    0    0 -0.64243780665E+01  0.29973568925E+02 -0.87767948124E+01  0.31886040751E+02  0.00000000000E+00 0. -1.
         11    1    3    3    0    0 -0.19714814433E+00  0.21717790862E+01  0.15728292792E+02  0.15878749516E+02  0.51100000000E-03 0. -1.
        -11    1    3    3    0    0 -0.61774447415E+01 -0.24347977867E+02  0.31989191949E+01  0.25322281375E+02  0.51100000000E-03 0.  1.
        -12    1    3    3    0    0  0.12798970952E+02 -0.77973701440E+01 -0.10150417174E+02  0.18100928358E+02  0.00000000000E+00 0.  1.
</event>
<event>
 7    1  0.5837204E-012  0.5930200E+02  0.7816164E-02  0.1266605E+00
        -11   -1    0    0    0    0  0.00000000000E+00  0.00000000000E+00  0.45593999997E+02  0.45594000000E+02  0.51100000000E-03 0.  1.
         11   -1    0    0    0    0 -0.00000000000E+00 -0.00000000000E+00 -0.45593999997E+02  0.45594000000E+02  0.51100000000E-03 0. -1.
    9900012    2    1    2    0    0 -0.16263724494E+02 -0.27260785144E+01  0.27290604116E+02  0.59301995052E+02  0.50000093057E+02 0.  0.
         12    1    1    2    0    0  0.16263724494E+02  0.27260785144E+01 -0.27290604116E+02  0.31886004948E+02  0.00000000000E+00 0. -1.
         11    1    3    3    0    0 -0.18191489209E+02 -0.12669662061E+02  0.26531713602E+01  0.22326888160E+02  0.51100000000E-03 0. -1.
        -11    1    3    3    0    0  0.78216350926E+01 -0.10618887740E+01 -0.14766038556E+01  0.80303139726E+01  0.51100000000E-03 0.  1.
        -12    1    3    3    0    0 -0.58938703782E+01  0.11005472321E+02  0.26114036612E+02  0.28944792920E+02  0.00000000000E+00 0.  1.
</event>
<event>
 7    1  0.5837204E-012  0.5930194E+02  0.7816164E-02  0.1266605E+00
        -11   -1    0    0    0    0  0.00000000000E+00  0.00000000000E+00  0.45593999997E+02  0.45594000000E+02  0.51100000000E-03 0. -1.
         11   -1    0    0    0    0 -0.00000000000E+00 -0.00000000000E+00 -0.45593999997E+02  0.45594000000E+02  0.51100000000E-03 0.  1.
    9900012    2    1    2    0    0 -0.20894826767E+02  0.91012402121E+01 -0.22300100788E+02  0.59301939500E+02  0.49999991743E+02 0.  0.
         12    1    1    2    0    0  0.20894826767E+02 -0.91012402121E+01  0.22300100788E+02  0.31886060500E+02  0.00000000000E+00 0. -1.
         11    1    3    3    0    0 -0.93635933725E+01 -0.96815838716E+01 -0.26905602653E+01  0.13734957660E+02  0.51100000000E-03 0. -1.
        -11    1    3    3    0    0 -0.19597451015E+02  0.24337990653E+02 -0.13620422034E+02  0.34086856293E+02  0.51100000000E-03 0.  1.
         12    1    3    3    0    0  0.80662176208E+01 -0.55551665690E+01 -0.59891184890E+01  0.11480125548E+02  0.00000000000E+00 0. -1.
</event>
<event>
 7    1  0.5837204E-012  0.5930194E+02  0.7816164E-02  0.1266605E+00
        -11   -1    0    0    0    0  0.00000000000E+00  0.00000000000E+00  0.45593999997E+02  0.45594000000E+02  0.51100000000E-03 0.  1.
         11   -1    0    0    0    0 -0.00000000000E+00 -0.00000000000E+00 -0.45593999997E+02  0.45594000000E+02  0.51100000000E-03 0. -1.
    9900012    2    1    2    0    0 -0.24392130072E+02 -0.17840721571E+02  0.10171213300E+02  0.59301938224E+02  0.49999989415E+02 0.  0.
         12    1    1    2    0    0  0.24392130072E+02  0.17840721571E+02 -0.10171213300E+02  0.31886061776E+02  0.00000000000E+00 0. -1.
         11    1    3    3    0    0  0.24305871487E+01 -0.58520090060E+01 -0.72226180827E+01  0.96083284459E+01  0.51100000000E-03 0. -1.
        -11    1    3    3    0    0 -0.26499788439E+02 -0.17496972544E+02  0.32671010349E+00  0.31756724882E+02  0.51100000000E-03 0.  1.
         12    1    3    3    0    0 -0.32292878208E+00  0.55082599791E+01  0.17067121279E+02  0.17936884895E+02  0.00000000000E+00 0. -1.
</event>
<event>
 7    1  0.5837204E-012  0.5930194E+02  0.7816164E-02  0.1266605E+00
        -11   -1    0    0    0    0  0.00000000000E+00  0.00000000000E+00  0.45593999997E+02  0.45594000000E+02  0.51100000000E-03 0. -1.
         11   -1    0    0    0    0 -0.00000000000E+00 -0.00000000000E+00 -0.45593999997E+02  0.45594000000E+02  0.51100000000E-03 0.  1.
    9900012    2    1    2    0    0  0.89380275755E+01  0.30549084251E+02 -0.18936010019E+01  0.59301943325E+02  0.49999998719E+02 0.  0.
         12    1    1    2    0    0 -0.89380275755E+01 -0.30549084251E+02  0.18936010019E+01  0.31886056675E+02  0.00000000000E+00 0. -1.
         11    1    3    3    0    0  0.90977442664E+01  0.12780305586E+02  0.12637408605E+02  0.20144707943E+02  0.51100000000E-03 0. -1.
        -11    1    3    3    0    0  0.13536951076E+02  0.15819168578E+01 -0.32258850470E+00  0.13632885570E+02  0.51100000000E-03 0.  1.
         12    1    3    3    0    0 -0.13696667767E+02  0.16186861807E+02 -0.14208421102E+02  0.25524349812E+02  0.00000000000E+00 0. -1.
</event>
<event>
 7    1  0.7813320E-012  0.5930200E+02  0.7816164E-02  0.1266605E+00
        -11   -1    0    0    0    0  0.00000000000E+00  0.00000000000E+00  0.45593999997E+02  0.45594000000E+02  0.51100000000E-03 0.  1.
         11   -1    0    0    0    0 -0.00000000000E+00 -0.00000000000E+00 -0.45593999997E+02  0.45594000000E+02  0.51100000000E-03 0. -1.
    9900012    2    1    2    0    0  0.31346458761E+02 -0.53106071727E+01  0.24318063831E+01  0.59302004521E+02  0.50000110324E+02 0.  0.
         12    1    1    2    0    0 -0.31346458761E+02  0.53106071727E+01 -0.24318063831E+01  0.31885995479E+02  0.00000000000E+00 0. -1.
         11    1    3    3    0    0 -0.91947100811E+00  0.55127393124E+01 -0.96188090101E+01  0.11124621733E+02  0.51100000000E-03 0. -1.
        -11    1    3    3    0    0  0.20097830041E+02  0.99318827094E+01  0.37677226194E+01  0.22732373403E+02  0.51100000000E-03 0.  1.
        -12    1    3    3    0    0  0.12168099728E+02 -0.20755229195E+02  0.82828927738E+01  0.25445009385E+02  0.00000000000E+00 0.  1.
</event>
<event>
 7    1  0.5837204E-012  0.5930194E+02  0.7816164E-02  0.1266605E+00
        -11   -1    0    0    0    0  0.00000000000E+00  0.00000000000E+00  0.45593999997E+02  0.45594000000E+02  0.51100000000E-03 0. -1.
         11   -1    0    0    0    0 -0.00000000000E+00 -0.00000000000E+00 -0.45593999997E+02  0.45594000000E+02  0.51100000000E-03 0.  1.
    9900012    2    1    2    0    0 -0.25319012702E+02 -0.73073546689E+01 -0.17951900985E+02  0.59301943714E+02  0.49999999428E+02 0.  0.
         12    1    1    2    0    0  0.25319012702E+02  0.73073546689E+01  0.17951900985E+02  0.31886056286E+02  0.00000000000E+00 0. -1.
         11    1    3    3    0    0  0.46570006303E+01  0.25529918064E+01 -0.16360172068E+02  0.17200600349E+02  0.51100000000E-03 0.  1.
        -11    1    3    3    0    0 -0.48960228790E+01  0.73982423198E+01  0.60181443383E+01  0.10720218794E+02  0.51100000000E-03 0. -1.
         12    1    3    3    0    0 -0.25079990454E+02 -0.17258588795E+02 -0.76098732557E+01  0.31381124571E+02  0.00000000000E+00 0. -1.
</event>
<event>
 7    1  0.5837204E-012  0.5930188E+02  0.7816164E-02  0.1266605E+00
        -11   -1    0    0    0    0  0.00000000000E+00  0.00000000000E+00  0.45593999997E+02  0.45594000000E+02  0.51100000000E-03 0.  1.
         11   -1    0    0    0    0 -0.00000000000E+00 -0.00000000000E+00 -0.45593999997E+02  0.45594000000E+02  0.51100000000E-03 0. -1.
    9900012    2    1    2    0    0 -0.95037025598E+01 -0.26990034756E+02 -0.14069200496E+02  0.59301878551E+02  0.49999880586E+02 0.  0.
         12    1    1    2    0    0  0.95037025598E+01  0.26990034756E+02  0.14069200496E+02  0.31886121449E+02  0.00000000000E+00 0. -1.
         11    1    3    3    0    0 -0.55378405295E+01  0.38190260490E+01 -0.45204343889E+01  0.81047495346E+01  0.51100000000E-03 0. -1.
        -11    1    3    3    0    0  0.87811976054E+01 -0.19542897659E+02 -0.21542001498E+02  0.30382430928E+02  0.51100000000E-03 0.  1.
        -12    1    3    3    0    0 -0.12747059636E+02 -0.11266163145E+02  0.11993235391E+02  0.20814698089E+02  0.00000000000E+00 0.  1.
</event>
<event>
 7    1  0.5837204E-012  0.5930198E+02  0.7816164E-02  0.1266605E+00
        -11   -1    0    0    0    0  0.00000000000E+00  0.00000000000E+00  0.45593999997E+02  0.45594000000E+02  0.51100000000E-03 0. -1.
         11   -1    0    0    0    0 -0.00000000000E+00 -0.00000000000E+00 -0.45593999997E+02  0.45594000000E+02  0.51100000000E-03 0.  1.
    9900012    2    1    2    0    0 -0.30077807878E+01 -0.16764873807E+01 -0.31699546080E+02  0.59301975210E+02  0.50000056869E+02 0.  0.
         12    1    1    2    0    0  0.30077807878E+01  0.16764873807E+01  0.31699546080E+02  0.31886024790E+02  0.00000000000E+00 0. -1.
         11    1    3    3    0    0  0.62411372447E-02 -0.16809254951E+02 -0.14146821297E+01  0.16868681535E+02  0.51100000000E-03 0. -1.
        -11    1    3    3    0    0  0.47717829283E+01  0.19396741370E+01  0.28799392145E+01  0.59013810428E+01  0.51100000000E-03 0.  1.
        -12    1    3    3    0    0 -0.77858048533E+01  0.13193093433E+02 -0.33164803165E+02  0.36531912632E+02  0.00000000000E+00 0.  1.
</event>
<event>
 7    1  0.5837204E-012  0.5930194E+02  0.7816164E-02  0.1266605E+00
        -11   -1    0    0    0    0  0.00000000000E+00  0.00000000000E+00  0.45593999997E+02  0.45594000000E+02  0.51100000000E-03 0.  1.
         11   -1    0    0    0    0 -0.00000000000E+00 -0.00000000000E+00 -0.45593999997E+02  0.45594000000E+02  0.51100000000E-03 0. -1.
    9900012    2    1    2    0    0 -0.74509915164E+01 -0.14874503181E+02  0.27202076027E+02  0.59301936279E+02  0.49999985868E+02 0.  0.
         12    1    1    2    0    0  0.74509915164E+01  0.14874503181E+02 -0.27202076027E+02  0.31886063721E+02  0.00000000000E+00 0. -1.
         11    1    3    3    0    0 -0.16018294157E+02 -0.16384068965E+02 -0.24367619119E+01  0.23042596911E+02  0.51100000000E-03 0. -1.
        -11    1    3    3    0    0 -0.42745450477E+01  0.23874120924E+01  0.11967923802E+01  0.50402166745E+01  0.51100000000E-03 0.  1.
         12    1    3    3    0    0  0.12841847688E+02 -0.87784630859E+00  0.28442045558E+02  0.31219122693E+02  0.00000000000E+00 0. -1.
</event>
<event>
 7    1  0.5837204E-012  0.5930188E+02  0.7816164E-02  0.1266605E+00
        -11   -1    0    0    0    0  0.00000000000E+00  0.00000000000E+00  0.45593999997E+02  0.45594000000E+02  0.51100000000E-03 0. -1.
         11   -1    0    0    0    0 -0.00000000000E+00 -0.00000000000E+00 -0.45593999997E+02  0.45594000000E+02  0.51100000000E-03 0.  1.
    9900012    2    1    2    0    0 -0.26302244349E+02  0.17853309952E+02 -0.24850987089E+01  0.59301883121E+02  0.49999888921E+02 0.  0.
         12    1    1    2    0    0  0.26302244349E+02 -0.17853309952E+02  0.24850987089E+01  0.31886116879E+02  0.00000000000E+00 0. -1.
         11    1    3    3    0    0 -0.87124810946E+01 -0.37228227214E+01  0.85713897343E+01  0.12776363257E+02  0.51100000000E-03 0. -1.
        -11    1    3    3    0    0  0.17984397807E+01 -0.59361017923E+01 -0.11273726437E+02  0.12867346198E+02  0.51100000000E-03 0.  1.
        -12    1    3    3    0    0 -0.19388203035E+02  0.27512234466E+02  0.21723799385E+00  0.33658173666E+02  0.00000000000E+00 0.  1.
</event>
<event>
 7    1  0.5837204E-012  0.5930192E+02  0.7816164E-02  0.1266605E+00
        -11   -1    0    0    0    0  0.00000000000E+00  0.00000000000E+00  0.45593999997E+02  0.45594000000E+02  0.51100000000E-03 0. -1.
         11   -1    0    0    0    0 -0.00000000000E+00 -0.00000000000E+00 -0.45593999997E+02  0.45594000000E+02  0.51100000000E-03 0.  1.
    9900012    2    1    2    0    0  0.30189001169E+02 -0.10078763513E+02  0.19402723652E+01  0.59301922750E+02  0.49999961195E+02 0.  0.
         12    1    1    2    0    0 -0.30189001169E+02  0.10078763513E+02 -0.19402723652E+01  0.31886077250E+02  0.00000000000E+00 0. -1.
         11    1    3    3    0    0 -0.65413577864E+01  0.12573492754E+01 -0.24722899372E+01  0.71051042698E+01  0.51100000000E-03 0. -1.
        -11    1    3    3    0    0 -0.23649545788E+01 -0.11098996366E+02 -0.43108929713E+01  0.12139379266E+02  0.51100000000E-03 0.  1.
         12    1    3    3    0    0  0.39095313534E+02 -0.23711642275E+00  0.87234552738E+01  0.40057439214E+02  0.00000000000E+00 0. -1.
</event>
<event>
 7    1  0.5837204E-012  0.5930200E+02  0.7816164E-02  0.1266605E+00
        -11   -1    0    0    0    0  0.00000000000E+00  0.00000000000E+00  0.45593999997E+02  0.45594000000E+02  0.51100000000E-03 0. -1.
         11   -1    0    0    0    0 -0.00000000000E+00 -0.00000000000E+00 -0.45593999997E+02  0.45594000000E+02  0.51100000000E-03 0.  1.
    9900012    2    1    2    0    0 -0.98491266039E+01  0.82738552118E+01 -0.29176272881E+02  0.59302001911E+02  0.50000105565E+02 0.  0.
         12    1    1    2    0    0  0.98491266039E+01 -0.82738552118E+01  0.29176272881E+02  0.31885998089E+02  0.00000000000E+00 0. -1.
         11    1    3    3    0    0 -0.81700767070E+01 -0.51452140691E+01 -0.15250930415E+02  0.18050325759E+02  0.51100000000E-03 0. -1.
        -11    1    3    3    0    0 -0.16609066551E+02  0.33392799334E+01 -0.15767554583E+02  0.23143631088E+02  0.51100000000E-03 0.  1.
        -12    1    3    3    0    0  0.14930016654E+02  0.10079789348E+02  0.18422121167E+01  0.18108045064E+02  0.00000000000E+00 0.  1.
</event>
<event>
 7    1  0.5837204E-012  0.5930194E+02  0.7816164E-02  0.1266605E+00
        -11   -1    0    0    0    0  0.00000000000E+00  0.00000000000E+00  0.45593999997E+02  0.45594000000E+02  0.51100000000E-03 0. -1.
         11   -1    0    0    0    0 -0.00000000000E+00 -0.00000000000E+00 -0.45593999997E+02  0.45594000000E+02  0.51100000000E-03 0.  1.
    9900012    2    1    2    0    0 -0.79290333302E+00 -0.18911652139E+02 -0.25660112455E+02  0.59301942647E+02  0.49999997482E+02 0.  0.
         12    1    1    2    0    0  0.79290333302E+00  0.18911652139E+02  0.25660112455E+02  0.31886057353E+02  0.00000000000E+00 0. -1.
         11    1    3    3    0    0 -0.12964649998E+02  0.14016335636E+01 -0.23658886960E+02  0.27014619351E+02  0.51100000000E-03 0. -1.
        -11    1    3    3    0    0 -0.54965571584E+01 -0.29294865793E+01  0.31371315303E+01  0.69739247711E+01  0.51100000000E-03 0.  1.
        -12    1    3    3    0    0  0.17668303824E+02 -0.17383799124E+02 -0.51383570253E+01  0.25313398525E+02  0.00000000000E+00 0.  1.
</event>
<event>
 7    1  0.5837204E-012  0.5930201E+02  0.7816164E-02  0.1266605E+00
        -11   -1    0    0    0    0  0.00000000000E+00  0.00000000000E+00  0.45593999997E+02  0.45594000000E+02  0.51100000000E-03 0.  1.
         11   -1    0    0    0    0 -0.00000000000E+00 -0.00000000000E+00 -0.45593999997E+02  0.45594000000E+02  0.51100000000E-03 0. -1.
    9900012    2    1    2    0    0  0.25278578866E+01 -0.20409862152E+02  0.24367274237E+02  0.59302006331E+02  0.50000113626E+02 0.  0.
         12    1    1    2    0    0 -0.25278578866E+01  0.20409862152E+02 -0.24367274237E+02  0.31885993669E+02  0.00000000000E+00 0. -1.
         11    1    3    3    0    0  0.94515829860E+01 -0.13682002381E+02 -0.82865862334E+01  0.18579481203E+02  0.51100000000E-03 0. -1.
        -11    1    3    3    0    0 -0.39654440874E+01 -0.10382459657E+02  0.41972927532E+01  0.11880129715E+02  0.51100000000E-03 0.  1.
        -12    1    3    3    0    0 -0.29582810121E+01  0.36545998867E+01  0.28456567717E+02  0.28842395412E+02  0.00000000000E+00 0.  1.
</event>
<event>
 7    1  0.5837204E-012  0.5930196E+02  0.7816164E-02  0.1266605E+00
        -11   -1    0    0    0    0  0.00000000000E+00  0.00000000000E+00  0.45593999997E+02  0.45594000000E+02  0.51100000000E-03 0.  1.
         11   -1    0    0    0    0 -0.00000000000E+00 -0.00000000000E+00 -0.45593999997E+02  0.45594000000E+02  0.51100000000E-03 0. -1.
    9900012    2    1    2    0    0 -0.30911928047E+01 -0.17739437130E+02  0.26314943804E+02  0.59301962773E+02  0.50000034187E+02 0.  0.
         12    1    1    2    0    0  0.30911928047E+01  0.17739437130E+02 -0.26314943804E+02  0.31886037227E+02  0.00000000000E+00 0. -1.
         11    1    3    3    0    0  0.15113444701E+02 -0.58507201831E+01  0.14048391276E+01  0.16267166644E+02  0.51100000000E-03 0. -1.
        -11    1    3    3    0    0 -0.79202581060E+01 -0.13929752533E+02  0.17365756157E-01  0.16024006862E+02  0.51100000000E-03 0.  1.
        -12    1    3    3    0    0 -0.10284379399E+02  0.20410355854E+01  0.24892738920E+02  0.27010789267E+02  0.00000000000E+00 0.  1.
</event>
<event>
 7    1  0.5837204E-012  0.5930194E+02  0.7816164E-02  0.1266605E+00
        -11   -1    0    0    0    0  0.00000000000E+00  0.00000000000E+00  0.45593999997E+02  0.45594000000E+02  0.51100000000E-03 0. -1.
         11   -1    0    0    0    0 -0.00000000000E+00 -0.00000000000E+00 -0.45593999997E+02  0.45594000000E+02  0.51100000000E-03 0.  1.
    9900012    2    1    2    0    0 -0.30959525995E+02 -0.66682843968E+01 -0.37097581570E+01  0.59301943922E+02  0.49999999806E+02 0.  0.
         12    1    1    2    0    0  0.30959525995E+02  0.66682843968E+01  0.37097581570E+01  0.31886056078E+02  0.00000000000E+00 0. -1.
         11    1    3    3    0    0 -0.15892341997E+02 -0.96948128778E+01 -0.31582827666E+01  0.18882020051E+02  0.51100000000E-03 0. -1.
        -11    1    3    3    0    0 -0.17798658645E+02 -0.10341338129E+02  0.10270827686E+02  0.23004900032E+02  0.51100000000E-03 0.  1.
         12    1    3    3    0    0  0.27314746468E+01  0.13367866610E+02 -0.10822303076E+02  0.17415023839E+02  0.00000000000E+00 0. -1.
</event>
<event>
 7    1  0.5837204E-012  0.5930196E+02  0.7816164E-02  0.1266605E+00
        -11   -1    0    0    0    0  0.00000000000E+00  0.00000000000E+00  0.45593999997E+02  0.45594000000E+02  0.51100000000E-03 0. -1.
         11   -1    0    0    0    0 -0.00000000000E+00 -0.00000000000E+00 -0.45593999997E+02  0.45594000000E+02  0.51100000000E-03 0.  1.
    9900012    2    1    2    0    0  0.12999961930E+02 -0.73299552950E+00 -0.29106414635E+02  0.59301958139E+02  0.50000025736E+02 0.  0.
         12    1    1    2    0    0 -0.12999961930E+02  0.73299552950E+00  0.29106414635E+02  0.31886041861E+02  0.00000000000E+00 0. -1.
         11    1    3    3    0    0 -0.16740584921E+02  0.65996621777E+01 -0.18481673774E+01  0.18089180392E+02  0.51100000000E-03 0. -1.
        -11    1    3    3    0    0  0.74778163703E+01 -0.23951154399E-01 -0.64355390620E+01  0.98658235645E+01  0.51100000000E-03 0.  1.
        -12    1    3    3    0    0  0.22262730480E+02 -0.73087065528E+01 -0.20822708196E+02  0.31346954183E+02  0.00000000000E+00 0.  1.
</event>
<event>
 7    1  0.5837204E-012  0.5930208E+02  0.7816164E-02  0.1266604E+00
        -11   -1    0    0    0    0  0.00000000000E+00  0.00000000000E+00  0.45593999997E+02  0.45594000000E+02  0.51100000000E-03 0.  1.
         11   -1    0    0    0    0 -0.00000000000E+00 -0.00000000000E+00 -0.45593999997E+02  0.45594000000E+02  0.51100000000E-03 0. -1.
    9900012    2    1    2    0    0  0.19832678339E+02  0.24873042027E+02 -0.21698646722E+01  0.59302083634E+02  0.50000254608E+02 0.  0.
         12    1    1    2    0    0 -0.19832678339E+02 -0.24873042027E+02  0.21698646722E+01  0.31885916366E+02  0.00000000000E+00 0. -1.
         11    1    3    3    0    0  0.10105521225E+01 -0.49564760079E+00 -0.14241906561E+02  0.14286314601E+02  0.51100000000E-03 0. -1.
        -11    1    3    3    0    0  0.77903372149E+01  0.13009589515E+02 -0.94415263360E+01  0.17862843925E+02  0.51100000000E-03 0.  1.
        -12    1    3    3    0    0  0.11031789002E+02  0.12359100114E+02  0.21513568224E+02  0.27152925108E+02  0.00000000000E+00 0.  1.
</event>
<event>
 7    1  0.5837204E-012  0.5930195E+02  0.7816164E-02  0.1266605E+00
        -11   -1    0    0    0    0  0.00000000000E+00  0.00000000000E+00  0.45593999997E+02  0.45594000000E+02  0.51100000000E-03 0.  1.
         11   -1    0    0    0    0 -0.00000000000E+00 -0.00000000000E+00 -0.45593999997E+02  0.45594000000E+02  0.51100000000E-03 0. -1.
    9900012    2    1    2    0    0 -0.10551558623E+02 -0.17739327312E+02  0.24304347190E+02  0.59301946384E+02  0.50000004298E+02 0.  0.
         12    1    1    2    0    0  0.10551558623E+02  0.17739327312E+02 -0.24304347190E+02  0.31886053616E+02  0.00000000000E+00 0. -1.
         11    1    3    3    0    0  0.13000424133E+02  0.16160565753E+00  0.91700624246E+00  0.13033727201E+02  0.51100000000E-03 0. -1.
        -11    1    3    3    0    0  0.77148199959E+00 -0.14372429713E+02  0.39281891590E+01  0.14919537213E+02  0.51100000000E-03 0.  1.
        -12    1    3    3    0    0 -0.24323464756E+02 -0.35285032572E+01  0.19459151788E+02  0.31348681971E+02  0.00000000000E+00 0.  1.
</event>
<event>
 7    1  0.5837204E-012  0.5930194E+02  0.7816164E-02  0.1266605E+00
        -11   -1    0    0    0    0  0.00000000000E+00  0.00000000000E+00  0.45593999997E+02  0.45594000000E+02  0.51100000000E-03 0. -1.
         11   -1    0    0    0    0 -0.00000000000E+00 -0.00000000000E+00 -0.45593999997E+02  0.45594000000E+02  0.51100000000E-03 0.  1.
    9900012    2    1    2    0    0  0.13919311674E+02 -0.22497243514E+01 -0.28599167667E+02  0.59301938964E+02  0.49999990765E+02 0.  0.
         12    1    1    2    0    0 -0.13919311674E+02  0.22497243514E+01  0.28599167667E+02  0.31886061036E+02  0.00000000000E+00 0. -1.
         11    1    3    3    0    0  0.51673278851E+01 -0.30685744562E+01 -0.17166888974E+02  0.18188444243E+02  0.51100000000E-03 0. -1.
        -11    1    3    3    0    0  0.20078226596E+02  0.39561285301E+01 -0.18341048615E+02  0.27480542221E+02  0.51100000000E-03 0.  1.
         12    1    3    3    0    0 -0.11326242807E+02 -0.31372784254E+01  0.69087699218E+01  0.13632952501E+02  0.00000000000E+00 0. -1.
</event>
<event>
 7    1  0.5837204E-012  0.5930197E+02  0.7816164E-02  0.1266605E+00
        -11   -1    0    0    0    0  0.00000000000E+00  0.00000000000E+00  0.45593999997E+02  0.45594000000E+02  0.51100000000E-03 0. -1.
         11   -1    0    0    0    0 -0.00000000000E+00 -0.00000000000E+00 -0.45593999997E+02  0.45594000000E+02  0.51100000000E-03 0.  1.
    9900012    2    1    2    0    0 -0.69007065941E+00 -0.15699717256E+02 -0.27744577985E+02  0.59301969720E+02  0.50000046856E+02 0.  0.
         12    1    1    2    0    0  0.69007065941E+00  0.15699717256E+02  0.27744577985E+02  0.31886030280E+02  0.00000000000E+00 0. -1.
         11    1    3    3    0    0 -0.84031761946E+01 -0.20865889373E+02 -0.51062941087E+01  0.23066706512E+02  0.51100000000E-03 0. -1.
        -11    1    3    3    0    0  0.83252089809E+01 -0.10050196282E+02 -0.98804461973E+01  0.16368835242E+02  0.51100000000E-03 0.  1.
         12    1    3    3    0    0 -0.61210344571E+00  0.15216368399E+02 -0.12757837679E+02  0.19866427966E+02  0.00000000000E+00 0. -1.
</event>
<event>
 7    1  0.5837204E-012  0.5930195E+02  0.7816164E-02  0.1266605E+00
        -11   -1    0    0    0    0  0.00000000000E+00  0.00000000000E+00  0.45593999997E+02  0.45594000000E+02  0.51100000000E-03 0.  1.
         11   -1    0    0    0    0 -0.00000000000E+00 -0.00000000000E+00 -0.45593999997E+02  0.45594000000E+02  0.51100000000E-03 0. -1.
    9900012    2    1    2    0    0  0.17777378917E+02 -0.18256307535E+02  0.19167471921E+02  0.59301953744E+02  0.50000017721E+02 0.  0.
         12    1    1    2    0    0 -0.17777378917E+02  0.18256307535E+02 -0.19167471921E+02  0.31886046256E+02  0.00000000000E+00 0. -1.
         11    1    3    3    0    0  0.90563222002E+01 -0.11396326243E+01 -0.85751602242E+01  0.12523941370E+02  0.51100000000E-03 0. -1.
        -11    1    3    3    0    0  0.51647619776E+01  0.94173244189E+01  0.98873737968E+01  0.14598661800E+02  0.51100000000E-03 0.  1.
        -12    1    3    3    0    0  0.35562947393E+01 -0.26533999329E+02  0.17855258349E+02  0.32179350574E+02  0.00000000000E+00 0.  1.
</event>
<event>
 7    1  0.5837204E-012  0.5930196E+02  0.7816164E-02  0.1266605E+00
        -11   -1    0    0    0    0  0.00000000000E+00  0.00000000000E+00  0.45593999997E+02  0.45594000000E+02  0.51100000000E-03 0. -1.
         11   -1    0    0    0    0 -0.00000000000E+00 -0.00000000000E+00 -0.45593999997E+02  0.45594000000E+02  0.51100000000E-03 0.  1.
    9900012    2    1    2    0    0  0.27676051053E+02  0.11658716455E+02  0.10715883623E+02  0.59301958648E+02  0.50000026664E+02 0.  0.
         12    1    1    2    0    0 -0.27676051053E+02 -0.11658716455E+02 -0.10715883623E+02  0.31886041352E+02  0.00000000000E+00 0. -1.
         11    1    3    3    0    0  0.30357822509E+02  0.75140570912E+01 -0.11872439097E+02  0.33451655442E+02  0.51100000000E-03 0. -1.
        -11    1    3    3    0    0  0.73880510907E+00  0.14949466638E+01 -0.94894516707E+00  0.19186442370E+01  0.51100000000E-03 0.  1.
         12    1    3    3    0    0 -0.34205765655E+01  0.26497127003E+01  0.23537267887E+02  0.23931658969E+02  0.00000000000E+00 0. -1.
</event>
<event>
 7    1  0.5837204E-012  0.5930195E+02  0.7816164E-02  0.1266605E+00
        -11   -1    0    0    0    0  0.00000000000E+00  0.00000000000E+00  0.45593999997E+02  0.45594000000E+02  0.51100000000E-03 0.  1.
         11   -1    0    0    0    0 -0.00000000000E+00 -0.00000000000E+00 -0.45593999997E+02  0.45594000000E+02  0.51100000000E-03 0. -1.
    9900012    2    1    2    0    0  0.11888559120E+02 -0.26108092626E+02  0.13919408316E+02  0.59301948718E+02  0.50000008554E+02 0.  0.
         12    1    1    2    0    0 -0.11888559120E+02  0.26108092626E+02 -0.13919408316E+02  0.31886051282E+02  0.00000000000E+00 0. -1.
         11    1    3    3    0    0 -0.14967900649E+02 -0.10369224302E+02 -0.10817131932E+01  0.18240859798E+02  0.51100000000E-03 0. -1.
        -11    1    3    3    0    0  0.59667034324E+00 -0.70249242675E+01  0.11057115233E+02  0.13113556879E+02  0.51100000000E-03 0.  1.
        -12    1    3    3    0    0  0.26259789426E+02 -0.87139440565E+01  0.39440062754E+01  0.27947532042E+02  0.00000000000E+00 0.  1.
</event>
<event>
 7    1  0.5837204E-012  0.5930193E+02  0.7816164E-02  0.1266605E+00
        -11   -1    0    0    0    0  0.00000000000E+00  0.00000000000E+00  0.45593999997E+02  0.45594000000E+02  0.51100000000E-03 0.  1.
         11   -1    0    0    0    0 -0.00000000000E+00 -0.00000000000E+00 -0.45593999997E+02  0.45594000000E+02  0.51100000000E-03 0. -1.
    9900012    2    1    2    0    0  0.28010633264E+02 -0.11946473573E+02  0.94555543766E+01  0.59301932271E+02  0.49999978559E+02 0.  0.
         12    1    1    2    0    0 -0.28010633264E+02  0.11946473573E+02 -0.94555543766E+01  0.31886067729E+02  0.00000000000E+00 0. -1.
         11    1    3    3    0    0  0.27335914708E+02 -0.77854349240E+01 -0.15077565015E+02  0.32174496063E+02  0.51100000000E-03 0. -1.
        -11    1    3    3    0    0 -0.71344654634E+00 -0.23393040276E+01 -0.41781725241E-01  0.24460366477E+01  0.51100000000E-03 0.  1.
        -12    1    3    3    0    0  0.13881651022E+01 -0.18217346209E+01  0.24574901117E+02  0.24681399561E+02  0.00000000000E+00 0.  1.
</event>
<event>
 7    1  0.5837204E-012  0.5930197E+02  0.7816164E-02  0.1266605E+00
        -11   -1    0    0    0    0  0.00000000000E+00  0.00000000000E+00  0.45593999997E+02  0.45594000000E+02  0.51100000000E-03 0.  1.
         11   -1    0    0    0    0 -0.00000000000E+00 -0.00000000000E+00 -0.45593999997E+02  0.45594000000E+02  0.51100000000E-03 0. -1.
    9900012    2    1    2    0    0  0.18486120386E+02  0.32388444421E+01  0.25777745547E+02  0.59301969740E+02  0.50000046894E+02 0.  0.
         12    1    1    2    0    0 -0.18486120386E+02 -0.32388444421E+01 -0.25777745547E+02  0.31886030260E+02  0.00000000000E+00 0. -1.
         11    1    3    3    0    0  0.17132255619E+02  0.17673098970E+02 -0.58386324926E+00  0.24620997266E+02  0.51100000000E-03 0. -1.
        -11    1    3    3    0    0  0.28309083705E+01 -0.14851661972E+01 -0.17863933260E+01  0.36620980614E+01  0.51100000000E-03 0.  1.
        -12    1    3    3    0    0 -0.14770436029E+01 -0.12949088331E+02  0.28148002122E+02  0.31018874413E+02  0.00000000000E+00 0.  1.
</event>
<event>
 7    1  0.5837204E-012  0.5930197E+02  0.7816164E-02  0.1266605E+00
        -11   -1    0    0    0    0  0.00000000000E+00  0.00000000000E+00  0.45593999997E+02  0.45594000000E+02  0.51100000000E-03 0. -1.
         11   -1    0    0    0    0 -0.00000000000E+00 -0.00000000000E+00 -0.45593999997E+02  0.45594000000E+02  0.51100000000E-03 0.  1.
    9900012    2    1    2    0    0  0.24409571557E+02 -0.19487206740E+02  0.64140925957E+01  0.59301968671E+02  0.50000044943E+02 0.  0.
         12    1    1    2    0    0 -0.24409571557E+02  0.19487206740E+02 -0.64140925957E+01  0.31886031329E+02  0.00000000000E+00 0. -1.
         11    1    3    3    0    0  0.21940502199E+02 -0.18803455616E+02  0.99298925929E+01  0.30554187062E+02  0.51100000000E-03 0. -1.
        -11    1    3    3    0    0  0.15130480226E+02  0.18520126328E+01 -0.42168798297E+01  0.15815924204E+02  0.51100000000E-03 0.  1.
        -12    1    3    3    0    0 -0.12661410869E+02 -0.25357637570E+01  0.70107983250E+00  0.12931857405E+02  0.00000000000E+00 0.  1.
</event>
<event>
 7    1  0.5837204E-012  0.5930190E+02  0.7816164E-02  0.1266605E+00
        -11   -1    0    0    0    0  0.00000000000E+00  0.00000000000E+00  0.45593999997E+02  0.45594000000E+02  0.51100000000E-03 0. -1.
         11   -1    0    0    0    0 -0.00000000000E+00 -0.00000000000E+00 -0.45593999997E+02  0.45594000000E+02  0.51100000000E-03 0.  1.
    9900012    2    1    2    0    0 -0.17996766336E+02  0.26291509726E+02  0.12634218373E+01  0.59301900882E+02  0.49999921313E+02 0.  0.
         12    1    1    2    0    0  0.17996766336E+02 -0.26291509726E+02 -0.12634218373E+01  0.31886099118E+02  0.00000000000E+00 0. -1.
         11    1    3    3    0    0 -0.15479170543E+01 -0.14224094088E+01 -0.10167792269E+02  0.10382836588E+02  0.51100000000E-03 0. -1.
        -11    1    3    3    0    0 -0.22488884935E+02  0.59071513602E+01 -0.66449109728E+00  0.23261253868E+02  0.51100000000E-03 0.  1.
         12    1    3    3    0    0  0.60400356540E+01  0.21806767775E+02  0.12095705203E+02  0.25657810426E+02  0.00000000000E+00 0. -1.
</event>
<event>
 7    1  0.5837204E-012  0.5930191E+02  0.7816164E-02  0.1266605E+00
        -11   -1    0    0    0    0  0.00000000000E+00  0.00000000000E+00  0.45593999997E+02  0.45594000000E+02  0.51100000000E-03 0. -1.
         11   -1    0    0    0    0 -0.00000000000E+00 -0.00000000000E+00 -0.45593999997E+02  0.45594000000E+02  0.51100000000E-03 0.  1.
    9900012    2    1    2    0    0  0.29698279268E+02  0.30802279696E+01 -0.11191393509E+02  0.59301907663E+02  0.49999933680E+02 0.  0.
         12    1    1    2    0    0 -0.29698279268E+02 -0.30802279696E+01  0.11191393509E+02  0.31886092337E+02  0.00000000000E+00 0. -1.
         11    1    3    3    0    0  0.34105880777E+01  0.97806142590E+01 -0.63495339348E+01  0.12149448867E+02  0.51100000000E-03 0.  1.
        -11    1    3    3    0    0 -0.84859736978E+01  0.29877752354E+01  0.42158497060E+01  0.99353882391E+01  0.51100000000E-03 0. -1.
         12    1    3    3    0    0  0.34773664888E+02 -0.96881615249E+01 -0.90577092797E+01  0.37217070558E+02  0.00000000000E+00 0. -1.
</event>
<event>
 7    1  0.5837204E-012  0.5930195E+02  0.7816164E-02  0.1266605E+00
        -11   -1    0    0    0    0  0.00000000000E+00  0.00000000000E+00  0.45593999997E+02  0.45594000000E+02  0.51100000000E-03 0.  1.
         11   -1    0    0    0    0 -0.00000000000E+00 -0.00000000000E+00 -0.45593999997E+02  0.45594000000E+02  0.51100000000E-03 0. -1.
    9900012    2    1    2    0    0  0.65983679407E+00  0.30428619777E+02  0.95070434253E+01  0.59301950373E+02  0.50000011572E+02 0.  0.
         12    1    1    2    0    0 -0.65983679407E+00 -0.30428619777E+02 -0.95070434253E+01  0.31886049627E+02  0.00000000000E+00 0. -1.
         11    1    3    3    0    0  0.33357865991E+00  0.12995287223E+02 -0.10472243550E+02  0.16693012010E+02  0.51100000000E-03 0. -1.
        -11    1    3    3    0    0  0.73225808593E+01 -0.81923907655E+01  0.45783498691E+01  0.11903644176E+02  0.51100000000E-03 0.  1.
         12    1    3    3    0    0 -0.69963227251E+01  0.25625723320E+02  0.15400937106E+02  0.30705294187E+02  0.00000000000E+00 0. -1.
</event>
<event>
 7    1  0.5837204E-012  0.5930195E+02  0.7816164E-02  0.1266605E+00
        -11   -1    0    0    0    0  0.00000000000E+00  0.00000000000E+00  0.45593999997E+02  0.45594000000E+02  0.51100000000E-03 0.  1.
         11   -1    0    0    0    0 -0.00000000000E+00 -0.00000000000E+00 -0.45593999997E+02  0.45594000000E+02  0.51100000000E-03 0. -1.
    9900012    2    1    2    0    0 -0.19958621328E+02  0.42884084203E+01  0.24494559380E+02  0.59301945817E+02  0.50000003264E+02 0.  0.
         12    1    1    2    0    0  0.19958621328E+02 -0.42884084203E+01 -0.24494559380E+02  0.31886054183E+02  0.00000000000E+00 0. -1.
         11    1    3    3    0    0 -0.42396019125E+01  0.81730335115E+00 -0.23732535610E+01  0.49269201202E+01  0.51100000000E-03 0. -1.
        -11    1    3    3    0    0 -0.18598489479E+02  0.13014986323E+02 -0.29907870764E+01  0.22896254879E+02  0.51100000000E-03 0.  1.
        -12    1    3    3    0    0  0.28794700635E+01 -0.95438812534E+01  0.29858600017E+02  0.31478770818E+02  0.00000000000E+00 0.  1.
</event>
<event>
 7    1  0.5837204E-012  0.5930195E+02  0.7816164E-02  0.1266605E+00
        -11   -1    0    0    0    0  0.00000000000E+00  0.00000000000E+00  0.45593999997E+02  0.45594000000E+02  0.51100000000E-03 0. -1.
         11   -1    0    0    0    0 -0.00000000000E+00 -0.00000000000E+00 -0.45593999997E+02  0.45594000000E+02  0.51100000000E-03 0.  1.
    9900012    2    1    2    0    0  0.79478704973E+01  0.13940574415E+02 -0.27553795880E+02  0.59301954026E+02  0.50000018234E+02 0.  0.
         12    1    1    2    0    0 -0.79478704973E+01 -0.13940574415E+02  0.27553795880E+02  0.31886045974E+02  0.00000000000E+00 0. -1.
         11    1    3    3    0    0 -0.40087295514E+01 -0.13709118458E+02 -0.78075195247E+01  0.16277813210E+02  0.51100000000E-03 0. -1.
        -11    1    3    3    0    0  0.78881528249E+01  0.30772819794E+01 -0.15634547858E+02  0.17780092979E+02  0.51100000000E-03 0.  1.
        -12    1    3    3    0    0  0.40684472237E+01  0.24572410894E+02 -0.41117284978E+01  0.25244047837E+02  0.00000000000E+00 0.  1.
</event>
<event>
 7    1  0.5837204E-012  0.5930194E+02  0.7816164E-02  0.1266605E+00
        -11   -1    0    0    0    0  0.00000000000E+00  0.00000000000E+00  0.45593999997E+02  0.45594000000E+02  0.51100000000E-03 0. -1.
         11   -1    0    0    0    0 -0.00000000000E+00 -0.00000000000E+00 -0.45593999997E+02  0.45594000000E+02  0.51100000000E-03 0.  1.
    9900012    2    1    2    0    0 -0.23698642060E+02  0.12637325274E+02 -0.17187000806E+02  0.59301943137E+02  0.49999998375E+02 0.  0.
         12    1    1    2    0    0  0.23698642060E+02 -0.12637325274E+02  0.17187000806E+02  0.31886056863E+02  0.00000000000E+00 0. -1.
         11    1    3    3    0    0  0.38687540607E+01 -0.94835453999E+01  0.44393282446E+01  0.11162998112E+02  0.51100000000E-03 0. -1.
        -11    1    3    3    0    0 -0.84229234503E+01  0.17577760544E+02 -0.82950351229E+00  0.19509263993E+02  0.51100000000E-03 0.  1.
        -12    1    3    3    0    0 -0.19144472670E+02  0.45431101295E+01 -0.20796825539E+02  0.28629681031E+02  0.00000000000E+00 0.  1.
</event>
<event>
 7    1  0.5837204E-012  0.5930195E+02  0.7816164E-02  0.1266605E+00
        -11   -1    0    0    0    0  0.00000000000E+00  0.00000000000E+00  0.45593999997E+02  0.45594000000E+02  0.51100000000E-03 0.  1.
         11   -1    0    0    0    0 -0.00000000000E+00 -0.00000000000E+00 -0.45593999997E+02  0.45594000000E+02  0.51100000000E-03 0. -1.
    9900012    2    1    2    0    0  0.29076762615E+02 -0.38227909202E+01 -0.12515920346E+02  0.59301951065E+02  0.50000012834E+02 0.  0.
         12    1    1    2    0    0 -0.29076762615E+02  0.38227909202E+01  0.12515920346E+02  0.31886048935E+02  0.00000000000E+00 0. -1.
         11    1    3    3    0    0 -0.60544461612E+00 -0.60437471704E+01 -0.95312401082E+00  0.61483240549E+01  0.51100000000E-03 0. -1.
        -11    1    3    3    0    0 -0.60011778330E+01 -0.11002157998E+01  0.97174984007E+01  0.11474074499E+02  0.51100000000E-03 0.  1.
         12    1    3    3    0    0  0.35683385064E+02  0.33211720499E+01 -0.21280294736E+02  0.41679552510E+02  0.00000000000E+00 0. -1.
</event>
<event>
 7    1  0.5837204E-012  0.5930192E+02  0.7816164E-02  0.1266605E+00
        -11   -1    0    0    0    0  0.00000000000E+00  0.00000000000E+00  0.45593999997E+02  0.45594000000E+02  0.51100000000E-03 0.  1.
         11   -1    0    0    0    0 -0.00000000000E+00 -0.00000000000E+00 -0.45593999997E+02  0.45594000000E+02  0.51100000000E-03 0. -1.
    9900012    2    1    2    0    0  0.71876080786E+01 -0.25115949756E+02  0.18282498569E+02  0.59301915324E+02  0.49999947651E+02 0.  0.
         12    1    1    2    0    0 -0.71876080786E+01  0.25115949756E+02 -0.18282498569E+02  0.31886084676E+02  0.00000000000E+00 0. -1.
         11    1    3    3    0    0 -0.10030387506E+01 -0.84390412115E+01  0.27571144359E+02  0.28851195900E+02  0.51100000000E-03 0. -1.
        -11    1    3    3    0    0 -0.47530741932E+01 -0.13670155352E+02 -0.42817803528E+00  0.14479233347E+02  0.51100000000E-03 0.  1.
         12    1    3    3    0    0  0.12943721022E+02 -0.30067531929E+01 -0.88604677551E+01  0.15971486077E+02  0.00000000000E+00 0. -1.
</event>
<event>
 7    1  0.5837204E-012  0.5930190E+02  0.7816164E-02  0.1266605E+00
        -11   -1    0    0    0    0  0.00000000000E+00  0.00000000000E+00  0.45593999997E+02  0.45594000000E+02  0.51100000000E-03 0.  1.
         11   -1    0    0    0    0 -0.00000000000E+00 -0.00000000000E+00 -0.45593999997E+02  0.45594000000E+02  0.51100000000E-03 0. -1.
    9900012    2    1    2    0    0 -0.10115314847E+02 -0.17197936764E+02 -0.24872368423E+02  0.59301900609E+02  0.49999920814E+02 0.  0.
         12    1    1    2    0    0  0.10115314847E+02  0.17197936764E+02  0.24872368423E+02  0.31886099391E+02  0.00000000000E+00 0. -1.
         11    1    3    3    0    0 -0.16127066910E+01 -0.49114847947E+00  0.23119184317E+01  0.28612963489E+01  0.51100000000E-03 0. -1.
        -11    1    3    3    0    0  0.14971628012E+02 -0.19388339222E+02 -0.73020062150E+01  0.25561233111E+02  0.51100000000E-03 0.  1.
         12    1    3    3    0    0 -0.23474236169E+02  0.26815509373E+01 -0.19882280640E+02  0.30879371149E+02  0.00000000000E+00 0. -1.
</event>
<event>
 7    1  0.5837204E-012  0.5930191E+02  0.7816164E-02  0.1266605E+00
        -11   -1    0    0    0    0  0.00000000000E+00  0.00000000000E+00  0.45593999997E+02  0.45594000000E+02  0.51100000000E-03 0.  1.
         11   -1    0    0    0    0 -0.00000000000E+00 -0.00000000000E+00 -0.45593999997E+02  0.45594000000E+02  0.51100000000E-03 0. -1.
    9900012    2    1    2    0    0 -0.13756677261E+02 -0.26129206624E+02  0.12030836363E+02  0.59301911628E+02  0.49999940910E+02 0.  0.
         12    1    1    2    0    0  0.13756677261E+02  0.26129206624E+02 -0.12030836363E+02  0.31886088372E+02  0.00000000000E+00 0. -1.
         11    1    3    3    0    0  0.10078817320E+02 -0.30510349669E+01  0.51740231618E+01  0.11732940334E+02  0.51100000000E-03 0. -1.
        -11    1    3    3    0    0 -0.13693650703E+01  0.81583846768E+01  0.33772964798E+01  0.89353529871E+01  0.51100000000E-03 0.  1.
        -12    1    3    3    0    0 -0.22466129511E+02 -0.31236556334E+02  0.34795167216E+01  0.38633618306E+02  0.00000000000E+00 0.  1.
</event>
<event>
 7    1  0.5837204E-012  0.5930196E+02  0.7816164E-02  0.1266605E+00
        -11   -1    0    0    0    0  0.00000000000E+00  0.00000000000E+00  0.45593999997E+02  0.45594000000E+02  0.51100000000E-03 0. -1.
         11   -1    0    0    0    0 -0.00000000000E+00 -0.00000000000E+00 -0.45593999997E+02  0.45594000000E+02  0.51100000000E-03 0.  1.
    9900012    2    1    2    0    0 -0.90227383662E+01 -0.11698807507E+02 -0.28256820622E+02  0.59301955774E+02  0.50000021423E+02 0.  0.
         12    1    1    2    0    0  0.90227383662E+01  0.11698807507E+02  0.28256820622E+02  0.31886044226E+02  0.00000000000E+00 0. -1.
         11    1    3    3    0    0 -0.16730760204E+02 -0.10366973094E+02 -0.14549129634E+02  0.24475899197E+02  0.51100000000E-03 0. -1.
        -11    1    3    3    0    0 -0.82282878437E+01  0.81278382808E+01  0.34070080385E+00  0.11570762864E+02  0.51100000000E-03 0.  1.
        -12    1    3    3    0    0  0.15936309682E+02 -0.94596726936E+01 -0.14048391792E+02  0.23255293713E+02  0.00000000000E+00 0.  1.
</event>
<event>
 7    1  0.5837204E-012  0.5930195E+02  0.7816164E-02  0.1266605E+00
        -11   -1    0    0    0    0  0.00000000000E+00  0.00000000000E+00  0.45593999997E+02  0.45594000000E+02  0.51100000000E-03 0. -1.
         11   -1    0    0    0    0 -0.00000000000E+00 -0.00000000000E+00 -0.45593999997E+02  0.45594000000E+02  0.51100000000E-03 0.  1.
    9900012    2    1    2    0    0  0.19482145437E+02  0.19237485072E+02 -0.16342740679E+02  0.59301952963E+02  0.50000016296E+02 0.  0.
         12    1    1    2    0    0 -0.19482145437E+02 -0.19237485072E+02  0.16342740679E+02  0.31886047037E+02  0.00000000000E+00 0. -1.
         11    1    3    3    0    0 -0.17425890098E+01  0.14346568121E+02 -0.76356897170E+01  0.16345164148E+02  0.51100000000E-03 0. -1.
        -11    1    3    3    0    0  0.35328652968E+01  0.72161265660E+01  0.12737105650E+02  0.15059464812E+02  0.51100000000E-03 0.  1.
        -12    1    3    3    0    0  0.17691869150E+02 -0.23252096147E+01 -0.21444156612E+02  0.27897324004E+02  0.00000000000E+00 0.  1.
</event>
<event>
 7    1  0.5837204E-012  0.5930193E+02  0.7816164E-02  0.1266605E+00
        -11   -1    0    0    0    0  0.00000000000E+00  0.00000000000E+00  0.45593999997E+02  0.45594000000E+02  0.51100000000E-03 0.  1.
         11   -1    0    0    0    0 -0.00000000000E+00 -0.00000000000E+00 -0.45593999997E+02  0.45594000000E+02  0.51100000000E-03 0. -1.
    9900012    2    1    2    0    0  0.18154625023E+02  0.85296173204E+00  0.26199302574E+02  0.59301930803E+02  0.49999975882E+02 0.  0.
         12    1    1    2    0    0 -0.18154625023E+02 -0.85296173204E+00 -0.26199302574E+02  0.31886069197E+02  0.00000000000E+00 0. -1.
         11    1    3    3    0    0  0.21846676908E+02  0.51550089022E+01  0.15029785029E+02  0.27013808450E+02  0.51100000000E-03 0. -1.
        -11    1    3    3    0    0  0.44072163918E+01  0.64734919135E+01  0.16125008838E+02  0.17926114028E+02  0.51100000000E-03 0.  1.
         12    1    3    3    0    0 -0.80992682773E+01 -0.10775539084E+02 -0.49554912923E+01  0.14362008325E+02  0.00000000000E+00 0. -1.
</event>
<event>
 7    1  0.5837204E-012  0.5930196E+02  0.7816164E-02  0.1266605E+00
        -11   -1    0    0    0    0  0.00000000000E+00  0.00000000000E+00  0.45593999997E+02  0.45594000000E+02  0.51100000000E-03 0.  1.
         11   -1    0    0    0    0 -0.00000000000E+00 -0.00000000000E+00 -0.45593999997E+02  0.45594000000E+02  0.51100000000E-03 0. -1.
    9900012    2    1    2    0    0 -0.28447932552E+02  0.59939154759E+01  0.13096085379E+02  0.59301963221E+02  0.50000035004E+02 0.  0.
         12    1    1    2    0    0  0.28447932552E+02 -0.59939154759E+01 -0.13096085379E+02  0.31886036779E+02  0.00000000000E+00 0. -1.
         11    1    3    3    0    0  0.27144577738E+01  0.31204368565E+01  0.31007946780E+01  0.51691716045E+01  0.51100000000E-03 0. -1.
        -11    1    3    3    0    0 -0.54682177530E+01 -0.18318464677E+02  0.81314327341E+01  0.20774690181E+02  0.51100000000E-03 0.  1.
        -12    1    3    3    0    0 -0.25694172573E+02  0.21191943297E+02  0.18638579668E+01  0.33358101436E+02  0.00000000000E+00 0.  1.
</event>
<event>
 7    1  0.5837204E-012  0.5930192E+02  0.7816164E-02  0.1266605E+00
        -11   -1    0    0    0    0  0.00000000000E+00  0.00000000000E+00  0.45593999997E+02  0.45594000000E+02  0.51100000000E-03 0. -1.
         11   -1    0    0    0    0 -0.00000000000E+00 -0.00000000000E+00 -0.45593999997E+02  0.45594000000E+02  0.51100000000E-03 0.  1.
    9900012    2    1    2    0    0 -0.11169403295E+02 -0.76064750173E+01 -0.28880925197E+02  0.59301923534E+02  0.49999962625E+02 0.  0.
         12    1    1    2    0    0  0.11169403295E+02  0.76064750173E+01  0.28880925197E+02  0.31886076466E+02  0.00000000000E+00 0. -1.
         11    1    3    3    0    0  0.33337318954E+01  0.12592975120E+02 -0.89839310211E+01  0.15824279054E+02  0.51100000000E-03 0. -1.
        -11    1    3    3    0    0 -0.13990319405E+02 -0.43859860683E+01 -0.23075807623E+02  0.27339692912E+02  0.51100000000E-03 0.  1.
         12    1    3    3    0    0 -0.51281578518E+00 -0.15813464069E+02  0.31788134469E+01  0.16137951568E+02  0.00000000000E+00 0. -1.
</event>
<event>
 7    1  0.5837204E-012  0.5930195E+02  0.7816164E-02  0.1266605E+00
        -11   -1    0    0    0    0  0.00000000000E+00  0.00000000000E+00  0.45593999997E+02  0.45594000000E+02  0.51100000000E-03 0.  1.
         11   -1    0    0    0    0 -0.00000000000E+00 -0.00000000000E+00 -0.45593999997E+02  0.45594000000E+02  0.51100000000E-03 0. -1.
    9900012    2    1    2    0    0 -0.22449296602E+02  0.17076904150E+02  0.14870392421E+02  0.59301950637E+02  0.50000012053E+02 0.  0.
         12    1    1    2    0    0  0.22449296602E+02 -0.17076904150E+02 -0.14870392421E+02  0.31886049363E+02  0.00000000000E+00 0. -1.
         11    1    3    3    0    0 -0.14952994208E+02  0.88228562083E+01 -0.11683384454E+02  0.20926927630E+02  0.51100000000E-03 0. -1.
        -11    1    3    3    0    0  0.19814446640E+01  0.92214180108E+00 -0.45474078160E+01  0.50453331470E+01  0.51100000000E-03 0.  1.
        -12    1    3    3    0    0 -0.94777470576E+01  0.73319061405E+01  0.31101184691E+02  0.33329689859E+02  0.00000000000E+00 0.  1.
</event>
<event>
 7    1  0.5837204E-012  0.5930194E+02  0.7816164E-02  0.1266605E+00
        -11   -1    0    0    0    0  0.00000000000E+00  0.00000000000E+00  0.45593999997E+02  0.45594000000E+02  0.51100000000E-03 0.  1.
         11   -1    0    0    0    0 -0.00000000000E+00 -0.00000000000E+00 -0.45593999997E+02  0.45594000000E+02  0.51100000000E-03 0. -1.
    9900012    2    1    2    0    0 -0.19660692270E+01 -0.31077964172E+02  0.68568097623E+01  0.59301935248E+02  0.49999983988E+02 0.  0.
         12    1    1    2    0    0  0.19660692270E+01  0.31077964172E+02 -0.68568097623E+01  0.31886064752E+02  0.00000000000E+00 0. -1.
         11    1    3    3    0    0 -0.54948482393E+01 -0.29293416759E+01  0.95403515624E+01  0.11392660270E+02  0.51100000000E-03 0. -1.
        -11    1    3    3    0    0  0.16304836990E+02 -0.31108206665E+01  0.72273900385E+01  0.18104145423E+02  0.51100000000E-03 0.  1.
         12    1    3    3    0    0 -0.12776057977E+02 -0.25037801829E+02 -0.99109318386E+01  0.29805129555E+02  0.00000000000E+00 0. -1.
</event>
<event>
 7    1  0.5837204E-012  0.5930194E+02  0.7816164E-02  0.1266605E+00
        -11   -1    0    0    0    0  0.00000000000E+00  0.00000000000E+00  0.45593999997E+02  0.45594000000E+02  0.51100000000E-03 0.  1.
         11   -1    0    0    0    0 -0.00000000000E+00 -0.00000000000E+00 -0.45593999997E+02  0.45594000000E+02  0.51100000000E-03 0. -1.
    9900012    2    1    2    0    0 -0.16541316836E+02 -0.25756036867E+02  0.89293063570E+01  0.59301935493E+02  0.49999984434E+02 0.  0.
         12    1    1    2    0    0  0.16541316836E+02  0.25756036867E+02 -0.89293063570E+01  0.31886064507E+02  0.00000000000E+00 0. -1.
         11    1    3    3    0    0 -0.19783942575E+02 -0.29252950471E+01  0.56452721825E+01  0.20780539772E+02  0.51100000000E-03 0. -1.
        -11    1    3    3    0    0 -0.54264600008E+01 -0.21087472213E+02 -0.88524565965E+01  0.23505189651E+02  0.51100000000E-03 0.  1.
         12    1    3    3    0    0  0.86690857405E+01 -0.17432696071E+01  0.12136490771E+02  0.15016206070E+02  0.00000000000E+00 0. -1.
</event>
<event>
 7    1  0.5837204E-012  0.5930196E+02  0.7816164E-02  0.1266605E+00
        -11   -1    0    0    0    0  0.00000000000E+00  0.00000000000E+00  0.45593999997E+02  0.45594000000E+02  0.51100000000E-03 0. -1.
         11   -1    0    0    0    0 -0.00000000000E+00 -0.00000000000E+00 -0.45593999997E+02  0.45594000000E+02  0.51100000000E-03 0.  1.
    9900012    2    1    2    0    0  0.16718956326E+02  0.21555681986E+02 -0.16509055943E+02  0.59301955175E+02  0.50000020329E+02 0.  0.
         12    1    1    2    0    0 -0.16718956326E+02 -0.21555681986E+02  0.16509055943E+02  0.31886044825E+02  0.00000000000E+00 0. -1.
         11    1    3    3    0    0  0.67609473184E+01  0.15943617622E+02  0.14559822964E+02  0.22625158486E+02  0.51100000000E-03 0. -1.
        -11    1    3    3    0    0  0.41573219097E+01  0.55432743031E+01 -0.22579302191E+01  0.72876240706E+01  0.51100000000E-03 0.  1.
        -12    1    3    3    0    0  0.58006870977E+01  0.68790060364E-01 -0.28810948688E+02  0.29389172618E+02  0.00000000000E+00 0.  1.
</event>
<event>
 7    1  0.5837204E-012  0.5930195E+02  0.7816164E-02  0.1266605E+00
        -11   -1    0    0    0    0  0.00000000000E+00  0.00000000000E+00  0.45593999997E+02  0.45594000000E+02  0.51100000000E-03 0.  1.
         11   -1    0    0    0    0 -0.00000000000E+00 -0.00000000000E+00 -0.45593999997E+02  0.45594000000E+02  0.51100000000E-03 0. -1.
    9900012    2    1    2    0    0 -0.59259110327E+01  0.28911597594E+02  0.12071598263E+02  0.59301946911E+02  0.50000005258E+02 0.  0.
         12    1    1    2    0    0  0.59259110327E+01 -0.28911597594E+02 -0.12071598263E+02  0.31886053089E+02  0.00000000000E+00 0. -1.
         11    1    3    3    0    0  0.10463149566E+02  0.79713917531E+01 -0.10617428978E+02  0.16904152854E+02  0.51100000000E-03 0. -1.
        -11    1    3    3    0    0  0.11982839167E+01  0.54142928685E+01  0.17517981034E+02  0.18374713913E+02  0.51100000000E-03 0.  1.
        -12    1    3    3    0    0 -0.17587344516E+02  0.15525912973E+02  0.51710462074E+01  0.24023080144E+02  0.00000000000E+00 0.  1.
</event>
<event>
 7    1  0.5837204E-012  0.5930195E+02  0.7816164E-02  0.1266605E+00
        -11   -1    0    0    0    0  0.00000000000E+00  0.00000000000E+00  0.45593999997E+02  0.45594000000E+02  0.51100000000E-03 0.  1.
         11   -1    0    0    0    0 -0.00000000000E+00 -0.00000000000E+00 -0.45593999997E+02  0.45594000000E+02  0.51100000000E-03 0. -1.
    9900012    2    1    2    0    0 -0.25807177759E+02  0.17713057119E+02  0.60792681293E+01  0.59301947918E+02  0.50000007094E+02 0.  0.
         12    1    1    2    0    0  0.25807177759E+02 -0.17713057119E+02 -0.60792681293E+01  0.31886052082E+02  0.00000000000E+00 0. -1.
         11    1    3    3    0    0 -0.47212491333E+01 -0.75932003240E+01  0.15622012627E+02  0.17999837869E+02  0.51100000000E-03 0. -1.
        -11    1    3    3    0    0  0.34200563368E+01  0.88567937222E+01 -0.67629134524E+01  0.11656610957E+02  0.51100000000E-03 0.  1.
        -12    1    3    3    0    0 -0.24505984963E+02  0.16449463721E+02 -0.27798310456E+01  0.29645499091E+02  0.00000000000E+00 0.  1.
</event>
<event>
 7    1  0.5837204E-012  0.5930195E+02  0.7816164E-02  0.1266605E+00
        -11   -1    0    0    0    0  0.00000000000E+00  0.00000000000E+00  0.45593999997E+02  0.45594000000E+02  0.51100000000E-03 0.  1.
         11   -1    0    0    0    0 -0.00000000000E+00 -0.00000000000E+00 -0.45593999997E+02  0.45594000000E+02  0.51100000000E-03 0. -1.
    9900012    2    1    2    0    0  0.23040792315E+02 -0.43737790121E+01  0.21603519262E+02  0.59301951360E+02  0.50000013372E+02 0.  0.
         12    1    1    2    0    0 -0.23040792315E+02  0.43737790121E+01 -0.21603519262E+02  0.31886048640E+02  0.00000000000E+00 0. -1.
         11    1    3    3    0    0  0.66079469374E+00  0.69095630572E+01 -0.90473895830E+00  0.69998045767E+01  0.51100000000E-03 0. -1.
        -11    1    3    3    0    0  0.32141944841E+02  0.70812381588E-01  0.13790502386E+02  0.34975528429E+02  0.51100000000E-03 0.  1.
        -12    1    3    3    0    0 -0.97619472196E+01 -0.11354154451E+02  0.87177558340E+01  0.17326618354E+02  0.00000000000E+00 0.  1.
</event>
<event>
 7    1  0.5837204E-012  0.5930198E+02  0.7816164E-02  0.1266605E+00
        -11   -1    0    0    0    0  0.00000000000E+00  0.00000000000E+00  0.45593999997E+02  0.45594000000E+02  0.51100000000E-03 0.  1.
         11   -1    0    0    0    0 -0.00000000000E+00 -0.00000000000E+00 -0.45593999997E+02  0.45594000000E+02  0.51100000000E-03 0. -1.
    9900012    2    1    2    0    0 -0.49684614328E+01 -0.28165122696E+02  0.14098184031E+02  0.59301975813E+02  0.50000057968E+02 0.  0.
         12    1    1    2    0    0  0.49684614328E+01  0.28165122696E+02 -0.14098184031E+02  0.31886024187E+02  0.00000000000E+00 0. -1.
         11    1    3    3    0    0 -0.39493520854E+01 -0.83936864082E+01 -0.13299114961E+02  0.16214740591E+02  0.51100000000E-03 0. -1.
        -11    1    3    3    0    0  0.15097737487E+01 -0.11296515953E+02 -0.27041827815E+01  0.11713380990E+02  0.51100000000E-03 0.  1.
        -12    1    3    3    0    0 -0.25288830961E+01 -0.84749203352E+01  0.30101481773E+02  0.31373854232E+02  0.00000000000E+00 0.  1.
</event>
<event>
 7    1  0.5837204E-012  0.5930201E+02  0.7816164E-02  0.1266605E+00
        -11   -1    0    0    0    0  0.00000000000E+00  0.00000000000E+00  0.45593999997E+02  0.45594000000E+02  0.51100000000E-03 0.  1.
         11   -1    0    0    0    0 -0.00000000000E+00 -0.00000000000E+00 -0.45593999997E+02  0.45594000000E+02  0.51100000000E-03 0. -1.
    9900012    2    1    2    0    0  0.14536074395E+02 -0.84432827913E+01  0.27094832701E+02  0.59302008684E+02  0.50000117918E+02 0.  0.
         12    1    1    2    0    0 -0.14536074395E+02  0.84432827913E+01 -0.27094832701E+02  0.31885991316E+02  0.00000000000E+00 0. -1.
         11    1    3    3    0    0  0.15698732289E+01 -0.12782617350E+01  0.71721933030E+01  0.74524366522E+01  0.51100000000E-03 0. -1.
        -11    1    3    3    0    0  0.26679166220E+01  0.19293322784E+02  0.79923888204E+01  0.21052989395E+02  0.51100000000E-03 0.  1.
         12    1    3    3    0    0  0.10298284544E+02 -0.26458343840E+02  0.11930250577E+02  0.30796582637E+02  0.00000000000E+00 0. -1.
</event>
<event>
 7    1  0.5837204E-012  0.5930194E+02  0.7816164E-02  0.1266605E+00
        -11   -1    0    0    0    0  0.00000000000E+00  0.00000000000E+00  0.45593999997E+02  0.45594000000E+02  0.51100000000E-03 0. -1.
         11   -1    0    0    0    0 -0.00000000000E+00 -0.00000000000E+00 -0.45593999997E+02  0.45594000000E+02  0.51100000000E-03 0.  1.
    9900012    2    1    2    0    0  0.62266407435E+01 -0.26841625777E+02 -0.16046095331E+02  0.59301935573E+02  0.49999984580E+02 0.  0.
         12    1    1    2    0    0 -0.62266407435E+01  0.26841625777E+02  0.16046095331E+02  0.31886064427E+02  0.00000000000E+00 0. -1.
         11    1    3    3    0    0 -0.69866642694E+01  0.83754961811E+01  0.21169671815E+01  0.11110533930E+02  0.51100000000E-03 0. -1.
        -11    1    3    3    0    0  0.23459519570E+01 -0.36531439021E-01  0.44148389098E+01  0.49995627800E+01  0.51100000000E-03 0.  1.
        -12    1    3    3    0    0  0.10867353056E+02 -0.35180590519E+02 -0.22577901422E+02  0.43191838863E+02  0.00000000000E+00 0.  1.
</event>
<event>
 7    1  0.5837204E-012  0.5930190E+02  0.7816164E-02  0.1266605E+00
        -11   -1    0    0    0    0  0.00000000000E+00  0.00000000000E+00  0.45593999997E+02  0.45594000000E+02  0.51100000000E-03 0.  1.
         11   -1    0    0    0    0 -0.00000000000E+00 -0.00000000000E+00 -0.45593999997E+02  0.45594000000E+02  0.51100000000E-03 0. -1.
    9900012    2    1    2    0    0  0.89122540616E+01 -0.21969295940E+02  0.21322413847E+02  0.59301896933E+02  0.49999914111E+02 0.  0.
         12    1    1    2    0    0 -0.89122540616E+01  0.21969295940E+02 -0.21322413847E+02  0.31886103067E+02  0.00000000000E+00 0. -1.
         11    1    3    3    0    0  0.96196513912E+01  0.80421928854E+01  0.76338147949E+01  0.14679567020E+02  0.51100000000E-03 0. -1.
        -11    1    3    3    0    0  0.15334539517E+01 -0.80234968907E+01  0.20027541631E+02  0.21629387588E+02  0.51100000000E-03 0.  1.
        -12    1    3    3    0    0 -0.22408512813E+01 -0.21987991934E+02 -0.63389425795E+01  0.22992942326E+02  0.00000000000E+00 0.  1.
</event>
<event>
 7    1  0.5837204E-012  0.5930196E+02  0.7816164E-02  0.1266605E+00
        -11   -1    0    0    0    0  0.00000000000E+00  0.00000000000E+00  0.45593999997E+02  0.45594000000E+02  0.51100000000E-03 0. -1.
         11   -1    0    0    0    0 -0.00000000000E+00 -0.00000000000E+00 -0.45593999997E+02  0.45594000000E+02  0.51100000000E-03 0.  1.
    9900012    2    1    2    0    0  0.26863786477E+02 -0.19465180177E+01 -0.17066559129E+02  0.59301962353E+02  0.50000033422E+02 0.  0.
         12    1    1    2    0    0 -0.26863786477E+02  0.19465180177E+01  0.17066559129E+02  0.31886037647E+02  0.00000000000E+00 0. -1.
         11    1    3    3    0    0  0.50568678070E+01  0.25603634963E+01  0.32511984471E+01  0.65343450211E+01  0.51100000000E-03 0. -1.
        -11    1    3    3    0    0  0.33663234769E+02 -0.94111571575E+01 -0.10153498202E+02  0.36398856853E+02  0.51100000000E-03 0.  1.
         12    1    3    3    0    0 -0.11856316099E+02  0.49042756436E+01 -0.10164259374E+02  0.16368760480E+02  0.00000000000E+00 0. -1.
</event>
<event>
 7    1  0.5837204E-012  0.5930196E+02  0.7816164E-02  0.1266605E+00
        -11   -1    0    0    0    0  0.00000000000E+00  0.00000000000E+00  0.45593999997E+02  0.45594000000E+02  0.51100000000E-03 0. -1.
         11   -1    0    0    0    0 -0.00000000000E+00 -0.00000000000E+00 -0.45593999997E+02  0.45594000000E+02  0.51100000000E-03 0.  1.
    9900012    2    1    2    0    0  0.93002663394E+00 -0.31806887493E+02  0.20436244728E+01  0.59301961637E+02  0.50000032115E+02 0.  0.
         12    1    1    2    0    0 -0.93002663394E+00  0.31806887493E+02 -0.20436244728E+01  0.31886038363E+02  0.00000000000E+00 0. -1.
         11    1    3    3    0    0  0.12227992743E+02 -0.15917458661E+02  0.17828968616E+02  0.26847000185E+02  0.51100000000E-03 0. -1.
        -11    1    3    3    0    0  0.36172780923E+00 -0.31653538104E+01  0.46941707885E+01  0.56732311258E+01  0.51100000000E-03 0.  1.
        -12    1    3    3    0    0 -0.11659693919E+02 -0.12724075022E+02 -0.20479514932E+02  0.26781730326E+02  0.00000000000E+00 0.  1.
</event>
<event>
 7    1  0.5837204E-012  0.5930194E+02  0.7816164E-02  0.1266605E+00
        -11   -1    0    0    0    0  0.00000000000E+00  0.00000000000E+00  0.45593999997E+02  0.45594000000E+02  0.51100000000E-03 0.  1.
         11   -1    0    0    0    0 -0.00000000000E+00 -0.00000000000E+00 -0.45593999997E+02  0.45594000000E+02  0.51100000000E-03 0. -1.
    9900012    2    1    2    0    0 -0.30313449000E+02 -0.96919585810E+01 -0.19701184812E+01  0.59301943201E+02  0.49999998491E+02 0.  0.
         12    1    1    2    0    0  0.30313449000E+02  0.96919585810E+01  0.19701184812E+01  0.31886056799E+02  0.00000000000E+00 0. -1.
         11    1    3    3    0    0  0.11258158826E+01 -0.90104821863E+01 -0.37976491411E+01  0.98426820477E+01  0.51100000000E-03 0. -1.
        -11    1    3    3    0    0  0.52140737889E+01 -0.60331740757E+01  0.86821921458E+01  0.11788393259E+02  0.51100000000E-03 0.  1.
        -12    1    3    3    0    0 -0.36653338671E+02  0.53516976810E+01 -0.68546614859E+01  0.37670867894E+02  0.00000000000E+00 0.  1.
</event>
<event>
 7    1  0.5837204E-012  0.5930195E+02  0.7816164E-02  0.1266605E+00
        -11   -1    0    0    0    0  0.00000000000E+00  0.00000000000E+00  0.45593999997E+02  0.45594000000E+02  0.51100000000E-03 0. -1.
         11   -1    0    0    0    0 -0.00000000000E+00 -0.00000000000E+00 -0.45593999997E+02  0.45594000000E+02  0.51100000000E-03 0.  1.
    9900012    2    1    2    0    0  0.14166250814E+02 -0.11032553775E+02 -0.26349958572E+02  0.59301949418E+02  0.50000009831E+02 0.  0.
         12    1    1    2    0    0 -0.14166250814E+02  0.11032553775E+02  0.26349958572E+02  0.31886050582E+02  0.00000000000E+00 0. -1.
         11    1    3    3    0    0 -0.10147252395E+02  0.66505762291E+01 -0.93023922986E+01  0.15288276492E+02  0.51100000000E-03 0.  1.
        -11    1    3    3    0    0  0.69896097692E+01  0.65175471661E+01  0.30599924855E+00  0.95617310980E+01  0.51100000000E-03 0. -1.
         12    1    3    3    0    0  0.17323893440E+02 -0.24200677170E+02 -0.17353565522E+02  0.34451941829E+02  0.00000000000E+00 0. -1.
</event>
<event>
 7    1  0.5837204E-012  0.5930193E+02  0.7816164E-02  0.1266605E+00
        -11   -1    0    0    0    0  0.00000000000E+00  0.00000000000E+00  0.45593999997E+02  0.45594000000E+02  0.51100000000E-03 0.  1.
         11   -1    0    0    0    0 -0.00000000000E+00 -0.00000000000E+00 -0.45593999997E+02  0.45594000000E+02  0.51100000000E-03 0. -1.
    9900012    2    1    2    0    0  0.11722749146E+02  0.18927399056E+02  0.22826571825E+02  0.59301926804E+02  0.49999968588E+02 0.  0.
         12    1    1    2    0    0 -0.11722749146E+02 -0.18927399056E+02 -0.22826571825E+02  0.31886073196E+02  0.00000000000E+00 0. -1.
         11    1    3    3    0    0 -0.66195263792E+01  0.12681606761E+01  0.59991127772E+01  0.90230657407E+01  0.51100000000E-03 0. -1.
        -11    1    3    3    0    0 -0.85330377924E+01  0.18490085156E+02  0.90808229788E+01  0.22297025122E+02  0.51100000000E-03 0.  1.
        -12    1    3    3    0    0  0.26875313317E+02 -0.83084677680E+00  0.77466360693E+01  0.27981835941E+02  0.00000000000E+00 0.  1.
</event>
<event>
 7    1  0.5837204E-012  0.5930193E+02  0.7816164E-02  0.1266605E+00
        -11   -1    0    0    0    0  0.00000000000E+00  0.00000000000E+00  0.45593999997E+02  0.45594000000E+02  0.51100000000E-03 0.  1.
         11   -1    0    0    0    0 -0.00000000000E+00 -0.00000000000E+00 -0.45593999997E+02  0.45594000000E+02  0.51100000000E-03 0. -1.
    9900012    2    1    2    0    0 -0.19665239371E+02 -0.22266286974E+02 -0.11584999131E+02  0.59301931255E+02  0.49999976705E+02 0.  0.
         12    1    1    2    0    0  0.19665239371E+02  0.22266286974E+02  0.11584999131E+02  0.31886068745E+02  0.00000000000E+00 0. -1.
         11    1    3    3    0    0 -0.14775942192E+02 -0.25689782534E+02 -0.19403372198E+02  0.35422933915E+02  0.51100000000E-03 0. -1.
        -11    1    3    3    0    0 -0.84746049157E+01 -0.61930576689E+01 -0.73056267602E+00  0.10521721050E+02  0.51100000000E-03 0.  1.
        -12    1    3    3    0    0  0.35853077359E+01  0.96165532285E+01  0.85489357421E+01  0.13357276290E+02  0.00000000000E+00 0.  1.
</event>
<event>
 7    1  0.5837204E-012  0.5930191E+02  0.7816164E-02  0.1266605E+00
        -11   -1    0    0    0    0  0.00000000000E+00  0.00000000000E+00  0.45593999997E+02  0.45594000000E+02  0.51100000000E-03 0. -1.
         11   -1    0    0    0    0 -0.00000000000E+00 -0.00000000000E+00 -0.45593999997E+02  0.45594000000E+02  0.51100000000E-03 0.  1.
    9900012    2    1    2    0    0  0.28234423087E+02 -0.14569472231E+02  0.26963982487E+01  0.59301910060E+02  0.49999938051E+02 0.  0.
         12    1    1    2    0    0 -0.28234423087E+02  0.14569472231E+02 -0.26963982487E+01  0.31886089940E+02  0.00000000000E+00 0. -1.
         11    1    3    3    0    0  0.11313817224E+02 -0.66945600616E+01 -0.82156971885E+01  0.15502170014E+02  0.51100000000E-03 0. -1.
        -11    1    3    3    0    0  0.24952457222E+02 -0.33728583905E+01 -0.47577559212E+01  0.25624939742E+02  0.51100000000E-03 0.  1.
         12    1    3    3    0    0 -0.80318513591E+01 -0.45020537784E+01  0.15669851358E+02  0.18174800303E+02  0.00000000000E+00 0. -1.
</event>
<event>
 7    1  0.5837204E-012  0.5930195E+02  0.7816164E-02  0.1266605E+00
        -11   -1    0    0    0    0  0.00000000000E+00  0.00000000000E+00  0.45593999997E+02  0.45594000000E+02  0.51100000000E-03 0.  1.
         11   -1    0    0    0    0 -0.00000000000E+00 -0.00000000000E+00 -0.45593999997E+02  0.45594000000E+02  0.51100000000E-03 0. -1.
    9900012    2    1    2    0    0  0.17834729166E+02  0.25127782266E+02  0.81998260925E+01  0.59301950480E+02  0.50000011768E+02 0.  0.
         12    1    1    2    0    0 -0.17834729166E+02 -0.25127782266E+02 -0.81998260925E+01  0.31886049520E+02  0.00000000000E+00 0. -1.
         11    1    3    3    0    0 -0.10927198300E+02  0.29570310100E+01  0.49115863121E+01  0.12339828825E+02  0.51100000000E-03 0. -1.
        -11    1    3    3    0    0 -0.36729055045E+01  0.49092341137E+01  0.78251557897E+01  0.99410199588E+01  0.51100000000E-03 0.  1.
        -12    1    3    3    0    0  0.32434832971E+02  0.17261517142E+02 -0.45369160094E+01  0.37021101696E+02  0.00000000000E+00 0.  1.
</event>
<event>
 7    1  0.5837204E-012  0.5930193E+02  0.7816164E-02  0.1266605E+00
        -11   -1    0    0    0    0  0.00000000000E+00  0.00000000000E+00  0.45593999997E+02  0.45594000000E+02  0.51100000000E-03 0.  1.
         11   -1    0    0    0    0 -0.00000000000E+00 -0.00000000000E+00 -0.45593999997E+02  0.45594000000E+02  0.51100000000E-03 0. -1.
    9900012    2    1    2    0    0 -0.21637104311E+01 -0.23182760990E+02 -0.21785306689E+02  0.59301927218E+02  0.49999969343E+02 0.  0.
         12    1    1    2    0    0  0.21637104311E+01  0.23182760990E+02  0.21785306689E+02  0.31886072782E+02  0.00000000000E+00 0. -1.
         11    1    3    3    0    0 -0.86440259300E+01  0.78232869087E+01 -0.10728983357E+02  0.15844055241E+02  0.51100000000E-03 0. -1.
        -11    1    3    3    0    0 -0.39832841127E+01 -0.52701341885E+01  0.75415627430E+01  0.10025768577E+02  0.51100000000E-03 0.  1.
        -12    1    3    3    0    0  0.10463599612E+02 -0.25735913710E+02 -0.18597886074E+02  0.33432103400E+02  0.00000000000E+00 0.  1.
</event>
<event>
 7    1  0.5837204E-012  0.5930196E+02  0.7816164E-02  0.1266605E+00
        -11   -1    0    0    0    0  0.00000000000E+00  0.00000000000E+00  0.45593999997E+02  0.45594000000E+02  0.51100000000E-03 0.  1.
         11   -1    0    0    0    0 -0.00000000000E+00 -0.00000000000E+00 -0.45593999997E+02  0.45594000000E+02  0.51100000000E-03 0. -1.
    9900012    2    1    2    0    0 -0.28242369178E+02 -0.14156720261E+02  0.43215249250E+01  0.59301957238E+02  0.50000024093E+02 0.  0.
         12    1    1    2    0    0  0.28242369178E+02  0.14156720261E+02 -0.43215249250E+01  0.31886042762E+02  0.00000000000E+00 0. -1.
         11    1    3    3    0    0  0.22151389815E+01 -0.34346946278E+01 -0.98679013587E+01  0.10680797975E+02  0.51100000000E-03 0. -1.
        -11    1    3    3    0    0  0.23333446810E+01 -0.12085807565E+02  0.93272842867E+01  0.15443751951E+02  0.51100000000E-03 0.  1.
        -12    1    3    3    0    0 -0.32790852840E+02  0.13637819316E+01  0.48621419971E+01  0.33177407312E+02  0.00000000000E+00 0.  1.
</event>
<event>
 7    1  0.5837204E-012  0.5930215E+02  0.7816164E-02  0.1266604E+00
        -11   -1    0    0    0    0  0.00000000000E+00  0.00000000000E+00  0.45593999997E+02  0.45594000000E+02  0.51100000000E-03 0. -1.
         11   -1    0    0    0    0 -0.00000000000E+00 -0.00000000000E+00 -0.45593999997E+02  0.45594000000E+02  0.51100000000E-03 0.  1.
    9900012    2    1    2    0    0  0.31217935506E+02 -0.62154844232E+01  0.18751011595E+01  0.59302145013E+02  0.50000366548E+02 0.  0.
         12    1    1    2    0    0 -0.31217935506E+02  0.62154844232E+01 -0.18751011595E+01  0.31885854987E+02  0.00000000000E+00 0. -1.
         11    1    3    3    0    0  0.12280568550E+02 -0.13237778792E+02 -0.10880280203E+02  0.21081547591E+02  0.51100000000E-03 0.  1.
        -11    1    3    3    0    0  0.89048030653E+01  0.16297714160E+01 -0.95602678203E+01  0.13166259665E+02  0.51100000000E-03 0. -1.
         12    1    3    3    0    0  0.10032563891E+02  0.53925229532E+01  0.22315649183E+02  0.25054337758E+02  0.00000000000E+00 0. -1.
</event>
<event>
 7    1  0.5837204E-012  0.5930193E+02  0.7816164E-02  0.1266605E+00
        -11   -1    0    0    0    0  0.00000000000E+00  0.00000000000E+00  0.45593999997E+02  0.45594000000E+02  0.51100000000E-03 0.  1.
         11   -1    0    0    0    0 -0.00000000000E+00 -0.00000000000E+00 -0.45593999997E+02  0.45594000000E+02  0.51100000000E-03 0. -1.
    9900012    2    1    2    0    0  0.18946863992E+02  0.22454526602E+02  0.12390799148E+02  0.59301932140E+02  0.49999978320E+02 0.  0.
         12    1    1    2    0    0 -0.18946863992E+02 -0.22454526602E+02 -0.12390799148E+02  0.31886067860E+02  0.00000000000E+00 0. -1.
         11    1    3    3    0    0 -0.10931943429E+01  0.11823214556E+02  0.10851128772E+02  0.16085100938E+02  0.51100000000E-03 0. -1.
        -11    1    3    3    0    0  0.62256235891E+01  0.18017797603E+01  0.18515140347E+02  0.19616707718E+02  0.51100000000E-03 0.  1.
         12    1    3    3    0    0  0.13814434746E+02  0.88295322857E+01 -0.16975469971E+02  0.23600123484E+02  0.00000000000E+00 0. -1.
</event>
<event>
 7    1  0.5837204E-012  0.5930193E+02  0.7816164E-02  0.1266605E+00
        -11   -1    0    0    0    0  0.00000000000E+00  0.00000000000E+00  0.45593999997E+02  0.45594000000E+02  0.51100000000E-03 0.  1.
         11   -1    0    0    0    0 -0.00000000000E+00 -0.00000000000E+00 -0.45593999997E+02  0.45594000000E+02  0.51100000000E-03 0. -1.
    9900012    2    1    2    0    0 -0.14059992890E+02 -0.24955235482E+02 -0.14009787904E+02  0.59301931959E+02  0.49999977989E+02 0.  0.
         12    1    1    2    0    0  0.14059992890E+02  0.24955235482E+02  0.14009787904E+02  0.31886068041E+02  0.00000000000E+00 0. -1.
         11    1    3    3    0    0  0.59415657842E+01 -0.84322899973E+01 -0.45698248017E+01  0.11282243462E+02  0.51100000000E-03 0. -1.
        -11    1    3    3    0    0  0.12803066157E+01 -0.21733143490E+02  0.42531820292E+01  0.22182386450E+02  0.51100000000E-03 0.  1.
        -12    1    3    3    0    0 -0.21281865290E+02  0.52101980054E+01 -0.13693145131E+02  0.25837302046E+02  0.00000000000E+00 0.  1.
</event>
<event>
 7    1  0.5837204E-012  0.5930191E+02  0.7816164E-02  0.1266605E+00
        -11   -1    0    0    0    0  0.00000000000E+00  0.00000000000E+00  0.45593999997E+02  0.45594000000E+02  0.51100000000E-03 0.  1.
         11   -1    0    0    0    0 -0.00000000000E+00 -0.00000000000E+00 -0.45593999997E+02  0.45594000000E+02  0.51100000000E-03 0. -1.
    9900012    2    1    2    0    0 -0.38711419461E+01 -0.26545041646E+02  0.17236525181E+02  0.59301909361E+02  0.49999936775E+02 0.  0.
         12    1    1    2    0    0  0.38711419461E+01  0.26545041646E+02 -0.17236525181E+02  0.31886090639E+02  0.00000000000E+00 0. -1.
         11    1    3    3    0    0 -0.27654728579E+01  0.58329896846E+00  0.11965923902E+02  0.12295178442E+02  0.51100000000E-03 0.  1.
        -11    1    3    3    0    0 -0.19374618262E+02 -0.14766403857E+02  0.53836244941E+01  0.24948064627E+02  0.51100000000E-03 0. -1.
         12    1    3    3    0    0  0.18268949174E+02 -0.12361936758E+02 -0.11302321564E+00  0.22058666292E+02  0.00000000000E+00 0. -1.
</event>
<event>
 7    1  0.5837204E-012  0.5930185E+02  0.7816164E-02  0.1266605E+00
        -11   -1    0    0    0    0  0.00000000000E+00  0.00000000000E+00  0.45593999997E+02  0.45594000000E+02  0.51100000000E-03 0. -1.
         11   -1    0    0    0    0 -0.00000000000E+00 -0.00000000000E+00 -0.45593999997E+02  0.45594000000E+02  0.51100000000E-03 0.  1.
    9900012    2    1    2    0    0 -0.19917002863E+02  0.23302997401E+02  0.87755417276E+01  0.59301845896E+02  0.49999821031E+02 0.  0.
         12    1    1    2    0    0  0.19917002863E+02 -0.23302997401E+02 -0.87755417276E+01  0.31886154104E+02  0.00000000000E+00 0. -1.
         11    1    3    3    0    0 -0.91797895645E+01  0.30654944911E+01  0.82954191104E+01  0.12746755328E+02  0.51100000000E-03 0. -1.
        -11    1    3    3    0    0 -0.54263760849E+01 -0.10242548895E+02 -0.84598835199E+01  0.14350086924E+02  0.51100000000E-03 0.  1.
        -12    1    3    3    0    0 -0.53108372135E+01  0.30480051805E+02  0.89400061372E+01  0.32205003644E+02  0.00000000000E+00 0.  1.
</event>
<event>
 7    1  0.5837204E-012  0.5930193E+02  0.7816164E-02  0.1266605E+00
        -11   -1    0    0    0    0  0.00000000000E+00  0.00000000000E+00  0.45593999997E+02  0.45594000000E+02  0.51100000000E-03 0.  1.
         11   -1    0    0    0    0 -0.00000000000E+00 -0.00000000000E+00 -0.45593999997E+02  0.45594000000E+02  0.51100000000E-03 0. -1.
    9900012    2    1    2    0    0  0.76259416595E+01 -0.15600155773E+02  0.26743257183E+02  0.59301927004E+02  0.49999968953E+02 0.  0.
         12    1    1    2    0    0 -0.76259416595E+01  0.15600155773E+02 -0.26743257183E+02  0.31886072996E+02  0.00000000000E+00 0. -1.
         11    1    3    3    0    0 -0.28804866903E+01 -0.40388296721E+01 -0.73652964857E+01  0.88801430888E+01  0.51100000000E-03 0. -1.
        -11    1    3    3    0    0  0.21968669349E+01  0.11572332935E+02  0.64891916167E+01  0.13448223748E+02  0.51100000000E-03 0.  1.
        -12    1    3    3    0    0  0.83095614148E+01 -0.23133659036E+02  0.27619362052E+02  0.36973560167E+02  0.00000000000E+00 0.  1.
</event>
<event>
 7    1  0.5837204E-012  0.5930201E+02  0.7816164E-02  0.1266605E+00
        -11   -1    0    0    0    0  0.00000000000E+00  0.00000000000E+00  0.45593999997E+02  0.45594000000E+02  0.51100000000E-03 0.  1.
         11   -1    0    0    0    0 -0.00000000000E+00 -0.00000000000E+00 -0.45593999997E+02  0.45594000000E+02  0.51100000000E-03 0. -1.
    9900012    2    1    2    0    0  0.14835443929E+02 -0.27439062545E+02  0.66123945464E+01  0.59302010733E+02  0.50000121654E+02 0.  0.
         12    1    1    2    0    0 -0.14835443929E+02  0.27439062545E+02 -0.66123945464E+01  0.31885989267E+02  0.00000000000E+00 0. -1.
         11    1    3    3    0    0  0.48041767135E+00  0.30265400883E+01 -0.32772561127E+01  0.44867754495E+01  0.51100000000E-03 0. -1.
        -11    1    3    3    0    0 -0.12579746399E+02  0.19055032455E+00 -0.87460230850E+00  0.12611552574E+02  0.51100000000E-03 0.  1.
        -12    1    3    3    0    0  0.26934772656E+02 -0.30656152958E+02  0.10764252968E+02  0.42203682709E+02  0.00000000000E+00 0.  1.
</event>
<event>
 7    1  0.5837204E-012  0.5930195E+02  0.7816164E-02  0.1266605E+00
        -11   -1    0    0    0    0  0.00000000000E+00  0.00000000000E+00  0.45593999997E+02  0.45594000000E+02  0.51100000000E-03 0.  1.
         11   -1    0    0    0    0 -0.00000000000E+00 -0.00000000000E+00 -0.45593999997E+02  0.45594000000E+02  0.51100000000E-03 0. -1.
    9900012    2    1    2    0    0  0.17169278975E+02  0.11193931547E+02  0.24426052544E+02  0.59301948396E+02  0.50000007967E+02 0.  0.
         12    1    1    2    0    0 -0.17169278975E+02 -0.11193931547E+02 -0.24426052544E+02  0.31886051604E+02  0.00000000000E+00 0. -1.
         11    1    3    3    0    0  0.15633782781E+00  0.23197705951E+02  0.85260730524E+00  0.23213895459E+02  0.51100000000E-03 0. -1.
        -11    1    3    3    0    0 -0.34437107401E+01 -0.14347322667E+01  0.10442575287E+01  0.38740256047E+01  0.51100000000E-03 0.  1.
        -12    1    3    3    0    0  0.20456651887E+02 -0.10569042137E+02  0.22529187710E+02  0.32214027333E+02  0.00000000000E+00 0.  1.
</event>
<event>
 7    1  0.5837204E-012  0.5930194E+02  0.7816164E-02  0.1266605E+00
        -11   -1    0    0    0    0  0.00000000000E+00  0.00000000000E+00  0.45593999997E+02  0.45594000000E+02  0.51100000000E-03 0. -1.
         11   -1    0    0    0    0 -0.00000000000E+00 -0.00000000000E+00 -0.45593999997E+02  0.45594000000E+02  0.51100000000E-03 0.  1.
    9900012    2    1    2    0    0  0.24909354768E+02 -0.13772140440E+02 -0.14372644605E+02  0.59301941601E+02  0.49999995575E+02 0.  0.
         12    1    1    2    0    0 -0.24909354768E+02  0.13772140440E+02  0.14372644605E+02  0.31886058399E+02  0.00000000000E+00 0. -1.
         11    1    3    3    0    0  0.72921048648E+01  0.81478513424E+01 -0.11581769898E+02  0.15927952445E+02  0.51100000000E-03 0. -1.
        -11    1    3    3    0    0 -0.60152586048E+01 -0.80532876425E+01 -0.10872050648E+02  0.14806764112E+02  0.51100000000E-03 0.  1.
        -12    1    3    3    0    0  0.23632508508E+02 -0.13866704140E+02  0.80811759414E+01  0.28567225044E+02  0.00000000000E+00 0.  1.
</event>
<event>
 7    1  0.5837204E-012  0.5930195E+02  0.7816164E-02  0.1266605E+00
        -11   -1    0    0    0    0  0.00000000000E+00  0.00000000000E+00  0.45593999997E+02  0.45594000000E+02  0.51100000000E-03 0.  1.
         11   -1    0    0    0    0 -0.00000000000E+00 -0.00000000000E+00 -0.45593999997E+02  0.45594000000E+02  0.51100000000E-03 0. -1.
    9900012    2    1    2    0    0 -0.20927405667E+02 -0.37101401935E+01  0.23769702673E+02  0.59301949549E+02  0.50000010069E+02 0.  0.
         12    1    1    2    0    0  0.20927405667E+02  0.37101401935E+01 -0.23769702673E+02  0.31886050451E+02  0.00000000000E+00 0. -1.
         11    1    3    3    0    0 -0.98561122224E+01  0.19122677218E+02  0.46922769871E+01  0.22019018954E+02  0.51100000000E-03 0. -1.
        -11    1    3    3    0    0 -0.39615276018E+01  0.15692379679E+00 -0.27251926134E+01  0.48109251771E+01  0.51100000000E-03 0.  1.
        -12    1    3    3    0    0 -0.71097658431E+01 -0.22989741208E+02  0.21802618299E+02  0.32472005418E+02  0.00000000000E+00 0.  1.
</event>
<event>
 7    1  0.5837204E-012  0.5930195E+02  0.7816164E-02  0.1266605E+00
        -11   -1    0    0    0    0  0.00000000000E+00  0.00000000000E+00  0.45593999997E+02  0.45594000000E+02  0.51100000000E-03 0. -1.
         11   -1    0    0    0    0 -0.00000000000E+00 -0.00000000000E+00 -0.45593999997E+02  0.45594000000E+02  0.51100000000E-03 0.  1.
    9900012    2    1    2    0    0  0.15447158646E+02  0.49906695851E+01 -0.27444466772E+02  0.59301948981E+02  0.50000009034E+02 0.  0.
         12    1    1    2    0    0 -0.15447158646E+02 -0.49906695851E+01  0.27444466772E+02  0.31886051019E+02  0.00000000000E+00 0. -1.
         11    1    3    3    0    0  0.18689361977E+02  0.68350033155E+00  0.93523124612E+00  0.18725225808E+02  0.51100000000E-03 0. -1.
        -11    1    3    3    0    0  0.10203359323E+02  0.70433711030E+01 -0.47993049386E+01  0.13294771383E+02  0.51100000000E-03 0.  1.
        -12    1    3    3    0    0 -0.13445562654E+02 -0.27362018494E+01 -0.23580393080E+02  0.27281951790E+02  0.00000000000E+00 0.  1.
</event>
<event>
 7    1  0.5837204E-012  0.5930194E+02  0.7816164E-02  0.1266605E+00
        -11   -1    0    0    0    0  0.00000000000E+00  0.00000000000E+00  0.45593999997E+02  0.45594000000E+02  0.51100000000E-03 0.  1.
         11   -1    0    0    0    0 -0.00000000000E+00 -0.00000000000E+00 -0.45593999997E+02  0.45594000000E+02  0.51100000000E-03 0. -1.
    9900012    2    1    2    0    0  0.10167660196E+02  0.14475366661E+02  0.26529287866E+02  0.59301942412E+02  0.49999997053E+02 0.  0.
         12    1    1    2    0    0 -0.10167660196E+02 -0.14475366661E+02 -0.26529287866E+02  0.31886057588E+02  0.00000000000E+00 0. -1.
         11    1    3    3    0    0  0.12432169117E+02 -0.33942094211E+01  0.87931042956E+00  0.12917146498E+02  0.51100000000E-03 0. -1.
        -11    1    3    3    0    0 -0.46321297466E+00  0.56191066771E+01  0.31983604197E+02  0.32476758825E+02  0.51100000000E-03 0.  1.
         12    1    3    3    0    0 -0.18012959463E+01  0.12250469405E+02 -0.63336267601E+01  0.13908037089E+02  0.00000000000E+00 0. -1.
</event>
<event>
 7    1  0.5837204E-012  0.5930200E+02  0.7816164E-02  0.1266605E+00
        -11   -1    0    0    0    0  0.00000000000E+00  0.00000000000E+00  0.45593999997E+02  0.45594000000E+02  0.51100000000E-03 0. -1.
         11   -1    0    0    0    0 -0.00000000000E+00 -0.00000000000E+00 -0.45593999997E+02  0.45594000000E+02  0.51100000000E-03 0.  1.
    9900012    2    1    2    0    0  0.51657419380E+01  0.29927063521E+02 -0.97161203019E+01  0.59301999710E+02  0.50000101552E+02 0.  0.
         12    1    1    2    0    0 -0.51657419380E+01 -0.29927063521E+02  0.97161203019E+01  0.31886000290E+02  0.00000000000E+00 0. -1.
         11    1    3    3    0    0  0.76375467967E+01 -0.81075074899E+01 -0.11663111645E+02  0.16127367184E+02  0.51100000000E-03 0. -1.
        -11    1    3    3    0    0 -0.12170599125E+01  0.42677310624E+01 -0.69379442068E+01  0.82358869181E+01  0.51100000000E-03 0.  1.
         12    1    3    3    0    0 -0.12547449462E+01  0.33766839948E+02  0.88849355500E+01  0.34938745609E+02  0.00000000000E+00 0. -1.
</event>
<event>
 7    1  0.5837204E-012  0.5930191E+02  0.7816164E-02  0.1266605E+00
        -11   -1    0    0    0    0  0.00000000000E+00  0.00000000000E+00  0.45593999997E+02  0.45594000000E+02  0.51100000000E-03 0. -1.
         11   -1    0    0    0    0 -0.00000000000E+00 -0.00000000000E+00 -0.45593999997E+02  0.45594000000E+02  0.51100000000E-03 0.  1.
    9900012    2    1    2    0    0  0.27601753081E+02 -0.93482084061E+01 -0.12941295681E+02  0.59301907304E+02  0.49999933024E+02 0.  0.
         12    1    1    2    0    0 -0.27601753081E+02  0.93482084061E+01  0.12941295681E+02  0.31886092696E+02  0.00000000000E+00 0. -1.
         11    1    3    3    0    0  0.72911219805E+01  0.52146806091E+01  0.23249224969E+01  0.92605949305E+01  0.51100000000E-03 0. -1.
        -11    1    3    3    0    0  0.25893017031E+02 -0.46371911503E+01 -0.24063563032E+02  0.35651184255E+02  0.51100000000E-03 0.  1.
        -12    1    3    3    0    0 -0.55823859303E+01 -0.99256978650E+01  0.87973448540E+01  0.14390128118E+02  0.00000000000E+00 0.  1.
</event>
<event>
 7    1  0.5837204E-012  0.5930191E+02  0.7816164E-02  0.1266605E+00
        -11   -1    0    0    0    0  0.00000000000E+00  0.00000000000E+00  0.45593999997E+02  0.45594000000E+02  0.51100000000E-03 0.  1.
         11   -1    0    0    0    0 -0.00000000000E+00 -0.00000000000E+00 -0.45593999997E+02  0.45594000000E+02  0.51100000000E-03 0. -1.
    9900012    2    1    2    0    0  0.25943223839E+02 -0.18079848527E+01  0.18450013366E+02  0.59301911095E+02  0.49999939939E+02 0.  0.
         12    1    1    2    0    0 -0.25943223839E+02  0.18079848527E+01 -0.18450013366E+02  0.31886088905E+02  0.00000000000E+00 0. -1.
         11    1    3    3    0    0 -0.28329745311E+01 -0.10813807531E+02  0.67609660330E+01  0.13064258110E+02  0.51100000000E-03 0. -1.
        -11    1    3    3    0    0  0.45965043528E+01 -0.11010222589E+02 -0.18116897997E+01  0.12067935777E+02  0.51100000000E-03 0.  1.
         12    1    3    3    0    0  0.24179694018E+02  0.20016045267E+02  0.13500737133E+02  0.34169717208E+02  0.00000000000E+00 0. -1.
</event>
<event>
 7    1  0.5837204E-012  0.5930182E+02  0.7816164E-02  0.1266605E+00
        -11   -1    0    0    0    0  0.00000000000E+00  0.00000000000E+00  0.45593999997E+02  0.45594000000E+02  0.51100000000E-03 0. -1.
         11   -1    0    0    0    0 -0.00000000000E+00 -0.00000000000E+00 -0.45593999997E+02  0.45594000000E+02  0.51100000000E-03 0.  1.
    9900012    2    1    2    0    0 -0.10415229786E+02 -0.21857822885E+01 -0.30057845623E+02  0.59301815857E+02  0.49999766246E+02 0.  0.
         12    1    1    2    0    0  0.10415229786E+02  0.21857822885E+01  0.30057845623E+02  0.31886184143E+02  0.00000000000E+00 0. -1.
         11    1    3    3    0    0  0.47548622375E+01  0.19997093633E+02 -0.12099790547E+02  0.23851570183E+02  0.51100000000E-03 0. -1.
        -11    1    3    3    0    0 -0.13490611982E+00 -0.12886196355E+02 -0.74304491159E+01  0.14875611937E+02  0.51100000000E-03 0.  1.
        -12    1    3    3    0    0 -0.15035185904E+02 -0.92966795663E+01 -0.10527605960E+02  0.20574633736E+02  0.00000000000E+00 0.  1.
</event>
<event>
 7    1  0.5837204E-012  0.5930196E+02  0.7816164E-02  0.1266605E+00
        -11   -1    0    0    0    0  0.00000000000E+00  0.00000000000E+00  0.45593999997E+02  0.45594000000E+02  0.51100000000E-03 0. -1.
         11   -1    0    0    0    0 -0.00000000000E+00 -0.00000000000E+00 -0.45593999997E+02  0.45594000000E+02  0.51100000000E-03 0.  1.
    9900012    2    1    2    0    0  0.56977775405E+01  0.12762100578E+02 -0.28659796962E+02  0.59301955372E+02  0.50000020690E+02 0.  0.
         12    1    1    2    0    0 -0.56977775405E+01 -0.12762100578E+02  0.28659796962E+02  0.31886044628E+02  0.00000000000E+00 0. -1.
         11    1    3    3    0    0 -0.48481624542E+01  0.88892831668E+01 -0.23798111905E+02  0.25862601665E+02  0.51100000000E-03 0. -1.
        -11    1    3    3    0    0 -0.92858661683E+01 -0.37955231184E+01 -0.67527614955E+01  0.12092687638E+02  0.51100000000E-03 0.  1.
         12    1    3    3    0    0  0.19831806163E+02  0.76683405295E+01  0.18910764380E+01  0.21346666069E+02  0.00000000000E+00 0. -1.
</event>
<event>
 7    1  0.5837204E-012  0.5930195E+02  0.7816164E-02  0.1266605E+00
        -11   -1    0    0    0    0  0.00000000000E+00  0.00000000000E+00  0.45593999997E+02  0.45594000000E+02  0.51100000000E-03 0. -1.
         11   -1    0    0    0    0 -0.00000000000E+00 -0.00000000000E+00 -0.45593999997E+02  0.45594000000E+02  0.51100000000E-03 0.  1.
    9900012    2    1    2    0    0  0.96234417209E+01  0.55265014911E+01 -0.29892601089E+02  0.59301945851E+02  0.50000003326E+02 0.  0.
         12    1    1    2    0    0 -0.96234417209E+01 -0.55265014911E+01  0.29892601089E+02  0.31886054149E+02  0.00000000000E+00 0. -1.
         11    1    3    3    0    0  0.13278704955E+02  0.12385234416E+02  0.22295836115E+01  0.18294509563E+02  0.51100000000E-03 0. -1.
        -11    1    3    3    0    0  0.47895029461E+01 -0.95996406612E+01 -0.38891508329E+01  0.11411307276E+02  0.51100000000E-03 0.  1.
        -12    1    3    3    0    0 -0.84447661803E+01  0.27409077363E+01 -0.28233033868E+02  0.29596129011E+02  0.00000000000E+00 0.  1.
</event>
<event>
 7    1  0.5837204E-012  0.5930196E+02  0.7816164E-02  0.1266605E+00
        -11   -1    0    0    0    0  0.00000000000E+00  0.00000000000E+00  0.45593999997E+02  0.45594000000E+02  0.51100000000E-03 0. -1.
         11   -1    0    0    0    0 -0.00000000000E+00 -0.00000000000E+00 -0.45593999997E+02  0.45594000000E+02  0.51100000000E-03 0.  1.
    9900012    2    1    2    0    0 -0.12755684877E+02  0.29152802408E+02  0.20313605430E+01  0.59301955865E+02  0.50000021589E+02 0.  0.
         12    1    1    2    0    0  0.12755684877E+02 -0.29152802408E+02 -0.20313605430E+01  0.31886044135E+02  0.00000000000E+00 0. -1.
         11    1    3    3    0    0 -0.11982937570E+02  0.52368721345E+01 -0.65058449078E+01  0.14606219250E+02  0.51100000000E-03 0. -1.
        -11    1    3    3    0    0 -0.56147136865E+01  0.13127264992E+02 -0.13523422797E+02  0.19665529750E+02  0.51100000000E-03 0.  1.
         12    1    3    3    0    0  0.48419663799E+01  0.10788665282E+02  0.22060628248E+02  0.25030206865E+02  0.00000000000E+00 0. -1.
</event>
<event>
 7    1  0.5837204E-012  0.5930197E+02  0.7816164E-02  0.1266605E+00
        -11   -1    0    0    0    0  0.00000000000E+00  0.00000000000E+00  0.45593999997E+02  0.45594000000E+02  0.51100000000E-03 0.  1.
         11   -1    0    0    0    0 -0.00000000000E+00 -0.00000000000E+00 -0.45593999997E+02  0.45594000000E+02  0.51100000000E-03 0. -1.
    9900012    2    1    2    0    0  0.75937973803E+01  0.23745508614E+02  0.19879733718E+02  0.59301972485E+02  0.50000051899E+02 0.  0.
         12    1    1    2    0    0 -0.75937973803E+01 -0.23745508614E+02 -0.19879733718E+02  0.31886027515E+02  0.00000000000E+00 0. -1.
         11    1    3    3    0    0  0.13453315979E+02  0.26683830256E+02 -0.22904600395E+01  0.29971064636E+02  0.51100000000E-03 0. -1.
        -11    1    3    3    0    0 -0.50756899305E+01 -0.29072720501E+01 -0.11803001723E+01  0.59672412220E+01  0.51100000000E-03 0.  1.
        -12    1    3    3    0    0 -0.78382866838E+00 -0.31049592294E-01  0.23350493930E+02  0.23363666627E+02  0.00000000000E+00 0.  1.
</event>
<event>
 7    1  0.5837204E-012  0.5930193E+02  0.7816164E-02  0.1266605E+00
        -11   -1    0    0    0    0  0.00000000000E+00  0.00000000000E+00  0.45593999997E+02  0.45594000000E+02  0.51100000000E-03 0.  1.
         11   -1    0    0    0    0 -0.00000000000E+00 -0.00000000000E+00 -0.45593999997E+02  0.45594000000E+02  0.51100000000E-03 0. -1.
    9900012    2    1    2    0    0 -0.16701236290E+02 -0.15586493235E+02  0.22245252577E+02  0.59301932084E+02  0.49999978217E+02 0.  0.
         12    1    1    2    0    0  0.16701236290E+02  0.15586493235E+02 -0.22245252577E+02  0.31886067916E+02  0.00000000000E+00 0. -1.
         11    1    3    3    0    0  0.48432167207E+01  0.95412893924E+01  0.50492978042E+01  0.11831667678E+02  0.51100000000E-03 0. -1.
        -11    1    3    3    0    0  0.52703075952E+01 -0.18278061619E+01 -0.32769050887E+01  0.64695536735E+01  0.51100000000E-03 0.  1.
        -12    1    3    3    0    0 -0.26814760605E+02 -0.23299976466E+02  0.20472859861E+02  0.41000710732E+02  0.00000000000E+00 0.  1.
</event>
<event>
 7    1  0.5837204E-012  0.5930196E+02  0.7816164E-02  0.1266605E+00
        -11   -1    0    0    0    0  0.00000000000E+00  0.00000000000E+00  0.45593999997E+02  0.45594000000E+02  0.51100000000E-03 0.  1.
         11   -1    0    0    0    0 -0.00000000000E+00 -0.00000000000E+00 -0.45593999997E+02  0.45594000000E+02  0.51100000000E-03 0. -1.
    9900012    2    1    2    0    0  0.22859723681E+01  0.24364939804E+02  0.20441227916E+02  0.59301956658E+02  0.50000023034E+02 0.  0.
         12    1    1    2    0    0 -0.22859723681E+01 -0.24364939804E+02 -0.20441227916E+02  0.31886043342E+02  0.00000000000E+00 0. -1.
         11    1    3    3    0    0  0.37086732025E+01 -0.96956502027E+01 -0.25995657365E+00  0.10384000552E+02  0.51100000000E-03 0. -1.
        -11    1    3    3    0    0  0.13378193191E+02  0.15379054710E+02  0.11217099889E+02  0.23266170871E+02  0.51100000000E-03 0.  1.
        -12    1    3    3    0    0 -0.14800894026E+02  0.18681535297E+02  0.94840846008E+01  0.25651785235E+02  0.00000000000E+00 0.  1.
</event>
<event>
 7    1  0.5837204E-012  0.5930192E+02  0.7816164E-02  0.1266605E+00
        -11   -1    0    0    0    0  0.00000000000E+00  0.00000000000E+00  0.45593999997E+02  0.45594000000E+02  0.51100000000E-03 0. -1.
         11   -1    0    0    0    0 -0.00000000000E+00 -0.00000000000E+00 -0.45593999997E+02  0.45594000000E+02  0.51100000000E-03 0.  1.
    9900012    2    1    2    0    0 -0.27774780903E+01  0.92754636990E+01 -0.30380474748E+02  0.59301923771E+02  0.49999963057E+02 0.  0.
         12    1    1    2    0    0  0.27774780903E+01 -0.92754636990E+01  0.30380474748E+02  0.31886076229E+02  0.00000000000E+00 0. -1.
         11    1    3    3    0    0  0.14339259313E+02 -0.59552400754E+01 -0.16525407373E+01  0.15614420679E+02  0.51100000000E-03 0. -1.
        -11    1    3    3    0    0 -0.87736736477E+01  0.16064513655E+02 -0.56853975324E+01  0.19166890557E+02  0.51100000000E-03 0.  1.
        -12    1    3    3    0    0 -0.83430637558E+01 -0.83380988110E+00 -0.23042536478E+02  0.24520612535E+02  0.00000000000E+00 0.  1.
</event>
<event>
 7    1  0.5837204E-012  0.5930198E+02  0.7816164E-02  0.1266605E+00
        -11   -1    0    0    0    0  0.00000000000E+00  0.00000000000E+00  0.45593999997E+02  0.45594000000E+02  0.51100000000E-03 0.  1.
         11   -1    0    0    0    0 -0.00000000000E+00 -0.00000000000E+00 -0.45593999997E+02  0.45594000000E+02  0.51100000000E-03 0. -1.
    9900012    2    1    2    0    0  0.22300108566E+02 -0.11695619667E+02  0.19561088898E+02  0.59301975470E+02  0.50000057344E+02 0.  0.
         12    1    1    2    0    0 -0.22300108566E+02  0.11695619667E+02 -0.19561088898E+02  0.31886024530E+02  0.00000000000E+00 0. -1.
         11    1    3    3    0    0  0.20137284250E+02 -0.31924914557E+01 -0.13323142778E+02  0.24355868951E+02  0.51100000000E-03 0. -1.
        -11    1    3    3    0    0  0.32973158698E+00  0.15587855931E+00 -0.37868498094E+00  0.52576004090E+00  0.51100000000E-03 0.  1.
        -12    1    3    3    0    0  0.18330927297E+01 -0.86590067702E+01  0.33262916656E+02  0.34420346478E+02  0.00000000000E+00 0.  1.
</event>
<event>
 7    1  0.5837204E-012  0.5930196E+02  0.7816164E-02  0.1266605E+00
        -11   -1    0    0    0    0  0.00000000000E+00  0.00000000000E+00  0.45593999997E+02  0.45594000000E+02  0.51100000000E-03 0.  1.
         11   -1    0    0    0    0 -0.00000000000E+00 -0.00000000000E+00 -0.45593999997E+02  0.45594000000E+02  0.51100000000E-03 0. -1.
    9900012    2    1    2    0    0  0.16892131370E+02  0.21746899824E+01  0.26956379917E+02  0.59301956078E+02  0.50000021977E+02 0.  0.
         12    1    1    2    0    0 -0.16892131370E+02 -0.21746899824E+01 -0.26956379917E+02  0.31886043922E+02  0.00000000000E+00 0. -1.
         11    1    3    3    0    0  0.91721337002E+01 -0.76334106109E+01  0.60760834074E+01  0.13390884362E+02  0.51100000000E-03 0. -1.
        -11    1    3    3    0    0  0.15907438202E+02  0.91154647535E+01  0.29032180810E+02  0.34336654040E+02  0.51100000000E-03 0.  1.
         12    1    3    3    0    0 -0.81874405324E+01  0.69263583979E+00 -0.81518843002E+01  0.11574417675E+02  0.00000000000E+00 0. -1.
</event>
<event>
 7    1  0.5837204E-012  0.5930196E+02  0.7816164E-02  0.1266605E+00
        -11   -1    0    0    0    0  0.00000000000E+00  0.00000000000E+00  0.45593999997E+02  0.45594000000E+02  0.51100000000E-03 0.  1.
         11   -1    0    0    0    0 -0.00000000000E+00 -0.00000000000E+00 -0.45593999997E+02  0.45594000000E+02  0.51100000000E-03 0. -1.
    9900012    2    1    2    0    0 -0.41186865777E+01 -0.12681559442E+02  0.28964362858E+02  0.59301955329E+02  0.50000020611E+02 0.  0.
         12    1    1    2    0    0  0.41186865777E+01  0.12681559442E+02 -0.28964362858E+02  0.31886044671E+02  0.00000000000E+00 0. -1.
         11    1    3    3    0    0 -0.13739476563E+01  0.11866243577E+02  0.89468339739E+01  0.14924520334E+02  0.51100000000E-03 0. -1.
        -11    1    3    3    0    0 -0.85453959773E+01 -0.73910016807E+01 -0.59101725617E+01  0.12750719126E+02  0.51100000000E-03 0.  1.
        -12    1    3    3    0    0  0.58006570559E+01 -0.17156801338E+02  0.25927701446E+02  0.31626715869E+02  0.00000000000E+00 0.  1.
</event>
<event>
 7    1  0.5837204E-012  0.5930193E+02  0.7816164E-02  0.1266605E+00
        -11   -1    0    0    0    0  0.00000000000E+00  0.00000000000E+00  0.45593999997E+02  0.45594000000E+02  0.51100000000E-03 0.  1.
         11   -1    0    0    0    0 -0.00000000000E+00 -0.00000000000E+00 -0.45593999997E+02  0.45594000000E+02  0.51100000000E-03 0. -1.
    9900012    2    1    2    0    0  0.30035500078E+01 -0.17567590039E+02  0.26440121123E+02  0.59301928786E+02  0.49999972203E+02 0.  0.
         12    1    1    2    0    0 -0.30035500078E+01  0.17567590039E+02 -0.26440121123E+02  0.31886071214E+02  0.00000000000E+00 0. -1.
         11    1    3    3    0    0 -0.79918262759E+01 -0.40689608644E+01 -0.32302041924E+01  0.95320485272E+01  0.51100000000E-03 0. -1.
        -11    1    3    3    0    0  0.84283733955E+01 -0.72270553590E+01 -0.65703621726E+01  0.12901064553E+02  0.51100000000E-03 0.  1.
        -12    1    3    3    0    0  0.25670028882E+01 -0.62715738158E+01  0.36240687488E+02  0.36868815706E+02  0.00000000000E+00 0.  1.
</event>
<event>
 7    1  0.5837204E-012  0.5930192E+02  0.7816164E-02  0.1266605E+00
        -11   -1    0    0    0    0  0.00000000000E+00  0.00000000000E+00  0.45593999997E+02  0.45594000000E+02  0.51100000000E-03 0. -1.
         11   -1    0    0    0    0 -0.00000000000E+00 -0.00000000000E+00 -0.45593999997E+02  0.45594000000E+02  0.51100000000E-03 0.  1.
    9900012    2    1    2    0    0  0.30902070522E+01 -0.24231329063E+02 -0.20494270982E+02  0.59301924185E+02  0.49999963812E+02 0.  0.
         12    1    1    2    0    0 -0.30902070522E+01  0.24231329063E+02  0.20494270982E+02  0.31886075815E+02  0.00000000000E+00 0. -1.
         11    1    3    3    0    0  0.23760584724E+01 -0.48487680833E-01  0.51543071557E+01  0.56758160150E+01  0.51100000000E-03 0. -1.
        -11    1    3    3    0    0 -0.11483109340E+02 -0.16650832672E+02  0.40688547022E+01  0.20631713638E+02  0.51100000000E-03 0.  1.
        -12    1    3    3    0    0  0.12197257920E+02 -0.75320087096E+01 -0.29717432840E+02  0.32994394532E+02  0.00000000000E+00 0.  1.
</event>
<event>
 7    1  0.5837204E-012  0.5930195E+02  0.7816164E-02  0.1266605E+00
        -11   -1    0    0    0    0  0.00000000000E+00  0.00000000000E+00  0.45593999997E+02  0.45594000000E+02  0.51100000000E-03 0. -1.
         11   -1    0    0    0    0 -0.00000000000E+00 -0.00000000000E+00 -0.45593999997E+02  0.45594000000E+02  0.51100000000E-03 0.  1.
    9900012    2    1    2    0    0  0.26971538299E+02  0.14354240284E+01 -0.16946860750E+02  0.59301946471E+02  0.50000004456E+02 0.  0.
         12    1    1    2    0    0 -0.26971538299E+02 -0.14354240284E+01  0.16946860750E+02  0.31886053529E+02  0.00000000000E+00 0. -1.
         11    1    3    3    0    0  0.67434570454E+01 -0.16478478843E+01  0.27711994127E+01  0.74745676811E+01  0.51100000000E-03 0. -1.
        -11    1    3    3    0    0  0.24798168304E+02  0.18480863710E+02 -0.17715052070E+02  0.35641472259E+02  0.51100000000E-03 0.  1.
         12    1    3    3    0    0 -0.45700870506E+01 -0.15397591797E+02 -0.20030080934E+01  0.16185906531E+02  0.00000000000E+00 0. -1.
</event>
<event>
 7    1  0.5837204E-012  0.5930190E+02  0.7816164E-02  0.1266605E+00
        -11   -1    0    0    0    0  0.00000000000E+00  0.00000000000E+00  0.45593999997E+02  0.45594000000E+02  0.51100000000E-03 0.  1.
         11   -1    0    0    0    0 -0.00000000000E+00 -0.00000000000E+00 -0.45593999997E+02  0.45594000000E+02  0.51100000000E-03 0. -1.
    9900012    2    1    2    0    0  0.67987455748E+01 -0.17502263978E+02  0.25771519481E+02  0.59301899547E+02  0.49999918877E+02 0.  0.
         12    1    1    2    0    0 -0.67987455748E+01  0.17502263978E+02 -0.25771519481E+02  0.31886100453E+02  0.00000000000E+00 0. -1.
         11    1    3    3    0    0 -0.90620988147E+01  0.39412272072E+01  0.41777056329E+01  0.10728845765E+02  0.51100000000E-03 0. -1.
        -11    1    3    3    0    0 -0.54233435896E+01 -0.90091235278E+01  0.21487604823E+02  0.23922669661E+02  0.51100000000E-03 0.  1.
         12    1    3    3    0    0  0.21284187979E+02 -0.12434367657E+02  0.10620902559E+00  0.24650384121E+02  0.00000000000E+00 0. -1.
</event>
<event>
 7    1  0.5837204E-012  0.5930195E+02  0.7816164E-02  0.1266605E+00
        -11   -1    0    0    0    0  0.00000000000E+00  0.00000000000E+00  0.45593999997E+02  0.45594000000E+02  0.51100000000E-03 0.  1.
         11   -1    0    0    0    0 -0.00000000000E+00 -0.00000000000E+00 -0.45593999997E+02  0.45594000000E+02  0.51100000000E-03 0. -1.
    9900012    2    1    2    0    0 -0.11435176121E+02  0.29710685476E+02  0.17978211034E+01  0.59301949051E+02  0.50000009162E+02 0.  0.
         12    1    1    2    0    0  0.11435176121E+02 -0.29710685476E+02 -0.17978211034E+01  0.31886050949E+02  0.00000000000E+00 0. -1.
         11    1    3    3    0    0 -0.10251033464E+02  0.13905575506E+02  0.75605353018E+01  0.18857635364E+02  0.51100000000E-03 0. -1.
        -11    1    3    3    0    0 -0.10013946948E+01  0.25217427268E+02  0.54341801959E+01  0.25815726680E+02  0.51100000000E-03 0.  1.
         12    1    3    3    0    0 -0.18274796241E+00 -0.94123172978E+01 -0.11196894394E+02  0.14628587007E+02  0.00000000000E+00 0. -1.
</event>
<event>
 7    1  0.5837204E-012  0.5930193E+02  0.7816164E-02  0.1266605E+00
        -11   -1    0    0    0    0  0.00000000000E+00  0.00000000000E+00  0.45593999997E+02  0.45594000000E+02  0.51100000000E-03 0.  1.
         11   -1    0    0    0    0 -0.00000000000E+00 -0.00000000000E+00 -0.45593999997E+02  0.45594000000E+02  0.51100000000E-03 0. -1.
    9900012    2    1    2    0    0 -0.24749482090E+02  0.19604332974E+02  0.44558780621E+01  0.59301928050E+02  0.49999970861E+02 0.  0.
         12    1    1    2    0    0  0.24749482090E+02 -0.19604332974E+02 -0.44558780621E+01  0.31886071950E+02  0.00000000000E+00 0. -1.
         11    1    3    3    0    0 -0.13718859774E+02 -0.63167294822E+01 -0.45525179817E+01  0.15774460532E+02  0.51100000000E-03 0. -1.
        -11    1    3    3    0    0 -0.18297495553E+02  0.15142234796E+02 -0.51541485354E+01  0.24303309765E+02  0.51100000000E-03 0.  1.
        -12    1    3    3    0    0  0.72668732366E+01  0.10778827660E+02  0.14162544579E+02  0.19224157753E+02  0.00000000000E+00 0.  1.
</event>
<event>
 7    1  0.5837204E-012  0.5930196E+02  0.7816164E-02  0.1266605E+00
        -11   -1    0    0    0    0  0.00000000000E+00  0.00000000000E+00  0.45593999997E+02  0.45594000000E+02  0.51100000000E-03 0. -1.
         11   -1    0    0    0    0 -0.00000000000E+00 -0.00000000000E+00 -0.45593999997E+02  0.45594000000E+02  0.51100000000E-03 0.  1.
    9900012    2    1    2    0    0 -0.14806319925E+02  0.42110190006E+01 -0.27924175222E+02  0.59301963047E+02  0.50000034686E+02 0.  0.
         12    1    1    2    0    0  0.14806319925E+02 -0.42110190006E+01  0.27924175222E+02  0.31886036953E+02  0.00000000000E+00 0. -1.
         11    1    3    3    0    0 -0.18839203920E+02  0.70711772251E+01 -0.42096717557E+01  0.20558173271E+02  0.51100000000E-03 0. -1.
        -11    1    3    3    0    0 -0.18342951604E+01  0.12204125810E+02 -0.34376408236E+01  0.12811038218E+02  0.51100000000E-03 0.  1.
        -12    1    3    3    0    0  0.58671791552E+01 -0.15064284035E+02 -0.20276862643E+02  0.25932751558E+02  0.00000000000E+00 0.  1.
</event>
<event>
 7    1  0.5837204E-012  0.5930188E+02  0.7816164E-02  0.1266605E+00
        -11   -1    0    0    0    0  0.00000000000E+00  0.00000000000E+00  0.45593999997E+02  0.45594000000E+02  0.51100000000E-03 0.  1.
         11   -1    0    0    0    0 -0.00000000000E+00 -0.00000000000E+00 -0.45593999997E+02  0.45594000000E+02  0.51100000000E-03 0. -1.
    9900012    2    1    2    0    0  0.21685484428E+02 -0.23374885298E+02  0.28088874404E+00  0.59301883961E+02  0.49999890452E+02 0.  0.
         12    1    1    2    0    0 -0.21685484428E+02  0.23374885298E+02 -0.28088874404E+00  0.31886116039E+02  0.00000000000E+00 0. -1.
         11    1    3    3    0    0  0.18332011687E+02 -0.58028087658E+01 -0.15664319942E+02  0.24801333867E+02  0.51100000000E-03 0. -1.
        -11    1    3    3    0    0 -0.39329221688E+01  0.48802234276E+01  0.66308544638E+01  0.91242911325E+01  0.51100000000E-03 0.  1.
        -12    1    3    3    0    0  0.72863949092E+01 -0.22452299960E+02  0.93143542224E+01  0.25376258961E+02  0.00000000000E+00 0.  1.
</event>
<event>
 7    1  0.5837204E-012  0.5930205E+02  0.7816164E-02  0.1266604E+00
        -11   -1    0    0    0    0  0.00000000000E+00  0.00000000000E+00  0.45593999997E+02  0.45594000000E+02  0.51100000000E-03 0.  1.
         11   -1    0    0    0    0 -0.00000000000E+00 -0.00000000000E+00 -0.45593999997E+02  0.45594000000E+02  0.51100000000E-03 0. -1.
    9900012    2    1    2    0    0  0.17198742610E+02  0.26730503237E+02 -0.25292548234E+01  0.59302051988E+02  0.50000196894E+02 0.  0.
         12    1    1    2    0    0 -0.17198742610E+02 -0.26730503237E+02  0.25292548234E+01  0.31885948012E+02  0.00000000000E+00 0. -1.
         11    1    3    3    0    0  0.34313623319E+01  0.66366106837E+01  0.96918733747E+01  0.12237289675E+02  0.51100000000E-03 0. -1.
        -11    1    3    3    0    0  0.18850779622E+02  0.26872800259E+02 -0.78878704811E+00  0.32834760108E+02  0.51100000000E-03 0.  1.
         12    1    3    3    0    0 -0.50833993438E+01 -0.67789077060E+01 -0.11432341150E+02  0.14230002205E+02  0.00000000000E+00 0. -1.
</event>
<event>
 7    1  0.5837204E-012  0.5930195E+02  0.7816164E-02  0.1266605E+00
        -11   -1    0    0    0    0  0.00000000000E+00  0.00000000000E+00  0.45593999997E+02  0.45594000000E+02  0.51100000000E-03 0. -1.
         11   -1    0    0    0    0 -0.00000000000E+00 -0.00000000000E+00 -0.45593999997E+02  0.45594000000E+02  0.51100000000E-03 0.  1.
    9900012    2    1    2    0    0  0.73451096838E+01 -0.23013984779E+02 -0.20811679757E+02  0.59301950605E+02  0.50000011996E+02 0.  0.
         12    1    1    2    0    0 -0.73451096838E+01  0.23013984779E+02  0.20811679757E+02  0.31886049395E+02  0.00000000000E+00 0. -1.
         11    1    3    3    0    0  0.22538741750E+02  0.85376571880E+00 -0.10316930730E+02  0.24802476802E+02  0.51100000000E-03 0. -1.
        -11    1    3    3    0    0 -0.10075027956E+01 -0.46775911820E+00 -0.67961567330E+01  0.68863348072E+01  0.51100000000E-03 0.  1.
         12    1    3    3    0    0 -0.14186129270E+02 -0.23399991380E+02 -0.36985922939E+01  0.27613138996E+02  0.00000000000E+00 0. -1.
</event>
<event>
 7    1  0.5837204E-012  0.5930194E+02  0.7816164E-02  0.1266605E+00
        -11   -1    0    0    0    0  0.00000000000E+00  0.00000000000E+00  0.45593999997E+02  0.45594000000E+02  0.51100000000E-03 0.  1.
         11   -1    0    0    0    0 -0.00000000000E+00 -0.00000000000E+00 -0.45593999997E+02  0.45594000000E+02  0.51100000000E-03 0. -1.
    9900012    2    1    2    0    0 -0.23276902812E+02 -0.21767852953E+02  0.10330032225E+01  0.59301941567E+02  0.49999995512E+02 0.  0.
         12    1    1    2    0    0  0.23276902812E+02  0.21767852953E+02 -0.10330032225E+01  0.31886058433E+02  0.00000000000E+00 0. -1.
         11    1    3    3    0    0 -0.79566480775E+01 -0.15414916781E+02  0.69354445144E+01  0.18682299079E+02  0.51100000000E-03 0.  1.
        -11    1    3    3    0    0 -0.35580281965E+01 -0.14721258122E+02 -0.16735871872E+02  0.22571318369E+02  0.51100000000E-03 0. -1.
         12    1    3    3    0    0 -0.11762226538E+02  0.83683219495E+01  0.10833430580E+02  0.18048324119E+02  0.00000000000E+00 0. -1.
</event>
<event>
 7    1  0.5837204E-012  0.5930185E+02  0.7816164E-02  0.1266605E+00
        -11   -1    0    0    0    0  0.00000000000E+00  0.00000000000E+00  0.45593999997E+02  0.45594000000E+02  0.51100000000E-03 0. -1.
         11   -1    0    0    0    0 -0.00000000000E+00 -0.00000000000E+00 -0.45593999997E+02  0.45594000000E+02  0.51100000000E-03 0.  1.
    9900012    2    1    2    0    0 -0.27646377388E+02  0.12847740993E+01 -0.15835198590E+02  0.59301853454E+02  0.49999834815E+02 0.  0.
         12    1    1    2    0    0  0.27646377388E+02 -0.12847740993E+01  0.15835198590E+02  0.31886146546E+02  0.00000000000E+00 0. -1.
         11    1    3    3    0    0  0.13365823384E+01 -0.15207104194E+00  0.13900671057E+01  0.19343900249E+01  0.51100000000E-03 0. -1.
        -11    1    3    3    0    0  0.95154530674E+01  0.91228951951E+01  0.25239063724E+01  0.13421667834E+02  0.51100000000E-03 0.  1.
        -12    1    3    3    0    0 -0.38498412794E+02 -0.76860500538E+01 -0.19749172068E+02  0.43945795595E+02  0.00000000000E+00 0.  1.
</event>
<event>
 7    1  0.5837204E-012  0.5930194E+02  0.7816164E-02  0.1266605E+00
        -11   -1    0    0    0    0  0.00000000000E+00  0.00000000000E+00  0.45593999997E+02  0.45594000000E+02  0.51100000000E-03 0.  1.
         11   -1    0    0    0    0 -0.00000000000E+00 -0.00000000000E+00 -0.45593999997E+02  0.45594000000E+02  0.51100000000E-03 0. -1.
    9900012    2    1    2    0    0  0.18326632810E+01  0.13568089180E+02  0.28797029115E+02  0.59301943728E+02  0.49999999454E+02 0.  0.
         12    1    1    2    0    0 -0.18326632810E+01 -0.13568089180E+02 -0.28797029115E+02  0.31886056272E+02  0.00000000000E+00 0. -1.
         11    1    3    3    0    0  0.13332465691E+02  0.80743911606E+00  0.17898212321E+01  0.13476277662E+02  0.51100000000E-03 0. -1.
        -11    1    3    3    0    0 -0.10858853112E+02 -0.95239289286E+01  0.78932030368E+01  0.16459725623E+02  0.51100000000E-03 0.  1.
        -12    1    3    3    0    0 -0.64094929775E+00  0.22284578992E+02  0.19114004846E+02  0.29365940443E+02  0.00000000000E+00 0.  1.
</event>
<event>
 7    1  0.5837204E-012  0.5930196E+02  0.7816164E-02  0.1266605E+00
        -11   -1    0    0    0    0  0.00000000000E+00  0.00000000000E+00  0.45593999997E+02  0.45594000000E+02  0.51100000000E-03 0.  1.
         11   -1    0    0    0    0 -0.00000000000E+00 -0.00000000000E+00 -0.45593999997E+02  0.45594000000E+02  0.51100000000E-03 0. -1.
    9900012    2    1    2    0    0  0.31141081396E+02  0.68428477748E+01 -0.35812022657E+00  0.59301956560E+02  0.50000022855E+02 0.  0.
         12    1    1    2    0    0 -0.31141081396E+02 -0.68428477748E+01  0.35812022657E+00  0.31886043440E+02  0.00000000000E+00 0. -1.
         11    1    3    3    0    0  0.55489166197E+01  0.11437607961E+02  0.10574177925E+01  0.12756468327E+02  0.51100000000E-03 0. -1.
        -11    1    3    3    0    0  0.21226937849E+02 -0.14641301711E+01  0.17080627072E+02  0.27285057981E+02  0.51100000000E-03 0.  1.
         12    1    3    3    0    0  0.43652269279E+01 -0.31306300152E+01 -0.18496165091E+02  0.19260430252E+02  0.00000000000E+00 0. -1.
</event>
<event>
 7    1  0.5837204E-012  0.5930193E+02  0.7816164E-02  0.1266605E+00
        -11   -1    0    0    0    0  0.00000000000E+00  0.00000000000E+00  0.45593999997E+02  0.45594000000E+02  0.51100000000E-03 0. -1.
         11   -1    0    0    0    0 -0.00000000000E+00 -0.00000000000E+00 -0.45593999997E+02  0.45594000000E+02  0.51100000000E-03 0.  1.
    9900012    2    1    2    0    0 -0.26703109938E+02 -0.26341593650E+01 -0.17225747306E+02  0.59301933354E+02  0.49999980533E+02 0.  0.
         12    1    1    2    0    0  0.26703109938E+02  0.26341593650E+01  0.17225747306E+02  0.31886066646E+02  0.00000000000E+00 0. -1.
         11    1    3    3    0    0  0.19530685822E+01  0.31178310364E+00 -0.32246242940E+00  0.20039131394E+01  0.51100000000E-03 0. -1.
        -11    1    3    3    0    0 -0.12888266499E+02 -0.20614528188E+02  0.52475296916E+01  0.24871725993E+02  0.51100000000E-03 0.  1.
        -12    1    3    3    0    0 -0.15767912022E+02  0.17668585720E+02 -0.22150814568E+02  0.32426294221E+02  0.00000000000E+00 0.  1.
</event>
<event>
 7    1  0.5837204E-012  0.5930196E+02  0.7816164E-02  0.1266605E+00
        -11   -1    0    0    0    0  0.00000000000E+00  0.00000000000E+00  0.45593999997E+02  0.45594000000E+02  0.51100000000E-03 0.  1.
         11   -1    0    0    0    0 -0.00000000000E+00 -0.00000000000E+00 -0.45593999997E+02  0.45594000000E+02  0.51100000000E-03 0. -1.
    9900012    2    1    2    0    0  0.96603802310E+01 -0.17314967494E+02  0.24971749414E+02  0.59301963647E+02  0.50000035781E+02 0.  0.
         12    1    1    2    0    0 -0.96603802310E+01  0.17314967494E+02 -0.24971749414E+02  0.31886036353E+02  0.00000000000E+00 0. -1.
         11    1    3    3    0    0 -0.88482220296E+00  0.49340099316E+01 -0.62437591702E+01  0.80069902693E+01  0.51100000000E-03 0. -1.
        -11    1    3    3    0    0  0.12419365166E+02 -0.23759168034E+02  0.80316841154E+01  0.27986544031E+02  0.51100000000E-03 0.  1.
         12    1    3    3    0    0 -0.18741627325E+01  0.15101906089E+01  0.23183824468E+02  0.23308429347E+02  0.00000000000E+00 0. -1.
</event>
<event>
 7    1  0.5837204E-012  0.5930193E+02  0.7816164E-02  0.1266605E+00
        -11   -1    0    0    0    0  0.00000000000E+00  0.00000000000E+00  0.45593999997E+02  0.45594000000E+02  0.51100000000E-03 0.  1.
         11   -1    0    0    0    0 -0.00000000000E+00 -0.00000000000E+00 -0.45593999997E+02  0.45594000000E+02  0.51100000000E-03 0. -1.
    9900012    2    1    2    0    0 -0.31858593907E+02 -0.18559786582E+00 -0.13102689475E+01  0.59301933184E+02  0.49999980224E+02 0.  0.
         12    1    1    2    0    0  0.31858593907E+02  0.18559786582E+00  0.13102689475E+01  0.31886066816E+02  0.00000000000E+00 0. -1.
         11    1    3    3    0    0 -0.25151567803E+02 -0.15921827541E+02  0.59797169406E+01  0.30362196399E+02  0.51100000000E-03 0. -1.
        -11    1    3    3    0    0  0.36506854300E+01 -0.41265627981E+01 -0.24074377636E+01  0.60126351530E+01  0.51100000000E-03 0.  1.
         12    1    3    3    0    0 -0.10357711534E+02  0.19862792474E+02 -0.48825481244E+01  0.22927101632E+02  0.00000000000E+00 0. -1.
</event>
<event>
 7    1  0.5837204E-012  0.5930195E+02  0.7816164E-02  0.1266605E+00
        -11   -1    0    0    0    0  0.00000000000E+00  0.00000000000E+00  0.45593999997E+02  0.45594000000E+02  0.51100000000E-03 0. -1.
         11   -1    0    0    0    0 -0.00000000000E+00 -0.00000000000E+00 -0.45593999997E+02  0.45594000000E+02  0.51100000000E-03 0.  1.
    9900012    2    1    2    0    0 -0.14562551036E+02 -0.20574634765E+02 -0.19527844723E+02  0.59301949634E+02  0.50000010225E+02 0.  0.
         12    1    1    2    0    0  0.14562551036E+02  0.20574634765E+02  0.19527844723E+02  0.31886050366E+02  0.00000000000E+00 0. -1.
         11    1    3    3    0    0 -0.40549924696E+01 -0.28463971939E+02 -0.12392107401E+02  0.31308225574E+02  0.51100000000E-03 0. -1.
        -11    1    3    3    0    0 -0.19643198523E+01 -0.57985278641E+01 -0.98836788712E+01  0.11626202569E+02  0.51100000000E-03 0.  1.
        -12    1    3    3    0    0 -0.85432387138E+01  0.13687865039E+02  0.27479415488E+01  0.16367521492E+02  0.00000000000E+00 0.  1.
</event>
<event>
 7    1  0.5837204E-012  0.5930197E+02  0.7816164E-02  0.1266605E+00
        -11   -1    0    0    0    0  0.00000000000E+00  0.00000000000E+00  0.45593999997E+02  0.45594000000E+02  0.51100000000E-03 0.  1.
         11   -1    0    0    0    0 -0.00000000000E+00 -0.00000000000E+00 -0.45593999997E+02  0.45594000000E+02  0.51100000000E-03 0. -1.
    9900012    2    1    2    0    0  0.26185990252E+01 -0.20230328007E+02  0.24507047637E+02  0.59301974597E+02  0.50000055751E+02 0.  0.
         12    1    1    2    0    0 -0.26185990252E+01  0.20230328007E+02 -0.24507047637E+02  0.31886025403E+02  0.00000000000E+00 0. -1.
         11    1    3    3    0    0 -0.70357175345E+01  0.30015713397E+01  0.21453287246E+02  0.22776178030E+02  0.51100000000E-03 0. -1.
        -11    1    3    3    0    0 -0.61777108118E+01 -0.18317179291E+02  0.46180082645E+01  0.19874837576E+02  0.51100000000E-03 0.  1.
         12    1    3    3    0    0  0.15832027372E+02 -0.49147200558E+01 -0.15642478735E+01  0.16650958991E+02  0.00000000000E+00 0. -1.
</event>
<event>
 7    1  0.5837204E-012  0.5930199E+02  0.7816164E-02  0.1266605E+00
        -11   -1    0    0    0    0  0.00000000000E+00  0.00000000000E+00  0.45593999997E+02  0.45594000000E+02  0.51100000000E-03 0. -1.
         11   -1    0    0    0    0 -0.00000000000E+00 -0.00000000000E+00 -0.45593999997E+02  0.45594000000E+02  0.51100000000E-03 0.  1.
    9900012    2    1    2    0    0 -0.26885852031E+02  0.11909196424E+02  0.12330437844E+02  0.59301989018E+02  0.50000082051E+02 0.  0.
         12    1    1    2    0    0  0.26885852031E+02 -0.11909196424E+02 -0.12330437844E+02  0.31886010982E+02  0.00000000000E+00 0. -1.
         11    1    3    3    0    0 -0.26157446564E+02  0.19582622215E+01  0.81961556750E+01  0.27481334935E+02  0.51100000000E-03 0. -1.
        -11    1    3    3    0    0 -0.65362200770E+01  0.85860971208E+01 -0.11087307491E+02  0.15471639355E+02  0.51100000000E-03 0.  1.
        -12    1    3    3    0    0  0.58078146100E+01  0.13648370817E+01  0.15221589660E+02  0.16349014728E+02  0.00000000000E+00 0.  1.
</event>
<event>
 7    1  0.5837204E-012  0.5930189E+02  0.7816164E-02  0.1266605E+00
        -11   -1    0    0    0    0  0.00000000000E+00  0.00000000000E+00  0.45593999997E+02  0.45594000000E+02  0.51100000000E-03 0.  1.
         11   -1    0    0    0    0 -0.00000000000E+00 -0.00000000000E+00 -0.45593999997E+02  0.45594000000E+02  0.51100000000E-03 0. -1.
    9900012    2    1    2    0    0 -0.19569168462E+02  0.35241329642E+01  0.24926939922E+02  0.59301887014E+02  0.49999896021E+02 0.  0.
         12    1    1    2    0    0  0.19569168462E+02 -0.35241329642E+01 -0.24926939922E+02  0.31886112986E+02  0.00000000000E+00 0. -1.
         11    1    3    3    0    0 -0.56897703716E+01  0.33870006089E+00 -0.45982925956E+01  0.73234213089E+01  0.51100000000E-03 0. -1.
        -11    1    3    3    0    0  0.26288209695E+01 -0.13109071055E+02 -0.12640052051E+01  0.13429674346E+02  0.51100000000E-03 0.  1.
        -12    1    3    3    0    0 -0.16508219060E+02  0.16294503958E+02  0.30789237723E+02  0.38548791360E+02  0.00000000000E+00 0.  1.
</event>
<event>
 7    1  0.5837204E-012  0.5930195E+02  0.7816164E-02  0.1266605E+00
        -11   -1    0    0    0    0  0.00000000000E+00  0.00000000000E+00  0.45593999997E+02  0.45594000000E+02  0.51100000000E-03 0.  1.
         11   -1    0    0    0    0 -0.00000000000E+00 -0.00000000000E+00 -0.45593999997E+02  0.45594000000E+02  0.51100000000E-03 0. -1.
    9900012    2    1    2    0    0  0.34101617855E+01 -0.28838932499E+02  0.13168413977E+02  0.59301947285E+02  0.50000005940E+02 0.  0.
         12    1    1    2    0    0 -0.34101617855E+01  0.28838932499E+02 -0.13168413977E+02  0.31886052715E+02  0.00000000000E+00 0. -1.
         11    1    3    3    0    0  0.56883728225E+01 -0.10461140658E+02  0.95757565086E+01  0.15280319440E+02  0.51100000000E-03 0. -1.
        -11    1    3    3    0    0 -0.17446049244E+02 -0.16951676466E+01  0.10509480317E+02  0.20437402094E+02  0.51100000000E-03 0.  1.
         12    1    3    3    0    0  0.15167838207E+02 -0.16682624195E+02 -0.69168228489E+01  0.23584225750E+02  0.00000000000E+00 0. -1.
</event>
<event>
 7    1  0.5837204E-012  0.5930194E+02  0.7816164E-02  0.1266605E+00
        -11   -1    0    0    0    0  0.00000000000E+00  0.00000000000E+00  0.45593999997E+02  0.45594000000E+02  0.51100000000E-03 0. -1.
         11   -1    0    0    0    0 -0.00000000000E+00 -0.00000000000E+00 -0.45593999997E+02  0.45594000000E+02  0.51100000000E-03 0.  1.
    9900012    2    1    2    0    0  0.27762794149E+02  0.11418654662E+02 -0.10749985148E+02  0.59301943581E+02  0.49999999186E+02 0.  0.
         12    1    1    2    0    0 -0.27762794149E+02 -0.11418654662E+02  0.10749985148E+02  0.31886056419E+02  0.00000000000E+00 0. -1.
         11    1    3    3    0    0 -0.18780091654E+01  0.11307714288E+02 -0.87773597179E+01  0.14437221503E+02  0.51100000000E-03 0. -1.
        -11    1    3    3    0    0 -0.98723214501E+00  0.45378010768E+01  0.10514234757E+02  0.11494146280E+02  0.51100000000E-03 0.  1.
        -12    1    3    3    0    0  0.30628035460E+02 -0.44268607033E+01 -0.12486860187E+02  0.33370575799E+02  0.00000000000E+00 0.  1.
</event>
<event>
 7    1  0.5837204E-012  0.5930192E+02  0.7816164E-02  0.1266605E+00
        -11   -1    0    0    0    0  0.00000000000E+00  0.00000000000E+00  0.45593999997E+02  0.45594000000E+02  0.51100000000E-03 0. -1.
         11   -1    0    0    0    0 -0.00000000000E+00 -0.00000000000E+00 -0.45593999997E+02  0.45594000000E+02  0.51100000000E-03 0.  1.
    9900012    2    1    2    0    0  0.20083831348E+02  0.72373905445E+01 -0.23685056367E+02  0.59301921555E+02  0.49999959016E+02 0.  0.
         12    1    1    2    0    0 -0.20083831348E+02 -0.72373905445E+01  0.23685056367E+02  0.31886078445E+02  0.00000000000E+00 0. -1.
         11    1    3    3    0    0  0.15054285732E+02 -0.16334229458E+02 -0.69578028723E+01  0.23277662940E+02  0.51100000000E-03 0. -1.
        -11    1    3    3    0    0  0.41466685384E+00  0.10425821566E+02  0.38945122246E+01  0.11137186793E+02  0.51100000000E-03 0.  1.
        -12    1    3    3    0    0  0.46148787617E+01  0.13145798436E+02 -0.20621765719E+02  0.24887071822E+02  0.00000000000E+00 0.  1.
</event>
<event>
 7    1  0.5837204E-012  0.5930199E+02  0.7816164E-02  0.1266605E+00
        -11   -1    0    0    0    0  0.00000000000E+00  0.00000000000E+00  0.45593999997E+02  0.45594000000E+02  0.51100000000E-03 0.  1.
         11   -1    0    0    0    0 -0.00000000000E+00 -0.00000000000E+00 -0.45593999997E+02  0.45594000000E+02  0.51100000000E-03 0. -1.
    9900012    2    1    2    0    0  0.22452857914E+02  0.18876713340E+02  0.12500248252E+02  0.59301994583E+02  0.50000092201E+02 0.  0.
         12    1    1    2    0    0 -0.22452857914E+02 -0.18876713340E+02 -0.12500248252E+02  0.31886005417E+02  0.00000000000E+00 0. -1.
         11    1    3    3    0    0 -0.79165704498E+01  0.31537311205E+01 -0.47332443316E+01  0.97479079720E+01  0.51100000000E-03 0. -1.
        -11    1    3    3    0    0 -0.22331976506E+01  0.90215314909E+01  0.13030852867E+02  0.16005571808E+02  0.51100000000E-03 0.  1.
        -12    1    3    3    0    0  0.32602626015E+02  0.67014507290E+01  0.42026397162E+01  0.33548514803E+02  0.00000000000E+00 0.  1.
</event>
<event>
 7    1  0.5837204E-012  0.5930194E+02  0.7816164E-02  0.1266605E+00
        -11   -1    0    0    0    0  0.00000000000E+00  0.00000000000E+00  0.45593999997E+02  0.45594000000E+02  0.51100000000E-03 0.  1.
         11   -1    0    0    0    0 -0.00000000000E+00 -0.00000000000E+00 -0.45593999997E+02  0.45594000000E+02  0.51100000000E-03 0. -1.
    9900012    2    1    2    0    0 -0.26313408575E+02  0.12760900834E+02  0.12707655120E+02  0.59301944120E+02  0.50000000167E+02 0.  0.
         12    1    1    2    0    0  0.26313408575E+02 -0.12760900834E+02 -0.12707655120E+02  0.31886055880E+02  0.00000000000E+00 0. -1.
         11    1    3    3    0    0 -0.19495466258E+02  0.27541388918E+01 -0.17771015661E+01  0.19769081311E+02  0.51100000000E-03 0. -1.
        -11    1    3    3    0    0 -0.27702151587E+01  0.14490699852E+02 -0.76289888789E+01  0.16608911638E+02  0.51100000000E-03 0.  1.
         12    1    3    3    0    0 -0.40477271586E+01 -0.44839379095E+01  0.22113745565E+02  0.22923951170E+02  0.00000000000E+00 0. -1.
</event>
<event>
 7    1  0.5837204E-012  0.5930195E+02  0.7816164E-02  0.1266605E+00
        -11   -1    0    0    0    0  0.00000000000E+00  0.00000000000E+00  0.45593999997E+02  0.45594000000E+02  0.51100000000E-03 0.  1.
         11   -1    0    0    0    0 -0.00000000000E+00 -0.00000000000E+00 -0.45593999997E+02  0.45594000000E+02  0.51100000000E-03 0. -1.
    9900012    2    1    2    0    0 -0.17473749984E+02  0.73709202587E+01  0.25633135927E+02  0.59301951932E+02  0.50000014415E+02 0.  0.
         12    1    1    2    0    0  0.17473749984E+02 -0.73709202587E+01 -0.25633135927E+02  0.31886048068E+02  0.00000000000E+00 0. -1.
         11    1    3    3    0    0 -0.39395626689E+01  0.24326646317E+02  0.44493263140E+01  0.25042012298E+02  0.51100000000E-03 0. -1.
        -11    1    3    3    0    0 -0.10622192905E+02 -0.30424773802E+01  0.15306876431E+02  0.18878244543E+02  0.51100000000E-03 0.  1.
        -12    1    3    3    0    0 -0.29119944104E+01 -0.13913248678E+02  0.58769331823E+01  0.15381695090E+02  0.00000000000E+00 0.  1.
</event>
<event>
 7    1  0.5837204E-012  0.5930195E+02  0.7816164E-02  0.1266605E+00
        -11   -1    0    0    0    0  0.00000000000E+00  0.00000000000E+00  0.45593999997E+02  0.45594000000E+02  0.51100000000E-03 0. -1.
         11   -1    0    0    0    0 -0.00000000000E+00 -0.00000000000E+00 -0.45593999997E+02  0.45594000000E+02  0.51100000000E-03 0.  1.
    9900012    2    1    2    0    0 -0.15603069815E+02  0.17647953304E+02 -0.21489857988E+02  0.59301952270E+02  0.50000015033E+02 0.  0.
         12    1    1    2    0    0  0.15603069815E+02 -0.17647953304E+02  0.21489857988E+02  0.31886047730E+02  0.00000000000E+00 0. -1.
         11    1    3    3    0    0 -0.37346886100E+01 -0.14980889755E+02  0.11803789580E+01  0.15484451932E+02  0.51100000000E-03 0. -1.
        -11    1    3    3    0    0  0.11553719016E+01  0.93325558353E+01 -0.10355911119E+01  0.94606517673E+01  0.51100000000E-03 0.  1.
        -12    1    3    3    0    0 -0.13023753107E+02  0.23296287224E+02 -0.21634645834E+02  0.34356848572E+02  0.00000000000E+00 0.  1.
</event>
<event>
 7    1  0.5837204E-012  0.5930194E+02  0.7816164E-02  0.1266605E+00
        -11   -1    0    0    0    0  0.00000000000E+00  0.00000000000E+00  0.45593999997E+02  0.45594000000E+02  0.51100000000E-03 0.  1.
         11   -1    0    0    0    0 -0.00000000000E+00 -0.00000000000E+00 -0.45593999997E+02  0.45594000000E+02  0.51100000000E-03 0. -1.
    9900012    2    1    2    0    0  0.28005332993E+01 -0.31634834384E+02 -0.28486764301E+01  0.59301942065E+02  0.49999996420E+02 0.  0.
         12    1    1    2    0    0 -0.28005332993E+01  0.31634834384E+02  0.28486764301E+01  0.31886057935E+02  0.00000000000E+00 0. -1.
         11    1    3    3    0    0  0.65055891010E+01 -0.89843432839E+01 -0.86571020708E+01  0.14070768647E+02  0.51100000000E-03 0. -1.
        -11    1    3    3    0    0  0.12481406630E+01 -0.25928720231E+02 -0.10403138831E+02  0.27965723407E+02  0.51100000000E-03 0.  1.
         12    1    3    3    0    0 -0.49531964648E+01  0.32782291310E+01  0.16211564471E+02  0.17265450010E+02  0.00000000000E+00 0. -1.
</event>
<event>
 7    1  0.5837204E-012  0.5930195E+02  0.7816164E-02  0.1266605E+00
        -11   -1    0    0    0    0  0.00000000000E+00  0.00000000000E+00  0.45593999997E+02  0.45594000000E+02  0.51100000000E-03 0. -1.
         11   -1    0    0    0    0 -0.00000000000E+00 -0.00000000000E+00 -0.45593999997E+02  0.45594000000E+02  0.51100000000E-03 0.  1.
    9900012    2    1    2    0    0 -0.27097135891E+02  0.15476117429E+02  0.65540395596E+01  0.59301946329E+02  0.50000004197E+02 0.  0.
         12    1    1    2    0    0  0.27097135891E+02 -0.15476117429E+02 -0.65540395596E+01  0.31886053671E+02  0.00000000000E+00 0. -1.
         11    1    3    3    0    0 -0.18748500177E+01  0.10637367035E+02  0.12184771755E+02  0.16283037278E+02  0.51100000000E-03 0. -1.
        -11    1    3    3    0    0  0.25048742990E+01 -0.86440401104E+01  0.51353713181E+01  0.10361750022E+02  0.51100000000E-03 0.  1.
        -12    1    3    3    0    0 -0.27727160172E+02  0.13482790504E+02 -0.10766103513E+02  0.32657159029E+02  0.00000000000E+00 0.  1.
</event>
<event>
 7    1  0.5837204E-012  0.5930176E+02  0.7816164E-02  0.1266605E+00
        -11   -1    0    0    0    0  0.00000000000E+00  0.00000000000E+00  0.45593999997E+02  0.45594000000E+02  0.51100000000E-03 0. -1.
         11   -1    0    0    0    0 -0.00000000000E+00 -0.00000000000E+00 -0.45593999997E+02  0.45594000000E+02  0.51100000000E-03 0.  1.
    9900012    2    1    2    0    0 -0.28995810924E+02 -0.13244068418E+02  0.75490564576E+00  0.59301760304E+02  0.49999664930E+02 0.  0.
         12    1    1    2    0    0  0.28995810924E+02  0.13244068418E+02 -0.75490564576E+00  0.31886239696E+02  0.00000000000E+00 0. -1.
         11    1    3    3    0    0 -0.73174063179E+01 -0.14959038261E+02  0.13400126920E+02  0.21374766961E+02  0.51100000000E-03 0. -1.
        -11    1    3    3    0    0 -0.31180332908E+01 -0.11526652147E+02 -0.18019727847E+00  0.11942290929E+02  0.51100000000E-03 0.  1.
         12    1    3    3    0    0 -0.18560371316E+02  0.13241621989E+02 -0.12465023996E+02  0.25984702413E+02  0.00000000000E+00 0. -1.
</event>
<event>
 7    1  0.5837204E-012  0.5930190E+02  0.7816164E-02  0.1266605E+00
        -11   -1    0    0    0    0  0.00000000000E+00  0.00000000000E+00  0.45593999997E+02  0.45594000000E+02  0.51100000000E-03 0.  1.
         11   -1    0    0    0    0 -0.00000000000E+00 -0.00000000000E+00 -0.45593999997E+02  0.45594000000E+02  0.51100000000E-03 0. -1.
    9900012    2    1    2    0    0 -0.17154608120E+02  0.22507765875E+02  0.14691611820E+02  0.59301897035E+02  0.49999914297E+02 0.  0.
         12    1    1    2    0    0  0.17154608120E+02 -0.22507765875E+02 -0.14691611820E+02  0.31886102965E+02  0.00000000000E+00 0. -1.
         11    1    3    3    0    0 -0.12005118400E+02  0.14636912572E+02  0.71412375629E+01  0.20232630863E+02  0.51100000000E-03 0. -1.
        -11    1    3    3    0    0 -0.16837107687E+02  0.33218747190E+01  0.16385707357E+02  0.23727925589E+02  0.51100000000E-03 0.  1.
         12    1    3    3    0    0  0.11687617968E+02  0.45489785837E+01 -0.88353330994E+01  0.15341340583E+02  0.00000000000E+00 0. -1.
</event>
<event>
 7    1  0.5837204E-012  0.5930193E+02  0.7816164E-02  0.1266605E+00
        -11   -1    0    0    0    0  0.00000000000E+00  0.00000000000E+00  0.45593999997E+02  0.45594000000E+02  0.51100000000E-03 0.  1.
         11   -1    0    0    0    0 -0.00000000000E+00 -0.00000000000E+00 -0.45593999997E+02  0.45594000000E+02  0.51100000000E-03 0. -1.
    9900012    2    1    2    0    0 -0.10062890324E+02 -0.82696197257E+01  0.29104514732E+02  0.59301934864E+02  0.49999983288E+02 0.  0.
         12    1    1    2    0    0  0.10062890324E+02  0.82696197257E+01 -0.29104514732E+02  0.31886065136E+02  0.00000000000E+00 0. -1.
         11    1    3    3    0    0 -0.85711805516E+00  0.48867522347E+01 -0.35014970784E+01  0.60725184903E+01  0.51100000000E-03 0. -1.
        -11    1    3    3    0    0  0.11938456664E+02 -0.19410383523E+01  0.25563149501E+02  0.28280187235E+02  0.51100000000E-03 0.  1.
        -12    1    3    3    0    0 -0.21144228933E+02 -0.11215333608E+02  0.70428623094E+01  0.24949229139E+02  0.00000000000E+00 0.  1.
</event>
<event>
 7    1  0.5837204E-012  0.5930196E+02  0.7816164E-02  0.1266605E+00
        -11   -1    0    0    0    0  0.00000000000E+00  0.00000000000E+00  0.45593999997E+02  0.45594000000E+02  0.51100000000E-03 0.  1.
         11   -1    0    0    0    0 -0.00000000000E+00 -0.00000000000E+00 -0.45593999997E+02  0.45594000000E+02  0.51100000000E-03 0. -1.
    9900012    2    1    2    0    0 -0.19165737244E+02  0.68917761019E+01  0.24533596896E+02  0.59301961698E+02  0.50000032226E+02 0.  0.
         12    1    1    2    0    0  0.19165737244E+02 -0.68917761019E+01 -0.24533596896E+02  0.31886038302E+02  0.00000000000E+00 0. -1.
         11    1    3    3    0    0 -0.14152179916E+02  0.57294335793E+01  0.64043589613E+01  0.16556763557E+02  0.51100000000E-03 0. -1.
        -11    1    3    3    0    0 -0.18537195253E+02 -0.47320455769E+01  0.20230318891E+02  0.27843952052E+02  0.51100000000E-03 0.  1.
         12    1    3    3    0    0  0.13523637925E+02  0.58943880996E+01 -0.21010809555E+01  0.14901246088E+02  0.00000000000E+00 0. -1.
</event>
<event>
 7    1  0.5837204E-012  0.5930158E+02  0.7816164E-02  0.1266606E+00
        -11   -1    0    0    0    0  0.00000000000E+00  0.00000000000E+00  0.45593999997E+02  0.45594000000E+02  0.51100000000E-03 0.  1.
         11   -1    0    0    0    0 -0.00000000000E+00 -0.00000000000E+00 -0.45593999997E+02  0.45594000000E+02  0.51100000000E-03 0. -1.
    9900012    2    1    2    0    0  0.14801888024E+02  0.25717941771E+02  0.11671986740E+02  0.59301581379E+02  0.49999338611E+02 0.  0.
         12    1    1    2    0    0 -0.14801888024E+02 -0.25717941771E+02 -0.11671986740E+02  0.31886418621E+02  0.00000000000E+00 0. -1.
         11    1    3    3    0    0  0.13239770608E+02  0.25727014971E+02  0.13324384762E+02  0.31854513882E+02  0.51100000000E-03 0. -1.
        -11    1    3    3    0    0 -0.75154041497E+01  0.97294637526E+01  0.40783472138E+01  0.12952863803E+02  0.51100000000E-03 0.  1.
         12    1    3    3    0    0  0.90775215661E+01 -0.97385369528E+01 -0.57307452357E+01  0.14494203694E+02  0.00000000000E+00 0. -1.
</event>
<event>
 7    1  0.5837204E-012  0.5930194E+02  0.7816164E-02  0.1266605E+00
        -11   -1    0    0    0    0  0.00000000000E+00  0.00000000000E+00  0.45593999997E+02  0.45594000000E+02  0.51100000000E-03 0.  1.
         11   -1    0    0    0    0 -0.00000000000E+00 -0.00000000000E+00 -0.45593999997E+02  0.45594000000E+02  0.51100000000E-03 0. -1.
    9900012    2    1    2    0    0  0.26402587325E+02 -0.12991086139E+02  0.12282337813E+02  0.59301940998E+02  0.49999994475E+02 0.  0.
         12    1    1    2    0    0 -0.26402587325E+02  0.12991086139E+02 -0.12282337813E+02  0.31886059002E+02  0.00000000000E+00 0. -1.
         11    1    3    3    0    0  0.13368129100E+02  0.26631832785E+01 -0.22569187469E+01  0.13816407033E+02  0.51100000000E-03 0. -1.
        -11    1    3    3    0    0 -0.29702637519E+01  0.71260125879E+01  0.15833064283E+02  0.17615006302E+02  0.51100000000E-03 0.  1.
        -12    1    3    3    0    0  0.16004721977E+02 -0.22780282005E+02 -0.12938077239E+01  0.27870527663E+02  0.00000000000E+00 0.  1.
</event>
<event>
 7    1  0.5837204E-012  0.5930195E+02  0.7816164E-02  0.1266605E+00
        -11   -1    0    0    0    0  0.00000000000E+00  0.00000000000E+00  0.45593999997E+02  0.45594000000E+02  0.51100000000E-03 0. -1.
         11   -1    0    0    0    0 -0.00000000000E+00 -0.00000000000E+00 -0.45593999997E+02  0.45594000000E+02  0.51100000000E-03 0.  1.
    9900012    2    1    2    0    0  0.47920324122E+01 -0.30188952613E+02 -0.90765433026E+01  0.59301951753E+02  0.50000014088E+02 0.  0.
         12    1    1    2    0    0 -0.47920324122E+01  0.30188952613E+02  0.90765433026E+01  0.31886048247E+02  0.00000000000E+00 0. -1.
         11    1    3    3    0    0 -0.81727385246E+01 -0.17459818724E+02  0.43935206595E+01  0.19772251994E+02  0.51100000000E-03 0. -1.
        -11    1    3    3    0    0  0.41559865556E+01 -0.20114607331E+02  0.15704093102E+01  0.20599413536E+02  0.51100000000E-03 0.  1.
         12    1    3    3    0    0  0.88087843812E+01  0.73854734421E+01 -0.15040473272E+02  0.18930286223E+02  0.00000000000E+00 0. -1.
</event>
<event>
 7    1  0.5837204E-012  0.5930194E+02  0.7816164E-02  0.1266605E+00
        -11   -1    0    0    0    0  0.00000000000E+00  0.00000000000E+00  0.45593999997E+02  0.45594000000E+02  0.51100000000E-03 0.  1.
         11   -1    0    0    0    0 -0.00000000000E+00 -0.00000000000E+00 -0.45593999997E+02  0.45594000000E+02  0.51100000000E-03 0. -1.
    9900012    2    1    2    0    0 -0.96176358023E+01 -0.16632621600E+02  0.25447546515E+02  0.59301942806E+02  0.49999997772E+02 0.  0.
         12    1    1    2    0    0  0.96176358023E+01  0.16632621600E+02 -0.25447546515E+02  0.31886057194E+02  0.00000000000E+00 0. -1.
         11    1    3    3    0    0 -0.28602150248E+01 -0.35443259473E+01 -0.11498018191E+02  0.12367194467E+02  0.51100000000E-03 0. -1.
        -11    1    3    3    0    0  0.25218286186E+01 -0.10579600041E+02  0.24817993709E+01  0.11155576407E+02  0.51100000000E-03 0.  1.
        -12    1    3    3    0    0 -0.92792493962E+01 -0.25086956121E+01  0.34463765335E+02  0.35779171932E+02  0.00000000000E+00 0.  1.
</event>
<event>
 7    1  0.5837204E-012  0.5930195E+02  0.7816164E-02  0.1266605E+00
        -11   -1    0    0    0    0  0.00000000000E+00  0.00000000000E+00  0.45593999997E+02  0.45594000000E+02  0.51100000000E-03 0.  1.
         11   -1    0    0    0    0 -0.00000000000E+00 -0.00000000000E+00 -0.45593999997E+02  0.45594000000E+02  0.51100000000E-03 0. -1.
    9900012    2    1    2    0    0 -0.22531395774E+02 -0.83334032265E+01  0.20966903068E+02  0.59301946166E+02  0.50000003899E+02 0.  0.
         12    1    1    2    0    0  0.22531395774E+02  0.83334032265E+01 -0.20966903068E+02  0.31886053834E+02  0.00000000000E+00 0. -1.
         11    1    3    3    0    0 -0.21228533514E+02  0.15464107908E+02  0.60893797922E+01  0.26960523271E+02  0.51100000000E-03 0.  1.
        -11    1    3    3    0    0 -0.49469703407E+01 -0.61426948636E+01 -0.14502412929E+01  0.80192528211E+01  0.51100000000E-03 0. -1.
        -12    1    3    3    0    0  0.36441080809E+01 -0.17654816271E+02  0.16327764569E+02  0.24322170073E+02  0.00000000000E+00 0.  1.
</event>
<event>
 7    1  0.5837204E-012  0.5930192E+02  0.7816164E-02  0.1266605E+00
        -11   -1    0    0    0    0  0.00000000000E+00  0.00000000000E+00  0.45593999997E+02  0.45594000000E+02  0.51100000000E-03 0.  1.
         11   -1    0    0    0    0 -0.00000000000E+00 -0.00000000000E+00 -0.45593999997E+02  0.45594000000E+02  0.51100000000E-03 0. -1.
    9900012    2    1    2    0    0 -0.70538567113E+01  0.48359170195E+01  0.30717730938E+02  0.59301921817E+02  0.49999959492E+02 0.  0.
         12    1    1    2    0    0  0.70538567113E+01 -0.48359170195E+01 -0.30717730938E+02  0.31886078183E+02  0.00000000000E+00 0. -1.
         11    1    3    3    0    0 -0.34122473348E+01  0.11115918691E+02  0.37594790194E+00  0.11633933870E+02  0.51100000000E-03 0. -1.
        -11    1    3    3    0    0 -0.86102452843E+01  0.31824093305E+00 -0.59352317224E+01  0.10462532055E+02  0.51100000000E-03 0.  1.
        -12    1    3    3    0    0  0.49686359078E+01 -0.65982426042E+01  0.36277014759E+02  0.37205455891E+02  0.00000000000E+00 0.  1.
</event>
<event>
 7    1  0.5837204E-012  0.5930195E+02  0.7816164E-02  0.1266605E+00
        -11   -1    0    0    0    0  0.00000000000E+00  0.00000000000E+00  0.45593999997E+02  0.45594000000E+02  0.51100000000E-03 0.  1.
         11   -1    0    0    0    0 -0.00000000000E+00 -0.00000000000E+00 -0.45593999997E+02  0.45594000000E+02  0.51100000000E-03 0. -1.
    9900012    2    1    2    0    0 -0.74009270930E+01 -0.24461273170E+02  0.19068097563E+02  0.59301953653E+02  0.50000017555E+02 0.  0.
         12    1    1    2    0    0  0.74009270930E+01  0.24461273170E+02 -0.19068097563E+02  0.31886046347E+02  0.00000000000E+00 0. -1.
         11    1    3    3    0    0  0.38866940766E+01 -0.48902689420E+01 -0.75977443086E+01  0.98359971538E+01  0.51100000000E-03 0. -1.
        -11    1    3    3    0    0 -0.19224404531E+02 -0.15740435880E+02  0.40247442044E+01  0.25170173170E+02  0.51100000000E-03 0.  1.
        -12    1    3    3    0    0  0.79367833616E+01 -0.38305683488E+01  0.22641097667E+02  0.24295783329E+02  0.00000000000E+00 0.  1.
</event>
<event>
 7    1  0.5837204E-012  0.5930198E+02  0.7816164E-02  0.1266605E+00
        -11   -1    0    0    0    0  0.00000000000E+00  0.00000000000E+00  0.45593999997E+02  0.45594000000E+02  0.51100000000E-03 0.  1.
         11   -1    0    0    0    0 -0.00000000000E+00 -0.00000000000E+00 -0.45593999997E+02  0.45594000000E+02  0.51100000000E-03 0. -1.
    9900012    2    1    2    0    0  0.48368856153E+01  0.30873741473E+02 -0.63352124137E+01  0.59301979689E+02  0.50000065037E+02 0.  0.
         12    1    1    2    0    0 -0.48368856153E+01 -0.30873741473E+02  0.63352124137E+01  0.31886020311E+02  0.00000000000E+00 0. -1.
         11    1    3    3    0    0  0.16970502744E+02  0.47806883609E+01  0.94679989610E+01  0.20012394888E+02  0.51100000000E-03 0. -1.
        -11    1    3    3    0    0  0.39313861027E+01 -0.63511668353E+00  0.64308369141E+00  0.40339468000E+01  0.51100000000E-03 0.  1.
        -12    1    3    3    0    0 -0.16065003231E+02  0.26728169795E+02 -0.16446295066E+02  0.35255638000E+02  0.00000000000E+00 0.  1.
</event>
<event>
 7    1  0.5837204E-012  0.5930194E+02  0.7816164E-02  0.1266605E+00
        -11   -1    0    0    0    0  0.00000000000E+00  0.00000000000E+00  0.45593999997E+02  0.45594000000E+02  0.51100000000E-03 0. -1.
         11   -1    0    0    0    0 -0.00000000000E+00 -0.00000000000E+00 -0.45593999997E+02  0.45594000000E+02  0.51100000000E-03 0.  1.
    9900012    2    1    2    0    0 -0.31095341851E+02  0.54516247582E+01 -0.44811102316E+01  0.59301939625E+02  0.49999991970E+02 0.  0.
         12    1    1    2    0    0  0.31095341851E+02 -0.54516247582E+01  0.44811102316E+01  0.31886060375E+02  0.00000000000E+00 0. -1.
         11    1    3    3    0    0 -0.13137692067E+01  0.81992071126E+01 -0.52605435630E+01  0.98298680380E+01  0.51100000000E-03 0. -1.
        -11    1    3    3    0    0 -0.22122770730E+02  0.11824485543E+02  0.13666293798E+02  0.28565766742E+02  0.51100000000E-03 0.  1.
         12    1    3    3    0    0 -0.76588019141E+01 -0.14572067898E+02 -0.12886860466E+02  0.20906304844E+02  0.00000000000E+00 0. -1.
</event>
<event>
 7    1  0.5837204E-012  0.5930193E+02  0.7816164E-02  0.1266605E+00
        -11   -1    0    0    0    0  0.00000000000E+00  0.00000000000E+00  0.45593999997E+02  0.45594000000E+02  0.51100000000E-03 0. -1.
         11   -1    0    0    0    0 -0.00000000000E+00 -0.00000000000E+00 -0.45593999997E+02  0.45594000000E+02  0.51100000000E-03 0.  1.
    9900012    2    1    2    0    0  0.30726745824E+02  0.65584939256E+01 -0.54382568647E+01  0.59301931110E+02  0.49999976442E+02 0.  0.
         12    1    1    2    0    0 -0.30726745824E+02 -0.65584939256E+01  0.54382568647E+01  0.31886068890E+02  0.00000000000E+00 0. -1.
         11    1    3    3    0    0 -0.98673498903E+01 -0.37839250392E+01 -0.14678433511E+01  0.10669453919E+02  0.51100000000E-03 0. -1.
        -11    1    3    3    0    0  0.12122775413E+02 -0.28445616564E+01 -0.10843418612E+02  0.16511600231E+02  0.51100000000E-03 0.  1.
         12    1    3    3    0    0  0.28471320302E+02  0.13186980621E+02  0.68730050987E+01  0.32120876960E+02  0.00000000000E+00 0. -1.
</event>
<event>
 7    1  0.5837204E-012  0.5930195E+02  0.7816164E-02  0.1266605E+00
        -11   -1    0    0    0    0  0.00000000000E+00  0.00000000000E+00  0.45593999997E+02  0.45594000000E+02  0.51100000000E-03 0. -1.
         11   -1    0    0    0    0 -0.00000000000E+00 -0.00000000000E+00 -0.45593999997E+02  0.45594000000E+02  0.51100000000E-03 0.  1.
    9900012    2    1    2    0    0 -0.98507306545E+01 -0.29441066670E+02 -0.72737239081E+01  0.59301947240E+02  0.50000005859E+02 0.  0.
         12    1    1    2    0    0  0.98507306545E+01  0.29441066670E+02  0.72737239081E+01  0.31886052760E+02  0.00000000000E+00 0. -1.
         11    1    3    3    0    0  0.38594359496E+01  0.62573980703E+01  0.45561495156E+01  0.86492066185E+01  0.51100000000E-03 0.  1.
        -11    1    3    3    0    0 -0.12378033617E+02 -0.79423209540E+01  0.77838599599E+01  0.16639851396E+02  0.51100000000E-03 0. -1.
         12    1    3    3    0    0 -0.13321329870E+01 -0.27756143787E+02 -0.19613733384E+02  0.34012889225E+02  0.00000000000E+00 0. -1.
</event>
<event>
 7    1  0.5837204E-012  0.5930196E+02  0.7816164E-02  0.1266605E+00
        -11   -1    0    0    0    0  0.00000000000E+00  0.00000000000E+00  0.45593999997E+02  0.45594000000E+02  0.51100000000E-03 0.  1.
         11   -1    0    0    0    0 -0.00000000000E+00 -0.00000000000E+00 -0.45593999997E+02  0.45594000000E+02  0.51100000000E-03 0. -1.
    9900012    2    1    2    0    0  0.11441311245E+02 -0.10222160884E+02  0.27952161078E+02  0.59301960969E+02  0.50000030897E+02 0.  0.
         12    1    1    2    0    0 -0.11441311245E+02  0.10222160884E+02 -0.27952161078E+02  0.31886039031E+02  0.00000000000E+00 0. -1.
         11    1    3    3    0    0 -0.15350693379E+01  0.82071314285E+01 -0.71062221602E+01  0.10964115915E+02  0.51100000000E-03 0. -1.
        -11    1    3    3    0    0  0.98246385919E+01  0.30962975542E+01  0.56236587874E+01  0.11736103290E+02  0.51100000000E-03 0.  1.
        -12    1    3    3    0    0  0.31517419913E+01 -0.21525589866E+02  0.29434724451E+02  0.36601741764E+02  0.00000000000E+00 0.  1.
</event>
<event>
 7    1  0.5837204E-012  0.5930197E+02  0.7816164E-02  0.1266605E+00
        -11   -1    0    0    0    0  0.00000000000E+00  0.00000000000E+00  0.45593999997E+02  0.45594000000E+02  0.51100000000E-03 0.  1.
         11   -1    0    0    0    0 -0.00000000000E+00 -0.00000000000E+00 -0.45593999997E+02  0.45594000000E+02  0.51100000000E-03 0. -1.
    9900012    2    1    2    0    0 -0.16022426827E+02  0.13738019826E+02  0.23901203862E+02  0.59301970203E+02  0.50000047737E+02 0.  0.
         12    1    1    2    0    0  0.16022426827E+02 -0.13738019826E+02 -0.23901203862E+02  0.31886029797E+02  0.00000000000E+00 0. -1.
         11    1    3    3    0    0  0.39010387635E+01 -0.21468435073E+01 -0.23253395105E+01  0.50233698430E+01  0.51100000000E-03 0. -1.
        -11    1    3    3    0    0  0.57189248710E+00  0.14234873505E+02 -0.64759235222E+01  0.15649161972E+02  0.51100000000E-03 0.  1.
        -12    1    3    3    0    0 -0.20495358078E+02  0.16499898290E+01  0.32702466894E+02  0.38629438388E+02  0.00000000000E+00 0.  1.
</event>
<event>
 7    1  0.5837204E-012  0.5930194E+02  0.7816164E-02  0.1266605E+00
        -11   -1    0    0    0    0  0.00000000000E+00  0.00000000000E+00  0.45593999997E+02  0.45594000000E+02  0.51100000000E-03 0. -1.
         11   -1    0    0    0    0 -0.00000000000E+00 -0.00000000000E+00 -0.45593999997E+02  0.45594000000E+02  0.51100000000E-03 0.  1.
    9900012    2    1    2    0    0 -0.14027365437E+02 -0.18088252204E+02 -0.22198394104E+02  0.59301944275E+02  0.50000000451E+02 0.  0.
         12    1    1    2    0    0  0.14027365437E+02  0.18088252204E+02  0.22198394104E+02  0.31886055725E+02  0.00000000000E+00 0. -1.
         11    1    3    3    0    0 -0.29532745341E+01 -0.78588364096E+01  0.12740808033E+02  0.15258156172E+02  0.51100000000E-03 0. -1.
        -11    1    3    3    0    0 -0.17230681341E+02 -0.68954453530E+01 -0.18637046321E+02  0.26301768798E+02  0.51100000000E-03 0.  1.
        -12    1    3    3    0    0  0.61565904388E+01 -0.33339704418E+01 -0.16302155816E+02  0.17742019304E+02  0.00000000000E+00 0.  1.
</event>
<event>
 7    1  0.5837204E-012  0.5930194E+02  0.7816164E-02  0.1266605E+00
        -11   -1    0    0    0    0  0.00000000000E+00  0.00000000000E+00  0.45593999997E+02  0.45594000000E+02  0.51100000000E-03 0.  1.
         11   -1    0    0    0    0 -0.00000000000E+00 -0.00000000000E+00 -0.45593999997E+02  0.45594000000E+02  0.51100000000E-03 0. -1.
    9900012    2    1    2    0    0  0.96224150150E+01 -0.17842235588E+02  0.24612688255E+02  0.59301942473E+02  0.49999997165E+02 0.  0.
         12    1    1    2    0    0 -0.96224150150E+01  0.17842235588E+02 -0.24612688255E+02  0.31886057527E+02  0.00000000000E+00 0. -1.
         11    1    3    3    0    0 -0.56258261983E+01 -0.42949926107E+01 -0.39461305366E+01  0.81036305699E+01  0.51100000000E-03 0. -1.
        -11    1    3    3    0    0  0.25901584434E+01 -0.15646544300E+02 -0.38687359775E+01  0.16324533305E+02  0.51100000000E-03 0.  1.
         12    1    3    3    0    0  0.12658082770E+02  0.20993013227E+01  0.32427554769E+02  0.34873778598E+02  0.00000000000E+00 0. -1.
</event>
<event>
 7    1  0.5837204E-012  0.5930194E+02  0.7816164E-02  0.1266605E+00
        -11   -1    0    0    0    0  0.00000000000E+00  0.00000000000E+00  0.45593999997E+02  0.45594000000E+02  0.51100000000E-03 0.  1.
         11   -1    0    0    0    0 -0.00000000000E+00 -0.00000000000E+00 -0.45593999997E+02  0.45594000000E+02  0.51100000000E-03 0. -1.
    9900012    2    1    2    0    0 -0.12436764991E+02 -0.24157768211E+02  0.16686813308E+02  0.59301943066E+02  0.49999998247E+02 0.  0.
         12    1    1    2    0    0  0.12436764991E+02  0.24157768211E+02 -0.16686813308E+02  0.31886056934E+02  0.00000000000E+00 0. -1.
         11    1    3    3    0    0  0.41898231605E+01  0.95799840361E+00 -0.74805212859E+01  0.86273158067E+01  0.51100000000E-03 0. -1.
        -11    1    3    3    0    0 -0.27583279194E+01 -0.14979462261E+01  0.23050642464E+02  0.23263368932E+02  0.51100000000E-03 0.  1.
         12    1    3    3    0    0 -0.13868260232E+02 -0.23617820389E+02  0.11166921296E+01  0.27411258328E+02  0.00000000000E+00 0. -1.
</event>
<event>
 7    1  0.5837204E-012  0.5930196E+02  0.7816164E-02  0.1266605E+00
        -11   -1    0    0    0    0  0.00000000000E+00  0.00000000000E+00  0.45593999997E+02  0.45594000000E+02  0.51100000000E-03 0. -1.
         11   -1    0    0    0    0 -0.00000000000E+00 -0.00000000000E+00 -0.45593999997E+02  0.45594000000E+02  0.51100000000E-03 0.  1.
    9900012    2    1    2    0    0  0.13258589166E+02  0.12981818832E+02 -0.25930707015E+02  0.59301962724E+02  0.50000034097E+02 0.  0.
         12    1    1    2    0    0 -0.13258589166E+02 -0.12981818832E+02  0.25930707015E+02  0.31886037276E+02  0.00000000000E+00 0. -1.
         11    1    3    3    0    0 -0.50427152358E+01  0.11471903220E+02 -0.10036556660E+02  0.16055092970E+02  0.51100000000E-03 0.  1.
        -11    1    3    3    0    0 -0.91663701075E+01 -0.17680063288E+00  0.32460378349E+01  0.97257576208E+01  0.51100000000E-03 0. -1.
        -12    1    3    3    0    0  0.27467674510E+02  0.16867162455E+01 -0.19140188190E+02  0.33521112133E+02  0.00000000000E+00 0.  1.
</event>
<event>
 7    1  0.5837204E-012  0.5930194E+02  0.7816164E-02  0.1266605E+00
        -11   -1    0    0    0    0  0.00000000000E+00  0.00000000000E+00  0.45593999997E+02  0.45594000000E+02  0.51100000000E-03 0. -1.
         11   -1    0    0    0    0 -0.00000000000E+00 -0.00000000000E+00 -0.45593999997E+02  0.45594000000E+02  0.51100000000E-03 0.  1.
    9900012    2    1    2    0    0  0.29788663030E+02  0.59981697579E+01 -0.96632505729E+01  0.59301938826E+02  0.49999990514E+02 0.  0.
         12    1    1    2    0    0 -0.29788663030E+02 -0.59981697579E+01  0.96632505729E+01  0.31886061174E+02  0.00000000000E+00 0. -1.
         11    1    3    3    0    0  0.56263345032E+01  0.13342826978E+02  0.97533694982E+01  0.17458948666E+02  0.51100000000E-03 0. -1.
        -11    1    3    3    0    0  0.10864825291E+02  0.10046380131E+02 -0.49546102213E+01  0.15605202499E+02  0.51100000000E-03 0.  1.
        -12    1    3    3    0    0  0.13297503236E+02 -0.17391037351E+02 -0.14462009850E+02  0.26237787661E+02  0.00000000000E+00 0.  1.
</event>
<event>
 7    1  0.5837204E-012  0.5930193E+02  0.7816164E-02  0.1266605E+00
        -11   -1    0    0    0    0  0.00000000000E+00  0.00000000000E+00  0.45593999997E+02  0.45594000000E+02  0.51100000000E-03 0.  1.
         11   -1    0    0    0    0 -0.00000000000E+00 -0.00000000000E+00 -0.45593999997E+02  0.45594000000E+02  0.51100000000E-03 0. -1.
    9900012    2    1    2    0    0  0.15498335878E+02 -0.67242653264E+00  0.27858044794E+02  0.59301933573E+02  0.49999980933E+02 0.  0.
         12    1    1    2    0    0 -0.15498335878E+02  0.67242653264E+00 -0.27858044794E+02  0.31886066427E+02  0.00000000000E+00 0. -1.
         11    1    3    3    0    0 -0.10291308867E+02 -0.38428849375E+01  0.40912338206E+00  0.10993006187E+02  0.51100000000E-03 0. -1.
        -11    1    3    3    0    0  0.34450125211E+01 -0.74846841133E+01 -0.32632216136E+01  0.88621229459E+01  0.51100000000E-03 0.  1.
        -12    1    3    3    0    0  0.22344632224E+02  0.10655142518E+02  0.30712143025E+02  0.39446804440E+02  0.00000000000E+00 0.  1.
</event>
<event>
 7    1  0.5837204E-012  0.5930195E+02  0.7816164E-02  0.1266605E+00
        -11   -1    0    0    0    0  0.00000000000E+00  0.00000000000E+00  0.45593999997E+02  0.45594000000E+02  0.51100000000E-03 0.  1.
         11   -1    0    0    0    0 -0.00000000000E+00 -0.00000000000E+00 -0.45593999997E+02  0.45594000000E+02  0.51100000000E-03 0. -1.
    9900012    2    1    2    0    0 -0.17728982054E+02  0.17298066338E+02  0.20079349813E+02  0.59301949874E+02  0.50000010663E+02 0.  0.
         12    1    1    2    0    0  0.17728982054E+02 -0.17298066338E+02 -0.20079349813E+02  0.31886050126E+02  0.00000000000E+00 0. -1.
         11    1    3    3    0    0  0.35564494119E+01 -0.23655817193E+01 -0.90390525914E+01  0.99974387370E+01  0.51100000000E-03 0. -1.
        -11    1    3    3    0    0 -0.25326944513E+01  0.20383189089E+02  0.19018682434E+02  0.27992842307E+02  0.51100000000E-03 0.  1.
         12    1    3    3    0    0 -0.18752737015E+02 -0.71954103186E+00  0.10099719970E+02  0.21311668830E+02  0.00000000000E+00 0. -1.
</event>
<event>
 7    1  0.5837204E-012  0.5930196E+02  0.7816164E-02  0.1266605E+00
        -11   -1    0    0    0    0  0.00000000000E+00  0.00000000000E+00  0.45593999997E+02  0.45594000000E+02  0.51100000000E-03 0.  1.
         11   -1    0    0    0    0 -0.00000000000E+00 -0.00000000000E+00 -0.45593999997E+02  0.45594000000E+02  0.51100000000E-03 0. -1.
    9900012    2    1    2    0    0 -0.11098327690E+02 -0.29710903835E+02 -0.32877176388E+01  0.59301956478E+02  0.50000022707E+02 0.  0.
         12    1    1    2    0    0  0.11098327690E+02  0.29710903835E+02  0.32877176388E+01  0.31886043522E+02  0.00000000000E+00 0. -1.
         11    1    3    3    0    0 -0.94510261080E+01 -0.13014222997E+01 -0.13796107140E+02  0.16773436349E+02  0.51100000000E-03 0. -1.
        -11    1    3    3    0    0 -0.15216394508E+02 -0.20406238936E+02  0.66618407502E+01  0.26312228560E+02  0.51100000000E-03 0.  1.
        -12    1    3    3    0    0  0.13569092927E+02 -0.80032425990E+01  0.38465487509E+01  0.16216291569E+02  0.00000000000E+00 0.  1.
</event>
<event>
 7    1  0.5837204E-012  0.5930191E+02  0.7816164E-02  0.1266605E+00
        -11   -1    0    0    0    0  0.00000000000E+00  0.00000000000E+00  0.45593999997E+02  0.45594000000E+02  0.51100000000E-03 0. -1.
         11   -1    0    0    0    0 -0.00000000000E+00 -0.00000000000E+00 -0.45593999997E+02  0.45594000000E+02  0.51100000000E-03 0.  1.
    9900012    2    1    2    0    0  0.27513248496E+02 -0.10356632186E+02 -0.12348453569E+02  0.59301906188E+02  0.49999930989E+02 0.  0.
         12    1    1    2    0    0 -0.27513248496E+02  0.10356632186E+02  0.12348453569E+02  0.31886093812E+02  0.00000000000E+00 0. -1.
         11    1    3    3    0    0  0.20033121601E+01  0.13601085628E+02 -0.45988346616E+01  0.14496622724E+02  0.51100000000E-03 0. -1.
        -11    1    3    3    0    0  0.25559019477E+02 -0.72497693970E+01 -0.44700852170E+00  0.26571082963E+02  0.51100000000E-03 0.  1.
         12    1    3    3    0    0 -0.49083141314E-01 -0.16707948418E+02 -0.73026103853E+01  0.18234200501E+02  0.00000000000E+00 0. -1.
</event>
<event>
 7    1  0.5837204E-012  0.5930194E+02  0.7816164E-02  0.1266605E+00
        -11   -1    0    0    0    0  0.00000000000E+00  0.00000000000E+00  0.45593999997E+02  0.45594000000E+02  0.51100000000E-03 0.  1.
         11   -1    0    0    0    0 -0.00000000000E+00 -0.00000000000E+00 -0.45593999997E+02  0.45594000000E+02  0.51100000000E-03 0. -1.
    9900012    2    1    2    0    0  0.17867586609E+01  0.25398236536E+02  0.19195250667E+02  0.59301943897E+02  0.49999999761E+02 0.  0.
         12    1    1    2    0    0 -0.17867586609E+01 -0.25398236536E+02 -0.19195250667E+02  0.31886056103E+02  0.00000000000E+00 0. -1.
         11    1    3    3    0    0 -0.34451123187E+00  0.16292185815E+02  0.26758200809E+01  0.16514055225E+02  0.51100000000E-03 0. -1.
        -11    1    3    3    0    0  0.96716229733E+01  0.13382890713E+02  0.25453013109E+02  0.30339708821E+02  0.51100000000E-03 0.  1.
        -12    1    3    3    0    0 -0.75403530805E+01 -0.42768399923E+01 -0.89335825227E+01  0.12448179850E+02  0.00000000000E+00 0.  1.
</event>
<event>
 7    1  0.5837204E-012  0.5930192E+02  0.7816164E-02  0.1266605E+00
        -11   -1    0    0    0    0  0.00000000000E+00  0.00000000000E+00  0.45593999997E+02  0.45594000000E+02  0.51100000000E-03 0.  1.
         11   -1    0    0    0    0 -0.00000000000E+00 -0.00000000000E+00 -0.45593999997E+02  0.45594000000E+02  0.51100000000E-03 0. -1.
    9900012    2    1    2    0    0  0.17059369698E+01 -0.10032590903E+02  0.30218524067E+02  0.59301916861E+02  0.49999950454E+02 0.  0.
         12    1    1    2    0    0 -0.17059369698E+01  0.10032590903E+02 -0.30218524067E+02  0.31886083139E+02  0.00000000000E+00 0. -1.
         11    1    3    3    0    0  0.69560047291E+01 -0.80020832024E+00  0.23420239435E+02  0.24444507575E+02  0.51100000000E-03 0. -1.
        -11    1    3    3    0    0  0.40336580973E+01  0.79965466803E+00  0.17197707474E+02  0.17682505135E+02  0.51100000000E-03 0.  1.
         12    1    3    3    0    0 -0.92837258566E+01 -0.10032037251E+02 -0.10399422841E+02  0.17174904151E+02  0.00000000000E+00 0. -1.
</event>
<event>
 7    1  0.5837204E-012  0.5930181E+02  0.7816164E-02  0.1266605E+00
        -11   -1    0    0    0    0  0.00000000000E+00  0.00000000000E+00  0.45593999997E+02  0.45594000000E+02  0.51100000000E-03 0.  1.
         11   -1    0    0    0    0 -0.00000000000E+00 -0.00000000000E+00 -0.45593999997E+02  0.45594000000E+02  0.51100000000E-03 0. -1.
    9900012    2    1    2    0    0  0.14109678133E+02 -0.28581447157E+02 -0.86429806562E+00  0.59301809419E+02  0.49999754505E+02 0.  0.
         12    1    1    2    0    0 -0.14109678133E+02  0.28581447157E+02  0.86429806562E+00  0.31886190581E+02  0.00000000000E+00 0. -1.
         11    1    3    3    0    0 -0.13595137566E+02 -0.16721686085E+02  0.11856985326E+01  0.21583522238E+02  0.51100000000E-03 0. -1.
        -11    1    3    3    0    0  0.32407118928E+01 -0.20889024519E+01  0.85058662772E+01  0.93389233005E+01  0.51100000000E-03 0.  1.
         12    1    3    3    0    0  0.24464103806E+02 -0.97708586208E+01 -0.10555862875E+02  0.28379363880E+02  0.00000000000E+00 0. -1.
</event>
<event>
 7    1  0.5837204E-012  0.5930197E+02  0.7816164E-02  0.1266605E+00
        -11   -1    0    0    0    0  0.00000000000E+00  0.00000000000E+00  0.45593999997E+02  0.45594000000E+02  0.51100000000E-03 0. -1.
         11   -1    0    0    0    0 -0.00000000000E+00 -0.00000000000E+00 -0.45593999997E+02  0.45594000000E+02  0.51100000000E-03 0.  1.
    9900012    2    1    2    0    0  0.28887639032E+02  0.76347737261E+01 -0.11132543466E+02  0.59301968847E+02  0.50000045264E+02 0.  0.
         12    1    1    2    0    0 -0.28887639032E+02 -0.76347737261E+01  0.11132543466E+02  0.31886031153E+02  0.00000000000E+00 0. -1.
         11    1    3    3    0    0  0.16208599526E+02 -0.17480474707E+01  0.31832828577E+01  0.16610468342E+02  0.51100000000E-03 0. -1.
        -11    1    3    3    0    0  0.18830091797E+02  0.19742311819E+02 -0.56781221286E+01  0.27867046923E+02  0.51100000000E-03 0.  1.
        -12    1    3    3    0    0 -0.61510522906E+01 -0.10359490622E+02 -0.86377041948E+01  0.14824453582E+02  0.00000000000E+00 0.  1.
</event>
<event>
 7    1  0.5837204E-012  0.5930188E+02  0.7816164E-02  0.1266605E+00
        -11   -1    0    0    0    0  0.00000000000E+00  0.00000000000E+00  0.45593999997E+02  0.45594000000E+02  0.51100000000E-03 0.  1.
         11   -1    0    0    0    0 -0.00000000000E+00 -0.00000000000E+00 -0.45593999997E+02  0.45594000000E+02  0.51100000000E-03 0. -1.
    9900012    2    1    2    0    0 -0.19365038556E+02 -0.68892948868E+01  0.24377400552E+02  0.59301878254E+02  0.49999880045E+02 0.  0.
         12    1    1    2    0    0  0.19365038556E+02  0.68892948868E+01 -0.24377400552E+02  0.31886121746E+02  0.00000000000E+00 0. -1.
         11    1    3    3    0    0 -0.22496063801E+02 -0.87901434261E+01  0.11808208081E+01  0.24181270562E+02  0.51100000000E-03 0. -1.
        -11    1    3    3    0    0 -0.11476248710E+02 -0.84211715461E+00  0.10040292190E+02  0.15271572063E+02  0.51100000000E-03 0.  1.
        -12    1    3    3    0    0  0.14607273955E+02  0.27429656939E+01  0.13156287554E+02  0.19849035629E+02  0.00000000000E+00 0.  1.
</event>
<event>
 7    1  0.5837204E-012  0.5930194E+02  0.7816164E-02  0.1266605E+00
        -11   -1    0    0    0    0  0.00000000000E+00  0.00000000000E+00  0.45593999997E+02  0.45594000000E+02  0.51100000000E-03 0. -1.
         11   -1    0    0    0    0 -0.00000000000E+00 -0.00000000000E+00 -0.45593999997E+02  0.45594000000E+02  0.51100000000E-03 0.  1.
    9900012    2    1    2    0    0 -0.12111108142E+02 -0.24879011659E+02 -0.15845398862E+02  0.59301939932E+02  0.49999992530E+02 0.  0.
         12    1    1    2    0    0  0.12111108142E+02  0.24879011659E+02  0.15845398862E+02  0.31886060068E+02  0.00000000000E+00 0. -1.
         11    1    3    3    0    0 -0.99588020582E+01  0.40597935334E+01 -0.92491988243E+00  0.10794217851E+02  0.51100000000E-03 0. -1.
        -11    1    3    3    0    0  0.12936358555E+02 -0.62677237931E+00 -0.92821842636E+01  0.15934276302E+02  0.51100000000E-03 0.  1.
         12    1    3    3    0    0 -0.15088664639E+02 -0.28312032813E+02 -0.56382947164E+01  0.32573445779E+02  0.00000000000E+00 0. -1.
</event>
<event>
 7    1  0.5837204E-012  0.5930199E+02  0.7816164E-02  0.1266605E+00
        -11   -1    0    0    0    0  0.00000000000E+00  0.00000000000E+00  0.45593999997E+02  0.45594000000E+02  0.51100000000E-03 0.  1.
         11   -1    0    0    0    0 -0.00000000000E+00 -0.00000000000E+00 -0.45593999997E+02  0.45594000000E+02  0.51100000000E-03 0. -1.
    9900012    2    1    2    0    0  0.17277754052E+02 -0.24253420000E+02  0.11400359943E+02  0.59301994079E+02  0.50000091281E+02 0.  0.
         12    1    1    2    0    0 -0.17277754052E+02  0.24253420000E+02 -0.11400359943E+02  0.31886005921E+02  0.00000000000E+00 0. -1.
         11    1    3    3    0    0  0.58946464856E+01 -0.17925434463E+02 -0.19106449809E+00  0.18870732995E+02  0.51100000000E-03 0. -1.
        -11    1    3    3    0    0  0.57779333291E+01 -0.89582905447E+01  0.24167249032E+02  0.26413848812E+02  0.51100000000E-03 0.  1.
         12    1    3    3    0    0  0.56051742374E+01  0.26303050078E+01 -0.12575824590E+02  0.14017412272E+02  0.00000000000E+00 0. -1.
</event>
<event>
 7    1  0.5837204E-012  0.5930193E+02  0.7816164E-02  0.1266605E+00
        -11   -1    0    0    0    0  0.00000000000E+00  0.00000000000E+00  0.45593999997E+02  0.45594000000E+02  0.51100000000E-03 0.  1.
         11   -1    0    0    0    0 -0.00000000000E+00 -0.00000000000E+00 -0.45593999997E+02  0.45594000000E+02  0.51100000000E-03 0. -1.
    9900012    2    1    2    0    0  0.39749109410E+01  0.30350156440E+01  0.31491427909E+02  0.59301933001E+02  0.49999979890E+02 0.  0.
         12    1    1    2    0    0 -0.39749109410E+01 -0.30350156440E+01 -0.31491427909E+02  0.31886066999E+02  0.00000000000E+00 0. -1.
         11    1    3    3    0    0  0.38335704204E+01 -0.82721480954E+01 -0.38324365643E+01  0.98900084207E+01  0.51100000000E-03 0. -1.
        -11    1    3    3    0    0 -0.35310857814E+01  0.19921562485E+01 -0.58056539450E+01  0.70811631321E+01  0.51100000000E-03 0.  1.
        -12    1    3    3    0    0  0.36724263020E+01  0.93150074910E+01  0.41129518418E+02  0.42330761448E+02  0.00000000000E+00 0.  1.
</event>
<event>
 7    1  0.5837204E-012  0.5930197E+02  0.7816164E-02  0.1266605E+00
        -11   -1    0    0    0    0  0.00000000000E+00  0.00000000000E+00  0.45593999997E+02  0.45594000000E+02  0.51100000000E-03 0.  1.
         11   -1    0    0    0    0 -0.00000000000E+00 -0.00000000000E+00 -0.45593999997E+02  0.45594000000E+02  0.51100000000E-03 0. -1.
    9900012    2    1    2    0    0  0.21153743387E+02 -0.11424677891E+02  0.20945513769E+02  0.59301973731E+02  0.50000054172E+02 0.  0.
         12    1    1    2    0    0 -0.21153743387E+02  0.11424677891E+02 -0.20945513769E+02  0.31886026269E+02  0.00000000000E+00 0. -1.
         11    1    3    3    0    0  0.26007236921E+01  0.50676399610E+01  0.27623309583E+02  0.28204467219E+02  0.51100000000E-03 0. -1.
        -11    1    3    3    0    0  0.17257658115E+02 -0.46338345342E+01 -0.10287936274E+01  0.17898536328E+02  0.51100000000E-03 0.  1.
        -12    1    3    3    0    0  0.12953615798E+01 -0.11858483317E+02 -0.56490021870E+01  0.13198970184E+02  0.00000000000E+00 0.  1.
</event>
<event>
 7    1  0.5837204E-012  0.5930198E+02  0.7816164E-02  0.1266605E+00
        -11   -1    0    0    0    0  0.00000000000E+00  0.00000000000E+00  0.45593999997E+02  0.45594000000E+02  0.51100000000E-03 0. -1.
         11   -1    0    0    0    0 -0.00000000000E+00 -0.00000000000E+00 -0.45593999997E+02  0.45594000000E+02  0.51100000000E-03 0.  1.
    9900012    2    1    2    0    0  0.22276463979E+01 -0.29137627272E+02 -0.12757538509E+02  0.59301976097E+02  0.50000058487E+02 0.  0.
         12    1    1    2    0    0 -0.22276463979E+01  0.29137627272E+02  0.12757538509E+02  0.31886023903E+02  0.00000000000E+00 0. -1.
         11    1    3    3    0    0  0.20402315938E+02 -0.86591867826E+01 -0.12439850350E+02  0.25416252446E+02  0.51100000000E-03 0. -1.
        -11    1    3    3    0    0 -0.22392843525E+01 -0.15895667118E+02 -0.47160074442E+01  0.16731029676E+02  0.51100000000E-03 0.  1.
         12    1    3    3    0    0 -0.15935385188E+02 -0.45827733708E+01  0.43983192856E+01  0.17154693976E+02  0.00000000000E+00 0. -1.
</event>
<event>
 7    1  0.5837204E-012  0.5930193E+02  0.7816164E-02  0.1266605E+00
        -11   -1    0    0    0    0  0.00000000000E+00  0.00000000000E+00  0.45593999997E+02  0.45594000000E+02  0.51100000000E-03 0.  1.
         11   -1    0    0    0    0 -0.00000000000E+00 -0.00000000000E+00 -0.45593999997E+02  0.45594000000E+02  0.51100000000E-03 0. -1.
    9900012    2    1    2    0    0 -0.10151401207E+02  0.25260078302E+01  0.30121253630E+02  0.59301928084E+02  0.49999970922E+02 0.  0.
         12    1    1    2    0    0  0.10151401207E+02 -0.25260078302E+01 -0.30121253630E+02  0.31886071916E+02  0.00000000000E+00 0. -1.
         11    1    3    3    0    0 -0.15615617029E+02 -0.85885895074E+01 -0.26197864332E+01  0.18013179790E+02  0.51100000000E-03 0. -1.
        -11    1    3    3    0    0 -0.56355486889E+01 -0.35664778902E+01  0.10222864213E+02  0.12205987324E+02  0.51100000000E-03 0.  1.
        -12    1    3    3    0    0  0.11099764511E+02  0.14681075228E+02  0.22518175850E+02  0.29082760970E+02  0.00000000000E+00 0.  1.
</event>
<event>
 7    1  0.5837204E-012  0.5930196E+02  0.7816164E-02  0.1266605E+00
        -11   -1    0    0    0    0  0.00000000000E+00  0.00000000000E+00  0.45593999997E+02  0.45594000000E+02  0.51100000000E-03 0.  1.
         11   -1    0    0    0    0 -0.00000000000E+00 -0.00000000000E+00 -0.45593999997E+02  0.45594000000E+02  0.51100000000E-03 0. -1.
    9900012    2    1    2    0    0 -0.16432499741E+01 -0.31674071650E+02  0.32821122696E+01  0.59301963145E+02  0.50000034865E+02 0.  0.
         12    1    1    2    0    0  0.16432499741E+01  0.31674071650E+02 -0.32821122696E+01  0.31886036855E+02  0.00000000000E+00 0. -1.
         11    1    3    3    0    0  0.11661198716E+02  0.37871592778E+01  0.48554650603E+01  0.13187178323E+02  0.51100000000E-03 0. -1.
        -11    1    3    3    0    0 -0.12997833825E+02 -0.38769102368E+01 -0.47459457290E+01  0.14370042389E+02  0.51100000000E-03 0.  1.
        -12    1    3    3    0    0 -0.30661486562E+00 -0.31584320691E+02  0.31725929384E+01  0.31744742433E+02  0.00000000000E+00 0.  1.
</event>
<event>
 7    1  0.5837204E-012  0.5930197E+02  0.7816164E-02  0.1266605E+00
        -11   -1    0    0    0    0  0.00000000000E+00  0.00000000000E+00  0.45593999997E+02  0.45594000000E+02  0.51100000000E-03 0.  1.
         11   -1    0    0    0    0 -0.00000000000E+00 -0.00000000000E+00 -0.45593999997E+02  0.45594000000E+02  0.51100000000E-03 0. -1.
    9900012    2    1    2    0    0  0.16864919765E+02  0.23199879637E+02  0.13930495234E+02  0.59301974357E+02  0.50000055312E+02 0.  0.
         12    1    1    2    0    0 -0.16864919765E+02 -0.23199879637E+02 -0.13930495234E+02  0.31886025643E+02  0.00000000000E+00 0. -1.
         11    1    3    3    0    0  0.16256021963E+02  0.74245198407E+01 -0.54406689446E+01  0.18681076622E+02  0.51100000000E-03 0. -1.
        -11    1    3    3    0    0  0.25182068283E+01  0.21730072543E+02  0.17759097263E+01  0.21947466232E+02  0.51100000000E-03 0.  1.
         12    1    3    3    0    0 -0.19093090261E+01 -0.59547127468E+01  0.17595254453E+02  0.18673431503E+02  0.00000000000E+00 0. -1.
</event>
<event>
 7    1  0.5837204E-012  0.5930191E+02  0.7816164E-02  0.1266605E+00
        -11   -1    0    0    0    0  0.00000000000E+00  0.00000000000E+00  0.45593999997E+02  0.45594000000E+02  0.51100000000E-03 0.  1.
         11   -1    0    0    0    0 -0.00000000000E+00 -0.00000000000E+00 -0.45593999997E+02  0.45594000000E+02  0.51100000000E-03 0. -1.
    9900012    2    1    2    0    0  0.21566357476E+02  0.54071691455E+01  0.22855572556E+02  0.59301914480E+02  0.49999946112E+02 0.  0.
         12    1    1    2    0    0 -0.21566357476E+02 -0.54071691455E+01 -0.22855572556E+02  0.31886085520E+02  0.00000000000E+00 0. -1.
         11    1    3    3    0    0  0.10888809888E+02 -0.52388109340E+01  0.57117756269E+01  0.13365466765E+02  0.51100000000E-03 0. -1.
        -11    1    3    3    0    0  0.23064361667E+02  0.73132717674E+01  0.21521731724E+02  0.32382613541E+02  0.51100000000E-03 0.  1.
        -12    1    3    3    0    0 -0.12386814080E+02  0.33327083121E+01 -0.43779347957E+01  0.13553834174E+02  0.00000000000E+00 0.  1.
</event>
<event>
 7    1  0.5837204E-012  0.5930197E+02  0.7816164E-02  0.1266605E+00
        -11   -1    0    0    0    0  0.00000000000E+00  0.00000000000E+00  0.45593999997E+02  0.45594000000E+02  0.51100000000E-03 0. -1.
         11   -1    0    0    0    0 -0.00000000000E+00 -0.00000000000E+00 -0.45593999997E+02  0.45594000000E+02  0.51100000000E-03 0.  1.
    9900012    2    1    2    0    0 -0.13629849027E+02  0.20949003553E+02 -0.19801146127E+02  0.59301969793E+02  0.50000046991E+02 0.  0.
         12    1    1    2    0    0  0.13629849027E+02 -0.20949003553E+02  0.19801146127E+02  0.31886030207E+02  0.00000000000E+00 0. -1.
         11    1    3    3    0    0 -0.24038502898E+01  0.50131757143E+00 -0.53353816666E+01  0.58733391961E+01  0.51100000000E-03 0. -1.
        -11    1    3    3    0    0 -0.88570167822E+01 -0.48301005143E+01 -0.24215066256E+02  0.26232538026E+02  0.51100000000E-03 0.  1.
         12    1    3    3    0    0 -0.23689819553E+01  0.25277786496E+02  0.97493017953E+01  0.27196092571E+02  0.00000000000E+00 0. -1.
</event>
<event>
 7    1  0.5837204E-012  0.5930193E+02  0.7816164E-02  0.1266605E+00
        -11   -1    0    0    0    0  0.00000000000E+00  0.00000000000E+00  0.45593999997E+02  0.45594000000E+02  0.51100000000E-03 0.  1.
         11   -1    0    0    0    0 -0.00000000000E+00 -0.00000000000E+00 -0.45593999997E+02  0.45594000000E+02  0.51100000000E-03 0. -1.
    9900012    2    1    2    0    0  0.16977936214E+01 -0.24710028945E+02  0.20081173460E+02  0.59301928414E+02  0.49999971525E+02 0.  0.
         12    1    1    2    0    0 -0.16977936214E+01  0.24710028945E+02 -0.20081173460E+02  0.31886071586E+02  0.00000000000E+00 0. -1.
         11    1    3    3    0    0 -0.60473989049E+01 -0.47143062979E+01 -0.12921137216E+02  0.15025029271E+02  0.51100000000E-03 0. -1.
        -11    1    3    3    0    0  0.85217647213E+01 -0.56184298484E+01  0.24429562685E+01  0.10495487769E+02  0.51100000000E-03 0.  1.
        -12    1    3    3    0    0 -0.77657219495E+00 -0.14377292799E+02  0.30559354407E+02  0.33781411374E+02  0.00000000000E+00 0.  1.
</event>
<event>
 7    1  0.5837204E-012  0.5930195E+02  0.7816164E-02  0.1266605E+00
        -11   -1    0    0    0    0  0.00000000000E+00  0.00000000000E+00  0.45593999997E+02  0.45594000000E+02  0.51100000000E-03 0.  1.
         11   -1    0    0    0    0 -0.00000000000E+00 -0.00000000000E+00 -0.45593999997E+02  0.45594000000E+02  0.51100000000E-03 0. -1.
    9900012    2    1    2    0    0 -0.10681105231E+02  0.20238206593E+02 -0.22204714677E+02  0.59301947110E+02  0.50000005621E+02 0.  0.
         12    1    1    2    0    0  0.10681105231E+02 -0.20238206593E+02  0.22204714677E+02  0.31886052890E+02  0.00000000000E+00 0. -1.
         11    1    3    3    0    0  0.27093172407E+01 -0.18300924732E+01  0.46469529337E-01  0.32698315017E+01  0.51100000000E-03 0. -1.
        -11    1    3    3    0    0 -0.14698479912E+02  0.78006533539E+01  0.10917038350E+02  0.19901689151E+02  0.51100000000E-03 0.  1.
         12    1    3    3    0    0  0.13080574400E+01  0.14267645712E+02 -0.33168222556E+02  0.36130426457E+02  0.00000000000E+00 0. -1.
</event>
<event>
 7    1  0.5837204E-012  0.5930194E+02  0.7816164E-02  0.1266605E+00
        -11   -1    0    0    0    0  0.00000000000E+00  0.00000000000E+00  0.45593999997E+02  0.45594000000E+02  0.51100000000E-03 0.  1.
         11   -1    0    0    0    0 -0.00000000000E+00 -0.00000000000E+00 -0.45593999997E+02  0.45594000000E+02  0.51100000000E-03 0. -1.
    9900012    2    1    2    0    0  0.31323536652E+01 -0.26297696701E+02 -0.17757817445E+02  0.59301943931E+02  0.49999999823E+02 0.  0.
         12    1    1    2    0    0 -0.31323536652E+01  0.26297696701E+02  0.17757817445E+02  0.31886056069E+02  0.00000000000E+00 0. -1.
         11    1    3    3    0    0  0.61308044335E+00  0.13182028048E+01 -0.82463548623E+01  0.83735234543E+01  0.51100000000E-03 0. -1.
        -11    1    3    3    0    0  0.12031031761E+02  0.71233031012E+01 -0.18345193056E+01  0.14101511750E+02  0.51100000000E-03 0.  1.
        -12    1    3    3    0    0 -0.95117585390E+01 -0.34739202607E+02 -0.76769432772E+01  0.36826908726E+02  0.00000000000E+00 0.  1.
</event>
<event>
 7    1  0.5837204E-012  0.5930192E+02  0.7816164E-02  0.1266605E+00
        -11   -1    0    0    0    0  0.00000000000E+00  0.00000000000E+00  0.45593999997E+02  0.45594000000E+02  0.51100000000E-03 0. -1.
         11   -1    0    0    0    0 -0.00000000000E+00 -0.00000000000E+00 -0.45593999997E+02  0.45594000000E+02  0.51100000000E-03 0.  1.
    9900012    2    1    2    0    0  0.48056704586E+01  0.31521166933E+02  0.20886321599E+00  0.59301920636E+02  0.49999957339E+02 0.  0.
         12    1    1    2    0    0 -0.48056704586E+01 -0.31521166933E+02 -0.20886321599E+00  0.31886079364E+02  0.00000000000E+00 0. -1.
         11    1    3    3    0    0  0.78735305833E+01  0.26358183502E+02  0.10238114740E+02  0.29352432864E+02  0.51100000000E-03 0.  1.
        -11    1    3    3    0    0  0.11215869953E+02  0.99125396118E+00 -0.10014832988E+02  0.15069014674E+02  0.51100000000E-03 0. -1.
         12    1    3    3    0    0 -0.14283730078E+02  0.41717294701E+01 -0.14418536103E-01  0.14880473097E+02  0.00000000000E+00 0. -1.
</event>
<event>
 7    1  0.5837204E-012  0.5930191E+02  0.7816164E-02  0.1266605E+00
        -11   -1    0    0    0    0  0.00000000000E+00  0.00000000000E+00  0.45593999997E+02  0.45594000000E+02  0.51100000000E-03 0. -1.
         11   -1    0    0    0    0 -0.00000000000E+00 -0.00000000000E+00 -0.45593999997E+02  0.45594000000E+02  0.51100000000E-03 0.  1.
    9900012    2    1    2    0    0 -0.23419457851E+01  0.29293551843E+02 -0.12374400589E+02  0.59301910876E+02  0.49999939540E+02 0.  0.
         12    1    1    2    0    0  0.23419457851E+01 -0.29293551843E+02  0.12374400589E+02  0.31886089124E+02  0.00000000000E+00 0. -1.
         11    1    3    3    0    0  0.29248241107E+01  0.19897817833E+02  0.12857347922E+02  0.23870256522E+02  0.51100000000E-03 0. -1.
        -11    1    3    3    0    0  0.46808843297E+01  0.84818120567E+01 -0.16578634627E+01  0.98285464539E+01  0.51100000000E-03 0.  1.
        -12    1    3    3    0    0 -0.99476542255E+01  0.91392195374E+00 -0.23573885048E+02  0.25603107901E+02  0.00000000000E+00 0.  1.
</event>
<event>
 7    1  0.5837204E-012  0.5930190E+02  0.7816164E-02  0.1266605E+00
        -11   -1    0    0    0    0  0.00000000000E+00  0.00000000000E+00  0.45593999997E+02  0.45594000000E+02  0.51100000000E-03 0. -1.
         11   -1    0    0    0    0 -0.00000000000E+00 -0.00000000000E+00 -0.45593999997E+02  0.45594000000E+02  0.51100000000E-03 0.  1.
    9900012    2    1    2    0    0  0.27748209782E+02 -0.81849549309E+01 -0.13407708361E+02  0.59301901512E+02  0.49999922461E+02 0.  0.
         12    1    1    2    0    0 -0.27748209782E+02  0.81849549309E+01  0.13407708361E+02  0.31886098488E+02  0.00000000000E+00 0. -1.
         11    1    3    3    0    0  0.78400294555E+01  0.76017678605E+01  0.27550762313E-01  0.10920334050E+02  0.51100000000E-03 0. -1.
        -11    1    3    3    0    0  0.74984931530E+00  0.91810930702E+01 -0.14170978654E+02  0.16901815885E+02  0.51100000000E-03 0.  1.
         12    1    3    3    0    0  0.19158331011E+02 -0.24967815862E+02  0.73571953063E+00  0.31479751576E+02  0.00000000000E+00 0. -1.
</event>
<event>
 7    1  0.5837204E-012  0.5930205E+02  0.7816164E-02  0.1266604E+00
        -11   -1    0    0    0    0  0.00000000000E+00  0.00000000000E+00  0.45593999997E+02  0.45594000000E+02  0.51100000000E-03 0.  1.
         11   -1    0    0    0    0 -0.00000000000E+00 -0.00000000000E+00 -0.45593999997E+02  0.45594000000E+02  0.51100000000E-03 0. -1.
    9900012    2    1    2    0    0  0.29625567490E+02  0.46909694155E+01 -0.10818251631E+02  0.59302046799E+02  0.50000187430E+02 0.  0.
         12    1    1    2    0    0 -0.29625567490E+02 -0.46909694155E+01  0.10818251631E+02  0.31885953201E+02  0.00000000000E+00 0. -1.
         11    1    3    3    0    0 -0.31259770870E+01  0.11527362732E+02 -0.58547409334E+01  0.13301496756E+02  0.51100000000E-03 0. -1.
        -11    1    3    3    0    0 -0.30690056719E+01  0.16462870100E+01  0.65605229646E+01  0.74276186334E+01  0.51100000000E-03 0.  1.
        -12    1    3    3    0    0  0.35820550249E+02 -0.84826803264E+01 -0.11524033662E+02  0.38572931409E+02  0.00000000000E+00 0.  1.
</event>
<event>
 7    1  0.5837204E-012  0.5930195E+02  0.7816164E-02  0.1266605E+00
        -11   -1    0    0    0    0  0.00000000000E+00  0.00000000000E+00  0.45593999997E+02  0.45594000000E+02  0.51100000000E-03 0.  1.
         11   -1    0    0    0    0 -0.00000000000E+00 -0.00000000000E+00 -0.45593999997E+02  0.45594000000E+02  0.51100000000E-03 0. -1.
    9900012    2    1    2    0    0  0.22916557253E+02  0.14275860065E+02  0.16963242823E+02  0.59301946873E+02  0.50000005189E+02 0.  0.
         12    1    1    2    0    0 -0.22916557253E+02 -0.14275860065E+02 -0.16963242823E+02  0.31886053127E+02  0.00000000000E+00 0. -1.
         11    1    3    3    0    0 -0.76577007954E+00  0.45395775985E+01  0.52151552038E+01  0.69564367782E+01  0.51100000000E-03 0. -1.
        -11    1    3    3    0    0  0.33599998051E+02  0.15333664192E+02  0.14030560963E+01  0.36960109487E+02  0.51100000000E-03 0.  1.
         12    1    3    3    0    0 -0.99176707183E+01 -0.55973817261E+01  0.10345031523E+02  0.15385400608E+02  0.00000000000E+00 0. -1.
</event>
<event>
 7    1  0.5837204E-012  0.5930187E+02  0.7816164E-02  0.1266605E+00
        -11   -1    0    0    0    0  0.00000000000E+00  0.00000000000E+00  0.45593999997E+02  0.45594000000E+02  0.51100000000E-03 0. -1.
         11   -1    0    0    0    0 -0.00000000000E+00 -0.00000000000E+00 -0.45593999997E+02  0.45594000000E+02  0.51100000000E-03 0.  1.
    9900012    2    1    2    0    0  0.24980178975E+02 -0.14268010277E+02 -0.13752801853E+02  0.59301874213E+02  0.49999872675E+02 0.  0.
         12    1    1    2    0    0 -0.24980178975E+02  0.14268010277E+02  0.13752801853E+02  0.31886125787E+02  0.00000000000E+00 0. -1.
         11    1    3    3    0    0  0.24545730948E+02 -0.33469381094E+00 -0.41187767310E+00  0.24551467801E+02  0.51100000000E-03 0. -1.
        -11    1    3    3    0    0 -0.79725142072E+01 -0.45409436873E+00  0.58047040533E+01  0.98722729848E+01  0.51100000000E-03 0.  1.
        -12    1    3    3    0    0  0.84069622343E+01 -0.13479222098E+02 -0.19145628233E+02  0.24878133427E+02  0.00000000000E+00 0.  1.
</event>
<event>
 7    1  0.5837204E-012  0.5930191E+02  0.7816164E-02  0.1266605E+00
        -11   -1    0    0    0    0  0.00000000000E+00  0.00000000000E+00  0.45593999997E+02  0.45594000000E+02  0.51100000000E-03 0.  1.
         11   -1    0    0    0    0 -0.00000000000E+00 -0.00000000000E+00 -0.45593999997E+02  0.45594000000E+02  0.51100000000E-03 0. -1.
    9900012    2    1    2    0    0  0.27881635493E+02  0.13009471540E+02  0.83720172374E+01  0.59301911809E+02  0.49999941241E+02 0.  0.
         12    1    1    2    0    0 -0.27881635493E+02 -0.13009471540E+02 -0.83720172374E+01  0.31886088191E+02  0.00000000000E+00 0. -1.
         11    1    3    3    0    0  0.12871904312E+02  0.17692247437E+01  0.18932810588E+02  0.22962303757E+02  0.51100000000E-03 0. -1.
        -11    1    3    3    0    0 -0.76098074477E+01  0.93351448282E+01 -0.29727490151E+01  0.12405294649E+02  0.51100000000E-03 0.  1.
         12    1    3    3    0    0  0.22619538628E+02  0.19051019676E+01 -0.75880443355E+01  0.23934313403E+02  0.00000000000E+00 0. -1.
</event>
<event>
 7    1  0.5837204E-012  0.5930192E+02  0.7816164E-02  0.1266605E+00
        -11   -1    0    0    0    0  0.00000000000E+00  0.00000000000E+00  0.45593999997E+02  0.45594000000E+02  0.51100000000E-03 0.  1.
         11   -1    0    0    0    0 -0.00000000000E+00 -0.00000000000E+00 -0.45593999997E+02  0.45594000000E+02  0.51100000000E-03 0. -1.
    9900012    2    1    2    0    0  0.21110036448E+01 -0.16097623026E+02  0.27443254212E+02  0.59301921451E+02  0.49999958825E+02 0.  0.
         12    1    1    2    0    0 -0.21110036448E+01  0.16097623026E+02 -0.27443254212E+02  0.31886078549E+02  0.00000000000E+00 0. -1.
         11    1    3    3    0    0 -0.18893166598E+02 -0.17021622151E+02  0.10562822117E+02  0.27536531664E+02  0.51100000000E-03 0. -1.
        -11    1    3    3    0    0  0.11460002825E+01 -0.20703219865E+01  0.10395859675E+02  0.10661775106E+02  0.51100000000E-03 0.  1.
         12    1    3    3    0    0  0.19858169960E+02  0.29943211118E+01  0.64845724208E+01  0.21103614680E+02  0.00000000000E+00 0. -1.
</event>
<event>
 7    1  0.5837204E-012  0.5930189E+02  0.7816164E-02  0.1266605E+00
        -11   -1    0    0    0    0  0.00000000000E+00  0.00000000000E+00  0.45593999997E+02  0.45594000000E+02  0.51100000000E-03 0.  1.
         11   -1    0    0    0    0 -0.00000000000E+00 -0.00000000000E+00 -0.45593999997E+02  0.45594000000E+02  0.51100000000E-03 0. -1.
    9900012    2    1    2    0    0 -0.26975169967E+02  0.16798254901E+02 -0.26235015147E+01  0.59301891384E+02  0.49999903990E+02 0.  0.
         12    1    1    2    0    0  0.26975169967E+02 -0.16798254901E+02  0.26235015147E+01  0.31886108616E+02  0.00000000000E+00 0. -1.
         11    1    3    3    0    0 -0.10796269649E+02 -0.14794690590E+02 -0.15305211598E+01  0.18378922799E+02  0.51100000000E-03 0. -1.
        -11    1    3    3    0    0 -0.46821826683E+01 -0.44850811008E+00  0.44002989927E+01  0.64410112211E+01  0.51100000000E-03 0.  1.
         12    1    3    3    0    0 -0.11496717650E+02  0.32041453601E+02 -0.54932793476E+01  0.34481957363E+02  0.00000000000E+00 0. -1.
</event>
<event>
 7    1  0.5837204E-012  0.5930193E+02  0.7816164E-02  0.1266605E+00
        -11   -1    0    0    0    0  0.00000000000E+00  0.00000000000E+00  0.45593999997E+02  0.45594000000E+02  0.51100000000E-03 0.  1.
         11   -1    0    0    0    0 -0.00000000000E+00 -0.00000000000E+00 -0.45593999997E+02  0.45594000000E+02  0.51100000000E-03 0. -1.
    9900012    2    1    2    0    0  0.23906462062E+02  0.21020647050E+02 -0.18261471269E+01  0.59301931819E+02  0.49999977734E+02 0.  0.
         12    1    1    2    0    0 -0.23906462062E+02 -0.21020647050E+02  0.18261471269E+01  0.31886068181E+02  0.00000000000E+00 0. -1.
         11    1    3    3    0    0  0.67212260966E+01  0.48903854718E+01 -0.12447383846E+01  0.84047679452E+01  0.51100000000E-03 0. -1.
        -11    1    3    3    0    0  0.80216886811E+01 -0.15479223172E+02  0.33468478066E+01  0.17752611915E+02  0.51100000000E-03 0.  1.
         12    1    3    3    0    0  0.91635472846E+01  0.31609484750E+02 -0.39282565490E+01  0.33144551958E+02  0.00000000000E+00 0. -1.
</event>
<event>
 7    1  0.5837204E-012  0.5930191E+02  0.7816164E-02  0.1266605E+00
        -11   -1    0    0    0    0  0.00000000000E+00  0.00000000000E+00  0.45593999997E+02  0.45594000000E+02  0.51100000000E-03 0.  1.
         11   -1    0    0    0    0 -0.00000000000E+00 -0.00000000000E+00 -0.45593999997E+02  0.45594000000E+02  0.51100000000E-03 0. -1.
    9900012    2    1    2    0    0 -0.10464080527E+02  0.21100188290E+02  0.21494371979E+02  0.59301906575E+02  0.49999931695E+02 0.  0.
         12    1    1    2    0    0  0.10464080527E+02 -0.21100188290E+02 -0.21494371979E+02  0.31886093425E+02  0.00000000000E+00 0. -1.
         11    1    3    3    0    0  0.51426271278E+01  0.24878364289E+01  0.18418836999E+02  0.19284436744E+02  0.51100000000E-03 0. -1.
        -11    1    3    3    0    0 -0.56311903867E+01  0.78174368446E+01  0.17147648092E+02  0.19668870312E+02  0.51100000000E-03 0.  1.
         12    1    3    3    0    0 -0.99755172679E+01  0.10794915016E+02 -0.14072113112E+02  0.20348599519E+02  0.00000000000E+00 0. -1.
</event>
<event>
 7    1  0.5837204E-012  0.5930196E+02  0.7816164E-02  0.1266605E+00
        -11   -1    0    0    0    0  0.00000000000E+00  0.00000000000E+00  0.45593999997E+02  0.45594000000E+02  0.51100000000E-03 0. -1.
         11   -1    0    0    0    0 -0.00000000000E+00 -0.00000000000E+00 -0.45593999997E+02  0.45594000000E+02  0.51100000000E-03 0.  1.
    9900012    2    1    2    0    0  0.12121168863E+02 -0.25421690008E+02 -0.14951065768E+02  0.59301961910E+02  0.50000032613E+02 0.  0.
         12    1    1    2    0    0 -0.12121168863E+02  0.25421690008E+02  0.14951065768E+02  0.31886038090E+02  0.00000000000E+00 0. -1.
         11    1    3    3    0    0  0.51988881080E+01  0.39584774451E+01 -0.39857172559E+01  0.76540135581E+01  0.51100000000E-03 0. -1.
        -11    1    3    3    0    0  0.16264421328E+02 -0.80305718390E+00  0.57240767837E+01  0.17260977876E+02  0.51100000000E-03 0.  1.
        -12    1    3    3    0    0 -0.93421405724E+01 -0.28577110269E+02 -0.16689425296E+02  0.34386970476E+02  0.00000000000E+00 0.  1.
</event>
<event>
 7    1  0.5837204E-012  0.5930198E+02  0.7816164E-02  0.1266605E+00
        -11   -1    0    0    0    0  0.00000000000E+00  0.00000000000E+00  0.45593999997E+02  0.45594000000E+02  0.51100000000E-03 0.  1.
         11   -1    0    0    0    0 -0.00000000000E+00 -0.00000000000E+00 -0.45593999997E+02  0.45594000000E+02  0.51100000000E-03 0. -1.
    9900012    2    1    2    0    0  0.10091081383E+02  0.90613363348E+01  0.28857935297E+02  0.59301981602E+02  0.50000068527E+02 0.  0.
         12    1    1    2    0    0 -0.10091081383E+02 -0.90613363348E+01 -0.28857935297E+02  0.31886018398E+02  0.00000000000E+00 0. -1.
         11    1    3    3    0    0  0.15020886034E+02 -0.10013497920E+02  0.12138614208E+01  0.18093386019E+02  0.51100000000E-03 0. -1.
        -11    1    3    3    0    0 -0.73587029176E+01 -0.32495720979E+01  0.84568679005E+01  0.11671711203E+02  0.51100000000E-03 0.  1.
        -12    1    3    3    0    0  0.24288982669E+01  0.22324406352E+02  0.19187205975E+02  0.29536884381E+02  0.00000000000E+00 0.  1.
</event>
<event>
 7    1  0.5837204E-012  0.5930228E+02  0.7816164E-02  0.1266604E+00
        -11   -1    0    0    0    0  0.00000000000E+00  0.00000000000E+00  0.45593999997E+02  0.45594000000E+02  0.51100000000E-03 0. -1.
         11   -1    0    0    0    0 -0.00000000000E+00 -0.00000000000E+00 -0.45593999997E+02  0.45594000000E+02  0.51100000000E-03 0.  1.
    9900012    2    1    2    0    0  0.13661621043E+02 -0.28425726382E+02 -0.46943992922E+01  0.59302279143E+02  0.50000611166E+02 0.  0.
         12    1    1    2    0    0 -0.13661621043E+02  0.28425726382E+02  0.46943992922E+01  0.31885720857E+02  0.00000000000E+00 0. -1.
         11    1    3    3    0    0  0.11276314754E+00 -0.54945127305E+01  0.41386338925E+01  0.68797293864E+01  0.51100000000E-03 0. -1.
        -11    1    3    3    0    0  0.15939492426E+01  0.35348457945E+01  0.14600289086E+02  0.15106430771E+02  0.51100000000E-03 0.  1.
        -12    1    3    3    0    0  0.11954908652E+02 -0.26466059446E+02 -0.23433322271E+02  0.37316118986E+02  0.00000000000E+00 0.  1.
</event>
<event>
 7    1  0.5837204E-012  0.5930195E+02  0.7816164E-02  0.1266605E+00
        -11   -1    0    0    0    0  0.00000000000E+00  0.00000000000E+00  0.45593999997E+02  0.45594000000E+02  0.51100000000E-03 0. -1.
         11   -1    0    0    0    0 -0.00000000000E+00 -0.00000000000E+00 -0.45593999997E+02  0.45594000000E+02  0.51100000000E-03 0.  1.
    9900012    2    1    2    0    0 -0.19143915900E+02  0.47255917786E+01 -0.25057921904E+02  0.59301950012E+02  0.50000010914E+02 0.  0.
         12    1    1    2    0    0  0.19143915900E+02 -0.47255917786E+01  0.25057921904E+02  0.31886049988E+02  0.00000000000E+00 0. -1.
         11    1    3    3    0    0 -0.10389706776E+02  0.51958755444E+01 -0.92778820085E+01  0.14866816216E+02  0.51100000000E-03 0. -1.
        -11    1    3    3    0    0  0.34337641286E+01  0.18570038135E+02 -0.82346636376E+01  0.20602105181E+02  0.51100000000E-03 0.  1.
         12    1    3    3    0    0 -0.12187973253E+02 -0.19040321901E+02 -0.75453762582E+01  0.23833028615E+02  0.00000000000E+00 0. -1.
</event>
<event>
 7    1  0.5837204E-012  0.5930193E+02  0.7816164E-02  0.1266605E+00
        -11   -1    0    0    0    0  0.00000000000E+00  0.00000000000E+00  0.45593999997E+02  0.45594000000E+02  0.51100000000E-03 0.  1.
         11   -1    0    0    0    0 -0.00000000000E+00 -0.00000000000E+00 -0.45593999997E+02  0.45594000000E+02  0.51100000000E-03 0. -1.
    9900012    2    1    2    0    0 -0.53358126469E+00 -0.29650494472E+02  0.11716875341E+02  0.59301926251E+02  0.49999967579E+02 0.  0.
         12    1    1    2    0    0  0.53358126469E+00  0.29650494472E+02 -0.11716875341E+02  0.31886073749E+02  0.00000000000E+00 0. -1.
         11    1    3    3    0    0  0.52992484946E+01 -0.59969850495E+01 -0.22749795907E+01  0.83199397047E+01  0.51100000000E-03 0. -1.
        -11    1    3    3    0    0  0.40566644308E+01 -0.22181019295E+02  0.26612359611E+02  0.34880823207E+02  0.51100000000E-03 0.  1.
         12    1    3    3    0    0 -0.98894941901E+01 -0.14724901272E+01 -0.12620504679E+02  0.16101163339E+02  0.00000000000E+00 0. -1.
</event>
<event>
 7    1  0.5837204E-012  0.5930216E+02  0.7816164E-02  0.1266604E+00
        -11   -1    0    0    0    0  0.00000000000E+00  0.00000000000E+00  0.45593999997E+02  0.45594000000E+02  0.51100000000E-03 0.  1.
         11   -1    0    0    0    0 -0.00000000000E+00 -0.00000000000E+00 -0.45593999997E+02  0.45594000000E+02  0.51100000000E-03 0. -1.
    9900012    2    1    2    0    0 -0.89539411590E+01 -0.13979721734E+02  0.27223172069E+02  0.59302160203E+02  0.50000394250E+02 0.  0.
         12    1    1    2    0    0  0.89539411590E+01  0.13979721734E+02 -0.27223172069E+02  0.31885839797E+02  0.00000000000E+00 0. -1.
         11    1    3    3    0    0  0.76044117714E+01 -0.57413113774E+01  0.17152434878E+01  0.96815182283E+01  0.51100000000E-03 0. -1.
        -11    1    3    3    0    0 -0.99987558927E+01 -0.21371824731E+02  0.45456494583E+01  0.24029002081E+02  0.51100000000E-03 0.  1.
        -12    1    3    3    0    0 -0.65595970376E+01  0.13133414374E+02  0.20962279123E+02  0.25591639894E+02  0.00000000000E+00 0.  1.
</event>
<event>
 7    1  0.5837204E-012  0.5930170E+02  0.7816164E-02  0.1266606E+00
        -11   -1    0    0    0    0  0.00000000000E+00  0.00000000000E+00  0.45593999997E+02  0.45594000000E+02  0.51100000000E-03 0. -1.
         11   -1    0    0    0    0 -0.00000000000E+00 -0.00000000000E+00 -0.45593999997E+02  0.45594000000E+02  0.51100000000E-03 0.  1.
    9900012    2    1    2    0    0  0.98815336912E+01  0.30053346408E+02 -0.39859778180E+01  0.59301696396E+02  0.49999548377E+02 0.  0.
         12    1    1    2    0    0 -0.98815336912E+01 -0.30053346408E+02  0.39859778180E+01  0.31886303604E+02  0.00000000000E+00 0. -1.
         11    1    3    3    0    0 -0.95568893837E+01 -0.25276041660E+01  0.11113550101E+01  0.99477649617E+01  0.51100000000E-03 0. -1.
        -11    1    3    3    0    0 -0.53418923192E+01  0.17797361900E+02  0.41761257960E+01  0.19045260068E+02  0.51100000000E-03 0.  1.
        -12    1    3    3    0    0  0.24780315394E+02  0.14783588674E+02 -0.92734586240E+01  0.30308671366E+02  0.00000000000E+00 0.  1.
</event>
<event>
 7    1  0.5837204E-012  0.5930195E+02  0.7816164E-02  0.1266605E+00
        -11   -1    0    0    0    0  0.00000000000E+00  0.00000000000E+00  0.45593999997E+02  0.45594000000E+02  0.51100000000E-03 0.  1.
         11   -1    0    0    0    0 -0.00000000000E+00 -0.00000000000E+00 -0.45593999997E+02  0.45594000000E+02  0.51100000000E-03 0. -1.
    9900012    2    1    2    0    0  0.44379792091E+01  0.30653518268E+01  0.31426547326E+02  0.59301954179E+02  0.50000018513E+02 0.  0.
         12    1    1    2    0    0 -0.44379792091E+01 -0.30653518268E+01 -0.31426547326E+02  0.31886045821E+02  0.00000000000E+00 0. -1.
         11    1    3    3    0    0  0.97868738287E+01 -0.18614078840E+01  0.27603057177E+01  0.10337650921E+02  0.51100000000E-03 0.  1.
        -11    1    3    3    0    0 -0.34634399900E+01  0.13468835759E+02 -0.45367581674E+01  0.14628298883E+02  0.51100000000E-03 0. -1.
         12    1    3    3    0    0 -0.18854546296E+01 -0.85420760482E+01  0.33202999775E+02  0.34336004375E+02  0.00000000000E+00 0. -1.
</event>
<event>
 7    1  0.5837204E-012  0.5930194E+02  0.7816164E-02  0.1266605E+00
        -11   -1    0    0    0    0  0.00000000000E+00  0.00000000000E+00  0.45593999997E+02  0.45594000000E+02  0.51100000000E-03 0. -1.
         11   -1    0    0    0    0 -0.00000000000E+00 -0.00000000000E+00 -0.45593999997E+02  0.45594000000E+02  0.51100000000E-03 0.  1.
    9900012    2    1    2    0    0 -0.14250555509E+02  0.99936366729E+01 -0.26716470099E+02  0.59301939083E+02  0.49999990981E+02 0.  0.
         12    1    1    2    0    0  0.14250555509E+02 -0.99936366729E+01  0.26716470099E+02  0.31886060917E+02  0.00000000000E+00 0. -1.
         11    1    3    3    0    0  0.91981871709E+00 -0.77094805916E+01  0.42700449616E+01  0.88608939560E+01  0.51100000000E-03 0. -1.
        -11    1    3    3    0    0 -0.13337666224E+02 -0.56733274854E+01 -0.19592827118E+02  0.24371271197E+02  0.51100000000E-03 0.  1.
         12    1    3    3    0    0 -0.18327080020E+01  0.23376444750E+02 -0.11393687943E+02  0.26069773929E+02  0.00000000000E+00 0. -1.
</event>
<event>
 7    1  0.5837204E-012  0.5930192E+02  0.7816164E-02  0.1266605E+00
        -11   -1    0    0    0    0  0.00000000000E+00  0.00000000000E+00  0.45593999997E+02  0.45594000000E+02  0.51100000000E-03 0.  1.
         11   -1    0    0    0    0 -0.00000000000E+00 -0.00000000000E+00 -0.45593999997E+02  0.45594000000E+02  0.51100000000E-03 0. -1.
    9900012    2    1    2    0    0 -0.31825457114E+02  0.16862919691E+01 -0.10092300784E+01  0.59301923940E+02  0.49999963365E+02 0.  0.
         12    1    1    2    0    0  0.31825457114E+02 -0.16862919691E+01  0.10092300784E+01  0.31886076060E+02  0.00000000000E+00 0. -1.
         11    1    3    3    0    0  0.71787600530E+01  0.11355003451E+01  0.45630403643E+01  0.85816836670E+01  0.51100000000E-03 0. -1.
        -11    1    3    3    0    0  0.14761899309E+01  0.56714749215E+01 -0.79168471308E+01  0.98499356978E+01  0.51100000000E-03 0.  1.
        -12    1    3    3    0    0 -0.40480407098E+02 -0.51206832975E+01  0.23445766880E+01  0.40870304576E+02  0.00000000000E+00 0.  1.
</event>
<event>
 7    1  0.5837204E-012  0.5930192E+02  0.7816164E-02  0.1266605E+00
        -11   -1    0    0    0    0  0.00000000000E+00  0.00000000000E+00  0.45593999997E+02  0.45594000000E+02  0.51100000000E-03 0.  1.
         11   -1    0    0    0    0 -0.00000000000E+00 -0.00000000000E+00 -0.45593999997E+02  0.45594000000E+02  0.51100000000E-03 0. -1.
    9900012    2    1    2    0    0  0.31403487182E+02 -0.48122033858E+01  0.27176717153E+01  0.59301920778E+02  0.49999957597E+02 0.  0.
         12    1    1    2    0    0 -0.31403487182E+02  0.48122033858E+01 -0.27176717153E+01  0.31886079222E+02  0.00000000000E+00 0. -1.
         11    1    3    3    0    0  0.16220426232E+02 -0.66082315780E+01 -0.38116526417E+01  0.17924833273E+02  0.51100000000E-03 0. -1.
        -11    1    3    3    0    0 -0.73836636318E+00 -0.14658472931E+02 -0.53010119260E+01  0.15605022949E+02  0.51100000000E-03 0.  1.
         12    1    3    3    0    0  0.15921427314E+02  0.16454501123E+02  0.11830336283E+02  0.25772064556E+02  0.00000000000E+00 0. -1.
</event>
<event>
 7    1  0.5837204E-012  0.5930192E+02  0.7816164E-02  0.1266605E+00
        -11   -1    0    0    0    0  0.00000000000E+00  0.00000000000E+00  0.45593999997E+02  0.45594000000E+02  0.51100000000E-03 0.  1.
         11   -1    0    0    0    0 -0.00000000000E+00 -0.00000000000E+00 -0.45593999997E+02  0.45594000000E+02  0.51100000000E-03 0. -1.
    9900012    2    1    2    0    0  0.56260054906E+01 -0.40154922804E+01  0.31127896099E+02  0.59301921038E+02  0.49999958072E+02 0.  0.
         12    1    1    2    0    0 -0.56260054906E+01  0.40154922804E+01 -0.31127896099E+02  0.31886078962E+02  0.00000000000E+00 0. -1.
         11    1    3    3    0    0  0.47924381566E+01 -0.11678479871E+02 -0.77916607278E+01  0.14834565472E+02  0.51100000000E-03 0. -1.
        -11    1    3    3    0    0  0.17737836270E+01 -0.55212643028E+01  0.37755716172E+01  0.69199428577E+01  0.51100000000E-03 0.  1.
        -12    1    3    3    0    0 -0.94021629299E+00  0.13184251894E+02  0.35143985209E+02  0.37547412708E+02  0.00000000000E+00 0.  1.
</event>
<event>
 7    1  0.5837204E-012  0.5930194E+02  0.7816164E-02  0.1266605E+00
        -11   -1    0    0    0    0  0.00000000000E+00  0.00000000000E+00  0.45593999997E+02  0.45594000000E+02  0.51100000000E-03 0. -1.
         11   -1    0    0    0    0 -0.00000000000E+00 -0.00000000000E+00 -0.45593999997E+02  0.45594000000E+02  0.51100000000E-03 0.  1.
    9900012    2    1    2    0    0 -0.23065469276E+02 -0.20240834547E+02 -0.86610336498E+01  0.59301940978E+02  0.49999994437E+02 0.  0.
         12    1    1    2    0    0  0.23065469276E+02  0.20240834547E+02  0.86610336498E+01  0.31886059022E+02  0.00000000000E+00 0. -1.
         11    1    3    3    0    0 -0.13226643569E+02 -0.77669894980E+00 -0.11988237448E+02  0.17867993696E+02  0.51100000000E-03 0. -1.
        -11    1    3    3    0    0 -0.21226321956E+02 -0.19621095191E+02 -0.17631798560E+01  0.28959504894E+02  0.51100000000E-03 0.  1.
         12    1    3    3    0    0  0.11387496249E+02  0.15695959300E+00  0.50903836545E+01  0.12474442387E+02  0.00000000000E+00 0. -1.
</event>
<event>
 7    1  0.5837204E-012  0.5930195E+02  0.7816164E-02  0.1266605E+00
        -11   -1    0    0    0    0  0.00000000000E+00  0.00000000000E+00  0.45593999997E+02  0.45594000000E+02  0.51100000000E-03 0.  1.
         11   -1    0    0    0    0 -0.00000000000E+00 -0.00000000000E+00 -0.45593999997E+02  0.45594000000E+02  0.51100000000E-03 0. -1.
    9900012    2    1    2    0    0 -0.19888775900E+02 -0.23909725319E+02  0.70343367201E+01  0.59301948744E+02  0.50000008601E+02 0.  0.
         12    1    1    2    0    0  0.19888775900E+02  0.23909725319E+02 -0.70343367201E+01  0.31886051256E+02  0.00000000000E+00 0. -1.
         11    1    3    3    0    0 -0.13630304048E+02 -0.19375712184E+02  0.89154952074E+00  0.23706502734E+02  0.51100000000E-03 0. -1.
        -11    1    3    3    0    0 -0.71719967452E+01 -0.40184399352E+01  0.20038947135E+02  0.21659750676E+02  0.51100000000E-03 0.  1.
        -12    1    3    3    0    0  0.91352489402E+00 -0.51557320027E+00 -0.13896159936E+02  0.13935695333E+02  0.00000000000E+00 0.  1.
</event>
<event>
 7    1  0.5837204E-012  0.5930189E+02  0.7816164E-02  0.1266605E+00
        -11   -1    0    0    0    0  0.00000000000E+00  0.00000000000E+00  0.45593999997E+02  0.45594000000E+02  0.51100000000E-03 0.  1.
         11   -1    0    0    0    0 -0.00000000000E+00 -0.00000000000E+00 -0.45593999997E+02  0.45594000000E+02  0.51100000000E-03 0. -1.
    9900012    2    1    2    0    0  0.24050894069E+02 -0.13419712825E+02  0.16068282326E+02  0.59301891823E+02  0.49999904790E+02 0.  0.
         12    1    1    2    0    0 -0.24050894069E+02  0.13419712825E+02 -0.16068282326E+02  0.31886108177E+02  0.00000000000E+00 0. -1.
         11    1    3    3    0    0  0.71218303860E+01 -0.87802860435E+01 -0.13635295304E+02  0.17712570941E+02  0.51100000000E-03 0. -1.
        -11    1    3    3    0    0 -0.54814901964E+01 -0.24851602854E-01  0.99559550996E+01  0.11365227432E+02  0.51100000000E-03 0.  1.
         12    1    3    3    0    0  0.22410553879E+02 -0.46145751787E+01  0.19747622530E+02  0.30224093449E+02  0.00000000000E+00 0. -1.
</event>
<event>
 7    1  0.5837204E-012  0.5930206E+02  0.7816164E-02  0.1266604E+00
        -11   -1    0    0    0    0  0.00000000000E+00  0.00000000000E+00  0.45593999997E+02  0.45594000000E+02  0.51100000000E-03 0. -1.
         11   -1    0    0    0    0 -0.00000000000E+00 -0.00000000000E+00 -0.45593999997E+02  0.45594000000E+02  0.51100000000E-03 0.  1.
    9900012    2    1    2    0    0 -0.93134091831E+01 -0.30488130068E+02 -0.66918990803E+00  0.59302055122E+02  0.50000202609E+02 0.  0.
         12    1    1    2    0    0  0.93134091831E+01  0.30488130068E+02  0.66918990803E+00  0.31885944878E+02  0.00000000000E+00 0. -1.
         11    1    3    3    0    0 -0.39255224644E+01 -0.10644530661E+02 -0.65528028496E+01  0.13101716874E+02  0.51100000000E-03 0. -1.
        -11    1    3    3    0    0 -0.16991263162E+02  0.50500884712E+01  0.60645541681E+01  0.18734599940E+02  0.51100000000E-03 0.  1.
         12    1    3    3    0    0  0.11603376443E+02 -0.24893687878E+02 -0.18094122649E+00  0.27465738307E+02  0.00000000000E+00 0. -1.
</event>
<event>
 7    1  0.5837204E-012  0.5930198E+02  0.7816164E-02  0.1266605E+00
        -11   -1    0    0    0    0  0.00000000000E+00  0.00000000000E+00  0.45593999997E+02  0.45594000000E+02  0.51100000000E-03 0.  1.
         11   -1    0    0    0    0 -0.00000000000E+00 -0.00000000000E+00 -0.45593999997E+02  0.45594000000E+02  0.51100000000E-03 0. -1.
    9900012    2    1    2    0    0 -0.87968618410E+01  0.16278449952E+02  0.25968159181E+02  0.59301984220E+02  0.50000073301E+02 0.  0.
         12    1    1    2    0    0  0.87968618410E+01 -0.16278449952E+02 -0.25968159181E+02  0.31886015780E+02  0.00000000000E+00 0. -1.
         11    1    3    3    0    0 -0.15603176379E+01  0.18806346362E+02  0.40255583920E+01  0.19295553251E+02  0.51100000000E-03 0. -1.
        -11    1    3    3    0    0 -0.14218337167E+02 -0.11344846381E+02  0.36793801814E+01  0.18558138107E+02  0.51100000000E-03 0.  1.
         12    1    3    3    0    0  0.69817929638E+01  0.88169499707E+01  0.18263220607E+02  0.21448292863E+02  0.00000000000E+00 0. -1.
</event>
<event>
 7    1  0.5837204E-012  0.5930192E+02  0.7816164E-02  0.1266605E+00
        -11   -1    0    0    0    0  0.00000000000E+00  0.00000000000E+00  0.45593999997E+02  0.45594000000E+02  0.51100000000E-03 0.  1.
         11   -1    0    0    0    0 -0.00000000000E+00 -0.00000000000E+00 -0.45593999997E+02  0.45594000000E+02  0.51100000000E-03 0. -1.
    9900012    2    1    2    0    0 -0.84062732235E+00 -0.24712689274E+02  0.20132020719E+02  0.59301922730E+02  0.49999961158E+02 0.  0.
         12    1    1    2    0    0  0.84062732235E+00  0.24712689274E+02 -0.20132020719E+02  0.31886077270E+02  0.00000000000E+00 0. -1.
         11    1    3    3    0    0  0.24851632232E+01 -0.13367741246E+01 -0.33515650339E+01  0.43813228304E+01  0.51100000000E-03 0. -1.
        -11    1    3    3    0    0 -0.19858793888E+02 -0.25641709222E+02  0.19209207929E+02  0.37694331352E+02  0.51100000000E-03 0.  1.
         12    1    3    3    0    0  0.16533003342E+02  0.22657940733E+01  0.42743778242E+01  0.17226268548E+02  0.00000000000E+00 0. -1.
</event>
<event>
 7    1  0.5837204E-012  0.5930193E+02  0.7816164E-02  0.1266605E+00
        -11   -1    0    0    0    0  0.00000000000E+00  0.00000000000E+00  0.45593999997E+02  0.45594000000E+02  0.51100000000E-03 0.  1.
         11   -1    0    0    0    0 -0.00000000000E+00 -0.00000000000E+00 -0.45593999997E+02  0.45594000000E+02  0.51100000000E-03 0. -1.
    9900012    2    1    2    0    0 -0.74486453633E+00  0.31803805211E+02 -0.21643777141E+01  0.59301931256E+02  0.49999976707E+02 0.  0.
         12    1    1    2    0    0  0.74486453633E+00 -0.31803805211E+02  0.21643777141E+01  0.31886068744E+02  0.00000000000E+00 0. -1.
         11    1    3    3    0    0  0.65216202213E+01  0.43030144557E+01 -0.82252205697E+01  0.11344677933E+02  0.51100000000E-03 0. -1.
        -11    1    3    3    0    0  0.62040508559E+01  0.13454129947E+02 -0.13730718812E+02  0.20199913342E+02  0.51100000000E-03 0.  1.
        -12    1    3    3    0    0 -0.13470535614E+02  0.14046660808E+02  0.19791561668E+02  0.27757339981E+02  0.00000000000E+00 0.  1.
</event>
<event>
 7    1  0.5837204E-012  0.5930195E+02  0.7816164E-02  0.1266605E+00
        -11   -1    0    0    0    0  0.00000000000E+00  0.00000000000E+00  0.45593999997E+02  0.45594000000E+02  0.51100000000E-03 0.  1.
         11   -1    0    0    0    0 -0.00000000000E+00 -0.00000000000E+00 -0.45593999997E+02  0.45594000000E+02  0.51100000000E-03 0. -1.
    9900012    2    1    2    0    0 -0.69924931024E+01  0.21720788518E+02 -0.22271795222E+02  0.59301945430E+02  0.50000002557E+02 0.  0.
         12    1    1    2    0    0  0.69924931024E+01 -0.21720788518E+02  0.22271795222E+02  0.31886054570E+02  0.00000000000E+00 0. -1.
         11    1    3    3    0    0 -0.76274066321E+01  0.74022409343E+01 -0.12230454505E+02  0.16203534196E+02  0.51100000000E-03 0. -1.
        -11    1    3    3    0    0 -0.98687379084E+01  0.24976293311E+02 -0.78198243269E+01  0.27970642971E+02  0.51100000000E-03 0.  1.
        -12    1    3    3    0    0  0.10503651438E+02 -0.10657745727E+02 -0.22215163898E+01  0.15127768262E+02  0.00000000000E+00 0.  1.
</event>
<event>
 7    1  0.5837204E-012  0.5930198E+02  0.7816164E-02  0.1266605E+00
        -11   -1    0    0    0    0  0.00000000000E+00  0.00000000000E+00  0.45593999997E+02  0.45594000000E+02  0.51100000000E-03 0. -1.
         11   -1    0    0    0    0 -0.00000000000E+00 -0.00000000000E+00 -0.45593999997E+02  0.45594000000E+02  0.51100000000E-03 0.  1.
    9900012    2    1    2    0    0 -0.94809706065E+01 -0.29117724640E+02  0.88874805253E+01  0.59301984226E+02  0.50000073313E+02 0.  0.
         12    1    1    2    0    0  0.94809706065E+01  0.29117724640E+02 -0.88874805253E+01  0.31886015774E+02  0.00000000000E+00 0. -1.
         11    1    3    3    0    0  0.76554164428E+01 -0.62146454904E+01 -0.10182334408E+02  0.14174172065E+02  0.51100000000E-03 0. -1.
        -11    1    3    3    0    0  0.32086285693E+01 -0.25817581084E+01 -0.57974080587E+01  0.71113087885E+01  0.51100000000E-03 0.  1.
         12    1    3    3    0    0 -0.20345015619E+02 -0.20321321041E+02  0.24867222992E+02  0.38016503373E+02  0.00000000000E+00 0. -1.
</event>
<event>
 7    1  0.6336046E-012  0.5930191E+02  0.7816164E-02  0.1266605E+00
        -11   -1    0    0    0    0  0.00000000000E+00  0.00000000000E+00  0.45593999997E+02  0.45594000000E+02  0.51100000000E-03 0. -1.
         11   -1    0    0    0    0 -0.00000000000E+00 -0.00000000000E+00 -0.45593999997E+02  0.45594000000E+02  0.51100000000E-03 0.  1.
    9900012    2    1    2    0    0  0.21909979724E+02  0.18040493738E+02 -0.14533272898E+02  0.59301911388E+02  0.49999940473E+02 0.  0.
         12    1    1    2    0    0 -0.21909979724E+02 -0.18040493738E+02  0.14533272898E+02  0.31886088612E+02  0.00000000000E+00 0. -1.
         11    1    3    3    0    0 -0.65489620361E-01  0.75993248803E-01  0.13357119748E+02  0.13357496475E+02  0.51100000000E-03 0. -1.
        -11    1    3    3    0    0 -0.45046557961E+01  0.49897136161E+01 -0.30230193876E+01  0.73707402811E+01  0.51100000000E-03 0.  1.
        -12    1    3    3    0    0  0.26480125140E+02  0.12974786873E+02 -0.24867373258E+02  0.38573674632E+02  0.00000000000E+00 0.  1.
</event>
<event>
 7    1  0.5837204E-012  0.5930192E+02  0.7816164E-02  0.1266605E+00
        -11   -1    0    0    0    0  0.00000000000E+00  0.00000000000E+00  0.45593999997E+02  0.45594000000E+02  0.51100000000E-03 0.  1.
         11   -1    0    0    0    0 -0.00000000000E+00 -0.00000000000E+00 -0.45593999997E+02  0.45594000000E+02  0.51100000000E-03 0. -1.
    9900012    2    1    2    0    0  0.22239421635E+02 -0.11235143676E+02  0.19897273012E+02  0.59301924647E+02  0.49999964655E+02 0.  0.
         12    1    1    2    0    0 -0.22239421635E+02  0.11235143676E+02 -0.19897273012E+02  0.31886075353E+02  0.00000000000E+00 0. -1.
         11    1    3    3    0    0  0.10368911830E+02  0.99237495677E+01 -0.34177111901E+01  0.14753843163E+02  0.51100000000E-03 0. -1.
        -11    1    3    3    0    0  0.63168811491E+01  0.54359655275E+01  0.13092807057E+02  0.15520125823E+02  0.51100000000E-03 0.  1.
        -12    1    3    3    0    0  0.55536286558E+01 -0.26594858772E+02  0.10222177144E+02  0.29027955662E+02  0.00000000000E+00 0.  1.
</event>
<event>
 7    1  0.5837204E-012  0.5930194E+02  0.7816164E-02  0.1266605E+00
        -11   -1    0    0    0    0  0.00000000000E+00  0.00000000000E+00  0.45593999997E+02  0.45594000000E+02  0.51100000000E-03 0.  1.
         11   -1    0    0    0    0 -0.00000000000E+00 -0.00000000000E+00 -0.45593999997E+02  0.45594000000E+02  0.51100000000E-03 0. -1.
    9900012    2    1    2    0    0 -0.17853370396E+02 -0.11936616770E+02  0.23568949516E+02  0.59301936654E+02  0.49999986552E+02 0.  0.
         12    1    1    2    0    0  0.17853370396E+02  0.11936616770E+02 -0.23568949516E+02  0.31886063346E+02  0.00000000000E+00 0. -1.
         11    1    3    3    0    0 -0.17535889175E+02  0.88488854547E+01  0.11019245874E+01  0.19672936258E+02  0.51100000000E-03 0. -1.
        -11    1    3    3    0    0 -0.37717884048E+01 -0.69889329353E+01 -0.45096272451E+01  0.91328149820E+01  0.51100000000E-03 0.  1.
        -12    1    3    3    0    0  0.34543071835E+01 -0.13796569290E+02  0.26976652174E+02  0.30496185414E+02  0.00000000000E+00 0.  1.
</event>
<event>
 7    1  0.5837204E-012  0.5930193E+02  0.7816164E-02  0.1266605E+00
        -11   -1    0    0    0    0  0.00000000000E+00  0.00000000000E+00  0.45593999997E+02  0.45594000000E+02  0.51100000000E-03 0.  1.
         11   -1    0    0    0    0 -0.00000000000E+00 -0.00000000000E+00 -0.45593999997E+02  0.45594000000E+02  0.51100000000E-03 0. -1.
    9900012    2    1    2    0    0  0.31623559913E+01 -0.22651734167E+02 -0.22217554398E+02  0.59301932829E+02  0.49999979577E+02 0.  0.
         12    1    1    2    0    0 -0.31623559913E+01  0.22651734167E+02  0.22217554398E+02  0.31886067171E+02  0.00000000000E+00 0. -1.
         11    1    3    3    0    0 -0.16837991201E+02 -0.28667573125E+01  0.50564910873E+00  0.17087771254E+02  0.51100000000E-03 0. -1.
        -11    1    3    3    0    0  0.11834528942E+01 -0.80415521194E+01  0.26156254341E+01  0.85386543387E+01  0.51100000000E-03 0.  1.
        -12    1    3    3    0    0  0.18816894298E+02 -0.11743424735E+02 -0.25338828941E+02  0.33675507236E+02  0.00000000000E+00 0.  1.
</event>
<event>
 7    1  0.5837204E-012  0.5930198E+02  0.7816164E-02  0.1266605E+00
        -11   -1    0    0    0    0  0.00000000000E+00  0.00000000000E+00  0.45593999997E+02  0.45594000000E+02  0.51100000000E-03 0. -1.
         11   -1    0    0    0    0 -0.00000000000E+00 -0.00000000000E+00 -0.45593999997E+02  0.45594000000E+02  0.51100000000E-03 0.  1.
    9900012    2    1    2    0    0 -0.77289771861E+01  0.22387215514E+02 -0.21349332057E+02  0.59301976634E+02  0.50000059466E+02 0.  0.
         12    1    1    2    0    0  0.77289771861E+01 -0.22387215514E+02  0.21349332057E+02  0.31886023366E+02  0.00000000000E+00 0. -1.
         11    1    3    3    0    0 -0.22570349482E+00 -0.77295455986E+01  0.21015335439E+01  0.80133177102E+01  0.51100000000E-03 0. -1.
        -11    1    3    3    0    0  0.19923007705E+01  0.17139994427E+02  0.55519232892E+01  0.18126569554E+02  0.51100000000E-03 0.  1.
        -12    1    3    3    0    0 -0.94955744618E+01  0.12976766686E+02 -0.29002788890E+02  0.33162089370E+02  0.00000000000E+00 0.  1.
</event>
<event>
 7    1  0.5837204E-012  0.5930192E+02  0.7816164E-02  0.1266605E+00
        -11   -1    0    0    0    0  0.00000000000E+00  0.00000000000E+00  0.45593999997E+02  0.45594000000E+02  0.51100000000E-03 0.  1.
         11   -1    0    0    0    0 -0.00000000000E+00 -0.00000000000E+00 -0.45593999997E+02  0.45594000000E+02  0.51100000000E-03 0. -1.
    9900012    2    1    2    0    0  0.18333599364E+02  0.13608191621E+01  0.26052815514E+02  0.59301923248E+02  0.49999962103E+02 0.  0.
         12    1    1    2    0    0 -0.18333599364E+02 -0.13608191621E+01 -0.26052815514E+02  0.31886076752E+02  0.00000000000E+00 0. -1.
         11    1    3    3    0    0 -0.22210195447E+01  0.10700183307E+02  0.92856374628E+01  0.14340499084E+02  0.51100000000E-03 0. -1.
        -11    1    3    3    0    0  0.17886549846E+02 -0.11863981508E+02  0.26766198762E+02  0.34309067592E+02  0.51100000000E-03 0.  1.
         12    1    3    3    0    0  0.26680690631E+01  0.25246173636E+01 -0.99990207110E+01  0.10652356572E+02  0.00000000000E+00 0. -1.
</event>
<event>
 7    1  0.5837204E-012  0.5930195E+02  0.7816164E-02  0.1266605E+00
        -11   -1    0    0    0    0  0.00000000000E+00  0.00000000000E+00  0.45593999997E+02  0.45594000000E+02  0.51100000000E-03 0. -1.
         11   -1    0    0    0    0 -0.00000000000E+00 -0.00000000000E+00 -0.45593999997E+02  0.45594000000E+02  0.51100000000E-03 0.  1.
    9900012    2    1    2    0    0 -0.25173840991E+02 -0.19570282726E+02 -0.47078950966E-01  0.59301945796E+02  0.50000003225E+02 0.  0.
         12    1    1    2    0    0  0.25173840991E+02  0.19570282726E+02  0.47078950966E-01  0.31886054204E+02  0.00000000000E+00 0. -1.
         11    1    3    3    0    0 -0.19350374201E+02 -0.38573623377E+01 -0.12521540346E+02  0.23368893829E+02  0.51100000000E-03 0. -1.
        -11    1    3    3    0    0  0.11581141149E+02 -0.10078457461E+02  0.47010073695E+01  0.16056076908E+02  0.51100000000E-03 0.  1.
         12    1    3    3    0    0 -0.17404607940E+02 -0.56344629273E+01  0.77734540256E+01  0.19876975059E+02  0.00000000000E+00 0. -1.
</event>
<event>
 7    1  0.5837204E-012  0.5930195E+02  0.7816164E-02  0.1266605E+00
        -11   -1    0    0    0    0  0.00000000000E+00  0.00000000000E+00  0.45593999997E+02  0.45594000000E+02  0.51100000000E-03 0. -1.
         11   -1    0    0    0    0 -0.00000000000E+00 -0.00000000000E+00 -0.45593999997E+02  0.45594000000E+02  0.51100000000E-03 0.  1.
    9900012    2    1    2    0    0 -0.30581448309E+02  0.78761158820E+01 -0.44115720249E+01  0.59301950546E+02  0.50000011888E+02 0.  0.
         12    1    1    2    0    0  0.30581448309E+02 -0.78761158820E+01  0.44115720249E+01  0.31886049454E+02  0.00000000000E+00 0. -1.
         11    1    3    3    0    0 -0.15603267393E+02  0.25894680466E+01  0.16877309689E+01  0.15906468313E+02  0.51100000000E-03 0. -1.
        -11    1    3    3    0    0 -0.20515287461E+02 -0.10775249467E+02  0.41676361672E+01  0.23544685433E+02  0.51100000000E-03 0.  1.
         12    1    3    3    0    0  0.55371065451E+01  0.16061897302E+02 -0.10266939161E+02  0.19850796799E+02  0.00000000000E+00 0. -1.
</event>
<event>
 7    1  0.5837204E-012  0.5930189E+02  0.7816164E-02  0.1266605E+00
        -11   -1    0    0    0    0  0.00000000000E+00  0.00000000000E+00  0.45593999997E+02  0.45594000000E+02  0.51100000000E-03 0.  1.
         11   -1    0    0    0    0 -0.00000000000E+00 -0.00000000000E+00 -0.45593999997E+02  0.45594000000E+02  0.51100000000E-03 0. -1.
    9900012    2    1    2    0    0 -0.31692655776E+02 -0.33979258446E+00 -0.34905832849E+01  0.59301889218E+02  0.49999900040E+02 0.  0.
         12    1    1    2    0    0  0.31692655776E+02  0.33979258446E+00  0.34905832849E+01  0.31886110782E+02  0.00000000000E+00 0. -1.
         11    1    3    3    0    0  0.20195099277E+01 -0.21972806260E+01 -0.93950412481E+01  0.98576499639E+01  0.51100000000E-03 0. -1.
        -11    1    3    3    0    0 -0.14001460765E+02 -0.16437515573E+02 -0.12101784878E+01  0.21626311613E+02  0.51100000000E-03 0.  1.
        -12    1    3    3    0    0 -0.19710704939E+02  0.18295003614E+02  0.71146364510E+01  0.27817927641E+02  0.00000000000E+00 0.  1.
</event>
<event>
 7    1  0.5837204E-012  0.5930196E+02  0.7816164E-02  0.1266605E+00
        -11   -1    0    0    0    0  0.00000000000E+00  0.00000000000E+00  0.45593999997E+02  0.45594000000E+02  0.51100000000E-03 0.  1.
         11   -1    0    0    0    0 -0.00000000000E+00 -0.00000000000E+00 -0.45593999997E+02  0.45594000000E+02  0.51100000000E-03 0. -1.
    9900012    2    1    2    0    0 -0.25380063126E+02 -0.80971409539E+01  0.17521656620E+02  0.59301956869E+02  0.50000023419E+02 0.  0.
         12    1    1    2    0    0  0.25380063126E+02  0.80971409539E+01 -0.17521656620E+02  0.31886043131E+02  0.00000000000E+00 0. -1.
         11    1    3    3    0    0  0.10594302980E+01 -0.15756713415E+02 -0.19684526538E+01  0.15914497048E+02  0.51100000000E-03 0. -1.
        -11    1    3    3    0    0 -0.42381389125E+00 -0.27524550886E+01  0.14697099471E+02  0.14958621606E+02  0.51100000000E-03 0.  1.
         12    1    3    3    0    0 -0.26015679532E+02  0.10412027550E+02  0.47930098021E+01  0.28428838214E+02  0.00000000000E+00 0. -1.
</event>
<event>
 7    1  0.5837204E-012  0.5930188E+02  0.7816164E-02  0.1266605E+00
        -11   -1    0    0    0    0  0.00000000000E+00  0.00000000000E+00  0.45593999997E+02  0.45594000000E+02  0.51100000000E-03 0.  1.
         11   -1    0    0    0    0 -0.00000000000E+00 -0.00000000000E+00 -0.45593999997E+02  0.45594000000E+02  0.51100000000E-03 0. -1.
    9900012    2    1    2    0    0  0.10426938859E+02 -0.61813228988E+01  0.29492284428E+02  0.59301880018E+02  0.49999883261E+02 0.  0.
         12    1    1    2    0    0 -0.10426938859E+02  0.61813228988E+01 -0.29492284428E+02  0.31886119982E+02  0.00000000000E+00 0. -1.
         11    1    3    3    0    0  0.43708758816E+01 -0.15692935684E+02  0.12901017492E+02  0.20780015373E+02  0.51100000000E-03 0. -1.
        -11    1    3    3    0    0 -0.68206314443E+01 -0.94515096002E+01  0.75167216146E+01  0.13869143849E+02  0.51100000000E-03 0.  1.
         12    1    3    3    0    0  0.12876694421E+02  0.18963122385E+02  0.90745453216E+01  0.24652720795E+02  0.00000000000E+00 0. -1.
</event>
<event>
 7    1  0.5837204E-012  0.5930196E+02  0.7816164E-02  0.1266605E+00
        -11   -1    0    0    0    0  0.00000000000E+00  0.00000000000E+00  0.45593999997E+02  0.45594000000E+02  0.51100000000E-03 0. -1.
         11   -1    0    0    0    0 -0.00000000000E+00 -0.00000000000E+00 -0.45593999997E+02  0.45594000000E+02  0.51100000000E-03 0.  1.
    9900012    2    1    2    0    0 -0.27698778112E+01  0.13925100865E+02 -0.28550633370E+02  0.59301963510E+02  0.50000035532E+02 0.  0.
         12    1    1    2    0    0  0.27698778112E+01 -0.13925100865E+02  0.28550633370E+02  0.31886036490E+02  0.00000000000E+00 0. -1.
         11    1    3    3    0    0 -0.23154347050E+02  0.56744595794E+01 -0.10355146219E+02  0.25991389580E+02  0.51100000000E-03 0. -1.
        -11    1    3    3    0    0  0.63132947613E+01  0.11727870968E+02 -0.73928341398E+01  0.15233339919E+02  0.51100000000E-03 0.  1.
        -12    1    3    3    0    0  0.14071174478E+02 -0.34772296824E+01 -0.10802653011E+02  0.18077234012E+02  0.00000000000E+00 0.  1.
</event>
<event>
 7    1  0.5837204E-012  0.5930195E+02  0.7816164E-02  0.1266605E+00
        -11   -1    0    0    0    0  0.00000000000E+00  0.00000000000E+00  0.45593999997E+02  0.45594000000E+02  0.51100000000E-03 0.  1.
         11   -1    0    0    0    0 -0.00000000000E+00 -0.00000000000E+00 -0.45593999997E+02  0.45594000000E+02  0.51100000000E-03 0. -1.
    9900012    2    1    2    0    0 -0.18787468102E+02  0.80649077551E+01  0.24468524125E+02  0.59301947130E+02  0.50000005658E+02 0.  0.
         12    1    1    2    0    0  0.18787468102E+02 -0.80649077551E+01 -0.24468524125E+02  0.31886052870E+02  0.00000000000E+00 0. -1.
         11    1    3    3    0    0 -0.37425794822E+01  0.20411999632E+02  0.21025765887E+02  0.29542164131E+02  0.51100000000E-03 0. -1.
        -11    1    3    3    0    0 -0.81901804792E+01  0.17167552088E+01  0.97871901252E+01  0.12876932691E+02  0.51100000000E-03 0.  1.
         12    1    3    3    0    0 -0.68547081403E+01 -0.14063847086E+02 -0.63444318871E+01  0.16882850308E+02  0.00000000000E+00 0. -1.
</event>
<event>
 7    1  0.5837204E-012  0.5930195E+02  0.7816164E-02  0.1266605E+00
        -11   -1    0    0    0    0  0.00000000000E+00  0.00000000000E+00  0.45593999997E+02  0.45594000000E+02  0.51100000000E-03 0.  1.
         11   -1    0    0    0    0 -0.00000000000E+00 -0.00000000000E+00 -0.45593999997E+02  0.45594000000E+02  0.51100000000E-03 0. -1.
    9900012    2    1    2    0    0  0.73074684124E-01 -0.13595674632E+02  0.28842199578E+02  0.59301949992E+02  0.50000010878E+02 0.  0.
         12    1    1    2    0    0 -0.73074684124E-01  0.13595674632E+02 -0.28842199578E+02  0.31886050008E+02  0.00000000000E+00 0. -1.
         11    1    3    3    0    0  0.18297427534E+01 -0.12031996136E+02  0.19863065011E+02  0.23295026110E+02  0.51100000000E-03 0. -1.
        -11    1    3    3    0    0 -0.16663712929E+02 -0.70035303312E+01  0.88775475293E+01  0.20138014204E+02  0.51100000000E-03 0.  1.
         12    1    3    3    0    0  0.14907044860E+02  0.54398518356E+01  0.10158703774E+00  0.15868909678E+02  0.00000000000E+00 0. -1.
</event>
<event>
 7    1  0.5837204E-012  0.5930194E+02  0.7816164E-02  0.1266605E+00
        -11   -1    0    0    0    0  0.00000000000E+00  0.00000000000E+00  0.45593999997E+02  0.45594000000E+02  0.51100000000E-03 0.  1.
         11   -1    0    0    0    0 -0.00000000000E+00 -0.00000000000E+00 -0.45593999997E+02  0.45594000000E+02  0.51100000000E-03 0. -1.
    9900012    2    1    2    0    0  0.12931086250E+02 -0.11593231702E+02  0.26741446339E+02  0.59301937759E+02  0.49999988567E+02 0.  0.
         12    1    1    2    0    0 -0.12931086250E+02  0.11593231702E+02 -0.26741446339E+02  0.31886062241E+02  0.00000000000E+00 0. -1.
         11    1    3    3    0    0  0.23823752273E+02 -0.12482527688E+02  0.34534499979E+02  0.43772324120E+02  0.51100000000E-03 0.  1.
        -11    1    3    3    0    0 -0.23142881187E+01 -0.18646979775E+01 -0.54701084325E+01  0.62253605974E+01  0.51100000000E-03 0. -1.
        -12    1    3    3    0    0 -0.85783779046E+01  0.27539939627E+01 -0.23229452069E+01  0.93042530412E+01  0.00000000000E+00 0.  1.
</event>
<event>
 7    1  0.5837204E-012  0.5930206E+02  0.7816164E-02  0.1266604E+00
        -11   -1    0    0    0    0  0.00000000000E+00  0.00000000000E+00  0.45593999997E+02  0.45594000000E+02  0.51100000000E-03 0. -1.
         11   -1    0    0    0    0 -0.00000000000E+00 -0.00000000000E+00 -0.45593999997E+02  0.45594000000E+02  0.51100000000E-03 0.  1.
    9900012    2    1    2    0    0 -0.30250339953E+02 -0.97223983492E+01  0.26654887582E+01  0.59302063802E+02  0.50000218438E+02 0.  0.
         12    1    1    2    0    0  0.30250339953E+02  0.97223983492E+01 -0.26654887582E+01  0.31885936198E+02  0.00000000000E+00 0. -1.
         11    1    3    3    0    0 -0.14465518599E+01  0.96506347686E+01 -0.25719193923E+01  0.10091681393E+02  0.51100000000E-03 0. -1.
        -11    1    3    3    0    0 -0.24094857096E+02  0.40572534484E+01  0.64818918872E+01  0.25279208190E+02  0.51100000000E-03 0.  1.
        -12    1    3    3    0    0 -0.47089309976E+01 -0.23430286566E+02 -0.12444837368E+01  0.23931174219E+02  0.00000000000E+00 0.  1.
</event>
<event>
 7    1  0.5837204E-012  0.5930192E+02  0.7816164E-02  0.1266605E+00
        -11   -1    0    0    0    0  0.00000000000E+00  0.00000000000E+00  0.45593999997E+02  0.45594000000E+02  0.51100000000E-03 0.  1.
         11   -1    0    0    0    0 -0.00000000000E+00 -0.00000000000E+00 -0.45593999997E+02  0.45594000000E+02  0.51100000000E-03 0. -1.
    9900012    2    1    2    0    0 -0.19088489212E+00 -0.10683154313E+02  0.30042567581E+02  0.59301920122E+02  0.49999956402E+02 0.  0.
         12    1    1    2    0    0  0.19088489212E+00  0.10683154313E+02 -0.30042567581E+02  0.31886079878E+02  0.00000000000E+00 0. -1.
         11    1    3    3    0    0 -0.21868778158E+01  0.87643971026E+01 -0.40803692742E+00  0.90423219114E+01  0.51100000000E-03 0.  1.
        -11    1    3    3    0    0  0.24230448879E+01 -0.25339558674E+02  0.34661858008E+02  0.43004753006E+02  0.51100000000E-03 0. -1.
         12    1    3    3    0    0 -0.42705196417E+00  0.58920072583E+01 -0.42112534994E+01  0.72548452049E+01  0.00000000000E+00 0. -1.
</event>
<event>
 7    1  0.5837204E-012  0.5930190E+02  0.7816164E-02  0.1266605E+00
        -11   -1    0    0    0    0  0.00000000000E+00  0.00000000000E+00  0.45593999997E+02  0.45594000000E+02  0.51100000000E-03 0.  1.
         11   -1    0    0    0    0 -0.00000000000E+00 -0.00000000000E+00 -0.45593999997E+02  0.45594000000E+02  0.51100000000E-03 0. -1.
    9900012    2    1    2    0    0  0.19754122172E+02  0.93278394158E+01  0.23226905455E+02  0.59301904787E+02  0.49999928434E+02 0.  0.
         12    1    1    2    0    0 -0.19754122172E+02 -0.93278394158E+01 -0.23226905455E+02  0.31886095213E+02  0.00000000000E+00 0. -1.
         11    1    3    3    0    0  0.27281415633E+00 -0.49904403980E+01  0.15291411080E+02  0.16087453994E+02  0.51100000000E-03 0. -1.
        -11    1    3    3    0    0  0.91117977103E+01 -0.10566102905E+02 -0.27406418986E+01  0.14218948849E+02  0.51100000000E-03 0.  1.
         12    1    3    3    0    0  0.10369510305E+02  0.24884382718E+02  0.10676136274E+02  0.28995501944E+02  0.00000000000E+00 0. -1.
</event>
<event>
 7    1  0.5837204E-012  0.5930199E+02  0.7816164E-02  0.1266605E+00
        -11   -1    0    0    0    0  0.00000000000E+00  0.00000000000E+00  0.45593999997E+02  0.45594000000E+02  0.51100000000E-03 0. -1.
         11   -1    0    0    0    0 -0.00000000000E+00 -0.00000000000E+00 -0.45593999997E+02  0.45594000000E+02  0.51100000000E-03 0.  1.
    9900012    2    1    2    0    0  0.15533122997E+02 -0.26922386877E+02  0.71151277064E+01  0.59301986334E+02  0.50000077157E+02 0.  0.
         12    1    1    2    0    0 -0.15533122997E+02  0.26922386877E+02 -0.71151277064E+01  0.31886013666E+02  0.00000000000E+00 0. -1.
         11    1    3    3    0    0 -0.15444486649E+02 -0.54488643261E+01 -0.20722477594E+01  0.16508073823E+02  0.51100000000E-03 0. -1.
        -11    1    3    3    0    0  0.71998878222E+01 -0.10397407974E+02  0.10633478983E+02  0.16523176232E+02  0.51100000000E-03 0.  1.
        -12    1    3    3    0    0  0.23777721824E+02 -0.11076114577E+02 -0.14461035174E+01  0.26270736279E+02  0.00000000000E+00 0.  1.
</event>
<event>
 7    1  0.5837204E-012  0.5930193E+02  0.7816164E-02  0.1266605E+00
        -11   -1    0    0    0    0  0.00000000000E+00  0.00000000000E+00  0.45593999997E+02  0.45594000000E+02  0.51100000000E-03 0. -1.
         11   -1    0    0    0    0 -0.00000000000E+00 -0.00000000000E+00 -0.45593999997E+02  0.45594000000E+02  0.51100000000E-03 0.  1.
    9900012    2    1    2    0    0 -0.30424004386E+02  0.36371238757E+01 -0.88245383103E+01  0.59301934244E+02  0.49999982158E+02 0.  0.
         12    1    1    2    0    0  0.30424004386E+02 -0.36371238757E+01  0.88245383103E+01  0.31886065756E+02  0.00000000000E+00 0. -1.
         11    1    3    3    0    0  0.35262269010E+01 -0.35527314497E+01 -0.25633735472E+00  0.50121737811E+01  0.51100000000E-03 0. -1.
        -11    1    3    3    0    0  0.80559415219E+01  0.56347269449E-01 -0.84598378546E+01  0.11682047150E+02  0.51100000000E-03 0.  1.
        -12    1    3    3    0    0 -0.42006172809E+02  0.71335080560E+01 -0.10836310096E+00  0.42607713314E+02  0.00000000000E+00 0.  1.
</event>
<event>
 7    1  0.5837204E-012  0.5930194E+02  0.7816164E-02  0.1266605E+00
        -11   -1    0    0    0    0  0.00000000000E+00  0.00000000000E+00  0.45593999997E+02  0.45594000000E+02  0.51100000000E-03 0. -1.
         11   -1    0    0    0    0 -0.00000000000E+00 -0.00000000000E+00 -0.45593999997E+02  0.45594000000E+02  0.51100000000E-03 0.  1.
    9900012    2    1    2    0    0  0.31358579861E+02  0.57446730906E+01  0.59930681340E+00  0.59301937709E+02  0.49999988476E+02 0.  0.
         12    1    1    2    0    0 -0.31358579861E+02 -0.57446730906E+01 -0.59930681340E+00  0.31886062291E+02  0.00000000000E+00 0. -1.
         11    1    3    3    0    0 -0.44429697632E+01  0.11886315810E+02 -0.14280766730E+00  0.12690345863E+02  0.51100000000E-03 0. -1.
        -11    1    3    3    0    0  0.97029029054E+01 -0.15569408438E+02 -0.30740444225E+01  0.18601143870E+02  0.51100000000E-03 0.  1.
         12    1    3    3    0    0  0.26098646718E+02  0.94277657192E+01  0.38161589033E+01  0.28010447975E+02  0.00000000000E+00 0. -1.
</event>
<event>
 7    1  0.5837204E-012  0.5930197E+02  0.7816164E-02  0.1266605E+00
        -11   -1    0    0    0    0  0.00000000000E+00  0.00000000000E+00  0.45593999997E+02  0.45594000000E+02  0.51100000000E-03 0.  1.
         11   -1    0    0    0    0 -0.00000000000E+00 -0.00000000000E+00 -0.45593999997E+02  0.45594000000E+02  0.51100000000E-03 0. -1.
    9900012    2    1    2    0    0 -0.13574027854E+02  0.21888295360E+02  0.18798055464E+02  0.59301974924E+02  0.50000056347E+02 0.  0.
         12    1    1    2    0    0  0.13574027854E+02 -0.21888295360E+02 -0.18798055464E+02  0.31886025076E+02  0.00000000000E+00 0. -1.
         11    1    3    3    0    0 -0.11891562536E+02  0.25804828185E+02  0.85324236707E+01  0.29666490712E+02  0.51100000000E-03 0.  1.
        -11    1    3    3    0    0  0.15239100411E+01  0.31563270475E+00  0.19188950683E+02  0.19251954560E+02  0.51100000000E-03 0. -1.
         12    1    3    3    0    0 -0.32063753596E+01 -0.42321655300E+01 -0.89233188898E+01  0.10383529652E+02  0.00000000000E+00 0. -1.
</event>
<event>
 7    1  0.5837204E-012  0.5930194E+02  0.7816164E-02  0.1266605E+00
        -11   -1    0    0    0    0  0.00000000000E+00  0.00000000000E+00  0.45593999997E+02  0.45594000000E+02  0.51100000000E-03 0.  1.
         11   -1    0    0    0    0 -0.00000000000E+00 -0.00000000000E+00 -0.45593999997E+02  0.45594000000E+02  0.51100000000E-03 0. -1.
    9900012    2    1    2    0    0 -0.15666113821E+02  0.10771200576E+02  0.25598337365E+02  0.59301940978E+02  0.49999994437E+02 0.  0.
         12    1    1    2    0    0  0.15666113821E+02 -0.10771200576E+02 -0.25598337365E+02  0.31886059022E+02  0.00000000000E+00 0. -1.
         11    1    3    3    0    0 -0.24950384271E+02  0.23592748534E+02  0.12649451030E+02  0.36594372112E+02  0.51100000000E-03 0. -1.
        -11    1    3    3    0    0  0.25080932240E+01  0.14037486652E+01  0.16033857860E+01  0.32911834004E+01  0.51100000000E-03 0.  1.
        -12    1    3    3    0    0  0.67761772256E+01 -0.14225296623E+02  0.11345500550E+02  0.19416385465E+02  0.00000000000E+00 0.  1.
</event>
<event>
 7    1  0.5837204E-012  0.5930191E+02  0.7816164E-02  0.1266605E+00
        -11   -1    0    0    0    0  0.00000000000E+00  0.00000000000E+00  0.45593999997E+02  0.45594000000E+02  0.51100000000E-03 0. -1.
         11   -1    0    0    0    0 -0.00000000000E+00 -0.00000000000E+00 -0.45593999997E+02  0.45594000000E+02  0.51100000000E-03 0.  1.
    9900012    2    1    2    0    0  0.19674799573E+02  0.14263313511E+02 -0.20644193120E+02  0.59301912750E+02  0.49999942958E+02 0.  0.
         12    1    1    2    0    0 -0.19674799573E+02 -0.14263313511E+02  0.20644193120E+02  0.31886087250E+02  0.00000000000E+00 0. -1.
         11    1    3    3    0    0 -0.10541979280E+02  0.16778363499E+01 -0.88987793550E+01  0.13897364363E+02  0.51100000000E-03 0. -1.
        -11    1    3    3    0    0  0.14862262512E+02  0.78433995441E+01 -0.20971788560E+02  0.26874182389E+02  0.51100000000E-03 0.  1.
         12    1    3    3    0    0  0.15354516341E+02  0.47420776166E+01  0.92263747958E+01  0.18530365999E+02  0.00000000000E+00 0. -1.
</event>
<event>
 7    1  0.5837204E-012  0.5930195E+02  0.7816164E-02  0.1266605E+00
        -11   -1    0    0    0    0  0.00000000000E+00  0.00000000000E+00  0.45593999997E+02  0.45594000000E+02  0.51100000000E-03 0.  1.
         11   -1    0    0    0    0 -0.00000000000E+00 -0.00000000000E+00 -0.45593999997E+02  0.45594000000E+02  0.51100000000E-03 0. -1.
    9900012    2    1    2    0    0  0.24294587687E+02 -0.19680395158E+02  0.62589975900E+01  0.59301952969E+02  0.50000016307E+02 0.  0.
         12    1    1    2    0    0 -0.24294587687E+02  0.19680395158E+02 -0.62589975900E+01  0.31886047031E+02  0.00000000000E+00 0. -1.
         11    1    3    3    0    0  0.22068110554E+01 -0.13288175419E+02 -0.59768291131E+01  0.14736624699E+02  0.51100000000E-03 0. -1.
        -11    1    3    3    0    0  0.18757236943E+02 -0.20423326585E+02  0.11804545209E+02  0.30137907930E+02  0.51100000000E-03 0.  1.
         12    1    3    3    0    0  0.33305396882E+01  0.14031106846E+02  0.43128149424E+00  0.14427420340E+02  0.00000000000E+00 0. -1.
</event>
<event>
 7    1  0.5837204E-012  0.5930191E+02  0.7816164E-02  0.1266605E+00
        -11   -1    0    0    0    0  0.00000000000E+00  0.00000000000E+00  0.45593999997E+02  0.45594000000E+02  0.51100000000E-03 0. -1.
         11   -1    0    0    0    0 -0.00000000000E+00 -0.00000000000E+00 -0.45593999997E+02  0.45594000000E+02  0.51100000000E-03 0.  1.
    9900012    2    1    2    0    0 -0.28991244943E+02 -0.33472580402E+01 -0.12846261732E+02  0.59301908045E+02  0.49999934375E+02 0.  0.
         12    1    1    2    0    0  0.28991244943E+02  0.33472580402E+01  0.12846261732E+02  0.31886091955E+02  0.00000000000E+00 0. -1.
         11    1    3    3    0    0 -0.22478490635E+02 -0.19942435719E+02 -0.12321070805E+02  0.32477562557E+02  0.51100000000E-03 0. -1.
        -11    1    3    3    0    0  0.17827665237E+01  0.50764102778E+01  0.84590189276E+01  0.10025128391E+02  0.51100000000E-03 0.  1.
        -12    1    3    3    0    0 -0.82955208316E+01  0.11518767401E+02 -0.89842098546E+01  0.16799217096E+02  0.00000000000E+00 0.  1.
</event>
<event>
 7    1  0.5837204E-012  0.5930194E+02  0.7816164E-02  0.1266605E+00
        -11   -1    0    0    0    0  0.00000000000E+00  0.00000000000E+00  0.45593999997E+02  0.45594000000E+02  0.51100000000E-03 0.  1.
         11   -1    0    0    0    0 -0.00000000000E+00 -0.00000000000E+00 -0.45593999997E+02  0.45594000000E+02  0.51100000000E-03 0. -1.
    9900012    2    1    2    0    0 -0.19741177404E+02  0.26196029156E+01  0.24902693928E+02  0.59301943962E+02  0.49999999881E+02 0.  0.
         12    1    1    2    0    0  0.19741177404E+02 -0.26196029156E+01 -0.24902693928E+02  0.31886056038E+02  0.00000000000E+00 0. -1.
         11    1    3    3    0    0  0.34889737920E+01 -0.13405979305E+02  0.18384223287E+02  0.23018967948E+02  0.51100000000E-03 0. -1.
        -11    1    3    3    0    0 -0.16625530801E+02  0.44897892822E+01  0.12920265436E+02  0.21529044136E+02  0.51100000000E-03 0.  1.
         12    1    3    3    0    0 -0.66046203957E+01  0.11535792939E+02 -0.64017947944E+01  0.14753931879E+02  0.00000000000E+00 0. -1.
</event>
<event>
 7    1  0.5837204E-012  0.5930195E+02  0.7816164E-02  0.1266605E+00
        -11   -1    0    0    0    0  0.00000000000E+00  0.00000000000E+00  0.45593999997E+02  0.45594000000E+02  0.51100000000E-03 0.  1.
         11   -1    0    0    0    0 -0.00000000000E+00 -0.00000000000E+00 -0.45593999997E+02  0.45594000000E+02  0.51100000000E-03 0. -1.
    9900012    2    1    2    0    0 -0.83109361460E+01  0.30037766227E+02 -0.67365511155E+01  0.59301950065E+02  0.50000011011E+02 0.  0.
         12    1    1    2    0    0  0.83109361460E+01 -0.30037766227E+02  0.67365511155E+01  0.31886049935E+02  0.00000000000E+00 0. -1.
         11    1    3    3    0    0 -0.56029260818E+01  0.24479367954E+02 -0.13012346912E+02  0.28283447607E+02  0.51100000000E-03 0. -1.
        -11    1    3    3    0    0  0.18348204875E+01  0.13718957728E+02  0.13405255851E+02  0.19268556045E+02  0.51100000000E-03 0.  1.
        -12    1    3    3    0    0 -0.45428305518E+01 -0.81605594550E+01 -0.71294600548E+01  0.11749946413E+02  0.00000000000E+00 0.  1.
</event>
<event>
 7    1  0.5837204E-012  0.5930187E+02  0.7816164E-02  0.1266605E+00
        -11   -1    0    0    0    0  0.00000000000E+00  0.00000000000E+00  0.45593999997E+02  0.45594000000E+02  0.51100000000E-03 0.  1.
         11   -1    0    0    0    0 -0.00000000000E+00 -0.00000000000E+00 -0.45593999997E+02  0.45594000000E+02  0.51100000000E-03 0. -1.
    9900012    2    1    2    0    0 -0.24933862429E+02 -0.82418913726E+01  0.18085879236E+02  0.59301869837E+02  0.49999864694E+02 0.  0.
         12    1    1    2    0    0  0.24933862429E+02  0.82418913726E+01 -0.18085879236E+02  0.31886130163E+02  0.00000000000E+00 0. -1.
         11    1    3    3    0    0 -0.70203173800E+01  0.44418705315E+00 -0.51104416208E+01  0.86947554350E+01  0.51100000000E-03 0. -1.
        -11    1    3    3    0    0 -0.24344979675E+02 -0.19650851750E+02  0.11499648786E+02  0.33332805648E+02  0.51100000000E-03 0.  1.
         12    1    3    3    0    0  0.64314346266E+01  0.10964773324E+02  0.11696672070E+02  0.17274308754E+02  0.00000000000E+00 0. -1.
</event>
<event>
 7    1  0.5837204E-012  0.5930196E+02  0.7816164E-02  0.1266605E+00
        -11   -1    0    0    0    0  0.00000000000E+00  0.00000000000E+00  0.45593999997E+02  0.45594000000E+02  0.51100000000E-03 0.  1.
         11   -1    0    0    0    0 -0.00000000000E+00 -0.00000000000E+00 -0.45593999997E+02  0.45594000000E+02  0.51100000000E-03 0. -1.
    9900012    2    1    2    0    0  0.23708654630E+02  0.17125975823E+02  0.12701177233E+02  0.59301964571E+02  0.50000037466E+02 0.  0.
         12    1    1    2    0    0 -0.23708654630E+02 -0.17125975823E+02 -0.12701177233E+02  0.31886035429E+02  0.00000000000E+00 0. -1.
         11    1    3    3    0    0  0.12975451086E+02 -0.76081585621E+01  0.26486882672E+01  0.15272915812E+02  0.51100000000E-03 0. -1.
        -11    1    3    3    0    0  0.15121810425E+02 -0.22172717720E+01  0.12304984814E+01  0.15332957034E+02  0.51100000000E-03 0.  1.
         12    1    3    3    0    0 -0.43886068810E+01  0.26951406157E+02  0.88219904848E+01  0.28696091726E+02  0.00000000000E+00 0. -1.
</event>
<event>
 7    1  0.5837204E-012  0.5930196E+02  0.7816164E-02  0.1266605E+00
        -11   -1    0    0    0    0  0.00000000000E+00  0.00000000000E+00  0.45593999997E+02  0.45594000000E+02  0.51100000000E-03 0.  1.
         11   -1    0    0    0    0 -0.00000000000E+00 -0.00000000000E+00 -0.45593999997E+02  0.45594000000E+02  0.51100000000E-03 0. -1.
    9900012    2    1    2    0    0 -0.27478035954E+02 -0.15975011043E+02  0.25448826474E+01  0.59301955006E+02  0.50000020021E+02 0.  0.
         12    1    1    2    0    0  0.27478035954E+02  0.15975011043E+02 -0.25448826474E+01  0.31886044994E+02  0.00000000000E+00 0. -1.
         11    1    3    3    0    0  0.15824031201E+01  0.89489504400E+01 -0.29281832871E+01  0.95478778394E+01  0.51100000000E-03 0. -1.
        -11    1    3    3    0    0  0.32828546971E+01 -0.14872576677E+02 -0.10335057216E+01  0.15265608613E+02  0.51100000000E-03 0.  1.
        -12    1    3    3    0    0 -0.32343293771E+02 -0.10051384806E+02  0.65065716561E+01  0.34488468554E+02  0.00000000000E+00 0.  1.
</event>
<event>
 7    1  0.5837204E-012  0.5930196E+02  0.7816164E-02  0.1266605E+00
        -11   -1    0    0    0    0  0.00000000000E+00  0.00000000000E+00  0.45593999997E+02  0.45594000000E+02  0.51100000000E-03 0.  1.
         11   -1    0    0    0    0 -0.00000000000E+00 -0.00000000000E+00 -0.45593999997E+02  0.45594000000E+02  0.51100000000E-03 0. -1.
    9900012    2    1    2    0    0 -0.26307919537E+02  0.58842225589E+01  0.17029064193E+02  0.59301957085E+02  0.50000023813E+02 0.  0.
         12    1    1    2    0    0  0.26307919537E+02 -0.58842225589E+01 -0.17029064193E+02  0.31886042915E+02  0.00000000000E+00 0. -1.
         11    1    3    3    0    0  0.10469975327E+02  0.12261305281E+01  0.97802885094E+01  0.14379771313E+02  0.51100000000E-03 0. -1.
        -11    1    3    3    0    0 -0.39330090530E+01  0.99569511719E+01  0.42478794423E+01  0.11517548214E+02  0.51100000000E-03 0.  1.
        -12    1    3    3    0    0 -0.32844885811E+02 -0.52988591410E+01  0.30008962416E+01  0.33404637558E+02  0.00000000000E+00 0.  1.
</event>
<event>
 7    1  0.5837204E-012  0.5930197E+02  0.7816164E-02  0.1266605E+00
        -11   -1    0    0    0    0  0.00000000000E+00  0.00000000000E+00  0.45593999997E+02  0.45594000000E+02  0.51100000000E-03 0.  1.
         11   -1    0    0    0    0 -0.00000000000E+00 -0.00000000000E+00 -0.45593999997E+02  0.45594000000E+02  0.51100000000E-03 0. -1.
    9900012    2    1    2    0    0 -0.50938713704E+01  0.93588947164E+01  0.30052995452E+02  0.59301969023E+02  0.50000045585E+02 0.  0.
         12    1    1    2    0    0  0.50938713704E+01 -0.93588947164E+01 -0.30052995452E+02  0.31886030977E+02  0.00000000000E+00 0. -1.
         11    1    3    3    0    0 -0.84626878223E+00 -0.75391130650E+01  0.10533037155E+02  0.12980726815E+02  0.51100000000E-03 0. -1.
        -11    1    3    3    0    0 -0.17353922834E+02  0.13493834157E+02  0.23527813559E+02  0.32199382123E+02  0.51100000000E-03 0.  1.
         12    1    3    3    0    0  0.13106320246E+02  0.34041736239E+01 -0.40078552619E+01  0.14121860085E+02  0.00000000000E+00 0. -1.
</event>
<event>
 7    1  0.5837204E-012  0.5930194E+02  0.7816164E-02  0.1266605E+00
        -11   -1    0    0    0    0  0.00000000000E+00  0.00000000000E+00  0.45593999997E+02  0.45594000000E+02  0.51100000000E-03 0. -1.
         11   -1    0    0    0    0 -0.00000000000E+00 -0.00000000000E+00 -0.45593999997E+02  0.45594000000E+02  0.51100000000E-03 0.  1.
    9900012    2    1    2    0    0 -0.67099017501E+01  0.56739976169E+01 -0.30651324905E+02  0.59301941152E+02  0.49999994755E+02 0.  0.
         12    1    1    2    0    0  0.67099017501E+01 -0.56739976169E+01  0.30651324905E+02  0.31886058848E+02  0.00000000000E+00 0. -1.
         11    1    3    3    0    0 -0.35307647949E+01 -0.27545961146E+00 -0.47251577428E+01  0.59050227765E+01  0.51100000000E-03 0. -1.
        -11    1    3    3    0    0 -0.63426148154E+01  0.25243351167E+02 -0.20427672380E+02  0.33086936092E+02  0.51100000000E-03 0.  1.
         12    1    3    3    0    0  0.31634778602E+01 -0.19293893939E+02 -0.54984947816E+01  0.20309982283E+02  0.00000000000E+00 0. -1.
</event>
<event>
 7    1  0.5837204E-012  0.5930185E+02  0.7816164E-02  0.1266605E+00
        -11   -1    0    0    0    0  0.00000000000E+00  0.00000000000E+00  0.45593999997E+02  0.45594000000E+02  0.51100000000E-03 0. -1.
         11   -1    0    0    0    0 -0.00000000000E+00 -0.00000000000E+00 -0.45593999997E+02  0.45594000000E+02  0.51100000000E-03 0.  1.
    9900012    2    1    2    0    0  0.30601039196E+02  0.31429418424E+01 -0.83919694970E+01  0.59301845711E+02  0.49999820693E+02 0.  0.
         12    1    1    2    0    0 -0.30601039196E+02 -0.31429418424E+01  0.83919694970E+01  0.31886154289E+02  0.00000000000E+00 0. -1.
         11    1    3    3    0    0  0.31513462821E+01 -0.25406536061E+01 -0.15786177865E+02  0.16296911241E+02  0.51100000000E-03 0. -1.
        -11    1    3    3    0    0  0.46228738331E+01  0.52615422274E+01 -0.11436252026E+02  0.13410542485E+02  0.51100000000E-03 0.  1.
        -12    1    3    3    0    0  0.22826819081E+02  0.42205322112E+00  0.18830460394E+02  0.29594391985E+02  0.00000000000E+00 0.  1.
</event>
<event>
 7    1  0.5837204E-012  0.5930197E+02  0.7816164E-02  0.1266605E+00
        -11   -1    0    0    0    0  0.00000000000E+00  0.00000000000E+00  0.45593999997E+02  0.45594000000E+02  0.51100000000E-03 0.  1.
         11   -1    0    0    0    0 -0.00000000000E+00 -0.00000000000E+00 -0.45593999997E+02  0.45594000000E+02  0.51100000000E-03 0. -1.
    9900012    2    1    2    0    0 -0.19958586086E+02 -0.21056246355E+02  0.13229076564E+02  0.59301966445E+02  0.50000040885E+02 0.  0.
         12    1    1    2    0    0  0.19958586086E+02  0.21056246355E+02 -0.13229076564E+02  0.31886033555E+02  0.00000000000E+00 0. -1.
         11    1    3    3    0    0  0.78657709301E+01 -0.21482707018E+02  0.49992705712E+01  0.23417296164E+02  0.51100000000E-03 0. -1.
        -11    1    3    3    0    0 -0.86535890967E+01 -0.28162131990E+01 -0.67581694923E+01  0.11335277508E+02  0.51100000000E-03 0.  1.
        -12    1    3    3    0    0 -0.19170767920E+02  0.32426738620E+01  0.14987975485E+02  0.24549392773E+02  0.00000000000E+00 0.  1.
</event>
<event>
 7    1  0.5837204E-012  0.5930190E+02  0.7816164E-02  0.1266605E+00
        -11   -1    0    0    0    0  0.00000000000E+00  0.00000000000E+00  0.45593999997E+02  0.45594000000E+02  0.51100000000E-03 0. -1.
         11   -1    0    0    0    0 -0.00000000000E+00 -0.00000000000E+00 -0.45593999997E+02  0.45594000000E+02  0.51100000000E-03 0.  1.
    9900012    2    1    2    0    0 -0.20017528194E+02 -0.79628724651E+00 -0.24807014050E+02  0.59301898726E+02  0.49999917380E+02 0.  0.
         12    1    1    2    0    0  0.20017528194E+02  0.79628724651E+00  0.24807014050E+02  0.31886101274E+02  0.00000000000E+00 0. -1.
         11    1    3    3    0    0 -0.14816061815E+02 -0.74576048579E+01  0.72638769807E+01  0.18107884111E+02  0.51100000000E-03 0. -1.
        -11    1    3    3    0    0  0.86635253842E+01  0.72682744979E+01 -0.98585402161E+01  0.15002509847E+02  0.51100000000E-03 0.  1.
        -12    1    3    3    0    0 -0.13864991764E+02 -0.60695688652E+00 -0.22212350815E+02  0.26191504768E+02  0.00000000000E+00 0.  1.
</event>
<event>
 7    1  0.5837204E-012  0.5930190E+02  0.7816164E-02  0.1266605E+00
        -11   -1    0    0    0    0  0.00000000000E+00  0.00000000000E+00  0.45593999997E+02  0.45594000000E+02  0.51100000000E-03 0.  1.
         11   -1    0    0    0    0 -0.00000000000E+00 -0.00000000000E+00 -0.45593999997E+02  0.45594000000E+02  0.51100000000E-03 0. -1.
    9900012    2    1    2    0    0  0.29096006152E+02 -0.34563445125E+01  0.12577743445E+02  0.59301897673E+02  0.49999915461E+02 0.  0.
         12    1    1    2    0    0 -0.29096006152E+02  0.34563445125E+01 -0.12577743445E+02  0.31886102327E+02  0.00000000000E+00 0. -1.
         11    1    3    3    0    0  0.18805519701E+02  0.13124605376E+02  0.26058750191E+01  0.23080152131E+02  0.51100000000E-03 0.  1.
        -11    1    3    3    0    0  0.10184610975E+01 -0.97529549831E+01 -0.94658299783E+01  0.13629355500E+02  0.51100000000E-03 0. -1.
        -12    1    3    3    0    0  0.92720253538E+01 -0.68279949051E+01  0.19437698404E+02  0.22592390043E+02  0.00000000000E+00 0.  1.
</event>
<event>
 7    1  0.5837204E-012  0.5930198E+02  0.7816164E-02  0.1266605E+00
        -11   -1    0    0    0    0  0.00000000000E+00  0.00000000000E+00  0.45593999997E+02  0.45594000000E+02  0.51100000000E-03 0.  1.
         11   -1    0    0    0    0 -0.00000000000E+00 -0.00000000000E+00 -0.45593999997E+02  0.45594000000E+02  0.51100000000E-03 0. -1.
    9900012    2    1    2    0    0 -0.99561369532E+01  0.36672859052E+01  0.30069001710E+02  0.59301976215E+02  0.50000058703E+02 0.  0.
         12    1    1    2    0    0  0.99561369532E+01 -0.36672859052E+01 -0.30069001710E+02  0.31886023785E+02  0.00000000000E+00 0. -1.
         11    1    3    3    0    0  0.15120922470E+00  0.16065036528E+02 -0.86017418165E+00  0.16088758895E+02  0.51100000000E-03 0. -1.
        -11    1    3    3    0    0  0.18575781563E+01 -0.13508153866E+01 -0.40348653671E+01  0.46427833901E+01  0.51100000000E-03 0.  1.
        -12    1    3    3    0    0 -0.11964924334E+02 -0.11046935236E+02  0.34964041259E+02  0.38570433931E+02  0.00000000000E+00 0.  1.
</event>
<event>
 7    1  0.5837204E-012  0.5930192E+02  0.7816164E-02  0.1266605E+00
        -11   -1    0    0    0    0  0.00000000000E+00  0.00000000000E+00  0.45593999997E+02  0.45594000000E+02  0.51100000000E-03 0.  1.
         11   -1    0    0    0    0 -0.00000000000E+00 -0.00000000000E+00 -0.45593999997E+02  0.45594000000E+02  0.51100000000E-03 0. -1.
    9900012    2    1    2    0    0 -0.60928764091E+00  0.29836358968E+02  0.11231322860E+02  0.59301919007E+02  0.49999954368E+02 0.  0.
         12    1    1    2    0    0  0.60928764091E+00 -0.29836358968E+02 -0.11231322860E+02  0.31886080993E+02  0.00000000000E+00 0. -1.
         11    1    3    3    0    0 -0.56229177204E+01  0.85663146386E+01  0.25633428760E+02  0.27605644720E+02  0.51100000000E-03 0. -1.
        -11    1    3    3    0    0  0.25824363738E+01  0.17814520431E+02 -0.14345838536E+01  0.18057800168E+02  0.51100000000E-03 0.  1.
        -12    1    3    3    0    0  0.24311937056E+01  0.34555238985E+01 -0.12967522046E+02  0.13638474118E+02  0.00000000000E+00 0.  1.
</event>
<event>
 7    1  0.5837204E-012  0.5930193E+02  0.7816164E-02  0.1266605E+00
        -11   -1    0    0    0    0  0.00000000000E+00  0.00000000000E+00  0.45593999997E+02  0.45594000000E+02  0.51100000000E-03 0.  1.
         11   -1    0    0    0    0 -0.00000000000E+00 -0.00000000000E+00 -0.45593999997E+02  0.45594000000E+02  0.51100000000E-03 0. -1.
    9900012    2    1    2    0    0  0.12019769901E+02 -0.26199342558E+02  0.13632354985E+02  0.59301929038E+02  0.49999972662E+02 0.  0.
         12    1    1    2    0    0 -0.12019769901E+02  0.26199342558E+02 -0.13632354985E+02  0.31886070962E+02  0.00000000000E+00 0. -1.
         11    1    3    3    0    0 -0.66863582614E+01  0.16839498374E+01 -0.42977433779E+00  0.69085295177E+01  0.51100000000E-03 0. -1.
        -11    1    3    3    0    0 -0.93259456713E+01 -0.15673686223E+02 -0.10866907674E+01  0.18270703313E+02  0.51100000000E-03 0.  1.
         12    1    3    3    0    0  0.28032073834E+02 -0.12209606173E+02  0.15148820090E+02  0.34122696207E+02  0.00000000000E+00 0. -1.
</event>
<event>
 7    1  0.5837204E-012  0.5930208E+02  0.7816164E-02  0.1266604E+00
        -11   -1    0    0    0    0  0.00000000000E+00  0.00000000000E+00  0.45593999997E+02  0.45594000000E+02  0.51100000000E-03 0.  1.
         11   -1    0    0    0    0 -0.00000000000E+00 -0.00000000000E+00 -0.45593999997E+02  0.45594000000E+02  0.51100000000E-03 0. -1.
    9900012    2    1    2    0    0 -0.51718380913E-01 -0.43772155653E+01  0.31584000228E+02  0.59302082085E+02  0.50000251783E+02 0.  0.
         12    1    1    2    0    0  0.51718380913E-01  0.43772155653E+01 -0.31584000228E+02  0.31885917915E+02  0.00000000000E+00 0. -1.
         11    1    3    3    0    0  0.91465904118E+01 -0.54310877204E+01  0.82746572261E+01  0.13476898102E+02  0.51100000000E-03 0. -1.
        -11    1    3    3    0    0  0.50535875049E+01  0.15560992481E+02  0.18933559373E+02  0.25023247280E+02  0.51100000000E-03 0.  1.
        -12    1    3    3    0    0 -0.14251896298E+02 -0.14507120326E+02  0.43757836292E+01  0.20801936703E+02  0.00000000000E+00 0.  1.
</event>
<event>
 7    1  0.5837204E-012  0.5930193E+02  0.7816164E-02  0.1266605E+00
        -11   -1    0    0    0    0  0.00000000000E+00  0.00000000000E+00  0.45593999997E+02  0.45594000000E+02  0.51100000000E-03 0.  1.
         11   -1    0    0    0    0 -0.00000000000E+00 -0.00000000000E+00 -0.45593999997E+02  0.45594000000E+02  0.51100000000E-03 0. -1.
    9900012    2    1    2    0    0  0.18663198087E+02  0.13049515686E+02  0.22318520587E+02  0.59301934334E+02  0.49999982321E+02 0.  0.
         12    1    1    2    0    0 -0.18663198087E+02 -0.13049515686E+02 -0.22318520587E+02  0.31886065666E+02  0.00000000000E+00 0. -1.
         11    1    3    3    0    0 -0.99495335340E+01  0.13915223364E+02 -0.31142338096E+01  0.17387498707E+02  0.51100000000E-03 0. -1.
        -11    1    3    3    0    0  0.55989809637E+01 -0.65361979169E+01  0.25679139097E+01  0.89813502965E+01  0.51100000000E-03 0.  1.
        -12    1    3    3    0    0  0.23013750657E+02  0.56704902386E+01  0.22864840487E+02  0.32933085330E+02  0.00000000000E+00 0.  1.
</event>
<event>
 7    1  0.5837204E-012  0.5930196E+02  0.7816164E-02  0.1266605E+00
        -11   -1    0    0    0    0  0.00000000000E+00  0.00000000000E+00  0.45593999997E+02  0.45594000000E+02  0.51100000000E-03 0. -1.
         11   -1    0    0    0    0 -0.00000000000E+00 -0.00000000000E+00 -0.45593999997E+02  0.45594000000E+02  0.51100000000E-03 0.  1.
    9900012    2    1    2    0    0 -0.17212374074E+02 -0.41207169401E+00 -0.26838110161E+02  0.59301956323E+02  0.50000022424E+02 0.  0.
         12    1    1    2    0    0  0.17212374074E+02  0.41207169401E+00  0.26838110161E+02  0.31886043677E+02  0.00000000000E+00 0. -1.
         11    1    3    3    0    0 -0.13686739713E+02  0.23793082146E+01  0.16171650815E+00  0.13892951596E+02  0.51100000000E-03 0. -1.
        -11    1    3    3    0    0 -0.18392446703E+02 -0.52811786119E+01 -0.22790024599E+02  0.29758329334E+02  0.51100000000E-03 0.  1.
         12    1    3    3    0    0  0.14866812342E+02  0.24897987033E+01 -0.42098020705E+01  0.15650675393E+02  0.00000000000E+00 0. -1.
</event>
<event>
 7    1  0.5837204E-012  0.5930220E+02  0.7816164E-02  0.1266604E+00
        -11   -1    0    0    0    0  0.00000000000E+00  0.00000000000E+00  0.45593999997E+02  0.45594000000E+02  0.51100000000E-03 0.  1.
         11   -1    0    0    0    0 -0.00000000000E+00 -0.00000000000E+00 -0.45593999997E+02  0.45594000000E+02  0.51100000000E-03 0. -1.
    9900012    2    1    2    0    0  0.19513816866E+02  0.23759380668E+02  0.84502542534E+01  0.59302203548E+02  0.50000473300E+02 0.  0.
         12    1    1    2    0    0 -0.19513816866E+02 -0.23759380668E+02 -0.84502542534E+01  0.31885796452E+02  0.00000000000E+00 0. -1.
         11    1    3    3    0    0  0.46403081389E+01  0.21741507887E+02  0.12448625865E+02  0.25479283958E+02  0.51100000000E-03 0. -1.
        -11    1    3    3    0    0  0.12143635228E+02  0.21688486119E+01  0.12227073040E+02  0.17368739052E+02  0.51100000000E-03 0.  1.
        -12    1    3    3    0    0  0.27298734993E+01 -0.15097583065E+00 -0.16225444652E+02  0.16454180538E+02  0.00000000000E+00 0.  1.
</event>
<event>
 7    1  0.5837204E-012  0.5930195E+02  0.7816164E-02  0.1266605E+00
        -11   -1    0    0    0    0  0.00000000000E+00  0.00000000000E+00  0.45593999997E+02  0.45594000000E+02  0.51100000000E-03 0.  1.
         11   -1    0    0    0    0 -0.00000000000E+00 -0.00000000000E+00 -0.45593999997E+02  0.45594000000E+02  0.51100000000E-03 0. -1.
    9900012    2    1    2    0    0  0.31773723673E+02 -0.25649889405E+01  0.75607801389E+00  0.59301947591E+02  0.50000006498E+02 0.  0.
         12    1    1    2    0    0 -0.31773723673E+02  0.25649889405E+01 -0.75607801389E+00  0.31886052409E+02  0.00000000000E+00 0. -1.
         11    1    3    3    0    0 -0.21463555148E+01 -0.81363400258E+01 -0.19694543545E+01  0.86420843392E+01  0.51100000000E-03 0. -1.
        -11    1    3    3    0    0  0.27474000176E+02 -0.12933970226E+02  0.55257826849E+01  0.30864908003E+02  0.51100000000E-03 0.  1.
        -12    1    3    3    0    0  0.64460790112E+01  0.18505321311E+02 -0.28002503165E+01  0.19794955249E+02  0.00000000000E+00 0.  1.
</event>
<event>
 7    1  0.5837204E-012  0.5930224E+02  0.7816164E-02  0.1266604E+00
        -11   -1    0    0    0    0  0.00000000000E+00  0.00000000000E+00  0.45593999997E+02  0.45594000000E+02  0.51100000000E-03 0.  1.
         11   -1    0    0    0    0 -0.00000000000E+00 -0.00000000000E+00 -0.45593999997E+02  0.45594000000E+02  0.51100000000E-03 0. -1.
    9900012    2    1    2    0    0 -0.18589806414E+02 -0.33989274979E+01  0.25682054376E+02  0.59302242559E+02  0.50000544446E+02 0.  0.
         12    1    1    2    0    0  0.18589806414E+02  0.33989274979E+01 -0.25682054376E+02  0.31885757441E+02  0.00000000000E+00 0. -1.
         11    1    3    3    0    0 -0.17574911977E+01  0.57062139725E+01 -0.53016149236E-01  0.59709684460E+01  0.51100000000E-03 0. -1.
        -11    1    3    3    0    0 -0.20984086309E+02  0.50141186948E+01  0.30941306653E+02  0.37720521234E+02  0.51100000000E-03 0.  1.
        -12    1    3    3    0    0  0.41517710930E+01 -0.14119260165E+02 -0.52062361277E+01  0.15610752879E+02  0.00000000000E+00 0.  1.
</event>
<event>
 7    1  0.5837204E-012  0.5930190E+02  0.7816164E-02  0.1266605E+00
        -11   -1    0    0    0    0  0.00000000000E+00  0.00000000000E+00  0.45593999997E+02  0.45594000000E+02  0.51100000000E-03 0.  1.
         11   -1    0    0    0    0 -0.00000000000E+00 -0.00000000000E+00 -0.45593999997E+02  0.45594000000E+02  0.51100000000E-03 0. -1.
    9900012    2    1    2    0    0  0.30685479699E+02 -0.20769078103E+01  0.84149501679E+01  0.59301896495E+02  0.49999913311E+02 0.  0.
         12    1    1    2    0    0 -0.30685479699E+02  0.20769078103E+01 -0.84149501679E+01  0.31886103505E+02  0.00000000000E+00 0. -1.
         11    1    3    3    0    0  0.19470194405E+02  0.10818364621E+02  0.48343017389E+01  0.22792453944E+02  0.51100000000E-03 0.  1.
        -11    1    3    3    0    0  0.72892375744E+01  0.49671005633E+01  0.13176310056E+02  0.15856235977E+02  0.51100000000E-03 0. -1.
         12    1    3    3    0    0  0.39260477199E+01 -0.17862372994E+02 -0.95956616267E+01  0.20653206573E+02  0.00000000000E+00 0. -1.
</event>
<event>
 7    1  0.5837204E-012  0.5930202E+02  0.7816164E-02  0.1266604E+00
        -11   -1    0    0    0    0  0.00000000000E+00  0.00000000000E+00  0.45593999997E+02  0.45594000000E+02  0.51100000000E-03 0. -1.
         11   -1    0    0    0    0 -0.00000000000E+00 -0.00000000000E+00 -0.45593999997E+02  0.45594000000E+02  0.51100000000E-03 0.  1.
    9900012    2    1    2    0    0 -0.26661898583E+02 -0.13023210073E+02  0.11672824293E+02  0.59302020892E+02  0.50000140182E+02 0.  0.
         12    1    1    2    0    0  0.26661898583E+02  0.13023210073E+02 -0.11672824293E+02  0.31885979108E+02  0.00000000000E+00 0. -1.
         11    1    3    3    0    0  0.82081863416E+01 -0.55913370105E+01  0.12320257113E+01  0.10007759999E+02  0.51100000000E-03 0. -1.
        -11    1    3    3    0    0  0.12576400015E+01 -0.14318372969E+01 -0.80471065754E+01  0.82696880785E+01  0.51100000000E-03 0.  1.
         12    1    3    3    0    0 -0.36127724926E+02 -0.60000357661E+01  0.18487905157E+02  0.41024572815E+02  0.00000000000E+00 0. -1.
</event>
<event>
 7    1  0.5837204E-012  0.5930194E+02  0.7816164E-02  0.1266605E+00
        -11   -1    0    0    0    0  0.00000000000E+00  0.00000000000E+00  0.45593999997E+02  0.45594000000E+02  0.51100000000E-03 0. -1.
         11   -1    0    0    0    0 -0.00000000000E+00 -0.00000000000E+00 -0.45593999997E+02  0.45594000000E+02  0.51100000000E-03 0.  1.
    9900012    2    1    2    0    0 -0.27452550766E+02  0.15945028072E+02 -0.29722835631E+01  0.59301938259E+02  0.49999989479E+02 0.  0.
         12    1    1    2    0    0  0.27452550766E+02 -0.15945028072E+02  0.29722835631E+01  0.31886061741E+02  0.00000000000E+00 0. -1.
         11    1    3    3    0    0  0.80836665864E+01  0.10084162336E+02 -0.33399979428E+01  0.13348841973E+02  0.51100000000E-03 0. -1.
        -11    1    3    3    0    0 -0.30785495625E+01  0.12390938704E+02 -0.10813975560E+01  0.12813362178E+02  0.51100000000E-03 0.  1.
         12    1    3    3    0    0 -0.32457667790E+02 -0.65300729678E+01  0.14491119357E+01  0.33139734108E+02  0.00000000000E+00 0. -1.
</event>
<event>
 7    1  0.5837204E-012  0.5930198E+02  0.7816164E-02  0.1266605E+00
        -11   -1    0    0    0    0  0.00000000000E+00  0.00000000000E+00  0.45593999997E+02  0.45594000000E+02  0.51100000000E-03 0. -1.
         11   -1    0    0    0    0 -0.00000000000E+00 -0.00000000000E+00 -0.45593999997E+02  0.45594000000E+02  0.51100000000E-03 0.  1.
    9900012    2    1    2    0    0 -0.20733277875E+02  0.49865223986E+01 -0.23706198501E+02  0.59301983246E+02  0.50000071525E+02 0.  0.
         12    1    1    2    0    0  0.20733277875E+02 -0.49865223986E+01  0.23706198501E+02  0.31886016754E+02  0.00000000000E+00 0. -1.
         11    1    3    3    0    0 -0.15718188464E+02  0.53572701550E+01 -0.29576746468E+02  0.33919695222E+02  0.51100000000E-03 0. -1.
        -11    1    3    3    0    0 -0.86856331783E+01  0.73014501664E+01 -0.42910295209E+01  0.12131130733E+02  0.51100000000E-03 0.  1.
         12    1    3    3    0    0  0.36705437674E+01 -0.76721979228E+01  0.10161577488E+02  0.13251157291E+02  0.00000000000E+00 0. -1.
</event>
<event>
 7    1  0.5837204E-012  0.5930193E+02  0.7816164E-02  0.1266605E+00
        -11   -1    0    0    0    0  0.00000000000E+00  0.00000000000E+00  0.45593999997E+02  0.45594000000E+02  0.51100000000E-03 0.  1.
         11   -1    0    0    0    0 -0.00000000000E+00 -0.00000000000E+00 -0.45593999997E+02  0.45594000000E+02  0.51100000000E-03 0. -1.
    9900012    2    1    2    0    0 -0.27380797108E+02  0.12397672491E+01  0.16293447137E+02  0.59301929488E+02  0.49999973483E+02 0.  0.
         12    1    1    2    0    0  0.27380797108E+02 -0.12397672491E+01 -0.16293447137E+02  0.31886070512E+02  0.00000000000E+00 0. -1.
         11    1    3    3    0    0 -0.20789314234E+02  0.24684818132E+01 -0.39542718405E+01  0.21305521698E+02  0.51100000000E-03 0. -1.
        -11    1    3    3    0    0 -0.14019816967E+02 -0.12117162559E+02  0.86946507038E+01  0.20468948370E+02  0.51100000000E-03 0.  1.
        -12    1    3    3    0    0  0.74283340934E+01  0.10888447995E+02  0.11553068274E+02  0.17527459419E+02  0.00000000000E+00 0.  1.
</event>
<event>
 7    1  0.5837204E-012  0.5930198E+02  0.7816164E-02  0.1266605E+00
        -11   -1    0    0    0    0  0.00000000000E+00  0.00000000000E+00  0.45593999997E+02  0.45594000000E+02  0.51100000000E-03 0. -1.
         11   -1    0    0    0    0 -0.00000000000E+00 -0.00000000000E+00 -0.45593999997E+02  0.45594000000E+02  0.51100000000E-03 0.  1.
    9900012    2    1    2    0    0 -0.15908798465E+02 -0.16684934374E+02 -0.22028188961E+02  0.59301984059E+02  0.50000073007E+02 0.  0.
         12    1    1    2    0    0  0.15908798465E+02  0.16684934374E+02  0.22028188961E+02  0.31886015941E+02  0.00000000000E+00 0. -1.
         11    1    3    3    0    0 -0.72613918193E+01 -0.12077670076E+02 -0.77227874673E+01  0.16069828006E+02  0.51100000000E-03 0. -1.
        -11    1    3    3    0    0 -0.71064714310E+01 -0.19062886613E+02 -0.19119124551E+02  0.27918390105E+02  0.51100000000E-03 0.  1.
         12    1    3    3    0    0 -0.15409352150E+01  0.14455622314E+02  0.48137230573E+01  0.15313765948E+02  0.00000000000E+00 0. -1.
</event>
<event>
 7    1  0.5837204E-012  0.5930193E+02  0.7816164E-02  0.1266605E+00
        -11   -1    0    0    0    0  0.00000000000E+00  0.00000000000E+00  0.45593999997E+02  0.45594000000E+02  0.51100000000E-03 0. -1.
         11   -1    0    0    0    0 -0.00000000000E+00 -0.00000000000E+00 -0.45593999997E+02  0.45594000000E+02  0.51100000000E-03 0.  1.
    9900012    2    1    2    0    0  0.19636492832E+01  0.12180017750E+02 -0.29402595361E+02  0.59301931492E+02  0.49999977138E+02 0.  0.
         12    1    1    2    0    0 -0.19636492832E+01 -0.12180017750E+02  0.29402595361E+02  0.31886068508E+02  0.00000000000E+00 0. -1.
         11    1    3    3    0    0  0.78503579518E+01  0.11020775156E+02 -0.11372723705E+02  0.17675532517E+02  0.51100000000E-03 0.  1.
        -11    1    3    3    0    0 -0.16952105411E+02 -0.35106727653E+01  0.28439804715E+01  0.17543857225E+02  0.51100000000E-03 0. -1.
         12    1    3    3    0    0  0.11065396743E+02  0.46699153597E+01 -0.20873852127E+02  0.24082541751E+02  0.00000000000E+00 0. -1.
</event>
<event>
 7    1  0.5837204E-012  0.5930193E+02  0.7816164E-02  0.1266605E+00
        -11   -1    0    0    0    0  0.00000000000E+00  0.00000000000E+00  0.45593999997E+02  0.45594000000E+02  0.51100000000E-03 0.  1.
         11   -1    0    0    0    0 -0.00000000000E+00 -0.00000000000E+00 -0.45593999997E+02  0.45594000000E+02  0.51100000000E-03 0. -1.
    9900012    2    1    2    0    0 -0.25286223654E+02 -0.86559284298E+01  0.17389742534E+02  0.59301931740E+02  0.49999977590E+02 0.  0.
         12    1    1    2    0    0  0.25286223654E+02  0.86559284298E+01 -0.17389742534E+02  0.31886068260E+02  0.00000000000E+00 0. -1.
         11    1    3    3    0    0 -0.76323997569E+01  0.32856145882E+01 -0.55688096760E+01  0.10003021081E+02  0.51100000000E-03 0. -1.
        -11    1    3    3    0    0  0.66563601858E+01  0.81684908139E+01  0.45727630373E+00  0.10547060016E+02  0.51100000000E-03 0.  1.
        -12    1    3    3    0    0 -0.24310184083E+02 -0.20110033832E+02  0.22501275907E+02  0.38751850644E+02  0.00000000000E+00 0.  1.
</event>
<event>
 7    1  0.5837204E-012  0.5930195E+02  0.7816164E-02  0.1266605E+00
        -11   -1    0    0    0    0  0.00000000000E+00  0.00000000000E+00  0.45593999997E+02  0.45594000000E+02  0.51100000000E-03 0.  1.
         11   -1    0    0    0    0 -0.00000000000E+00 -0.00000000000E+00 -0.45593999997E+02  0.45594000000E+02  0.51100000000E-03 0. -1.
    9900012    2    1    2    0    0  0.16504379519E+02 -0.20537919801E+02 -0.17958833517E+02  0.59301946711E+02  0.50000004893E+02 0.  0.
         12    1    1    2    0    0 -0.16504379519E+02  0.20537919801E+02  0.17958833517E+02  0.31886053289E+02  0.00000000000E+00 0. -1.
         11    1    3    3    0    0  0.14564902143E+01  0.89715182125E+01  0.88042006613E+00  0.91315191800E+01  0.51100000000E-03 0. -1.
        -11    1    3    3    0    0 -0.22595974349E+01 -0.24126463042E+02 -0.28700271785E+00  0.24233744455E+02  0.51100000000E-03 0.  1.
         12    1    3    3    0    0  0.17307486740E+02 -0.53829749708E+01 -0.18552250866E+02  0.25936683076E+02  0.00000000000E+00 0. -1.
</event>
<event>
 7    1  0.5837204E-012  0.5930193E+02  0.7816164E-02  0.1266605E+00
        -11   -1    0    0    0    0  0.00000000000E+00  0.00000000000E+00  0.45593999997E+02  0.45594000000E+02  0.51100000000E-03 0.  1.
         11   -1    0    0    0    0 -0.00000000000E+00 -0.00000000000E+00 -0.45593999997E+02  0.45594000000E+02  0.51100000000E-03 0. -1.
    9900012    2    1    2    0    0  0.15651450626E+02 -0.27754364136E+02 -0.12035615891E+01  0.59301934144E+02  0.49999981974E+02 0.  0.
         12    1    1    2    0    0 -0.15651450626E+02  0.27754364136E+02  0.12035615891E+01  0.31886065856E+02  0.00000000000E+00 0. -1.
         11    1    3    3    0    0  0.59277602370E+01 -0.15405349946E+02 -0.10739426800E+02  0.19692598524E+02  0.51100000000E-03 0. -1.
        -11    1    3    3    0    0  0.10019386500E+02  0.83087455045E+00 -0.11191820840E+02  0.15044444567E+02  0.51100000000E-03 0.  1.
        -12    1    3    3    0    0 -0.29569611142E+00 -0.13179888741E+02  0.20727686051E+02  0.24564891053E+02  0.00000000000E+00 0.  1.
</event>
<event>
 7    1  0.5837204E-012  0.5930195E+02  0.7816164E-02  0.1266605E+00
        -11   -1    0    0    0    0  0.00000000000E+00  0.00000000000E+00  0.45593999997E+02  0.45594000000E+02  0.51100000000E-03 0.  1.
         11   -1    0    0    0    0 -0.00000000000E+00 -0.00000000000E+00 -0.45593999997E+02  0.45594000000E+02  0.51100000000E-03 0. -1.
    9900012    2    1    2    0    0  0.50068350639E+01 -0.23464635014E+02  0.21001496848E+02  0.59301947194E+02  0.50000005774E+02 0.  0.
         12    1    1    2    0    0 -0.50068350639E+01  0.23464635014E+02 -0.21001496848E+02  0.31886052806E+02  0.00000000000E+00 0. -1.
         11    1    3    3    0    0  0.46425659233E+01 -0.51835953605E+01  0.70148832997E+00  0.69939377572E+01  0.51100000000E-03 0. -1.
        -11    1    3    3    0    0  0.20227181770E+02  0.12249647357E+01  0.10261288564E+02  0.22714168799E+02  0.51100000000E-03 0.  1.
        -12    1    3    3    0    0 -0.19862912630E+02 -0.19506004389E+02  0.10038719955E+02  0.29593840638E+02  0.00000000000E+00 0.  1.
</event>
<event>
 7    1  0.5837204E-012  0.5930197E+02  0.7816164E-02  0.1266605E+00
        -11   -1    0    0    0    0  0.00000000000E+00  0.00000000000E+00  0.45593999997E+02  0.45594000000E+02  0.51100000000E-03 0.  1.
         11   -1    0    0    0    0 -0.00000000000E+00 -0.00000000000E+00 -0.45593999997E+02  0.45594000000E+02  0.51100000000E-03 0. -1.
    9900012    2    1    2    0    0 -0.16088145103E+02  0.76110301667E+01  0.26456805784E+02  0.59301972255E+02  0.50000051480E+02 0.  0.
         12    1    1    2    0    0  0.16088145103E+02 -0.76110301667E+01 -0.26456805784E+02  0.31886027745E+02  0.00000000000E+00 0. -1.
         11    1    3    3    0    0 -0.18413796473E+02 -0.16285497681E+02  0.11408481649E+02  0.27100531159E+02  0.51100000000E-03 0. -1.
        -11    1    3    3    0    0  0.22573533999E+01  0.45054724448E+01  0.11408082587E+02  0.12471538594E+02  0.51100000000E-03 0.  1.
        -12    1    3    3    0    0  0.68297970661E-01  0.19391055403E+02  0.36402415475E+01  0.19729902503E+02  0.00000000000E+00 0.  1.
</event>
<event>
 7    1  0.5837204E-012  0.5930195E+02  0.7816164E-02  0.1266605E+00
        -11   -1    0    0    0    0  0.00000000000E+00  0.00000000000E+00  0.45593999997E+02  0.45594000000E+02  0.51100000000E-03 0. -1.
         11   -1    0    0    0    0 -0.00000000000E+00 -0.00000000000E+00 -0.45593999997E+02  0.45594000000E+02  0.51100000000E-03 0.  1.
    9900012    2    1    2    0    0  0.28295253692E+02  0.10505357080E+02 -0.10282827468E+02  0.59301945845E+02  0.50000003314E+02 0.  0.
         12    1    1    2    0    0 -0.28295253692E+02 -0.10505357080E+02  0.10282827468E+02  0.31886054155E+02  0.00000000000E+00 0. -1.
         11    1    3    3    0    0  0.40302252034E+01 -0.16523498270E+01  0.40541893089E+01  0.59505820182E+01  0.51100000000E-03 0. -1.
        -11    1    3    3    0    0  0.23213691126E+02  0.26033904090E+02 -0.23073265996E+01  0.34956592714E+02  0.51100000000E-03 0.  1.
         12    1    3    3    0    0  0.10513373622E+01 -0.13876197183E+02 -0.12029690177E+02  0.18394771113E+02  0.00000000000E+00 0. -1.
</event>
<event>
 7    1  0.5837204E-012  0.5930195E+02  0.7816164E-02  0.1266605E+00
        -11   -1    0    0    0    0  0.00000000000E+00  0.00000000000E+00  0.45593999997E+02  0.45594000000E+02  0.51100000000E-03 0.  1.
         11   -1    0    0    0    0 -0.00000000000E+00 -0.00000000000E+00 -0.45593999997E+02  0.45594000000E+02  0.51100000000E-03 0. -1.
    9900012    2    1    2    0    0  0.29359435924E+02 -0.15021676135E+01 -0.12348574180E+02  0.59301948668E+02  0.50000008462E+02 0.  0.
         12    1    1    2    0    0 -0.29359435924E+02  0.15021676135E+01  0.12348574180E+02  0.31886051332E+02  0.00000000000E+00 0. -1.
         11    1    3    3    0    0  0.20033588075E+02  0.42770739860E+01 -0.27335420801E+02  0.34159380025E+02  0.51100000000E-03 0. -1.
        -11    1    3    3    0    0  0.31412166429E+01 -0.41254497919E+01 -0.30414000639E+01  0.60113802569E+01  0.51100000000E-03 0.  1.
        -12    1    3    3    0    0  0.61846312058E+01 -0.16537918076E+01  0.18028246686E+02  0.19131188386E+02  0.00000000000E+00 0.  1.
</event>
<event>
 7    1  0.5837204E-012  0.5930195E+02  0.7816164E-02  0.1266605E+00
        -11   -1    0    0    0    0  0.00000000000E+00  0.00000000000E+00  0.45593999997E+02  0.45594000000E+02  0.51100000000E-03 0.  1.
         11   -1    0    0    0    0 -0.00000000000E+00 -0.00000000000E+00 -0.45593999997E+02  0.45594000000E+02  0.51100000000E-03 0. -1.
    9900012    2    1    2    0    0  0.20211025857E+02  0.24546319230E+02 -0.23902048957E+01  0.59301946099E+02  0.50000003778E+02 0.  0.
         12    1    1    2    0    0 -0.20211025857E+02 -0.24546319230E+02  0.23902048957E+01  0.31886053901E+02  0.00000000000E+00 0. -1.
         11    1    3    3    0    0  0.18326094833E+02  0.91094716960E+01 -0.20668695036E+02  0.29086477634E+02  0.51100000000E-03 0. -1.
        -11    1    3    3    0    0  0.46731392445E+01 -0.24299773737E+01  0.74967806635E+01  0.91621362691E+01  0.51100000000E-03 0.  1.
        -12    1    3    3    0    0 -0.27882082198E+01  0.17866824907E+02  0.10781709476E+02  0.21053332197E+02  0.00000000000E+00 0.  1.
</event>
<event>
 7    1  0.5837204E-012  0.5930196E+02  0.7816164E-02  0.1266605E+00
        -11   -1    0    0    0    0  0.00000000000E+00  0.00000000000E+00  0.45593999997E+02  0.45594000000E+02  0.51100000000E-03 0.  1.
         11   -1    0    0    0    0 -0.00000000000E+00 -0.00000000000E+00 -0.45593999997E+02  0.45594000000E+02  0.51100000000E-03 0. -1.
    9900012    2    1    2    0    0  0.78244873806E+01 -0.27908587120E+02  0.13289385697E+02  0.59301959010E+02  0.50000027324E+02 0.  0.
         12    1    1    2    0    0 -0.78244873806E+01  0.27908587120E+02 -0.13289385697E+02  0.31886040990E+02  0.00000000000E+00 0. -1.
         11    1    3    3    0    0 -0.28869955194E+01 -0.91344337666E+01 -0.51831204731E+01  0.10892077922E+02  0.51100000000E-03 0. -1.
        -11    1    3    3    0    0  0.17855215774E+02 -0.25434013138E+02  0.45554644688E+01  0.31407801760E+02  0.51100000000E-03 0.  1.
        -12    1    3    3    0    0 -0.71437328742E+01  0.66598597845E+01  0.13917041702E+02  0.17002079327E+02  0.00000000000E+00 0.  1.
</event>
<event>
 7    1  0.5837204E-012  0.5930195E+02  0.7816164E-02  0.1266605E+00
        -11   -1    0    0    0    0  0.00000000000E+00  0.00000000000E+00  0.45593999997E+02  0.45594000000E+02  0.51100000000E-03 0.  1.
         11   -1    0    0    0    0 -0.00000000000E+00 -0.00000000000E+00 -0.45593999997E+02  0.45594000000E+02  0.51100000000E-03 0. -1.
    9900012    2    1    2    0    0 -0.29046612215E+02 -0.58989465630E-01 -0.13153369285E+02  0.59301948434E+02  0.50000008036E+02 0.  0.
         12    1    1    2    0    0  0.29046612215E+02  0.58989465630E-01  0.13153369285E+02  0.31886051566E+02  0.00000000000E+00 0. -1.
         11    1    3    3    0    0 -0.20366928929E+02 -0.11318904797E+02 -0.10221641027E+02  0.25444279226E+02  0.51100000000E-03 0. -1.
        -11    1    3    3    0    0 -0.69562265609E+01  0.38481571075E+01  0.13546746682E+02  0.15707060419E+02  0.51100000000E-03 0.  1.
        -12    1    3    3    0    0 -0.17234567247E+01  0.74117582235E+01 -0.16478474940E+02  0.18150608788E+02  0.00000000000E+00 0.  1.
</event>
<event>
 7    1  0.5837204E-012  0.5930195E+02  0.7816164E-02  0.1266605E+00
        -11   -1    0    0    0    0  0.00000000000E+00  0.00000000000E+00  0.45593999997E+02  0.45594000000E+02  0.51100000000E-03 0.  1.
         11   -1    0    0    0    0 -0.00000000000E+00 -0.00000000000E+00 -0.45593999997E+02  0.45594000000E+02  0.51100000000E-03 0. -1.
    9900012    2    1    2    0    0  0.66711777700E+01 -0.27474632965E+02  0.14743148228E+02  0.59301945225E+02  0.50000002184E+02 0.  0.
         12    1    1    2    0    0 -0.66711777700E+01  0.27474632965E+02 -0.14743148228E+02  0.31886054775E+02  0.00000000000E+00 0. -1.
         11    1    3    3    0    0  0.54309198678E+01  0.39256600090E+01  0.26996711103E+01  0.72245360737E+01  0.51100000000E-03 0. -1.
        -11    1    3    3    0    0  0.14563813071E+02 -0.78097204870E+01  0.17896444538E+02  0.24359374225E+02  0.51100000000E-03 0.  1.
         12    1    3    3    0    0 -0.13323555169E+02 -0.23590572487E+02 -0.58529674201E+01  0.27718034927E+02  0.00000000000E+00 0. -1.
</event>
<event>
 7    1  0.5837204E-012  0.5930194E+02  0.7816164E-02  0.1266605E+00
        -11   -1    0    0    0    0  0.00000000000E+00  0.00000000000E+00  0.45593999997E+02  0.45594000000E+02  0.51100000000E-03 0.  1.
         11   -1    0    0    0    0 -0.00000000000E+00 -0.00000000000E+00 -0.45593999997E+02  0.45594000000E+02  0.51100000000E-03 0. -1.
    9900012    2    1    2    0    0  0.29758572845E+02  0.31427744215E+01 -0.11012303963E+02  0.59301944624E+02  0.50000001088E+02 0.  0.
         12    1    1    2    0    0 -0.29758572845E+02 -0.31427744215E+01  0.11012303963E+02  0.31886055376E+02  0.00000000000E+00 0. -1.
         11    1    3    3    0    0  0.11325607555E+02 -0.45407644419E+01 -0.12672616786E+02  0.17592133033E+02  0.51100000000E-03 0. -1.
        -11    1    3    3    0    0  0.22789433615E+02  0.73985409563E+01 -0.12405992331E+02  0.26981574060E+02  0.51100000000E-03 0.  1.
        -12    1    3    3    0    0 -0.43564683239E+01  0.28499790710E+00  0.14066305155E+02  0.14728237531E+02  0.00000000000E+00 0.  1.
</event>
<event>
 7    1  0.5837204E-012  0.5930195E+02  0.7816164E-02  0.1266605E+00
        -11   -1    0    0    0    0  0.00000000000E+00  0.00000000000E+00  0.45593999997E+02  0.45594000000E+02  0.51100000000E-03 0.  1.
         11   -1    0    0    0    0 -0.00000000000E+00 -0.00000000000E+00 -0.45593999997E+02  0.45594000000E+02  0.51100000000E-03 0. -1.
    9900012    2    1    2    0    0  0.12357811052E+02  0.25034086096E+02  0.15404525569E+02  0.59301947114E+02  0.50000005628E+02 0.  0.
         12    1    1    2    0    0 -0.12357811052E+02 -0.25034086096E+02 -0.15404525569E+02  0.31886052886E+02  0.00000000000E+00 0. -1.
         11    1    3    3    0    0  0.56065893069E+01  0.31856520141E+00  0.84008228649E+01  0.10104907348E+02  0.51100000000E-03 0. -1.
        -11    1    3    3    0    0 -0.14290251150E+02  0.10354328864E+02  0.14282103363E+02  0.22702464202E+02  0.51100000000E-03 0.  1.
         12    1    3    3    0    0  0.21041472895E+02  0.14361192031E+02 -0.72784006586E+01  0.26494575563E+02  0.00000000000E+00 0. -1.
</event>
<event>
 7    1  0.5837204E-012  0.5930193E+02  0.7816164E-02  0.1266605E+00
        -11   -1    0    0    0    0  0.00000000000E+00  0.00000000000E+00  0.45593999997E+02  0.45594000000E+02  0.51100000000E-03 0.  1.
         11   -1    0    0    0    0 -0.00000000000E+00 -0.00000000000E+00 -0.45593999997E+02  0.45594000000E+02  0.51100000000E-03 0. -1.
    9900012    2    1    2    0    0 -0.25215454931E+02  0.45446534204E+01  0.18980214510E+02  0.59301928042E+02  0.49999970845E+02 0.  0.
         12    1    1    2    0    0  0.25215454931E+02 -0.45446534204E+01 -0.18980214510E+02  0.31886071958E+02  0.00000000000E+00 0. -1.
         11    1    3    3    0    0 -0.10696004071E+02  0.20643075396E+02 -0.19192539188E+01  0.23328621921E+02  0.51100000000E-03 0. -1.
        -11    1    3    3    0    0 -0.13494705653E+02 -0.60295236109E+00  0.74318812996E+01  0.15417635750E+02  0.51100000000E-03 0.  1.
        -12    1    3    3    0    0 -0.10247452075E+01 -0.15495469614E+02  0.13467587129E+02  0.20555670371E+02  0.00000000000E+00 0.  1.
</event>
<event>
 7    1  0.5837204E-012  0.5930198E+02  0.7816164E-02  0.1266605E+00
        -11   -1    0    0    0    0  0.00000000000E+00  0.00000000000E+00  0.45593999997E+02  0.45594000000E+02  0.51100000000E-03 0.  1.
         11   -1    0    0    0    0 -0.00000000000E+00 -0.00000000000E+00 -0.45593999997E+02  0.45594000000E+02  0.51100000000E-03 0. -1.
    9900012    2    1    2    0    0 -0.25642937897E+02 -0.16036353707E+02  0.10099185811E+02  0.59301977071E+02  0.50000060263E+02 0.  0.
         12    1    1    2    0    0  0.25642937897E+02  0.16036353707E+02 -0.10099185811E+02  0.31886022929E+02  0.00000000000E+00 0. -1.
         11    1    3    3    0    0 -0.19470770801E+02  0.10289820786E+02  0.49532076575E+01  0.22572673606E+02  0.51100000000E-03 0. -1.
        -11    1    3    3    0    0 -0.13727288106E+01 -0.12284046018E+02  0.14603375697E+02  0.19132191535E+02  0.51100000000E-03 0.  1.
         12    1    3    3    0    0 -0.47994382852E+01 -0.14042128475E+02 -0.94573975430E+01  0.17597111929E+02  0.00000000000E+00 0. -1.
</event>
<event>
 7    1  0.5837204E-012  0.5930196E+02  0.7816164E-02  0.1266605E+00
        -11   -1    0    0    0    0  0.00000000000E+00  0.00000000000E+00  0.45593999997E+02  0.45594000000E+02  0.51100000000E-03 0.  1.
         11   -1    0    0    0    0 -0.00000000000E+00 -0.00000000000E+00 -0.45593999997E+02  0.45594000000E+02  0.51100000000E-03 0. -1.
    9900012    2    1    2    0    0 -0.16461226743E+02  0.21337599252E+01  0.27224891904E+02  0.59301958281E+02  0.50000025995E+02 0.  0.
         12    1    1    2    0    0  0.16461226743E+02 -0.21337599252E+01 -0.27224891904E+02  0.31886041719E+02  0.00000000000E+00 0. -1.
         11    1    3    3    0    0  0.89779266138E+01  0.17514633353E+01  0.69699764122E+01  0.11500059197E+02  0.51100000000E-03 0. -1.
        -11    1    3    3    0    0 -0.19439623935E+02 -0.19116991923E+01  0.30197830525E+02  0.35964740249E+02  0.51100000000E-03 0.  1.
         12    1    3    3    0    0 -0.59995294214E+01  0.22939957822E+01 -0.99429150328E+01  0.11837158835E+02  0.00000000000E+00 0. -1.
</event>
<event>
 7    1  0.5837204E-012  0.5930198E+02  0.7816164E-02  0.1266605E+00
        -11   -1    0    0    0    0  0.00000000000E+00  0.00000000000E+00  0.45593999997E+02  0.45594000000E+02  0.51100000000E-03 0. -1.
         11   -1    0    0    0    0 -0.00000000000E+00 -0.00000000000E+00 -0.45593999997E+02  0.45594000000E+02  0.51100000000E-03 0.  1.
    9900012    2    1    2    0    0  0.13095453333E+02  0.26752842391E+02  0.11380382218E+02  0.59301975265E+02  0.50000056969E+02 0.  0.
         12    1    1    2    0    0 -0.13095453333E+02 -0.26752842391E+02 -0.11380382218E+02  0.31886024735E+02  0.00000000000E+00 0. -1.
         11    1    3    3    0    0  0.11800500331E+02  0.69471541865E+00  0.13999473071E+02  0.18322654941E+02  0.51100000000E-03 0. -1.
        -11    1    3    3    0    0  0.10108079910E+02  0.24611936450E+02  0.73415703044E+01  0.27601075162E+02  0.51100000000E-03 0.  1.
         12    1    3    3    0    0 -0.88131269079E+01  0.14461905218E+01 -0.99606611572E+01  0.13378245162E+02  0.00000000000E+00 0. -1.
</event>
<event>
 7    1  0.5837204E-012  0.5930193E+02  0.7816164E-02  0.1266605E+00
        -11   -1    0    0    0    0  0.00000000000E+00  0.00000000000E+00  0.45593999997E+02  0.45594000000E+02  0.51100000000E-03 0. -1.
         11   -1    0    0    0    0 -0.00000000000E+00 -0.00000000000E+00 -0.45593999997E+02  0.45594000000E+02  0.51100000000E-03 0.  1.
    9900012    2    1    2    0    0  0.11594617016E+02  0.24221025158E+02 -0.17193841387E+02  0.59301931176E+02  0.49999976561E+02 0.  0.
         12    1    1    2    0    0 -0.11594617016E+02 -0.24221025158E+02  0.17193841387E+02  0.31886068824E+02  0.00000000000E+00 0. -1.
         11    1    3    3    0    0  0.14597060991E+02  0.14331024521E+02  0.32247464071E+01  0.20708728668E+02  0.51100000000E-03 0. -1.
        -11    1    3    3    0    0  0.13597610482E+02  0.35642090098E+00 -0.87835294170E+01  0.16191739744E+02  0.51100000000E-03 0.  1.
        -12    1    3    3    0    0 -0.16600054456E+02  0.95335797361E+01 -0.11635058377E+02  0.22401462764E+02  0.00000000000E+00 0.  1.
</event>
<event>
 7    1  0.5837204E-012  0.5930192E+02  0.7816164E-02  0.1266605E+00
        -11   -1    0    0    0    0  0.00000000000E+00  0.00000000000E+00  0.45593999997E+02  0.45594000000E+02  0.51100000000E-03 0.  1.
         11   -1    0    0    0    0 -0.00000000000E+00 -0.00000000000E+00 -0.45593999997E+02  0.45594000000E+02  0.51100000000E-03 0. -1.
    9900012    2    1    2    0    0 -0.79899646282E+01  0.39527670739E+01  0.30614669228E+02  0.59301923505E+02  0.49999962571E+02 0.  0.
         12    1    1    2    0    0  0.79899646282E+01 -0.39527670739E+01 -0.30614669228E+02  0.31886076495E+02  0.00000000000E+00 0. -1.
         11    1    3    3    0    0 -0.24528889600E+01 -0.68859776033E+01 -0.16817238560E+01  0.75007697733E+01  0.51100000000E-03 0. -1.
        -11    1    3    3    0    0  0.16686792633E+01  0.23954165792E+02  0.12759795704E+02  0.27191890996E+02  0.51100000000E-03 0.  1.
         12    1    3    3    0    0 -0.72057549316E+01 -0.13115421115E+02  0.19536597381E+02  0.24609262735E+02  0.00000000000E+00 0. -1.
</event>
<event>
 7    1  0.5837204E-012  0.5930194E+02  0.7816164E-02  0.1266605E+00
        -11   -1    0    0    0    0  0.00000000000E+00  0.00000000000E+00  0.45593999997E+02  0.45594000000E+02  0.51100000000E-03 0.  1.
         11   -1    0    0    0    0 -0.00000000000E+00 -0.00000000000E+00 -0.45593999997E+02  0.45594000000E+02  0.51100000000E-03 0. -1.
    9900012    2    1    2    0    0  0.17846570168E+02 -0.69770912969E+01  0.25486096486E+02  0.59301937467E+02  0.49999988035E+02 0.  0.
         12    1    1    2    0    0 -0.17846570168E+02  0.69770912969E+01 -0.25486096486E+02  0.31886062533E+02  0.00000000000E+00 0. -1.
         11    1    3    3    0    0  0.72071396831E+01  0.85790804146E+01 -0.39798877910E+00  0.11211684909E+02  0.51100000000E-03 0. -1.
        -11    1    3    3    0    0  0.18718366536E+02 -0.21099309408E+02  0.25898996841E+02  0.38292507634E+02  0.51100000000E-03 0.  1.
         12    1    3    3    0    0 -0.80789360511E+01  0.55431376964E+01 -0.14911575685E-01  0.97977449239E+01  0.00000000000E+00 0. -1.
</event>
<event>
 7    1  0.5837204E-012  0.5930193E+02  0.7816164E-02  0.1266605E+00
        -11   -1    0    0    0    0  0.00000000000E+00  0.00000000000E+00  0.45593999997E+02  0.45594000000E+02  0.51100000000E-03 0. -1.
         11   -1    0    0    0    0 -0.00000000000E+00 -0.00000000000E+00 -0.45593999997E+02  0.45594000000E+02  0.51100000000E-03 0.  1.
    9900012    2    1    2    0    0 -0.20436563040E+02 -0.84243951039E+01 -0.22980376118E+02  0.59301933634E+02  0.49999981044E+02 0.  0.
         12    1    1    2    0    0  0.20436563040E+02  0.84243951039E+01  0.22980376118E+02  0.31886066366E+02  0.00000000000E+00 0. -1.
         11    1    3    3    0    0 -0.14250023238E+02  0.12824171317E+02  0.35665862277E+00  0.19174194582E+02  0.51100000000E-03 0. -1.
        -11    1    3    3    0    0  0.49884073549E+01  0.28580530649E+01 -0.64708519577E+01  0.86558997556E+01  0.51100000000E-03 0.  1.
        -12    1    3    3    0    0 -0.11174947157E+02 -0.24106619486E+02 -0.16866182783E+02  0.31471839296E+02  0.00000000000E+00 0.  1.
</event>
<event>
 7    1  0.5837204E-012  0.5930184E+02  0.7816164E-02  0.1266605E+00
        -11   -1    0    0    0    0  0.00000000000E+00  0.00000000000E+00  0.45593999997E+02  0.45594000000E+02  0.51100000000E-03 0.  1.
         11   -1    0    0    0    0 -0.00000000000E+00 -0.00000000000E+00 -0.45593999997E+02  0.45594000000E+02  0.51100000000E-03 0. -1.
    9900012    2    1    2    0    0  0.31336571837E+02 -0.56250960340E+01  0.17619424989E+01  0.59301844991E+02  0.49999819381E+02 0.  0.
         12    1    1    2    0    0 -0.31336571837E+02  0.56250960340E+01 -0.17619424989E+01  0.31886155009E+02  0.00000000000E+00 0. -1.
         11    1    3    3    0    0 -0.64335172266E+01  0.52620317165E+00 -0.61574001426E+01  0.89207965149E+01  0.51100000000E-03 0. -1.
        -11    1    3    3    0    0  0.18241696788E+01 -0.83853545823E+01 -0.73151198430E+01  0.11276202600E+02  0.51100000000E-03 0.  1.
        -12    1    3    3    0    0  0.35945919385E+02  0.22340553766E+01  0.15234462485E+02  0.39104845877E+02  0.00000000000E+00 0.  1.
</event>
<event>
 7    1  0.5837204E-012  0.5930195E+02  0.7816164E-02  0.1266605E+00
        -11   -1    0    0    0    0  0.00000000000E+00  0.00000000000E+00  0.45593999997E+02  0.45594000000E+02  0.51100000000E-03 0.  1.
         11   -1    0    0    0    0 -0.00000000000E+00 -0.00000000000E+00 -0.45593999997E+02  0.45594000000E+02  0.51100000000E-03 0. -1.
    9900012    2    1    2    0    0 -0.17434073421E+02 -0.25805831371E+02  0.68434349346E+01  0.59301945830E+02  0.50000003287E+02 0.  0.
         12    1    1    2    0    0  0.17434073421E+02  0.25805831371E+02 -0.68434349346E+01  0.31886054170E+02  0.00000000000E+00 0. -1.
         11    1    3    3    0    0  0.31398621549E+01 -0.29627640987E+02 -0.10271668347E+01  0.29811254868E+02  0.51100000000E-03 0.  1.
        -11    1    3    3    0    0 -0.24828143809E+01 -0.55748525637E+01  0.67123644387E+01  0.90718898239E+01  0.51100000000E-03 0. -1.
         12    1    3    3    0    0 -0.18091121195E+02  0.93966621800E+01  0.11582373306E+01  0.20418801139E+02  0.00000000000E+00 0. -1.
</event>
<event>
 7    1  0.5837204E-012  0.5930192E+02  0.7816164E-02  0.1266605E+00
        -11   -1    0    0    0    0  0.00000000000E+00  0.00000000000E+00  0.45593999997E+02  0.45594000000E+02  0.51100000000E-03 0.  1.
         11   -1    0    0    0    0 -0.00000000000E+00 -0.00000000000E+00 -0.45593999997E+02  0.45594000000E+02  0.51100000000E-03 0. -1.
    9900012    2    1    2    0    0 -0.41014383096E+01 -0.31618431086E+02 -0.41883404020E+00  0.59301915222E+02  0.49999947465E+02 0.  0.
         12    1    1    2    0    0  0.41014383096E+01  0.31618431086E+02  0.41883404020E+00  0.31886084778E+02  0.00000000000E+00 0. -1.
         11    1    3    3    0    0 -0.37964000046E+01 -0.66947369287E+01 -0.16949184397E+02  0.18614698696E+02  0.51100000000E-03 0. -1.
        -11    1    3    3    0    0 -0.63224005154E+01  0.41006576467E+01  0.34412529850E+01  0.82843444991E+01  0.51100000000E-03 0.  1.
        -12    1    3    3    0    0  0.60173622104E+01 -0.29024351804E+02  0.13089097372E+02  0.32402872027E+02  0.00000000000E+00 0.  1.
</event>
<event>
 7    1  0.5837204E-012  0.5930194E+02  0.7816164E-02  0.1266605E+00
        -11   -1    0    0    0    0  0.00000000000E+00  0.00000000000E+00  0.45593999997E+02  0.45594000000E+02  0.51100000000E-03 0. -1.
         11   -1    0    0    0    0 -0.00000000000E+00 -0.00000000000E+00 -0.45593999997E+02  0.45594000000E+02  0.51100000000E-03 0.  1.
    9900012    2    1    2    0    0 -0.16893368681E+02 -0.26818693293E+02  0.34774738195E+01  0.59301936594E+02  0.49999986443E+02 0.  0.
         12    1    1    2    0    0  0.16893368681E+02  0.26818693293E+02 -0.34774738195E+01  0.31886063406E+02  0.00000000000E+00 0. -1.
         11    1    3    3    0    0  0.63084838052E+01 -0.89224232565E+01 -0.38039150236E+01  0.11570495860E+02  0.51100000000E-03 0. -1.
        -11    1    3    3    0    0  0.24768360084E+01  0.65669217745E+01 -0.66107339032E+01  0.96416275184E+01  0.51100000000E-03 0.  1.
         12    1    3    3    0    0 -0.25678688494E+02 -0.24463191811E+02  0.13892122746E+02  0.38089813215E+02  0.00000000000E+00 0. -1.
</event>
<event>
 7    1  0.5837204E-012  0.5930194E+02  0.7816164E-02  0.1266605E+00
        -11   -1    0    0    0    0  0.00000000000E+00  0.00000000000E+00  0.45593999997E+02  0.45594000000E+02  0.51100000000E-03 0.  1.
         11   -1    0    0    0    0 -0.00000000000E+00 -0.00000000000E+00 -0.45593999997E+02  0.45594000000E+02  0.51100000000E-03 0. -1.
    9900012    2    1    2    0    0 -0.30727653764E+02 -0.38576300168E+01  0.75928234210E+01  0.59301937485E+02  0.49999988068E+02 0.  0.
         12    1    1    2    0    0  0.30727653764E+02  0.38576300168E+01 -0.75928234210E+01  0.31886062515E+02  0.00000000000E+00 0. -1.
         11    1    3    3    0    0  0.81002668835E+01 -0.44499550245E+01  0.11296321830E+02  0.14595318100E+02  0.51100000000E-03 0. -1.
        -11    1    3    3    0    0 -0.24436225295E+01 -0.67911151481E+01  0.99098938021E+00  0.72850941129E+01  0.51100000000E-03 0.  1.
        -12    1    3    3    0    0 -0.36384298118E+02  0.73834401558E+01 -0.46944877891E+01  0.37421525272E+02  0.00000000000E+00 0.  1.
</event>
<event>
 7    1  0.5837204E-012  0.5930196E+02  0.7816164E-02  0.1266605E+00
        -11   -1    0    0    0    0  0.00000000000E+00  0.00000000000E+00  0.45593999997E+02  0.45594000000E+02  0.51100000000E-03 0.  1.
         11   -1    0    0    0    0 -0.00000000000E+00 -0.00000000000E+00 -0.45593999997E+02  0.45594000000E+02  0.51100000000E-03 0. -1.
    9900012    2    1    2    0    0 -0.13815770828E+01  0.15144695962E+02  0.28025866042E+02  0.59301956996E+02  0.50000023652E+02 0.  0.
         12    1    1    2    0    0  0.13815770828E+01 -0.15144695962E+02 -0.28025866042E+02  0.31886043004E+02  0.00000000000E+00 0. -1.
         11    1    3    3    0    0  0.54559376758E+01 -0.14039392557E+01 -0.53293952358E+00  0.56588272772E+01  0.51100000000E-03 0. -1.
        -11    1    3    3    0    0 -0.11394589196E+02  0.27737038847E+02  0.28776362349E+02  0.41560305788E+02  0.51100000000E-03 0.  1.
         12    1    3    3    0    0  0.45570744376E+01 -0.11188403629E+02 -0.21755678300E+00  0.12082823931E+02  0.00000000000E+00 0. -1.
</event>
<event>
 7    1  0.5837204E-012  0.5930193E+02  0.7816164E-02  0.1266605E+00
        -11   -1    0    0    0    0  0.00000000000E+00  0.00000000000E+00  0.45593999997E+02  0.45594000000E+02  0.51100000000E-03 0.  1.
         11   -1    0    0    0    0 -0.00000000000E+00 -0.00000000000E+00 -0.45593999997E+02  0.45594000000E+02  0.51100000000E-03 0. -1.
    9900012    2    1    2    0    0  0.29116944736E+02  0.11234849507E+02  0.65347667774E+01  0.59301929514E+02  0.49999973531E+02 0.  0.
         12    1    1    2    0    0 -0.29116944736E+02 -0.11234849507E+02 -0.65347667774E+01  0.31886070486E+02  0.00000000000E+00 0. -1.
         11    1    3    3    0    0  0.84703693195E+01  0.59853053153E+01  0.84010842132E+01  0.13347256360E+02  0.51100000000E-03 0. -1.
        -11    1    3    3    0    0  0.22888478787E+02 -0.44744829904E+01  0.14007270849E+02  0.27204909412E+02  0.51100000000E-03 0.  1.
         12    1    3    3    0    0 -0.22419033704E+01  0.97240271819E+01 -0.15873588285E+02  0.18749763743E+02  0.00000000000E+00 0. -1.
</event>
<event>
 7    1  0.5837204E-012  0.5930196E+02  0.7816164E-02  0.1266605E+00
        -11   -1    0    0    0    0  0.00000000000E+00  0.00000000000E+00  0.45593999997E+02  0.45594000000E+02  0.51100000000E-03 0.  1.
         11   -1    0    0    0    0 -0.00000000000E+00 -0.00000000000E+00 -0.45593999997E+02  0.45594000000E+02  0.51100000000E-03 0. -1.
    9900012    2    1    2    0    0  0.57622689745E+01 -0.30694413535E+02 -0.64318769780E+01  0.59301955914E+02  0.50000021677E+02 0.  0.
         12    1    1    2    0    0 -0.57622689745E+01  0.30694413535E+02  0.64318769780E+01  0.31886044086E+02  0.00000000000E+00 0. -1.
         11    1    3    3    0    0 -0.33959832491E+01  0.18291503105E+01 -0.29803847980E+01  0.48745447882E+01  0.51100000000E-03 0. -1.
        -11    1    3    3    0    0  0.16754889795E+02 -0.36262461285E+01 -0.14618710180E+02  0.22529595660E+02  0.51100000000E-03 0.  1.
        -12    1    3    3    0    0 -0.75966375712E+01 -0.28897317717E+02  0.11167218000E+02  0.31897815466E+02  0.00000000000E+00 0.  1.
</event>
<event>
 7    1  0.5837204E-012  0.5930199E+02  0.7816164E-02  0.1266605E+00
        -11   -1    0    0    0    0  0.00000000000E+00  0.00000000000E+00  0.45593999997E+02  0.45594000000E+02  0.51100000000E-03 0. -1.
         11   -1    0    0    0    0 -0.00000000000E+00 -0.00000000000E+00 -0.45593999997E+02  0.45594000000E+02  0.51100000000E-03 0.  1.
    9900012    2    1    2    0    0 -0.85219176307E+01 -0.27674415345E+02 -0.13349966502E+02  0.59301985034E+02  0.50000074786E+02 0.  0.
         12    1    1    2    0    0  0.85219176307E+01  0.27674415345E+02  0.13349966502E+02  0.31886014966E+02  0.00000000000E+00 0. -1.
         11    1    3    3    0    0 -0.90981773898E+01 -0.21884212533E+02 -0.20780411286E+01  0.23791045484E+02  0.51100000000E-03 0. -1.
        -11    1    3    3    0    0 -0.12378954119E+02 -0.23888566584E+01  0.57452734727E+01  0.13854721533E+02  0.51100000000E-03 0.  1.
        -12    1    3    3    0    0  0.12955213878E+02 -0.34013461532E+01 -0.17017198847E+02  0.21656218018E+02  0.00000000000E+00 0.  1.
</event>
<event>
 7    1  0.5837204E-012  0.5930196E+02  0.7816164E-02  0.1266605E+00
        -11   -1    0    0    0    0  0.00000000000E+00  0.00000000000E+00  0.45593999997E+02  0.45594000000E+02  0.51100000000E-03 0. -1.
         11   -1    0    0    0    0 -0.00000000000E+00 -0.00000000000E+00 -0.45593999997E+02  0.45594000000E+02  0.51100000000E-03 0.  1.
    9900012    2    1    2    0    0  0.71461831878E+01 -0.20551258135E+02 -0.23308738736E+02  0.59301961573E+02  0.50000031999E+02 0.  0.
         12    1    1    2    0    0 -0.71461831878E+01  0.20551258135E+02  0.23308738736E+02  0.31886038427E+02  0.00000000000E+00 0. -1.
         11    1    3    3    0    0 -0.60686838324E+01 -0.27945148438E+01 -0.60603907243E+01  0.90203421588E+01  0.51100000000E-03 0. -1.
        -11    1    3    3    0    0 -0.49334710321E+01  0.94011546896E+01 -0.13836225595E+02  0.17440240391E+02  0.51100000000E-03 0.  1.
         12    1    3    3    0    0  0.18148338052E+02 -0.27157897981E+02 -0.34121224167E+01  0.32841379023E+02  0.00000000000E+00 0. -1.
</event>
<event>
 7    1  0.5837204E-012  0.5930193E+02  0.7816164E-02  0.1266605E+00
        -11   -1    0    0    0    0  0.00000000000E+00  0.00000000000E+00  0.45593999997E+02  0.45594000000E+02  0.51100000000E-03 0.  1.
         11   -1    0    0    0    0 -0.00000000000E+00 -0.00000000000E+00 -0.45593999997E+02  0.45594000000E+02  0.51100000000E-03 0. -1.
    9900012    2    1    2    0    0  0.13944141031E+02  0.81891467361E+01  0.27481267859E+02  0.59301932878E+02  0.49999979666E+02 0.  0.
         12    1    1    2    0    0 -0.13944141031E+02 -0.81891467361E+01 -0.27481267859E+02  0.31886067122E+02  0.00000000000E+00 0. -1.
         11    1    3    3    0    0 -0.15507235590E+01 -0.90743703226E+00  0.57692822770E+00  0.18870696768E+01  0.51100000000E-03 0. -1.
        -11    1    3    3    0    0  0.68589484858E+01  0.71488655467E+00  0.39439466754E+02  0.40037829302E+02  0.51100000000E-03 0.  1.
         12    1    3    3    0    0  0.86359161043E+01  0.83816972137E+01 -0.12535127123E+02  0.17377033899E+02  0.00000000000E+00 0. -1.
</event>
<event>
 7    1  0.5837204E-012  0.5930221E+02  0.7816164E-02  0.1266604E+00
        -11   -1    0    0    0    0  0.00000000000E+00  0.00000000000E+00  0.45593999997E+02  0.45594000000E+02  0.51100000000E-03 0. -1.
         11   -1    0    0    0    0 -0.00000000000E+00 -0.00000000000E+00 -0.45593999997E+02  0.45594000000E+02  0.51100000000E-03 0.  1.
    9900012    2    1    2    0    0 -0.14975735186E+02  0.22307681672E+02 -0.17169684898E+02  0.59302213426E+02  0.50000491315E+02 0.  0.
         12    1    1    2    0    0  0.14975735186E+02 -0.22307681672E+02  0.17169684898E+02  0.31885786574E+02  0.00000000000E+00 0. -1.
         11    1    3    3    0    0 -0.50160539990E+01 -0.22407257864E+01  0.36007942932E+01  0.65686657377E+01  0.51100000000E-03 0. -1.
        -11    1    3    3    0    0  0.89295576292E+01  0.16377262278E+02  0.54193164226E+01  0.19424744784E+02  0.51100000000E-03 0.  1.
        -12    1    3    3    0    0 -0.18889238816E+02  0.81711451804E+01 -0.26189795614E+02  0.33308802904E+02  0.00000000000E+00 0.  1.
</event>
<event>
 7    1  0.5837204E-012  0.5930196E+02  0.7816164E-02  0.1266605E+00
        -11   -1    0    0    0    0  0.00000000000E+00  0.00000000000E+00  0.45593999997E+02  0.45594000000E+02  0.51100000000E-03 0. -1.
         11   -1    0    0    0    0 -0.00000000000E+00 -0.00000000000E+00 -0.45593999997E+02  0.45594000000E+02  0.51100000000E-03 0.  1.
    9900012    2    1    2    0    0  0.56149624147E+01  0.30914405641E+02 -0.54305808715E+01  0.59301960929E+02  0.50000030824E+02 0.  0.
         12    1    1    2    0    0 -0.56149624147E+01 -0.30914405641E+02  0.54305808715E+01  0.31886039071E+02  0.00000000000E+00 0. -1.
         11    1    3    3    0    0  0.17581400253E+01 -0.53694635256E+01  0.11320167027E+02  0.12651813177E+02  0.51100000000E-03 0. -1.
        -11    1    3    3    0    0  0.85173941050E+00  0.61682457852E+00 -0.10210009740E+02  0.10264026098E+02  0.51100000000E-03 0.  1.
         12    1    3    3    0    0  0.30050829789E+01  0.35667044588E+02 -0.65407381577E+01  0.36386121654E+02  0.00000000000E+00 0. -1.
</event>
<event>
 7    1  0.5837204E-012  0.5930195E+02  0.7816164E-02  0.1266605E+00
        -11   -1    0    0    0    0  0.00000000000E+00  0.00000000000E+00  0.45593999997E+02  0.45594000000E+02  0.51100000000E-03 0. -1.
         11   -1    0    0    0    0 -0.00000000000E+00 -0.00000000000E+00 -0.45593999997E+02  0.45594000000E+02  0.51100000000E-03 0.  1.
    9900012    2    1    2    0    0  0.21689653210E+02  0.75282034808E+01 -0.22127030870E+02  0.59301946636E+02  0.50000004757E+02 0.  0.
         12    1    1    2    0    0 -0.21689653210E+02 -0.75282034808E+01  0.22127030870E+02  0.31886053364E+02  0.00000000000E+00 0. -1.
         11    1    3    3    0    0  0.10235800354E+02 -0.39592510372E+01 -0.13346775317E+02  0.17279574338E+02  0.51100000000E-03 0. -1.
        -11    1    3    3    0    0 -0.16635752775E+01 -0.53456045098E+01 -0.17944340336E+02  0.18797401965E+02  0.51100000000E-03 0.  1.
         12    1    3    3    0    0  0.13117428133E+02  0.16833059028E+02  0.91640847835E+01  0.23224970333E+02  0.00000000000E+00 0. -1.
</event>
<event>
 7    1  0.5837204E-012  0.5930192E+02  0.7816164E-02  0.1266605E+00
        -11   -1    0    0    0    0  0.00000000000E+00  0.00000000000E+00  0.45593999997E+02  0.45594000000E+02  0.51100000000E-03 0.  1.
         11   -1    0    0    0    0 -0.00000000000E+00 -0.00000000000E+00 -0.45593999997E+02  0.45594000000E+02  0.51100000000E-03 0. -1.
    9900012    2    1    2    0    0  0.47981430109E+01  0.68453444400E+01  0.30770787446E+02  0.59301917191E+02  0.49999951055E+02 0.  0.
         12    1    1    2    0    0 -0.47981430109E+01 -0.68453444400E+01 -0.30770787446E+02  0.31886082809E+02  0.00000000000E+00 0. -1.
         11    1    3    3    0    0 -0.33331612313E+01  0.68514361912E+01 -0.47232560215E+01  0.89644458491E+01  0.51100000000E-03 0. -1.
        -11    1    3    3    0    0 -0.73915601292E+01  0.11635488889E+02  0.60014919252E+01  0.15034549159E+02  0.51100000000E-03 0.  1.
        -12    1    3    3    0    0  0.15522864371E+02 -0.11641580640E+02  0.29492551543E+02  0.35302922182E+02  0.00000000000E+00 0.  1.
</event>
<event>
 7    1  0.5837204E-012  0.5930168E+02  0.7816164E-02  0.1266606E+00
        -11   -1    0    0    0    0  0.00000000000E+00  0.00000000000E+00  0.45593999997E+02  0.45594000000E+02  0.51100000000E-03 0.  1.
         11   -1    0    0    0    0 -0.00000000000E+00 -0.00000000000E+00 -0.45593999997E+02  0.45594000000E+02  0.51100000000E-03 0. -1.
    9900012    2    1    2    0    0 -0.26113461875E+02 -0.14916392074E+02  0.10598386301E+02  0.59301679488E+02  0.49999517541E+02 0.  0.
         12    1    1    2    0    0  0.26113461875E+02  0.14916392074E+02 -0.10598386301E+02  0.31886320512E+02  0.00000000000E+00 0. -1.
         11    1    3    3    0    0 -0.16312963560E+02 -0.22924008122E+01  0.77728026230E+00  0.16491575015E+02  0.51100000000E-03 0. -1.
        -11    1    3    3    0    0 -0.23478579636E+02 -0.12269228332E+02  0.11772218675E+02  0.28989011684E+02  0.51100000000E-03 0.  1.
         12    1    3    3    0    0  0.13678081322E+02 -0.35476292974E+00 -0.19511126361E+01  0.13821092790E+02  0.00000000000E+00 0. -1.
</event>
<event>
 7    1  0.5837204E-012  0.5930194E+02  0.7816164E-02  0.1266605E+00
        -11   -1    0    0    0    0  0.00000000000E+00  0.00000000000E+00  0.45593999997E+02  0.45594000000E+02  0.51100000000E-03 0.  1.
         11   -1    0    0    0    0 -0.00000000000E+00 -0.00000000000E+00 -0.45593999997E+02  0.45594000000E+02  0.51100000000E-03 0. -1.
    9900012    2    1    2    0    0 -0.62786249542E+01 -0.19052744325E+02  0.24784932320E+02  0.59301936151E+02  0.49999985636E+02 0.  0.
         12    1    1    2    0    0  0.62786249542E+01  0.19052744325E+02 -0.24784932320E+02  0.31886063849E+02  0.00000000000E+00 0. -1.
         11    1    3    3    0    0 -0.15196548999E+02  0.35460751137E-01  0.52815952438E+01  0.16088244390E+02  0.51100000000E-03 0. -1.
        -11    1    3    3    0    0 -0.87457619761E+01 -0.50189368045E+01  0.17937414425E+02  0.20577388457E+02  0.51100000000E-03 0.  1.
        -12    1    3    3    0    0  0.17663686021E+02 -0.14069268272E+02  0.15659226516E+01  0.22636303305E+02  0.00000000000E+00 0.  1.
</event>
<event>
 7    1  0.5837204E-012  0.5930193E+02  0.7816164E-02  0.1266605E+00
        -11   -1    0    0    0    0  0.00000000000E+00  0.00000000000E+00  0.45593999997E+02  0.45594000000E+02  0.51100000000E-03 0.  1.
         11   -1    0    0    0    0 -0.00000000000E+00 -0.00000000000E+00 -0.45593999997E+02  0.45594000000E+02  0.51100000000E-03 0. -1.
    9900012    2    1    2    0    0 -0.20733647565E+02 -0.12590848449E+02  0.20695604038E+02  0.59301927296E+02  0.49999969485E+02 0.  0.
         12    1    1    2    0    0  0.20733647565E+02  0.12590848449E+02 -0.20695604038E+02  0.31886072704E+02  0.00000000000E+00 0. -1.
         11    1    3    3    0    0 -0.76961075517E+01 -0.55241128257E+01 -0.74323349497E+01  0.12040992360E+02  0.51100000000E-03 0. -1.
        -11    1    3    3    0    0 -0.17390874868E+02 -0.18569756638E+02  0.21379595052E+02  0.33231994751E+02  0.51100000000E-03 0.  1.
        -12    1    3    3    0    0  0.43533348548E+01  0.11503021015E+02  0.67483439357E+01  0.14028940185E+02  0.00000000000E+00 0.  1.
</event>
<event>
 7    1  0.5837204E-012  0.5930186E+02  0.7816164E-02  0.1266605E+00
        -11   -1    0    0    0    0  0.00000000000E+00  0.00000000000E+00  0.45593999997E+02  0.45594000000E+02  0.51100000000E-03 0.  1.
         11   -1    0    0    0    0 -0.00000000000E+00 -0.00000000000E+00 -0.45593999997E+02  0.45594000000E+02  0.51100000000E-03 0. -1.
    9900012    2    1    2    0    0 -0.42617319494E+01 -0.21870852095E+02  0.22808539368E+02  0.59301858831E+02  0.49999844621E+02 0.  0.
         12    1    1    2    0    0  0.42617319494E+01  0.21870852095E+02 -0.22808539368E+02  0.31886141169E+02  0.00000000000E+00 0. -1.
         11    1    3    3    0    0  0.14504568216E+02  0.38319413217E+01  0.65214306266E+01  0.16358341331E+02  0.51100000000E-03 0. -1.
        -11    1    3    3    0    0  0.21892044986E+01 -0.44778930789E+01 -0.43970199223E+01  0.66466478184E+01  0.51100000000E-03 0.  1.
        -12    1    3    3    0    0 -0.20955504664E+02 -0.21224900338E+02  0.20684128664E+02  0.36296869681E+02  0.00000000000E+00 0.  1.
</event>
<event>
 7    1  0.5837204E-012  0.5930192E+02  0.7816164E-02  0.1266605E+00
        -11   -1    0    0    0    0  0.00000000000E+00  0.00000000000E+00  0.45593999997E+02  0.45594000000E+02  0.51100000000E-03 0.  1.
         11   -1    0    0    0    0 -0.00000000000E+00 -0.00000000000E+00 -0.45593999997E+02  0.45594000000E+02  0.51100000000E-03 0. -1.
    9900012    2    1    2    0    0  0.41092007533E+01  0.30811438532E+02  0.71057801221E+01  0.59301915475E+02  0.49999947926E+02 0.  0.
         12    1    1    2    0    0 -0.41092007533E+01 -0.30811438532E+02 -0.71057801221E+01  0.31886084525E+02  0.00000000000E+00 0. -1.
         11    1    3    3    0    0  0.12788620966E+02  0.22596440575E+02  0.24378109556E+01  0.26078552018E+02  0.51100000000E-03 0. -1.
        -11    1    3    3    0    0 -0.10739414147E+02  0.17113289845E+02 -0.40399366606E+01  0.20603902397E+02  0.51100000000E-03 0.  1.
        -12    1    3    3    0    0  0.20599939340E+01 -0.88982918875E+01  0.87079058272E+01  0.12619461059E+02  0.00000000000E+00 0.  1.
</event>
<event>
 7    1  0.5837204E-012  0.5930213E+02  0.7816164E-02  0.1266604E+00
        -11   -1    0    0    0    0  0.00000000000E+00  0.00000000000E+00  0.45593999997E+02  0.45594000000E+02  0.51100000000E-03 0.  1.
         11   -1    0    0    0    0 -0.00000000000E+00 -0.00000000000E+00 -0.45593999997E+02  0.45594000000E+02  0.51100000000E-03 0. -1.
    9900012    2    1    2    0    0 -0.15322544337E+02 -0.21983189102E+02  0.17282005118E+02  0.59302130576E+02  0.50000340217E+02 0.  0.
         12    1    1    2    0    0  0.15322544337E+02  0.21983189102E+02 -0.17282005118E+02  0.31885869424E+02  0.00000000000E+00 0. -1.
         11    1    3    3    0    0 -0.53146328793E+01 -0.17203788330E+02  0.60171826978E+00  0.18016040649E+02  0.51100000000E-03 0. -1.
        -11    1    3    3    0    0  0.39825935599E+01 -0.17859994281E+02  0.10812557798E+02  0.21254454911E+02  0.51100000000E-03 0.  1.
         12    1    3    3    0    0 -0.13990505018E+02  0.13080593508E+02  0.58677290505E+01  0.20031635016E+02  0.00000000000E+00 0. -1.
</event>
<event>
 7    1  0.5837204E-012  0.5930193E+02  0.7816164E-02  0.1266605E+00
        -11   -1    0    0    0    0  0.00000000000E+00  0.00000000000E+00  0.45593999997E+02  0.45594000000E+02  0.51100000000E-03 0.  1.
         11   -1    0    0    0    0 -0.00000000000E+00 -0.00000000000E+00 -0.45593999997E+02  0.45594000000E+02  0.51100000000E-03 0. -1.
    9900012    2    1    2    0    0  0.29447099766E+02  0.11707413205E+02  0.35392569022E+01  0.59301928621E+02  0.49999971901E+02 0.  0.
         12    1    1    2    0    0 -0.29447099766E+02 -0.11707413205E+02 -0.35392569022E+01  0.31886071379E+02  0.00000000000E+00 0. -1.
         11    1    3    3    0    0  0.58122115121E+01 -0.84840443480E+01 -0.13709502539E+02  0.17138006631E+02  0.51100000000E-03 0. -1.
        -11    1    3    3    0    0  0.93134787105E+01 -0.33455126612E+01  0.47418964265E+00  0.99074818564E+01  0.51100000000E-03 0.  1.
        -12    1    3    3    0    0  0.14321409544E+02  0.23536970214E+02  0.16774569798E+02  0.32256440133E+02  0.00000000000E+00 0.  1.
</event>
<event>
 7    1  0.5837204E-012  0.5930182E+02  0.7816164E-02  0.1266605E+00
        -11   -1    0    0    0    0  0.00000000000E+00  0.00000000000E+00  0.45593999997E+02  0.45594000000E+02  0.51100000000E-03 0. -1.
         11   -1    0    0    0    0 -0.00000000000E+00 -0.00000000000E+00 -0.45593999997E+02  0.45594000000E+02  0.51100000000E-03 0.  1.
    9900012    2    1    2    0    0  0.62861349166E+01  0.91633784298E+01 -0.29887216934E+02  0.59301815962E+02  0.49999766439E+02 0.  0.
         12    1    1    2    0    0 -0.62861349166E+01 -0.91633784298E+01  0.29887216934E+02  0.31886184038E+02  0.00000000000E+00 0. -1.
         11    1    3    3    0    0  0.40748328575E+01 -0.72897834987E+01  0.47073223421E+01  0.95866620973E+01  0.51100000000E-03 0. -1.
        -11    1    3    3    0    0 -0.18355687499E+01 -0.93109940769E+01 -0.73831553748E+01  0.12023930592E+02  0.51100000000E-03 0.  1.
        -12    1    3    3    0    0  0.40468708090E+01  0.25764156005E+02 -0.27211383901E+02  0.37691223273E+02  0.00000000000E+00 0.  1.
</event>
<event>
 7    1  0.5837204E-012  0.5930193E+02  0.7816164E-02  0.1266605E+00
        -11   -1    0    0    0    0  0.00000000000E+00  0.00000000000E+00  0.45593999997E+02  0.45594000000E+02  0.51100000000E-03 0.  1.
         11   -1    0    0    0    0 -0.00000000000E+00 -0.00000000000E+00 -0.45593999997E+02  0.45594000000E+02  0.51100000000E-03 0. -1.
    9900012    2    1    2    0    0  0.21758473331E+02 -0.22720180613E+02 -0.52041891332E+01  0.59301931674E+02  0.49999977469E+02 0.  0.
         12    1    1    2    0    0 -0.21758473331E+02  0.22720180613E+02  0.52041891332E+01  0.31886068326E+02  0.00000000000E+00 0. -1.
         11    1    3    3    0    0  0.11943174284E+02 -0.13811198957E+02  0.50132318503E+01  0.18934654009E+02  0.51100000000E-03 0. -1.
        -11    1    3    3    0    0  0.43745153712E+01  0.87270518835E+01  0.93158872547E+01  0.13493834700E+02  0.51100000000E-03 0.  1.
         12    1    3    3    0    0  0.54407836751E+01 -0.17636033540E+02 -0.19533308238E+02  0.26873442964E+02  0.00000000000E+00 0. -1.
</event>
<event>
 7    1  0.5837204E-012  0.5930191E+02  0.7816164E-02  0.1266605E+00
        -11   -1    0    0    0    0  0.00000000000E+00  0.00000000000E+00  0.45593999997E+02  0.45594000000E+02  0.51100000000E-03 0.  1.
         11   -1    0    0    0    0 -0.00000000000E+00 -0.00000000000E+00 -0.45593999997E+02  0.45594000000E+02  0.51100000000E-03 0. -1.
    9900012    2    1    2    0    0 -0.68800965299E+01  0.34445536902E+01  0.30943852623E+02  0.59301910658E+02  0.49999939142E+02 0.  0.
         12    1    1    2    0    0  0.68800965299E+01 -0.34445536902E+01 -0.30943852623E+02  0.31886089342E+02  0.00000000000E+00 0. -1.
         11    1    3    3    0    0 -0.16315440932E+02 -0.29272739853E+01  0.83644930518E+01  0.18566833065E+02  0.51100000000E-03 0. -1.
        -11    1    3    3    0    0 -0.45544658066E+01 -0.19053433666E+01  0.23920640058E+02  0.24424793001E+02  0.51100000000E-03 0.  1.
        -12    1    3    3    0    0  0.13989810208E+02  0.82771710421E+01 -0.13412804867E+01  0.16310284592E+02  0.00000000000E+00 0.  1.
</event>
<event>
 7    1  0.5837204E-012  0.5930194E+02  0.7816164E-02  0.1266605E+00
        -11   -1    0    0    0    0  0.00000000000E+00  0.00000000000E+00  0.45593999997E+02  0.45594000000E+02  0.51100000000E-03 0. -1.
         11   -1    0    0    0    0 -0.00000000000E+00 -0.00000000000E+00 -0.45593999997E+02  0.45594000000E+02  0.51100000000E-03 0.  1.
    9900012    2    1    2    0    0  0.16641496520E+02 -0.19388424281E+02 -0.19075382292E+02  0.59301943296E+02  0.49999998665E+02 0.  0.
         12    1    1    2    0    0 -0.16641496520E+02  0.19388424281E+02  0.19075382292E+02  0.31886056704E+02  0.00000000000E+00 0. -1.
         11    1    3    3    0    0  0.42576289076E+00 -0.16191824935E+02  0.20633035954E+01  0.16328309489E+02  0.51100000000E-03 0. -1.
        -11    1    3    3    0    0 -0.12443574893E+01 -0.11022276923E+02 -0.21102247407E+02  0.23839963507E+02  0.51100000000E-03 0.  1.
        -12    1    3    3    0    0  0.17460091119E+02  0.78256775772E+01 -0.36438481230E-01  0.19133670301E+02  0.00000000000E+00 0.  1.
</event>
<event>
 7    1  0.5837204E-012  0.5930194E+02  0.7816164E-02  0.1266605E+00
        -11   -1    0    0    0    0  0.00000000000E+00  0.00000000000E+00  0.45593999997E+02  0.45594000000E+02  0.51100000000E-03 0.  1.
         11   -1    0    0    0    0 -0.00000000000E+00 -0.00000000000E+00 -0.45593999997E+02  0.45594000000E+02  0.51100000000E-03 0. -1.
    9900012    2    1    2    0    0  0.96357433761E+01  0.63655407029E+01  0.29721256419E+02  0.59301941259E+02  0.49999994951E+02 0.  0.
         12    1    1    2    0    0 -0.96357433761E+01 -0.63655407029E+01 -0.29721256419E+02  0.31886058741E+02  0.00000000000E+00 0. -1.
         11    1    3    3    0    0  0.13846228888E+02  0.28850210713E+01  0.42546681297E+01  0.14769685243E+02  0.51100000000E-03 0. -1.
        -11    1    3    3    0    0 -0.42797614144E+01 -0.13208479550E+02 -0.23617900408E+00  0.13886542787E+02  0.51100000000E-03 0.  1.
         12    1    3    3    0    0  0.69275902098E-01  0.16688999181E+02  0.25702767294E+02  0.30645713230E+02  0.00000000000E+00 0. -1.
</event>
<event>
 7    1  0.5837204E-012  0.5930193E+02  0.7816164E-02  0.1266605E+00
        -11   -1    0    0    0    0  0.00000000000E+00  0.00000000000E+00  0.45593999997E+02  0.45594000000E+02  0.51100000000E-03 0. -1.
         11   -1    0    0    0    0 -0.00000000000E+00 -0.00000000000E+00 -0.45593999997E+02  0.45594000000E+02  0.51100000000E-03 0.  1.
    9900012    2    1    2    0    0 -0.46547303240E+01  0.12823250746E+02 -0.28820464119E+02  0.59301930532E+02  0.49999975387E+02 0.  0.
         12    1    1    2    0    0  0.46547303240E+01 -0.12823250746E+02  0.28820464119E+02  0.31886069468E+02  0.00000000000E+00 0. -1.
         11    1    3    3    0    0  0.10031492349E+02  0.11336971148E+02 -0.13515956301E+02  0.20293812568E+02  0.51100000000E-03 0. -1.
        -11    1    3    3    0    0 -0.97555578643E+01  0.15946817153E+02 -0.20947192257E+01  0.18811159864E+02  0.51100000000E-03 0.  1.
         12    1    3    3    0    0 -0.49306648090E+01 -0.14460537555E+02 -0.13209788592E+02  0.20196958100E+02  0.00000000000E+00 0. -1.
</event>
<event>
 7    1  0.5837204E-012  0.5930194E+02  0.7816164E-02  0.1266605E+00
        -11   -1    0    0    0    0  0.00000000000E+00  0.00000000000E+00  0.45593999997E+02  0.45594000000E+02  0.51100000000E-03 0. -1.
         11   -1    0    0    0    0 -0.00000000000E+00 -0.00000000000E+00 -0.45593999997E+02  0.45594000000E+02  0.51100000000E-03 0.  1.
    9900012    2    1    2    0    0 -0.28635647448E+01  0.13822785272E+02 -0.28591103936E+02  0.59301943173E+02  0.49999998440E+02 0.  0.
         12    1    1    2    0    0  0.28635647448E+01 -0.13822785272E+02  0.28591103936E+02  0.31886056827E+02  0.00000000000E+00 0. -1.
         11    1    3    3    0    0 -0.10676100306E+02 -0.45124445135E+01  0.57001816642E+01  0.12916398279E+02  0.51100000000E-03 0. -1.
        -11    1    3    3    0    0 -0.47698447944E-01 -0.55342080409E+01 -0.31462225592E+01  0.63661959155E+01  0.51100000000E-03 0.  1.
        -12    1    3    3    0    0  0.78602340089E+01  0.23869437827E+02 -0.31145063041E+02  0.40019348978E+02  0.00000000000E+00 0.  1.
</event>
<event>
 7    1  0.5837204E-012  0.5930194E+02  0.7816164E-02  0.1266605E+00
        -11   -1    0    0    0    0  0.00000000000E+00  0.00000000000E+00  0.45593999997E+02  0.45594000000E+02  0.51100000000E-03 0.  1.
         11   -1    0    0    0    0 -0.00000000000E+00 -0.00000000000E+00 -0.45593999997E+02  0.45594000000E+02  0.51100000000E-03 0. -1.
    9900012    2    1    2    0    0  0.39547513100E+01  0.31484027458E+02 -0.31363224296E+01  0.59301944093E+02  0.50000000120E+02 0.  0.
         12    1    1    2    0    0 -0.39547513100E+01 -0.31484027458E+02  0.31363224296E+01  0.31886055907E+02  0.00000000000E+00 0. -1.
         11    1    3    3    0    0  0.26216659591E+01  0.24331174211E+01  0.25734298335E+01  0.44063288750E+01  0.51100000000E-03 0. -1.
        -11    1    3    3    0    0  0.62842104214E+01  0.52427814535E+01  0.18717071610E+02  0.20428089189E+02  0.51100000000E-03 0.  1.
         12    1    3    3    0    0 -0.49511250704E+01  0.23808128583E+02 -0.24426823873E+02  0.34467526030E+02  0.00000000000E+00 0. -1.
</event>
<event>
 7    1  0.5837204E-012  0.5930194E+02  0.7816164E-02  0.1266605E+00
        -11   -1    0    0    0    0  0.00000000000E+00  0.00000000000E+00  0.45593999997E+02  0.45594000000E+02  0.51100000000E-03 0. -1.
         11   -1    0    0    0    0 -0.00000000000E+00 -0.00000000000E+00 -0.45593999997E+02  0.45594000000E+02  0.51100000000E-03 0.  1.
    9900012    2    1    2    0    0  0.12697085826E+02  0.16922493960E+02 -0.23856528711E+02  0.59301941096E+02  0.49999994653E+02 0.  0.
         12    1    1    2    0    0 -0.12697085826E+02 -0.16922493960E+02  0.23856528711E+02  0.31886058904E+02  0.00000000000E+00 0. -1.
         11    1    3    3    0    0  0.21208645308E+02  0.85577732183E+01 -0.12418733455E+02  0.26024355115E+02  0.51100000000E-03 0.  1.
        -11    1    3    3    0    0  0.39480722991E+01  0.57528892976E+01  0.76372603044E+01  0.10344600300E+02  0.51100000000E-03 0. -1.
        -12    1    3    3    0    0 -0.12459631781E+02  0.26118314438E+01 -0.19075055560E+02  0.22932985681E+02  0.00000000000E+00 0.  1.
</event>
<event>
 7    1  0.5837204E-012  0.5930195E+02  0.7816164E-02  0.1266605E+00
        -11   -1    0    0    0    0  0.00000000000E+00  0.00000000000E+00  0.45593999997E+02  0.45594000000E+02  0.51100000000E-03 0. -1.
         11   -1    0    0    0    0 -0.00000000000E+00 -0.00000000000E+00 -0.45593999997E+02  0.45594000000E+02  0.51100000000E-03 0.  1.
    9900012    2    1    2    0    0  0.18913349933E+02 -0.19600656436E+01 -0.25596157156E+02  0.59301954083E+02  0.50000018339E+02 0.  0.
         12    1    1    2    0    0 -0.18913349933E+02  0.19600656436E+01  0.25596157156E+02  0.31886045917E+02  0.00000000000E+00 0. -1.
         11    1    3    3    0    0  0.53972940395E+01  0.16485570225E+02 -0.62547875701E+01  0.18439825823E+02  0.51100000000E-03 0. -1.
        -11    1    3    3    0    0  0.11054478306E+02  0.47745087074E+01 -0.10218909222E+02  0.15793148197E+02  0.51100000000E-03 0.  1.
         12    1    3    3    0    0  0.24615775875E+01 -0.23220144576E+02 -0.91224603642E+01  0.25068980064E+02  0.00000000000E+00 0. -1.
</event>
<event>
 7    1  0.5837204E-012  0.5930192E+02  0.7816164E-02  0.1266605E+00
        -11   -1    0    0    0    0  0.00000000000E+00  0.00000000000E+00  0.45593999997E+02  0.45594000000E+02  0.51100000000E-03 0.  1.
         11   -1    0    0    0    0 -0.00000000000E+00 -0.00000000000E+00 -0.45593999997E+02  0.45594000000E+02  0.51100000000E-03 0. -1.
    9900012    2    1    2    0    0 -0.15457235006E+01 -0.87964732751E+01  0.30609719883E+02  0.59301919110E+02  0.49999954556E+02 0.  0.
         12    1    1    2    0    0  0.15457235006E+01  0.87964732751E+01 -0.30609719883E+02  0.31886080890E+02  0.00000000000E+00 0. -1.
         11    1    3    3    0    0 -0.99758892763E+01 -0.52082521286E+00  0.10959471451E+02  0.14829013471E+02  0.51100000000E-03 0. -1.
        -11    1    3    3    0    0 -0.48864247270E+01 -0.19058920996E+01  0.27333006581E+02  0.27831687342E+02  0.51100000000E-03 0.  1.
         12    1    3    3    0    0  0.13316590503E+02 -0.63697559626E+01 -0.76827581490E+01  0.16641218297E+02  0.00000000000E+00 0. -1.
</event>
<event>
 7    1  0.5837204E-012  0.5930193E+02  0.7816164E-02  0.1266605E+00
        -11   -1    0    0    0    0  0.00000000000E+00  0.00000000000E+00  0.45593999997E+02  0.45594000000E+02  0.51100000000E-03 0.  1.
         11   -1    0    0    0    0 -0.00000000000E+00 -0.00000000000E+00 -0.45593999997E+02  0.45594000000E+02  0.51100000000E-03 0. -1.
    9900012    2    1    2    0    0 -0.49395316045E+01  0.25731808862E+02  0.18171303450E+02  0.59301933625E+02  0.49999981028E+02 0.  0.
         12    1    1    2    0    0  0.49395316045E+01 -0.25731808862E+02 -0.18171303450E+02  0.31886066375E+02  0.00000000000E+00 0. -1.
         11    1    3    3    0    0 -0.14988784740E+01  0.64716596779E+01 -0.89167151153E+01  0.11119209701E+02  0.51100000000E-03 0. -1.
        -11    1    3    3    0    0 -0.10185316326E+02  0.13383600663E+02 -0.27417318496E+01  0.17040496740E+02  0.51100000000E-03 0.  1.
         12    1    3    3    0    0  0.67446631953E+01  0.58765485213E+01  0.29829750415E+02  0.31142227184E+02  0.00000000000E+00 0. -1.
</event>
<event>
 7    1  0.5837204E-012  0.5930194E+02  0.7816164E-02  0.1266605E+00
        -11   -1    0    0    0    0  0.00000000000E+00  0.00000000000E+00  0.45593999997E+02  0.45594000000E+02  0.51100000000E-03 0.  1.
         11   -1    0    0    0    0 -0.00000000000E+00 -0.00000000000E+00 -0.45593999997E+02  0.45594000000E+02  0.51100000000E-03 0. -1.
    9900012    2    1    2    0    0 -0.23796487251E+02 -0.13750995929E+02  0.16166578557E+02  0.59301937892E+02  0.49999988809E+02 0.  0.
         12    1    1    2    0    0  0.23796487251E+02  0.13750995929E+02 -0.16166578557E+02  0.31886062108E+02  0.00000000000E+00 0. -1.
         11    1    3    3    0    0  0.23587703375E+01  0.72960723871E+01 -0.87283368410E+01  0.11618103720E+02  0.51100000000E-03 0. -1.
        -11    1    3    3    0    0  0.30333307072E+00 -0.93954272249E+01  0.13842618921E+02  0.16732727289E+02  0.51100000000E-03 0.  1.
        -12    1    3    3    0    0 -0.26458590659E+02 -0.11651641091E+02  0.11052296477E+02  0.30951106882E+02  0.00000000000E+00 0.  1.
</event>
<event>
 7    1  0.5837204E-012  0.5930196E+02  0.7816164E-02  0.1266605E+00
        -11   -1    0    0    0    0  0.00000000000E+00  0.00000000000E+00  0.45593999997E+02  0.45594000000E+02  0.51100000000E-03 0. -1.
         11   -1    0    0    0    0 -0.00000000000E+00 -0.00000000000E+00 -0.45593999997E+02  0.45594000000E+02  0.51100000000E-03 0.  1.
    9900012    2    1    2    0    0  0.18268132720E+02  0.22102302265E+02 -0.13945725113E+02  0.59301957796E+02  0.50000025111E+02 0.  0.
         12    1    1    2    0    0 -0.18268132720E+02 -0.22102302265E+02  0.13945725113E+02  0.31886042204E+02  0.00000000000E+00 0. -1.
         11    1    3    3    0    0 -0.53825870479E+01  0.86263721727E+01  0.54484683211E+01  0.11535698830E+02  0.51100000000E-03 0. -1.
        -11    1    3    3    0    0  0.18520216275E+01 -0.66267336189E+01 -0.16614916731E+02  0.17983298941E+02  0.51100000000E-03 0.  1.
        -12    1    3    3    0    0  0.21798698140E+02  0.20102663711E+02 -0.27792767034E+01  0.29782960025E+02  0.00000000000E+00 0.  1.
</event>
<event>
 7    1  0.5837204E-012  0.5930194E+02  0.7816164E-02  0.1266605E+00
        -11   -1    0    0    0    0  0.00000000000E+00  0.00000000000E+00  0.45593999997E+02  0.45594000000E+02  0.51100000000E-03 0.  1.
         11   -1    0    0    0    0 -0.00000000000E+00 -0.00000000000E+00 -0.45593999997E+02  0.45594000000E+02  0.51100000000E-03 0. -1.
    9900012    2    1    2    0    0 -0.16509250909E+02 -0.33967925477E+01  0.27067088241E+02  0.59301939863E+02  0.49999992405E+02 0.  0.
         12    1    1    2    0    0  0.16509250909E+02  0.33967925477E+01 -0.27067088241E+02  0.31886060137E+02  0.00000000000E+00 0. -1.
         11    1    3    3    0    0 -0.79044448673E+00 -0.61531855811E+01 -0.68675854627E+01  0.92547407112E+01  0.51100000000E-03 0. -1.
        -11    1    3    3    0    0 -0.10755196409E+01  0.16598534686E+02  0.15100431561E+02  0.22465331732E+02  0.51100000000E-03 0.  1.
         12    1    3    3    0    0 -0.14643286782E+02 -0.13842141653E+02  0.18834242142E+02  0.27581867420E+02  0.00000000000E+00 0. -1.
</event>
<event>
 7    1  0.5837204E-012  0.5930184E+02  0.7816164E-02  0.1266605E+00
        -11   -1    0    0    0    0  0.00000000000E+00  0.00000000000E+00  0.45593999997E+02  0.45594000000E+02  0.51100000000E-03 0.  1.
         11   -1    0    0    0    0 -0.00000000000E+00 -0.00000000000E+00 -0.45593999997E+02  0.45594000000E+02  0.51100000000E-03 0. -1.
    9900012    2    1    2    0    0  0.18131438171E+01 -0.57040740086E+01  0.31319379067E+02  0.59301835979E+02  0.49999802945E+02 0.  0.
         12    1    1    2    0    0 -0.18131438171E+01  0.57040740086E+01 -0.31319379067E+02  0.31886164021E+02  0.00000000000E+00 0. -1.
         11    1    3    3    0    0 -0.15932282750E+02 -0.15493487695E+02  0.28874037939E+02  0.36436188902E+02  0.51100000000E-03 0.  1.
        -11    1    3    3    0    0  0.22292075427E+01  0.40478184094E+01 -0.29278690033E+01  0.54705225806E+01  0.51100000000E-03 0. -1.
        -12    1    3    3    0    0  0.15516219024E+02  0.57415952766E+01  0.53732101317E+01  0.17395124496E+02  0.00000000000E+00 0.  1.
</event>
<event>
 7    1  0.5837204E-012  0.5930195E+02  0.7816164E-02  0.1266605E+00
        -11   -1    0    0    0    0  0.00000000000E+00  0.00000000000E+00  0.45593999997E+02  0.45594000000E+02  0.51100000000E-03 0.  1.
         11   -1    0    0    0    0 -0.00000000000E+00 -0.00000000000E+00 -0.45593999997E+02  0.45594000000E+02  0.51100000000E-03 0. -1.
    9900012    2    1    2    0    0 -0.23161891254E+02 -0.27913202965E+01 -0.21736038164E+02  0.59301952416E+02  0.50000015299E+02 0.  0.
         12    1    1    2    0    0  0.23161891254E+02  0.27913202965E+01  0.21736038164E+02  0.31886047584E+02  0.00000000000E+00 0. -1.
         11    1    3    3    0    0 -0.26384794059E+02  0.11766869692E+02 -0.15946882915E+02  0.32998782626E+02  0.51100000000E-03 0. -1.
        -11    1    3    3    0    0 -0.30164767074E+01  0.39168390994E+00  0.56877279625E+01  0.64500230734E+01  0.51100000000E-03 0.  1.
        -12    1    3    3    0    0  0.62393795121E+01 -0.14949873899E+02 -0.11476883212E+02  0.19853146716E+02  0.00000000000E+00 0.  1.
</event>
<event>
 7    1  0.5837204E-012  0.5930172E+02  0.7816164E-02  0.1266606E+00
        -11   -1    0    0    0    0  0.00000000000E+00  0.00000000000E+00  0.45593999997E+02  0.45594000000E+02  0.51100000000E-03 0.  1.
         11   -1    0    0    0    0 -0.00000000000E+00 -0.00000000000E+00 -0.45593999997E+02  0.45594000000E+02  0.51100000000E-03 0. -1.
    9900012    2    1    2    0    0 -0.11727710885E+02  0.24682319144E+02  0.16431029633E+02  0.59301720572E+02  0.49999592469E+02 0.  0.
         12    1    1    2    0    0  0.11727710885E+02 -0.24682319144E+02 -0.16431029633E+02  0.31886279428E+02  0.00000000000E+00 0. -1.
         11    1    3    3    0    0  0.95929713410E+01 -0.14514967408E+01 -0.46157583654E+01  0.10744168999E+02  0.51100000000E-03 0. -1.
        -11    1    3    3    0    0 -0.13383951155E+02 -0.12449530909E+00 -0.91775214907E+00  0.13415957545E+02  0.51100000000E-03 0.  1.
        -12    1    3    3    0    0 -0.79367310709E+01  0.26258311194E+02  0.21964540148E+02  0.35141594027E+02  0.00000000000E+00 0.  1.
</event>
<event>
 7    1  0.5837204E-012  0.5930196E+02  0.7816164E-02  0.1266605E+00
        -11   -1    0    0    0    0  0.00000000000E+00  0.00000000000E+00  0.45593999997E+02  0.45594000000E+02  0.51100000000E-03 0.  1.
         11   -1    0    0    0    0 -0.00000000000E+00 -0.00000000000E+00 -0.45593999997E+02  0.45594000000E+02  0.51100000000E-03 0. -1.
    9900012    2    1    2    0    0  0.89833540598E+01  0.30589188507E+02  0.56619947310E+00  0.59301957826E+02  0.50000025165E+02 0.  0.
         12    1    1    2    0    0 -0.89833540598E+01 -0.30589188507E+02 -0.56619947310E+00  0.31886042174E+02  0.00000000000E+00 0. -1.
         11    1    3    3    0    0  0.51350917431E+01  0.10101584395E+01 -0.34596382775E+01  0.62736500186E+01  0.51100000000E-03 0. -1.
        -11    1    3    3    0    0  0.19367964562E+02  0.53285272915E+01  0.11680424401E+02  0.23236685840E+02  0.51100000000E-03 0.  1.
         12    1    3    3    0    0 -0.15519702245E+02  0.24250502776E+02 -0.76545866500E+01  0.29791621968E+02  0.00000000000E+00 0. -1.
</event>
<event>
 7    1  0.5837204E-012  0.5930199E+02  0.7816164E-02  0.1266605E+00
        -11   -1    0    0    0    0  0.00000000000E+00  0.00000000000E+00  0.45593999997E+02  0.45594000000E+02  0.51100000000E-03 0. -1.
         11   -1    0    0    0    0 -0.00000000000E+00 -0.00000000000E+00 -0.45593999997E+02  0.45594000000E+02  0.51100000000E-03 0.  1.
    9900012    2    1    2    0    0  0.59529404017E+01 -0.30805978174E+02  0.56808522974E+01  0.59301986240E+02  0.50000076984E+02 0.  0.
         12    1    1    2    0    0 -0.59529404017E+01  0.30805978174E+02 -0.56808522974E+01  0.31886013760E+02  0.00000000000E+00 0. -1.
         11    1    3    3    0    0  0.53164195197E+01 -0.10260085086E+02  0.37704601550E+01  0.12155247119E+02  0.51100000000E-03 0. -1.
        -11    1    3    3    0    0  0.84886833842E+01 -0.55937668069E+01 -0.18223652368E+02  0.20867426256E+02  0.51100000000E-03 0.  1.
         12    1    3    3    0    0 -0.78521625022E+01 -0.14952126282E+02  0.20134044510E+02  0.26279312865E+02  0.00000000000E+00 0. -1.
</event>
<event>
 7    1  0.5837204E-012  0.5930195E+02  0.7816164E-02  0.1266605E+00
        -11   -1    0    0    0    0  0.00000000000E+00  0.00000000000E+00  0.45593999997E+02  0.45594000000E+02  0.51100000000E-03 0.  1.
         11   -1    0    0    0    0 -0.00000000000E+00 -0.00000000000E+00 -0.45593999997E+02  0.45594000000E+02  0.51100000000E-03 0. -1.
    9900012    2    1    2    0    0  0.26496219663E+02 -0.10830642186E+02  0.14048753458E+02  0.59301953830E+02  0.50000017878E+02 0.  0.
         12    1    1    2    0    0 -0.26496219663E+02  0.10830642186E+02 -0.14048753458E+02  0.31886046170E+02  0.00000000000E+00 0. -1.
         11    1    3    3    0    0  0.19033077714E+02 -0.22454452244E+01  0.81196661653E+01  0.20814155050E+02  0.51100000000E-03 0. -1.
        -11    1    3    3    0    0 -0.12639475203E+01 -0.11265392513E+01  0.20144566152E+02  0.20215592985E+02  0.51100000000E-03 0.  1.
         12    1    3    3    0    0  0.87270894692E+01 -0.74586577104E+01 -0.14215478859E+02  0.18272205796E+02  0.00000000000E+00 0. -1.
</event>
<event>
 7    1  0.5837204E-012  0.5930192E+02  0.7816164E-02  0.1266605E+00
        -11   -1    0    0    0    0  0.00000000000E+00  0.00000000000E+00  0.45593999997E+02  0.45594000000E+02  0.51100000000E-03 0.  1.
         11   -1    0    0    0    0 -0.00000000000E+00 -0.00000000000E+00 -0.45593999997E+02  0.45594000000E+02  0.51100000000E-03 0. -1.
    9900012    2    1    2    0    0  0.10572730639E+02  0.18325201020E+02  0.23856366918E+02  0.59301923601E+02  0.49999962747E+02 0.  0.
         12    1    1    2    0    0 -0.10572730639E+02 -0.18325201020E+02 -0.23856366918E+02  0.31886076399E+02  0.00000000000E+00 0. -1.
         11    1    3    3    0    0  0.49144712391E+01  0.14760457796E+02  0.96810557755E+01  0.18323372591E+02  0.51100000000E-03 0.  1.
        -11    1    3    3    0    0  0.11753433495E+02  0.14522860347E+02 -0.37962986078E+01  0.19064851296E+02  0.51100000000E-03 0. -1.
        -12    1    3    3    0    0 -0.60951740953E+01 -0.10958117123E+02  0.17971609750E+02  0.21913699714E+02  0.00000000000E+00 0.  1.
</event>
<event>
 7    1  0.5837204E-012  0.5930194E+02  0.7816164E-02  0.1266605E+00
        -11   -1    0    0    0    0  0.00000000000E+00  0.00000000000E+00  0.45593999997E+02  0.45594000000E+02  0.51100000000E-03 0.  1.
         11   -1    0    0    0    0 -0.00000000000E+00 -0.00000000000E+00 -0.45593999997E+02  0.45594000000E+02  0.51100000000E-03 0. -1.
    9900012    2    1    2    0    0  0.28836273069E+02 -0.59078438945E+00  0.13595634586E+02  0.59301937991E+02  0.49999988990E+02 0.  0.
         12    1    1    2    0    0 -0.28836273069E+02  0.59078438945E+00 -0.13595634586E+02  0.31886062009E+02  0.00000000000E+00 0. -1.
         11    1    3    3    0    0  0.33589105931E+02 -0.50444459342E+01  0.48059250837E+01  0.34304101623E+02  0.51100000000E-03 0. -1.
        -11    1    3    3    0    0  0.21584650913E+01 -0.64782941803E+01  0.98893298903E+01  0.12017741592E+02  0.51100000000E-03 0.  1.
         12    1    3    3    0    0 -0.69112979533E+01  0.10931955725E+02 -0.10996203884E+01  0.12980094775E+02  0.00000000000E+00 0. -1.
</event>
<event>
 7    1  0.5837204E-012  0.5930198E+02  0.7816164E-02  0.1266605E+00
        -11   -1    0    0    0    0  0.00000000000E+00  0.00000000000E+00  0.45593999997E+02  0.45594000000E+02  0.51100000000E-03 0.  1.
         11   -1    0    0    0    0 -0.00000000000E+00 -0.00000000000E+00 -0.45593999997E+02  0.45594000000E+02  0.51100000000E-03 0. -1.
    9900012    2    1    2    0    0  0.36084685117E+01 -0.81688668794E+01  0.30609912882E+02  0.59301981155E+02  0.50000067712E+02 0.  0.
         12    1    1    2    0    0 -0.36084685117E+01  0.81688668794E+01 -0.30609912882E+02  0.31886018845E+02  0.00000000000E+00 0. -1.
         11    1    3    3    0    0 -0.31867247725E+01 -0.51777578748E+01  0.71306360367E+01  0.93707183255E+01  0.51100000000E-03 0. -1.
        -11    1    3    3    0    0  0.45915458533E+01  0.11297366612E+02  0.31230568545E+02  0.33527021901E+02  0.51100000000E-03 0.  1.
         12    1    3    3    0    0  0.22036474310E+01 -0.14288475616E+02 -0.77512916992E+01  0.16404240928E+02  0.00000000000E+00 0. -1.
</event>
<event>
 7    1  0.5837204E-012  0.5930195E+02  0.7816164E-02  0.1266605E+00
        -11   -1    0    0    0    0  0.00000000000E+00  0.00000000000E+00  0.45593999997E+02  0.45594000000E+02  0.51100000000E-03 0.  1.
         11   -1    0    0    0    0 -0.00000000000E+00 -0.00000000000E+00 -0.45593999997E+02  0.45594000000E+02  0.51100000000E-03 0. -1.
    9900012    2    1    2    0    0  0.13707892773E+02  0.88398405686E+01  0.27398381783E+02  0.59301946153E+02  0.50000003877E+02 0.  0.
         12    1    1    2    0    0 -0.13707892773E+02 -0.88398405686E+01 -0.27398381783E+02  0.31886053847E+02  0.00000000000E+00 0. -1.
         11    1    3    3    0    0  0.13323623108E+02 -0.51672234080E+01 -0.10091192069E+01  0.14326110858E+02  0.51100000000E-03 0.  1.
        -11    1    3    3    0    0  0.83437546437E+01  0.20725225382E+02  0.11525860666E+02  0.25139583788E+02  0.51100000000E-03 0. -1.
         12    1    3    3    0    0 -0.79594849788E+01 -0.67181614059E+01  0.16881640325E+02  0.19836251507E+02  0.00000000000E+00 0. -1.
</event>
<event>
 7    1  0.5837204E-012  0.5930197E+02  0.7816164E-02  0.1266605E+00
        -11   -1    0    0    0    0  0.00000000000E+00  0.00000000000E+00  0.45593999997E+02  0.45594000000E+02  0.51100000000E-03 0.  1.
         11   -1    0    0    0    0 -0.00000000000E+00 -0.00000000000E+00 -0.45593999997E+02  0.45594000000E+02  0.51100000000E-03 0. -1.
    9900012    2    1    2    0    0  0.16056151059E+02 -0.16203691214E+02  0.22279129400E+02  0.59301965399E+02  0.50000038976E+02 0.  0.
         12    1    1    2    0    0 -0.16056151059E+02  0.16203691214E+02 -0.22279129400E+02  0.31886034601E+02  0.00000000000E+00 0. -1.
         11    1    3    3    0    0  0.11334149106E+02 -0.12561539222E+02  0.14119668593E+02  0.22036792984E+02  0.51100000000E-03 0. -1.
        -11    1    3    3    0    0 -0.38505358117E+01  0.41073488290E+01  0.19965856413E+02  0.20744453789E+02  0.51100000000E-03 0.  1.
         12    1    3    3    0    0  0.85725377645E+01 -0.77495008205E+01 -0.11806395606E+02  0.16520718625E+02  0.00000000000E+00 0. -1.
</event>
<event>
 7    1  0.5837204E-012  0.5930191E+02  0.7816164E-02  0.1266605E+00
        -11   -1    0    0    0    0  0.00000000000E+00  0.00000000000E+00  0.45593999997E+02  0.45594000000E+02  0.51100000000E-03 0.  1.
         11   -1    0    0    0    0 -0.00000000000E+00 -0.00000000000E+00 -0.45593999997E+02  0.45594000000E+02  0.51100000000E-03 0. -1.
    9900012    2    1    2    0    0  0.30327357301E+02  0.92736388535E+01 -0.33126274177E+01  0.59301914025E+02  0.49999945282E+02 0.  0.
         12    1    1    2    0    0 -0.30327357301E+02 -0.92736388535E+01  0.33126274177E+01  0.31886085975E+02  0.00000000000E+00 0. -1.
         11    1    3    3    0    0 -0.18898031497E+00  0.52809047652E+01 -0.49073954280E+01  0.72115323508E+01  0.51100000000E-03 0. -1.
        -11    1    3    3    0    0  0.14505326921E+01  0.17249914054E+02  0.86839434073E+01  0.19366839013E+02  0.51100000000E-03 0.  1.
         12    1    3    3    0    0  0.29065804923E+02 -0.13257179966E+02 -0.70891753969E+01  0.32723542661E+02  0.00000000000E+00 0. -1.
</event>
<event>
 7    1  0.5837204E-012  0.5930195E+02  0.7816164E-02  0.1266605E+00
        -11   -1    0    0    0    0  0.00000000000E+00  0.00000000000E+00  0.45593999997E+02  0.45594000000E+02  0.51100000000E-03 0.  1.
         11   -1    0    0    0    0 -0.00000000000E+00 -0.00000000000E+00 -0.45593999997E+02  0.45594000000E+02  0.51100000000E-03 0. -1.
    9900012    2    1    2    0    0  0.12288426986E+02 -0.19791554476E+01  0.29356394055E+02  0.59301947156E+02  0.50000005706E+02 0.  0.
         12    1    1    2    0    0 -0.12288426986E+02  0.19791554476E+01 -0.29356394055E+02  0.31886052844E+02  0.00000000000E+00 0. -1.
         11    1    3    3    0    0 -0.10298326685E+02  0.81172221904E+01 -0.54320474352E+01  0.14193377618E+02  0.51100000000E-03 0. -1.
        -11    1    3    3    0    0 -0.10377832084E+00 -0.48347225283E+01  0.29680400419E+01  0.56740262440E+01  0.51100000000E-03 0.  1.
        -12    1    3    3    0    0  0.22690531991E+02 -0.52616551097E+01  0.31820401448E+02  0.39434543295E+02  0.00000000000E+00 0.  1.
</event>
<event>
 7    1  0.5837204E-012  0.5930194E+02  0.7816164E-02  0.1266605E+00
        -11   -1    0    0    0    0  0.00000000000E+00  0.00000000000E+00  0.45593999997E+02  0.45594000000E+02  0.51100000000E-03 0. -1.
         11   -1    0    0    0    0 -0.00000000000E+00 -0.00000000000E+00 -0.45593999997E+02  0.45594000000E+02  0.51100000000E-03 0.  1.
    9900012    2    1    2    0    0  0.25499556715E+02  0.90280348952E+01 -0.16881592899E+02  0.59301937441E+02  0.49999987987E+02 0.  0.
         12    1    1    2    0    0 -0.25499556715E+02 -0.90280348952E+01  0.16881592899E+02  0.31886062559E+02  0.00000000000E+00 0. -1.
         11    1    3    3    0    0  0.16574451880E+02 -0.59733173205E+01 -0.23980806061E+01  0.17780432104E+02  0.51100000000E-03 0. -1.
        -11    1    3    3    0    0  0.15285258162E+02  0.15219542302E+02  0.40311626662E+01  0.21943651876E+02  0.51100000000E-03 0.  1.
        -12    1    3    3    0    0 -0.63601533275E+01 -0.21819008647E+00 -0.18514674960E+02  0.19577853461E+02  0.00000000000E+00 0.  1.
</event>
<event>
 7    1  0.5837204E-012  0.5930193E+02  0.7816164E-02  0.1266605E+00
        -11   -1    0    0    0    0  0.00000000000E+00  0.00000000000E+00  0.45593999997E+02  0.45594000000E+02  0.51100000000E-03 0. -1.
         11   -1    0    0    0    0 -0.00000000000E+00 -0.00000000000E+00 -0.45593999997E+02  0.45594000000E+02  0.51100000000E-03 0.  1.
    9900012    2    1    2    0    0 -0.30090060668E+02 -0.10242957574E+02  0.25281714966E+01  0.59301928088E+02  0.49999970930E+02 0.  0.
         12    1    1    2    0    0  0.30090060668E+02  0.10242957574E+02 -0.25281714966E+01  0.31886071912E+02  0.00000000000E+00 0. -1.
         11    1    3    3    0    0 -0.21722669659E+01 -0.11769508100E+02 -0.60045036020E+01  0.13390075745E+02  0.51100000000E-03 0. -1.
        -11    1    3    3    0    0 -0.15057595123E+02 -0.16190296763E+02 -0.77365043066E+00  0.22123639290E+02  0.51100000000E-03 0.  1.
         12    1    3    3    0    0 -0.12860198579E+02  0.17716847290E+02  0.93063255292E+01  0.23788213053E+02  0.00000000000E+00 0. -1.
</event>
<event>
 7    1  0.5837204E-012  0.5930196E+02  0.7816164E-02  0.1266605E+00
        -11   -1    0    0    0    0  0.00000000000E+00  0.00000000000E+00  0.45593999997E+02  0.45594000000E+02  0.51100000000E-03 0.  1.
         11   -1    0    0    0    0 -0.00000000000E+00 -0.00000000000E+00 -0.45593999997E+02  0.45594000000E+02  0.51100000000E-03 0. -1.
    9900012    2    1    2    0    0  0.14715753114E+02  0.12295244243E+01  0.28260472847E+02  0.59301961589E+02  0.50000032027E+02 0.  0.
         12    1    1    2    0    0 -0.14715753114E+02 -0.12295244243E+01 -0.28260472847E+02  0.31886038411E+02  0.00000000000E+00 0. -1.
         11    1    3    3    0    0 -0.31490766067E+01 -0.11000212919E+02  0.16017084737E+02  0.19684216304E+02  0.51100000000E-03 0. -1.
        -11    1    3    3    0    0  0.71378008668E+01 -0.90776616364E+01  0.10650404737E+02  0.15709336820E+02  0.51100000000E-03 0.  1.
        -12    1    3    3    0    0  0.10727028854E+02  0.21307398980E+02  0.15929833732E+01  0.23908408466E+02  0.00000000000E+00 0.  1.
</event>
<event>
 7    1  0.5837204E-012  0.5930167E+02  0.7816164E-02  0.1266606E+00
        -11   -1    0    0    0    0  0.00000000000E+00  0.00000000000E+00  0.45593999997E+02  0.45594000000E+02  0.51100000000E-03 0.  1.
         11   -1    0    0    0    0 -0.00000000000E+00 -0.00000000000E+00 -0.45593999997E+02  0.45594000000E+02  0.51100000000E-03 0. -1.
    9900012    2    1    2    0    0  0.13662445270E+02  0.23401724574E+02  0.16805800974E+02  0.59301669541E+02  0.49999499399E+02 0.  0.
         12    1    1    2    0    0 -0.13662445270E+02 -0.23401724574E+02 -0.16805800974E+02  0.31886330459E+02  0.00000000000E+00 0. -1.
         11    1    3    3    0    0  0.11269281192E+01  0.72238590841E+01 -0.44042238613E+01  0.85352970150E+01  0.51100000000E-03 0. -1.
        -11    1    3    3    0    0 -0.10396294889E+02  0.12418019354E+02  0.22232498894E+02  0.27505893176E+02  0.51100000000E-03 0.  1.
         12    1    3    3    0    0  0.22931812039E+02  0.37598461361E+01 -0.10224740586E+01  0.23260479350E+02  0.00000000000E+00 0. -1.
</event>
<event>
 7    1  0.5837204E-012  0.5930175E+02  0.7816164E-02  0.1266605E+00
        -11   -1    0    0    0    0  0.00000000000E+00  0.00000000000E+00  0.45593999997E+02  0.45594000000E+02  0.51100000000E-03 0.  1.
         11   -1    0    0    0    0 -0.00000000000E+00 -0.00000000000E+00 -0.45593999997E+02  0.45594000000E+02  0.51100000000E-03 0. -1.
    9900012    2    1    2    0    0  0.30550802736E+02  0.78488001800E+01 -0.46666896352E+01  0.59301745842E+02  0.49999638555E+02 0.  0.
         12    1    1    2    0    0 -0.30550802736E+02 -0.78488001800E+01  0.46666896352E+01  0.31886254158E+02  0.00000000000E+00 0. -1.
         11    1    3    3    0    0 -0.30323015240E+01  0.12924974393E+02  0.59719886250E+00  0.13289336414E+02  0.51100000000E-03 0. -1.
        -11    1    3    3    0    0 -0.45182132977E+01  0.18708164196E+01 -0.53966499804E+01  0.72827217956E+01  0.51100000000E-03 0.  1.
        -12    1    3    3    0    0  0.38101317558E+02 -0.69469906325E+01  0.13276148270E+00  0.38729687632E+02  0.00000000000E+00 0.  1.
</event>
<event>
 7    1  0.5837204E-012  0.5930194E+02  0.7816164E-02  0.1266605E+00
        -11   -1    0    0    0    0  0.00000000000E+00  0.00000000000E+00  0.45593999997E+02  0.45594000000E+02  0.51100000000E-03 0. -1.
         11   -1    0    0    0    0 -0.00000000000E+00 -0.00000000000E+00 -0.45593999997E+02  0.45594000000E+02  0.51100000000E-03 0.  1.
    9900012    2    1    2    0    0  0.23911965040E+02  0.18726222593E+01  0.21010289231E+02  0.59301936590E+02  0.49999986435E+02 0.  0.
         12    1    1    2    0    0 -0.23911965040E+02 -0.18726222593E+01 -0.21010289231E+02  0.31886063410E+02  0.00000000000E+00 0. -1.
         11    1    3    3    0    0  0.21016601923E+02 -0.57697981960E+01  0.24244935444E+02  0.32600690523E+02  0.51100000000E-03 0. -1.
        -11    1    3    3    0    0  0.12830591003E+02  0.75475853446E+01 -0.64994207939E+01  0.16242924027E+02  0.51100000000E-03 0.  1.
        -12    1    3    3    0    0 -0.99352278855E+01  0.94835110588E-01  0.32647745809E+01  0.10458322040E+02  0.00000000000E+00 0.  1.
</event>
<event>
 7    1  0.5837204E-012  0.5930194E+02  0.7816164E-02  0.1266605E+00
        -11   -1    0    0    0    0  0.00000000000E+00  0.00000000000E+00  0.45593999997E+02  0.45594000000E+02  0.51100000000E-03 0.  1.
         11   -1    0    0    0    0 -0.00000000000E+00 -0.00000000000E+00 -0.45593999997E+02  0.45594000000E+02  0.51100000000E-03 0. -1.
    9900012    2    1    2    0    0  0.26991909180E+01  0.89741299546E+01  0.30477866907E+02  0.59301937038E+02  0.49999987252E+02 0.  0.
         12    1    1    2    0    0 -0.26991909180E+01 -0.89741299546E+01 -0.30477866907E+02  0.31886062962E+02  0.00000000000E+00 0. -1.
         11    1    3    3    0    0 -0.70575290931E+01 -0.27968271567E+00 -0.11351576037E+01  0.71537068969E+01  0.51100000000E-03 0. -1.
        -11    1    3    3    0    0  0.11289751650E+02 -0.14066391455E+02  0.15238639714E+02  0.23612242618E+02  0.51100000000E-03 0.  1.
         12    1    3    3    0    0 -0.15330316388E+01  0.23320204125E+02  0.16374384797E+02  0.28535987523E+02  0.00000000000E+00 0. -1.
</event>
<event>
 7    1  0.5837204E-012  0.5930195E+02  0.7816164E-02  0.1266605E+00
        -11   -1    0    0    0    0  0.00000000000E+00  0.00000000000E+00  0.45593999997E+02  0.45594000000E+02  0.51100000000E-03 0.  1.
         11   -1    0    0    0    0 -0.00000000000E+00 -0.00000000000E+00 -0.45593999997E+02  0.45594000000E+02  0.51100000000E-03 0. -1.
    9900012    2    1    2    0    0 -0.15118461307E+02  0.28061193175E+02  0.84971480231E+00  0.59301945839E+02  0.50000003303E+02 0.  0.
         12    1    1    2    0    0  0.15118461307E+02 -0.28061193175E+02 -0.84971480231E+00  0.31886054161E+02  0.00000000000E+00 0. -1.
         11    1    3    3    0    0 -0.25320896928E+02  0.15065733627E+02 -0.79795906116E+01  0.30525366788E+02  0.51100000000E-03 0. -1.
        -11    1    3    3    0    0 -0.20438998363E+01  0.14638219768E+01  0.11476291099E+02  0.11748427936E+02  0.51100000000E-03 0.  1.
        -12    1    3    3    0    0  0.12246335457E+02  0.11531637571E+02 -0.26469856846E+01  0.17028151115E+02  0.00000000000E+00 0.  1.
</event>
<event>
 7    1  0.5837204E-012  0.5930194E+02  0.7816164E-02  0.1266605E+00
        -11   -1    0    0    0    0  0.00000000000E+00  0.00000000000E+00  0.45593999997E+02  0.45594000000E+02  0.51100000000E-03 0.  1.
         11   -1    0    0    0    0 -0.00000000000E+00 -0.00000000000E+00 -0.45593999997E+02  0.45594000000E+02  0.51100000000E-03 0. -1.
    9900012    2    1    2    0    0 -0.23436625324E+01 -0.28927276735E+02  0.13207608077E+02  0.59301937143E+02  0.49999987445E+02 0.  0.
         12    1    1    2    0    0  0.23436625324E+01  0.28927276735E+02 -0.13207608077E+02  0.31886062857E+02  0.00000000000E+00 0. -1.
         11    1    3    3    0    0  0.11958035593E+02  0.44200804283E+01 -0.55906296880E+01  0.13920735139E+02  0.51100000000E-03 0. -1.
        -11    1    3    3    0    0 -0.73516873531E+01 -0.12293799614E+00  0.37006975818E+01  0.82314994710E+01  0.51100000000E-03 0.  1.
        -12    1    3    3    0    0 -0.69500107725E+01 -0.33224419167E+02  0.15097540184E+02  0.37149702533E+02  0.00000000000E+00 0.  1.
</event>
<event>
 7    1  0.5837204E-012  0.5930198E+02  0.7816164E-02  0.1266605E+00
        -11   -1    0    0    0    0  0.00000000000E+00  0.00000000000E+00  0.45593999997E+02  0.45594000000E+02  0.51100000000E-03 0. -1.
         11   -1    0    0    0    0 -0.00000000000E+00 -0.00000000000E+00 -0.45593999997E+02  0.45594000000E+02  0.51100000000E-03 0.  1.
    9900012    2    1    2    0    0  0.21180410693E+01  0.12237300636E+02 -0.29368023799E+02  0.59301977252E+02  0.50000060593E+02 0.  0.
         12    1    1    2    0    0 -0.21180410693E+01 -0.12237300636E+02  0.29368023799E+02  0.31886022748E+02  0.00000000000E+00 0. -1.
         11    1    3    3    0    0 -0.12007893135E+02  0.10870275016E+02 -0.23056014829E+02  0.28176802454E+02  0.51100000000E-03 0. -1.
        -11    1    3    3    0    0 -0.11461389257E+01  0.11405981920E+02 -0.57874506202E+01  0.12841520274E+02  0.51100000000E-03 0.  1.
         12    1    3    3    0    0  0.15272073130E+02 -0.10038956300E+02 -0.52455835010E+00  0.18283654524E+02  0.00000000000E+00 0. -1.
</event>
<event>
 7    1  0.5837204E-012  0.5930193E+02  0.7816164E-02  0.1266605E+00
        -11   -1    0    0    0    0  0.00000000000E+00  0.00000000000E+00  0.45593999997E+02  0.45594000000E+02  0.51100000000E-03 0. -1.
         11   -1    0    0    0    0 -0.00000000000E+00 -0.00000000000E+00 -0.45593999997E+02  0.45594000000E+02  0.51100000000E-03 0.  1.
    9900012    2    1    2    0    0 -0.45858824628E+01 -0.30593926858E+02 -0.77267609314E+01  0.59301929169E+02  0.49999972902E+02 0.  0.
         12    1    1    2    0    0  0.45858824628E+01  0.30593926858E+02  0.77267609314E+01  0.31886070831E+02  0.00000000000E+00 0. -1.
         11    1    3    3    0    0 -0.11767907545E+02 -0.34760140672E+01  0.22575539128E+00  0.12272623499E+02  0.51100000000E-03 0. -1.
        -11    1    3    3    0    0 -0.92298976370E+01 -0.27912554236E+02 -0.16979469465E+01  0.29448000245E+02  0.51100000000E-03 0.  1.
         12    1    3    3    0    0  0.16411922719E+02  0.79464144540E+00 -0.62545693762E+01  0.17581305425E+02  0.00000000000E+00 0. -1.
</event>
<event>
 7    1  0.5837204E-012  0.5930191E+02  0.7816164E-02  0.1266605E+00
        -11   -1    0    0    0    0  0.00000000000E+00  0.00000000000E+00  0.45593999997E+02  0.45594000000E+02  0.51100000000E-03 0. -1.
         11   -1    0    0    0    0 -0.00000000000E+00 -0.00000000000E+00 -0.45593999997E+02  0.45594000000E+02  0.51100000000E-03 0.  1.
    9900012    2    1    2    0    0 -0.25663772680E+02 -0.12901139892E+02 -0.13843923526E+02  0.59301908090E+02  0.49999934458E+02 0.  0.
         12    1    1    2    0    0  0.25663772680E+02  0.12901139892E+02  0.13843923526E+02  0.31886091910E+02  0.00000000000E+00 0. -1.
         11    1    3    3    0    0 -0.14234109039E+02  0.69282013702E+00  0.53431264226E+01  0.15219686597E+02  0.51100000000E-03 0. -1.
        -11    1    3    3    0    0 -0.20993215725E+02 -0.11245591115E+02 -0.15298692825E+01  0.23864595666E+02  0.51100000000E-03 0.  1.
         12    1    3    3    0    0  0.95635520836E+01 -0.23483689138E+01 -0.17657180666E+02  0.20217625827E+02  0.00000000000E+00 0. -1.
</event>
<event>
 7    1  0.5837204E-012  0.5930202E+02  0.7816164E-02  0.1266605E+00
        -11   -1    0    0    0    0  0.00000000000E+00  0.00000000000E+00  0.45593999997E+02  0.45594000000E+02  0.51100000000E-03 0.  1.
         11   -1    0    0    0    0 -0.00000000000E+00 -0.00000000000E+00 -0.45593999997E+02  0.45594000000E+02  0.51100000000E-03 0. -1.
    9900012    2    1    2    0    0 -0.22809259537E+02 -0.14355391282E+02  0.17040435224E+02  0.59302015428E+02  0.50000130217E+02 0.  0.
         12    1    1    2    0    0  0.22809259537E+02  0.14355391282E+02 -0.17040435224E+02  0.31885984572E+02  0.00000000000E+00 0. -1.
         11    1    3    3    0    0  0.24790948689E+01  0.59102269161E+01 -0.36448256572E+01  0.73730216263E+01  0.51100000000E-03 0. -1.
        -11    1    3    3    0    0  0.66108778723E+01  0.27694798424E+01 -0.60208605259E+00  0.71927903289E+01  0.51100000000E-03 0.  1.
        -12    1    3    3    0    0 -0.31899232278E+02 -0.23035098040E+02  0.21287346934E+02  0.44736203473E+02  0.00000000000E+00 0.  1.
</event>
<event>
 7    1  0.5837204E-012  0.5930195E+02  0.7816164E-02  0.1266605E+00
        -11   -1    0    0    0    0  0.00000000000E+00  0.00000000000E+00  0.45593999997E+02  0.45594000000E+02  0.51100000000E-03 0.  1.
         11   -1    0    0    0    0 -0.00000000000E+00 -0.00000000000E+00 -0.45593999997E+02  0.45594000000E+02  0.51100000000E-03 0. -1.
    9900012    2    1    2    0    0 -0.47694198701E+01  0.25540677071E+02  0.18483693210E+02  0.59301945590E+02  0.50000002850E+02 0.  0.
         12    1    1    2    0    0  0.47694198701E+01 -0.25540677071E+02 -0.18483693210E+02  0.31886054410E+02  0.00000000000E+00 0. -1.
         11    1    3    3    0    0  0.66817767227E+00 -0.60525636059E+01 -0.43337341471E+01  0.74740376989E+01  0.51100000000E-03 0. -1.
        -11    1    3    3    0    0 -0.92164635591E+01  0.10897460568E+02 -0.65492225739E+01  0.15703189611E+02  0.51100000000E-03 0.  1.
        -12    1    3    3    0    0  0.37788660168E+01  0.20695780109E+02  0.29366649931E+02  0.36124718281E+02  0.00000000000E+00 0.  1.
</event>
<event>
 7    1  0.5837204E-012  0.5930194E+02  0.7816164E-02  0.1266605E+00
        -11   -1    0    0    0    0  0.00000000000E+00  0.00000000000E+00  0.45593999997E+02  0.45594000000E+02  0.51100000000E-03 0.  1.
         11   -1    0    0    0    0 -0.00000000000E+00 -0.00000000000E+00 -0.45593999997E+02  0.45594000000E+02  0.51100000000E-03 0. -1.
    9900012    2    1    2    0    0 -0.28938364946E+02 -0.12267066901E+02 -0.53675546052E+01  0.59301944450E+02  0.50000000771E+02 0.  0.
         12    1    1    2    0    0  0.28938364946E+02  0.12267066901E+02  0.53675546052E+01  0.31886055550E+02  0.00000000000E+00 0. -1.
         11    1    3    3    0    0 -0.11393936425E+02 -0.13956300909E+02  0.62708155588E+01  0.19076772535E+02  0.51100000000E-03 0. -1.
        -11    1    3    3    0    0 -0.11146421282E+02  0.48023702399E+01  0.11070657442E+02  0.16427565972E+02  0.51100000000E-03 0.  1.
         12    1    3    3    0    0 -0.63980072394E+01 -0.31131362312E+01 -0.22709027606E+02  0.23797605943E+02  0.00000000000E+00 0. -1.
</event>
<event>
 7    1  0.5837204E-012  0.5930195E+02  0.7816164E-02  0.1266605E+00
        -11   -1    0    0    0    0  0.00000000000E+00  0.00000000000E+00  0.45593999997E+02  0.45594000000E+02  0.51100000000E-03 0.  1.
         11   -1    0    0    0    0 -0.00000000000E+00 -0.00000000000E+00 -0.45593999997E+02  0.45594000000E+02  0.51100000000E-03 0. -1.
    9900012    2    1    2    0    0  0.16596892282E+02  0.11539993357E+02  0.24659520865E+02  0.59301948984E+02  0.50000009040E+02 0.  0.
         12    1    1    2    0    0 -0.16596892282E+02 -0.11539993357E+02 -0.24659520865E+02  0.31886051016E+02  0.00000000000E+00 0. -1.
         11    1    3    3    0    0  0.27676543423E+01 -0.53554399790E+01  0.57123662362E+00  0.60553248855E+01  0.51100000000E-03 0. -1.
        -11    1    3    3    0    0  0.27693481771E+02  0.53731106981E+01  0.86334448137E+01  0.29501451164E+02  0.51100000000E-03 0.  1.
        -12    1    3    3    0    0 -0.13864243831E+02  0.11522322638E+02  0.15454839427E+02  0.23745172935E+02  0.00000000000E+00 0.  1.
</event>
<event>
 7    1  0.5837204E-012  0.5930193E+02  0.7816164E-02  0.1266605E+00
        -11   -1    0    0    0    0  0.00000000000E+00  0.00000000000E+00  0.45593999997E+02  0.45594000000E+02  0.51100000000E-03 0.  1.
         11   -1    0    0    0    0 -0.00000000000E+00 -0.00000000000E+00 -0.45593999997E+02  0.45594000000E+02  0.51100000000E-03 0. -1.
    9900012    2    1    2    0    0  0.18798004547E+02  0.32009790707E+01  0.25556019618E+02  0.59301931245E+02  0.49999976687E+02 0.  0.
         12    1    1    2    0    0 -0.18798004547E+02 -0.32009790707E+01 -0.25556019618E+02  0.31886068755E+02  0.00000000000E+00 0. -1.
         11    1    3    3    0    0  0.14714895186E+02  0.76441851396E+00 -0.62613148812E+01  0.16009888828E+02  0.51100000000E-03 0. -1.
        -11    1    3    3    0    0  0.12486899267E+02 -0.85237485747E+01  0.12930547589E+02  0.19894119842E+02  0.51100000000E-03 0.  1.
        -12    1    3    3    0    0 -0.84037899051E+01  0.10960309131E+02  0.18886786910E+02  0.23397922575E+02  0.00000000000E+00 0.  1.
</event>
<event>
 7    1  0.5837204E-012  0.5930174E+02  0.7816164E-02  0.1266605E+00
        -11   -1    0    0    0    0  0.00000000000E+00  0.00000000000E+00  0.45593999997E+02  0.45594000000E+02  0.51100000000E-03 0.  1.
         11   -1    0    0    0    0 -0.00000000000E+00 -0.00000000000E+00 -0.45593999997E+02  0.45594000000E+02  0.51100000000E-03 0. -1.
    9900012    2    1    2    0    0  0.15272750786E+02  0.29586672059E+01  0.27833842179E+02  0.59301742793E+02  0.49999632995E+02 0.  0.
         12    1    1    2    0    0 -0.15272750786E+02 -0.29586672059E+01 -0.27833842179E+02  0.31886257207E+02  0.00000000000E+00 0. -1.
         11    1    3    3    0    0  0.55445751829E+01 -0.14575030881E+02 -0.44386864110E+01  0.16213444312E+02  0.51100000000E-03 0. -1.
        -11    1    3    3    0    0 -0.95413499622E+00 -0.13597409392E+00  0.17911451173E+02  0.17937361733E+02  0.51100000000E-03 0.  1.
        -12    1    3    3    0    0  0.10682310599E+02  0.17669672181E+02  0.14361077417E+02  0.25150936748E+02  0.00000000000E+00 0.  1.
</event>
<event>
 7    1  0.5837204E-012  0.5930197E+02  0.7816164E-02  0.1266605E+00
        -11   -1    0    0    0    0  0.00000000000E+00  0.00000000000E+00  0.45593999997E+02  0.45594000000E+02  0.51100000000E-03 0. -1.
         11   -1    0    0    0    0 -0.00000000000E+00 -0.00000000000E+00 -0.45593999997E+02  0.45594000000E+02  0.51100000000E-03 0.  1.
    9900012    2    1    2    0    0 -0.18859975951E+02  0.66073037435E+01 -0.24846803870E+02  0.59301971426E+02  0.50000049969E+02 0.  0.
         12    1    1    2    0    0  0.18859975951E+02 -0.66073037435E+01  0.24846803870E+02  0.31886028574E+02  0.00000000000E+00 0. -1.
         11    1    3    3    0    0 -0.11251303580E+02 -0.95246204604E+01 -0.16859919073E+02  0.22395693751E+02  0.51100000000E-03 0. -1.
        -11    1    3    3    0    0  0.59181703478E+01  0.80060595128E+01 -0.16277638630E+02  0.19080965615E+02  0.51100000000E-03 0.  1.
        -12    1    3    3    0    0 -0.13526842719E+02  0.81258646911E+01  0.82907538332E+01  0.17825312060E+02  0.00000000000E+00 0.  1.
</event>
<event>
 7    1  0.5837204E-012  0.5930193E+02  0.7816164E-02  0.1266605E+00
        -11   -1    0    0    0    0  0.00000000000E+00  0.00000000000E+00  0.45593999997E+02  0.45594000000E+02  0.51100000000E-03 0.  1.
         11   -1    0    0    0    0 -0.00000000000E+00 -0.00000000000E+00 -0.45593999997E+02  0.45594000000E+02  0.51100000000E-03 0. -1.
    9900012    2    1    2    0    0  0.23522234113E+02 -0.36769329591E+01  0.21210996446E+02  0.59301926176E+02  0.49999967443E+02 0.  0.
         12    1    1    2    0    0 -0.23522234113E+02  0.36769329591E+01 -0.21210996446E+02  0.31886073824E+02  0.00000000000E+00 0. -1.
         11    1    3    3    0    0 -0.10185670216E+02  0.10345932795E+02  0.68432802265E+01  0.16050441977E+02  0.51100000000E-03 0. -1.
        -11    1    3    3    0    0  0.35860402566E+01 -0.65472918726E+01 -0.25696695190E+01  0.78949298468E+01  0.51100000000E-03 0.  1.
        -12    1    3    3    0    0  0.30121864072E+02 -0.74755738813E+01  0.16937385738E+02  0.35356554353E+02  0.00000000000E+00 0.  1.
</event>
<event>
 7    1  0.5837204E-012  0.5930200E+02  0.7816164E-02  0.1266605E+00
        -11   -1    0    0    0    0  0.00000000000E+00  0.00000000000E+00  0.45593999997E+02  0.45594000000E+02  0.51100000000E-03 0.  1.
         11   -1    0    0    0    0 -0.00000000000E+00 -0.00000000000E+00 -0.45593999997E+02  0.45594000000E+02  0.51100000000E-03 0. -1.
    9900012    2    1    2    0    0  0.60059547154E+01  0.21964205044E+01  0.31238135880E+02  0.59302001689E+02  0.50000105160E+02 0.  0.
         12    1    1    2    0    0 -0.60059547154E+01 -0.21964205044E+01 -0.31238135880E+02  0.31885998311E+02  0.00000000000E+00 0. -1.
         11    1    3    3    0    0  0.97068300242E+01  0.73263100458E+01 -0.87339248133E+01  0.14972602009E+02  0.51100000000E-03 0. -1.
        -11    1    3    3    0    0 -0.10744397960E+01 -0.10515858406E+02  0.13282068386E+02  0.16975012217E+02  0.51100000000E-03 0.  1.
        -12    1    3    3    0    0 -0.26264355128E+01  0.53859688650E+01  0.26689992307E+02  0.27354387463E+02  0.00000000000E+00 0.  1.
</event>
<event>
 7    1  0.5837204E-012  0.5930170E+02  0.7816164E-02  0.1266606E+00
        -11   -1    0    0    0    0  0.00000000000E+00  0.00000000000E+00  0.45593999997E+02  0.45594000000E+02  0.51100000000E-03 0. -1.
         11   -1    0    0    0    0 -0.00000000000E+00 -0.00000000000E+00 -0.45593999997E+02  0.45594000000E+02  0.51100000000E-03 0.  1.
    9900012    2    1    2    0    0 -0.20560083456E+01 -0.12778429950E+02 -0.29141387989E+02  0.59301703002E+02  0.49999560425E+02 0.  0.
         12    1    1    2    0    0  0.20560083456E+01  0.12778429950E+02  0.29141387989E+02  0.31886296998E+02  0.00000000000E+00 0. -1.
         11    1    3    3    0    0 -0.26704050804E+00  0.28323263061E+01  0.80576596463E+01  0.85451309045E+01  0.51100000000E-03 0. -1.
        -11    1    3    3    0    0 -0.93830054776E+01 -0.22207437922E+02 -0.22726848525E+02  0.33131868872E+02  0.51100000000E-03 0.  1.
        -12    1    3    3    0    0  0.75940376400E+01  0.65966816658E+01 -0.14472199111E+02  0.17624703225E+02  0.00000000000E+00 0.  1.
</event>
<event>
 7    1  0.5837204E-012  0.5930193E+02  0.7816164E-02  0.1266605E+00
        -11   -1    0    0    0    0  0.00000000000E+00  0.00000000000E+00  0.45593999997E+02  0.45594000000E+02  0.51100000000E-03 0. -1.
         11   -1    0    0    0    0 -0.00000000000E+00 -0.00000000000E+00 -0.45593999997E+02  0.45594000000E+02  0.51100000000E-03 0.  1.
    9900012    2    1    2    0    0  0.89416843950E+01  0.15965040668E+02 -0.26112927726E+02  0.59301933485E+02  0.49999980773E+02 0.  0.
         12    1    1    2    0    0 -0.89416843950E+01 -0.15965040668E+02  0.26112927726E+02  0.31886066515E+02  0.00000000000E+00 0. -1.
         11    1    3    3    0    0 -0.21838840297E+01 -0.47533052206E+01 -0.62170258215E+01  0.81249412491E+01  0.51100000000E-03 0. -1.
        -11    1    3    3    0    0  0.81289054324E+01 -0.43792649382E+01 -0.23867212790E+02  0.25591031858E+02  0.51100000000E-03 0.  1.
         12    1    3    3    0    0  0.29966629923E+01  0.25097610827E+02  0.39713108862E+01  0.25585960378E+02  0.00000000000E+00 0. -1.
</event>
<event>
 7    1  0.5837204E-012  0.5930205E+02  0.7816164E-02  0.1266604E+00
        -11   -1    0    0    0    0  0.00000000000E+00  0.00000000000E+00  0.45593999997E+02  0.45594000000E+02  0.51100000000E-03 0.  1.
         11   -1    0    0    0    0 -0.00000000000E+00 -0.00000000000E+00 -0.45593999997E+02  0.45594000000E+02  0.51100000000E-03 0. -1.
    9900012    2    1    2    0    0  0.29449180035E+02  0.10027602922E+02  0.69933516621E+01  0.59302047097E+02  0.50000187973E+02 0.  0.
         12    1    1    2    0    0 -0.29449180035E+02 -0.10027602922E+02 -0.69933516621E+01  0.31885952903E+02  0.00000000000E+00 0. -1.
         11    1    3    3    0    0  0.38951324984E+01  0.53965823193E+01  0.83710273747E+01  0.10694356338E+02  0.51100000000E-03 0. -1.
        -11    1    3    3    0    0  0.23467290811E+02  0.20797146562E+02  0.36044133233E+01  0.31563061302E+02  0.51100000000E-03 0.  1.
         12    1    3    3    0    0  0.20867567253E+01 -0.16166125959E+02 -0.49820890358E+01  0.17044629457E+02  0.00000000000E+00 0. -1.
</event>
<event>
 7    1  0.5837204E-012  0.5930199E+02  0.7816164E-02  0.1266605E+00
        -11   -1    0    0    0    0  0.00000000000E+00  0.00000000000E+00  0.45593999997E+02  0.45594000000E+02  0.51100000000E-03 0. -1.
         11   -1    0    0    0    0 -0.00000000000E+00 -0.00000000000E+00 -0.45593999997E+02  0.45594000000E+02  0.51100000000E-03 0.  1.
    9900012    2    1    2    0    0  0.63806996955E+01 -0.24397734998E+02 -0.19512941613E+02  0.59301989085E+02  0.50000082174E+02 0.  0.
         12    1    1    2    0    0 -0.63806996955E+01  0.24397734998E+02  0.19512941613E+02  0.31886010915E+02  0.00000000000E+00 0. -1.
         11    1    3    3    0    0  0.11520247175E+02 -0.12469677457E+02  0.56955926972E+01  0.17906667118E+02  0.51100000000E-03 0. -1.
        -11    1    3    3    0    0  0.37552192320E+01 -0.59736205975E+00 -0.26648683860E+02  0.26918597004E+02  0.51100000000E-03 0.  1.
         12    1    3    3    0    0 -0.88947667111E+01 -0.11330695482E+02  0.14401495497E+01  0.14476724964E+02  0.00000000000E+00 0. -1.
</event>
<event>
 7    1  0.5837204E-012  0.5930195E+02  0.7816164E-02  0.1266605E+00
        -11   -1    0    0    0    0  0.00000000000E+00  0.00000000000E+00  0.45593999997E+02  0.45594000000E+02  0.51100000000E-03 0. -1.
         11   -1    0    0    0    0 -0.00000000000E+00 -0.00000000000E+00 -0.45593999997E+02  0.45594000000E+02  0.51100000000E-03 0.  1.
    9900012    2    1    2    0    0 -0.31728969397E+01 -0.26017464890E+02 -0.18158868707E+02  0.59301948707E+02  0.50000008535E+02 0.  0.
         12    1    1    2    0    0  0.31728969397E+01  0.26017464890E+02  0.18158868707E+02  0.31886051293E+02  0.00000000000E+00 0. -1.
         11    1    3    3    0    0  0.17141150958E+01 -0.55205057007E+01  0.94354776033E+01  0.11065369927E+02  0.51100000000E-03 0. -1.
        -11    1    3    3    0    0  0.11105730817E+02  0.12751898254E+01 -0.14233353569E+02  0.18098389988E+02  0.51100000000E-03 0.  1.
        -12    1    3    3    0    0 -0.15992742853E+02 -0.21772149015E+02 -0.13360992742E+02  0.30138188793E+02  0.00000000000E+00 0.  1.
</event>
<event>
 7    1  0.5837204E-012  0.5930193E+02  0.7816164E-02  0.1266605E+00
        -11   -1    0    0    0    0  0.00000000000E+00  0.00000000000E+00  0.45593999997E+02  0.45594000000E+02  0.51100000000E-03 0. -1.
         11   -1    0    0    0    0 -0.00000000000E+00 -0.00000000000E+00 -0.45593999997E+02  0.45594000000E+02  0.51100000000E-03 0.  1.
    9900012    2    1    2    0    0  0.23080931256E+02  0.14605206777E+01 -0.21951280528E+02  0.59301933684E+02  0.49999981136E+02 0.  0.
         12    1    1    2    0    0 -0.23080931256E+02 -0.14605206777E+01  0.21951280528E+02  0.31886066316E+02  0.00000000000E+00 0. -1.
         11    1    3    3    0    0  0.93534020388E+01  0.81977813463E+01  0.53616577813E+01  0.13543896158E+02  0.51100000000E-03 0. -1.
        -11    1    3    3    0    0  0.98419657866E+01 -0.19609107693E+02 -0.10773153069E+02  0.24442631249E+02  0.51100000000E-03 0.  1.
         12    1    3    3    0    0  0.38855634305E+01  0.12871847025E+02 -0.16539785240E+02  0.21315406278E+02  0.00000000000E+00 0. -1.
</event>
<event>
 7    1  0.5837204E-012  0.5930190E+02  0.7816164E-02  0.1266605E+00
        -11   -1    0    0    0    0  0.00000000000E+00  0.00000000000E+00  0.45593999997E+02  0.45594000000E+02  0.51100000000E-03 0.  1.
         11   -1    0    0    0    0 -0.00000000000E+00 -0.00000000000E+00 -0.45593999997E+02  0.45594000000E+02  0.51100000000E-03 0. -1.
    9900012    2    1    2    0    0 -0.77719263269E+01 -0.12265914121E+02  0.28387817820E+02  0.59301895054E+02  0.49999910683E+02 0.  0.
         12    1    1    2    0    0  0.77719263269E+01  0.12265914121E+02 -0.28387817820E+02  0.31886104946E+02  0.00000000000E+00 0. -1.
         11    1    3    3    0    0  0.55989730144E+01  0.13549064313E+01  0.13110413395E+02  0.14320167942E+02  0.51100000000E-03 0. -1.
        -11    1    3    3    0    0  0.10775382032E+02 -0.13676083884E+02  0.10607889168E+02  0.20388022003E+02  0.51100000000E-03 0.  1.
         12    1    3    3    0    0 -0.24146281374E+02  0.55263330730E-01  0.46695152567E+01  0.24593705108E+02  0.00000000000E+00 0. -1.
</event>
<event>
 7    1  0.5837204E-012  0.5930194E+02  0.7816164E-02  0.1266605E+00
        -11   -1    0    0    0    0  0.00000000000E+00  0.00000000000E+00  0.45593999997E+02  0.45594000000E+02  0.51100000000E-03 0.  1.
         11   -1    0    0    0    0 -0.00000000000E+00 -0.00000000000E+00 -0.45593999997E+02  0.45594000000E+02  0.51100000000E-03 0. -1.
    9900012    2    1    2    0    0 -0.10636494366E+02  0.25494116405E+02  0.15925943590E+02  0.59301942500E+02  0.49999997214E+02 0.  0.
         12    1    1    2    0    0  0.10636494366E+02 -0.25494116405E+02 -0.15925943590E+02  0.31886057500E+02  0.00000000000E+00 0. -1.
         11    1    3    3    0    0 -0.15985820450E+02  0.15443163434E+02 -0.20517206249E+01  0.22321454032E+02  0.51100000000E-03 0. -1.
        -11    1    3    3    0    0  0.83845674979E+01  0.13749898790E+02 -0.21900721681E+01  0.16252910669E+02  0.51100000000E-03 0.  1.
         12    1    3    3    0    0 -0.30352414143E+01 -0.36989458188E+01  0.20167736383E+02  0.20727577799E+02  0.00000000000E+00 0. -1.
</event>
<event>
 7    1  0.5837204E-012  0.5930194E+02  0.7816164E-02  0.1266605E+00
        -11   -1    0    0    0    0  0.00000000000E+00  0.00000000000E+00  0.45593999997E+02  0.45594000000E+02  0.51100000000E-03 0.  1.
         11   -1    0    0    0    0 -0.00000000000E+00 -0.00000000000E+00 -0.45593999997E+02  0.45594000000E+02  0.51100000000E-03 0. -1.
    9900012    2    1    2    0    0 -0.96681309149E+01 -0.13805521832E+02  0.27067617430E+02  0.59301935618E+02  0.49999984663E+02 0.  0.
         12    1    1    2    0    0  0.96681309149E+01  0.13805521832E+02 -0.27067617430E+02  0.31886064382E+02  0.00000000000E+00 0. -1.
         11    1    3    3    0    0  0.66240578588E+01 -0.91198210885E+01  0.15608193343E+02  0.19252661605E+02  0.51100000000E-03 0. -1.
        -11    1    3    3    0    0 -0.40271769735E+01  0.58453128757E+01  0.20383332231E+02  0.21583930830E+02  0.51100000000E-03 0.  1.
        -12    1    3    3    0    0 -0.12265011800E+02 -0.10531013619E+02 -0.89239081440E+01  0.18465343183E+02  0.00000000000E+00 0.  1.
</event>
<event>
 7    1  0.5837204E-012  0.5930194E+02  0.7816164E-02  0.1266605E+00
        -11   -1    0    0    0    0  0.00000000000E+00  0.00000000000E+00  0.45593999997E+02  0.45594000000E+02  0.51100000000E-03 0.  1.
         11   -1    0    0    0    0 -0.00000000000E+00 -0.00000000000E+00 -0.45593999997E+02  0.45594000000E+02  0.51100000000E-03 0. -1.
    9900012    2    1    2    0    0  0.11584798787E+02 -0.88479403599E+01  0.28358902637E+02  0.59301937679E+02  0.49999988421E+02 0.  0.
         12    1    1    2    0    0 -0.11584798787E+02  0.88479403599E+01 -0.28358902637E+02  0.31886062321E+02  0.00000000000E+00 0. -1.
         11    1    3    3    0    0  0.21519485257E+02 -0.11231159140E+00  0.29124234476E+02  0.36212178803E+02  0.51100000000E-03 0. -1.
        -11    1    3    3    0    0 -0.37044482666E+01 -0.39334530117E+01  0.90323159715E+01  0.10525099602E+02  0.51100000000E-03 0.  1.
        -12    1    3    3    0    0 -0.62302382029E+01 -0.48021757568E+01 -0.97976478101E+01  0.12564659274E+02  0.00000000000E+00 0.  1.
</event>
<event>
 7    1  0.5837204E-012  0.5930193E+02  0.7816164E-02  0.1266605E+00
        -11   -1    0    0    0    0  0.00000000000E+00  0.00000000000E+00  0.45593999997E+02  0.45594000000E+02  0.51100000000E-03 0.  1.
         11   -1    0    0    0    0 -0.00000000000E+00 -0.00000000000E+00 -0.45593999997E+02  0.45594000000E+02  0.51100000000E-03 0. -1.
    9900012    2    1    2    0    0 -0.21843617948E+02  0.22480558191E+02 -0.58482774041E+01  0.59301929526E+02  0.49999973553E+02 0.  0.
         12    1    1    2    0    0  0.21843617948E+02 -0.22480558191E+02  0.58482774041E+01  0.31886070474E+02  0.00000000000E+00 0. -1.
         11    1    3    3    0    0  0.91999046183E+01  0.12981492153E+02  0.46556988070E+01  0.16578085389E+02  0.51100000000E-03 0. -1.
        -11    1    3    3    0    0 -0.46862280827E+01 -0.51863640131E+01 -0.10424925922E+02  0.12551421675E+02  0.51100000000E-03 0.  1.
        -12    1    3    3    0    0 -0.26357294484E+02  0.14685430051E+02 -0.79050288934E-01  0.30172422462E+02  0.00000000000E+00 0.  1.
</event>
<event>
 7    1  0.5837204E-012  0.5930197E+02  0.7816164E-02  0.1266605E+00
        -11   -1    0    0    0    0  0.00000000000E+00  0.00000000000E+00  0.45593999997E+02  0.45594000000E+02  0.51100000000E-03 0. -1.
         11   -1    0    0    0    0 -0.00000000000E+00 -0.00000000000E+00 -0.45593999997E+02  0.45594000000E+02  0.51100000000E-03 0.  1.
    9900012    2    1    2    0    0 -0.85948978600E+00  0.27446856119E+02 -0.16206489113E+02  0.59301969785E+02  0.50000046975E+02 0.  0.
         12    1    1    2    0    0  0.85948978600E+00 -0.27446856119E+02  0.16206489113E+02  0.31886030215E+02  0.00000000000E+00 0. -1.
         11    1    3    3    0    0  0.84946068525E+01  0.10969771089E+02  0.41042175750E+01  0.14468546074E+02  0.51100000000E-03 0. -1.
        -11    1    3    3    0    0  0.61088546486E+01 -0.59593018839E+01 -0.14723114661E+02  0.17017681677E+02  0.51100000000E-03 0.  1.
        -12    1    3    3    0    0 -0.15462951287E+02  0.22436386914E+02 -0.55875920267E+01  0.27815742034E+02  0.00000000000E+00 0.  1.
</event>
<event>
 7    1  0.5837204E-012  0.5930194E+02  0.7816164E-02  0.1266605E+00
        -11   -1    0    0    0    0  0.00000000000E+00  0.00000000000E+00  0.45593999997E+02  0.45594000000E+02  0.51100000000E-03 0. -1.
         11   -1    0    0    0    0 -0.00000000000E+00 -0.00000000000E+00 -0.45593999997E+02  0.45594000000E+02  0.51100000000E-03 0.  1.
    9900012    2    1    2    0    0  0.23482552392E+02 -0.13235213206E+02  0.17032893187E+02  0.59301943709E+02  0.49999999419E+02 0.  0.
         12    1    1    2    0    0 -0.23482552392E+02  0.13235213206E+02 -0.17032893187E+02  0.31886056291E+02  0.00000000000E+00 0. -1.
         11    1    3    3    0    0  0.92818601387E+01 -0.36916324092E+01 -0.14405524051E+02  0.17529980061E+02  0.51100000000E-03 0. -1.
        -11    1    3    3    0    0  0.52613337487E+00 -0.75937643484E+01  0.19848902231E+00  0.76145565504E+01  0.51100000000E-03 0.  1.
         12    1    3    3    0    0  0.13674558878E+02 -0.19498164484E+01  0.31239928216E+02  0.34157407098E+02  0.00000000000E+00 0. -1.
</event>
<event>
 7    1  0.5837204E-012  0.5930194E+02  0.7816164E-02  0.1266605E+00
        -11   -1    0    0    0    0  0.00000000000E+00  0.00000000000E+00  0.45593999997E+02  0.45594000000E+02  0.51100000000E-03 0.  1.
         11   -1    0    0    0    0 -0.00000000000E+00 -0.00000000000E+00 -0.45593999997E+02  0.45594000000E+02  0.51100000000E-03 0. -1.
    9900012    2    1    2    0    0  0.13957932416E+02  0.24962089449E+02  0.14099334517E+02  0.59301936888E+02  0.49999986978E+02 0.  0.
         12    1    1    2    0    0 -0.13957932416E+02 -0.24962089449E+02 -0.14099334517E+02  0.31886063112E+02  0.00000000000E+00 0. -1.
         11    1    3    3    0    0  0.26789575990E+01  0.14293360528E+02 -0.63329474449E+01  0.15861374234E+02  0.51100000000E-03 0. -1.
        -11    1    3    3    0    0  0.97179701977E+01  0.20311588870E+02  0.20320784987E+01  0.22608160706E+02  0.51100000000E-03 0.  1.
        -12    1    3    3    0    0  0.15610046195E+01 -0.96428599495E+01  0.18400203463E+02  0.20832401947E+02  0.00000000000E+00 0.  1.
</event>
<event>
 7    1  0.5837204E-012  0.5930193E+02  0.7816164E-02  0.1266605E+00
        -11   -1    0    0    0    0  0.00000000000E+00  0.00000000000E+00  0.45593999997E+02  0.45594000000E+02  0.51100000000E-03 0. -1.
         11   -1    0    0    0    0 -0.00000000000E+00 -0.00000000000E+00 -0.45593999997E+02  0.45594000000E+02  0.51100000000E-03 0.  1.
    9900012    2    1    2    0    0  0.19286874733E+02  0.19423954798E+02 -0.16353828578E+02  0.59301933041E+02  0.49999979963E+02 0.  0.
         12    1    1    2    0    0 -0.19286874733E+02 -0.19423954798E+02  0.16353828578E+02  0.31886066959E+02  0.00000000000E+00 0. -1.
         11    1    3    3    0    0 -0.93161761470E+01  0.14467507036E+02  0.47549828162E+01  0.17852444082E+02  0.51100000000E-03 0. -1.
        -11    1    3    3    0    0  0.25964742005E+01 -0.66902213743E+01 -0.42669358053E+01  0.83491006545E+01  0.51100000000E-03 0.  1.
         12    1    3    3    0    0  0.26006576680E+02  0.11646669136E+02 -0.16841875589E+02  0.33100388305E+02  0.00000000000E+00 0. -1.
</event>
<event>
 7    1  0.5837204E-012  0.5930194E+02  0.7816164E-02  0.1266605E+00
        -11   -1    0    0    0    0  0.00000000000E+00  0.00000000000E+00  0.45593999997E+02  0.45594000000E+02  0.51100000000E-03 0.  1.
         11   -1    0    0    0    0 -0.00000000000E+00 -0.00000000000E+00 -0.45593999997E+02  0.45594000000E+02  0.51100000000E-03 0. -1.
    9900012    2    1    2    0    0 -0.28249020902E+02 -0.13289932398E+02  0.64877861306E+01  0.59301939504E+02  0.49999991750E+02 0.  0.
         12    1    1    2    0    0  0.28249020902E+02  0.13289932398E+02 -0.64877861306E+01  0.31886060496E+02  0.00000000000E+00 0. -1.
         11    1    3    3    0    0 -0.28487506617E+01  0.11995667000E+02  0.61571353914E+01  0.13781209076E+02  0.51100000000E-03 0.  1.
        -11    1    3    3    0    0  0.45763363485E+01 -0.56208104733E+01 -0.56295294517E+01  0.91775795753E+01  0.51100000000E-03 0. -1.
         12    1    3    3    0    0 -0.29976606589E+02 -0.19664788925E+02  0.59601801909E+01  0.36343150853E+02  0.00000000000E+00 0. -1.
</event>
<event>
 7    1  0.5837204E-012  0.5930190E+02  0.7816164E-02  0.1266605E+00
        -11   -1    0    0    0    0  0.00000000000E+00  0.00000000000E+00  0.45593999997E+02  0.45594000000E+02  0.51100000000E-03 0.  1.
         11   -1    0    0    0    0 -0.00000000000E+00 -0.00000000000E+00 -0.45593999997E+02  0.45594000000E+02  0.51100000000E-03 0. -1.
    9900012    2    1    2    0    0  0.10411298788E+02  0.77640116962E+01  0.29121271639E+02  0.59301898295E+02  0.49999916595E+02 0.  0.
         12    1    1    2    0    0 -0.10411298788E+02 -0.77640116962E+01 -0.29121271639E+02  0.31886101705E+02  0.00000000000E+00 0. -1.
         11    1    3    3    0    0  0.12680050211E+02  0.21365000493E+02  0.85233113231E+01  0.26265828668E+02  0.51100000000E-03 0. -1.
        -11    1    3    3    0    0  0.74220487759E+01  0.17471573183E+01  0.51535926271E+01  0.92031996584E+01  0.51100000000E-03 0.  1.
        -12    1    3    3    0    0 -0.96908001990E+01 -0.15348146115E+02  0.15444367689E+02  0.23832869969E+02  0.00000000000E+00 0.  1.
</event>
<event>
 7    1  0.5837204E-012  0.5930195E+02  0.7816164E-02  0.1266605E+00
        -11   -1    0    0    0    0  0.00000000000E+00  0.00000000000E+00  0.45593999997E+02  0.45594000000E+02  0.51100000000E-03 0. -1.
         11   -1    0    0    0    0 -0.00000000000E+00 -0.00000000000E+00 -0.45593999997E+02  0.45594000000E+02  0.51100000000E-03 0.  1.
    9900012    2    1    2    0    0 -0.28896797492E+02  0.99265729232E+01  0.91191292653E+01  0.59301948600E+02  0.50000008340E+02 0.  0.
         12    1    1    2    0    0  0.28896797492E+02 -0.99265729232E+01 -0.91191292653E+01  0.31886051400E+02  0.00000000000E+00 0. -1.
         11    1    3    3    0    0 -0.92974500304E+01 -0.58875059905E+01  0.29261855147E+01  0.11387179887E+02  0.51100000000E-03 0. -1.
        -11    1    3    3    0    0 -0.70726394538E+00  0.32551088395E+00 -0.15334035783E+02  0.15353788890E+02  0.51100000000E-03 0.  1.
         12    1    3    3    0    0 -0.18892083516E+02  0.15488568030E+02  0.21526979534E+02  0.32560979823E+02  0.00000000000E+00 0. -1.
</event>
<event>
 7    1  0.5837204E-012  0.5930195E+02  0.7816164E-02  0.1266605E+00
        -11   -1    0    0    0    0  0.00000000000E+00  0.00000000000E+00  0.45593999997E+02  0.45594000000E+02  0.51100000000E-03 0. -1.
         11   -1    0    0    0    0 -0.00000000000E+00 -0.00000000000E+00 -0.45593999997E+02  0.45594000000E+02  0.51100000000E-03 0.  1.
    9900012    2    1    2    0    0 -0.28164302737E+02 -0.13341858113E+02 -0.67443917332E+01  0.59301953735E+02  0.50000017704E+02 0.  0.
         12    1    1    2    0    0  0.28164302737E+02  0.13341858113E+02  0.67443917332E+01  0.31886046265E+02  0.00000000000E+00 0. -1.
         11    1    3    3    0    0 -0.14699654135E+02 -0.22331985343E+01  0.64157646973E+01  0.16193487713E+02  0.51100000000E-03 0.  1.
        -11    1    3    3    0    0  0.29718201404E+01  0.10998954610E+02  0.21459414422E+01  0.11593695804E+02  0.51100000000E-03 0. -1.
         12    1    3    3    0    0 -0.16436468742E+02 -0.22107614189E+02 -0.15306097873E+02  0.31514770218E+02  0.00000000000E+00 0. -1.
</event>
<event>
 7    1  0.5837204E-012  0.5930194E+02  0.7816164E-02  0.1266605E+00
        -11   -1    0    0    0    0  0.00000000000E+00  0.00000000000E+00  0.45593999997E+02  0.45594000000E+02  0.51100000000E-03 0.  1.
         11   -1    0    0    0    0 -0.00000000000E+00 -0.00000000000E+00 -0.45593999997E+02  0.45594000000E+02  0.51100000000E-03 0. -1.
    9900012    2    1    2    0    0 -0.27723503227E+02  0.14166774547E+02 -0.68870051356E+01  0.59301937653E+02  0.49999988374E+02 0.  0.
         12    1    1    2    0    0  0.27723503227E+02 -0.14166774547E+02  0.68870051356E+01  0.31886062347E+02  0.00000000000E+00 0. -1.
         11    1    3    3    0    0 -0.16306216196E+02  0.19036290032E+02 -0.74988068067E+01  0.26163048917E+02  0.51100000000E-03 0. -1.
        -11    1    3    3    0    0 -0.11768593131E+02  0.92394221766E+01  0.82555114780E+01  0.17088597850E+02  0.51100000000E-03 0.  1.
        -12    1    3    3    0    0  0.35130610046E+00 -0.14108937662E+02 -0.76437098069E+01  0.16050290887E+02  0.00000000000E+00 0.  1.
</event>
<event>
 7    1  0.5837204E-012  0.5930194E+02  0.7816164E-02  0.1266605E+00
        -11   -1    0    0    0    0  0.00000000000E+00  0.00000000000E+00  0.45593999997E+02  0.45594000000E+02  0.51100000000E-03 0.  1.
         11   -1    0    0    0    0 -0.00000000000E+00 -0.00000000000E+00 -0.45593999997E+02  0.45594000000E+02  0.51100000000E-03 0. -1.
    9900012    2    1    2    0    0 -0.11136300483E+02  0.20620816287E+02  0.21621408873E+02  0.59301943887E+02  0.49999999744E+02 0.  0.
         12    1    1    2    0    0  0.11136300483E+02 -0.20620816287E+02 -0.21621408873E+02  0.31886056113E+02  0.00000000000E+00 0. -1.
         11    1    3    3    0    0 -0.10747607566E+01  0.25694467387E+01 -0.14876343902E+02  0.15134819965E+02  0.51100000000E-03 0. -1.
        -11    1    3    3    0    0 -0.23729093444E+00  0.10680528489E+02  0.87018626383E+01  0.13778694040E+02  0.51100000000E-03 0.  1.
        -12    1    3    3    0    0 -0.98242487919E+01  0.73708410588E+01  0.27795890136E+02  0.30388429882E+02  0.00000000000E+00 0.  1.
</event>
<event>
 7    1  0.5837204E-012  0.5930198E+02  0.7816164E-02  0.1266605E+00
        -11   -1    0    0    0    0  0.00000000000E+00  0.00000000000E+00  0.45593999997E+02  0.45594000000E+02  0.51100000000E-03 0.  1.
         11   -1    0    0    0    0 -0.00000000000E+00 -0.00000000000E+00 -0.45593999997E+02  0.45594000000E+02  0.51100000000E-03 0. -1.
    9900012    2    1    2    0    0  0.19744733180E+02  0.24620225044E+02  0.45506712908E+01  0.59301975181E+02  0.50000056817E+02 0.  0.
         12    1    1    2    0    0 -0.19744733180E+02 -0.24620225044E+02 -0.45506712908E+01  0.31886024819E+02  0.00000000000E+00 0. -1.
         11    1    3    3    0    0  0.11305260406E+02  0.52567010972E+00 -0.64175070907E+01  0.13010366614E+02  0.51100000000E-03 0. -1.
        -11    1    3    3    0    0  0.71498040607E+01 -0.38668104562E+01  0.15911367879E+02  0.17867387869E+02  0.51100000000E-03 0.  1.
         12    1    3    3    0    0  0.12896687128E+01  0.27961365390E+02 -0.49431894977E+01  0.28424220698E+02  0.00000000000E+00 0. -1.
</event>
<event>
 7    1  0.5837204E-012  0.5930198E+02  0.7816164E-02  0.1266605E+00
        -11   -1    0    0    0    0  0.00000000000E+00  0.00000000000E+00  0.45593999997E+02  0.45594000000E+02  0.51100000000E-03 0.  1.
         11   -1    0    0    0    0 -0.00000000000E+00 -0.00000000000E+00 -0.45593999997E+02  0.45594000000E+02  0.51100000000E-03 0. -1.
    9900012    2    1    2    0    0  0.62011683338E+01 -0.29532969618E+02  0.10298912321E+02  0.59301978327E+02  0.50000062553E+02 0.  0.
         12    1    1    2    0    0 -0.62011683338E+01  0.29532969618E+02 -0.10298912321E+02  0.31886021673E+02  0.00000000000E+00 0. -1.
         11    1    3    3    0    0 -0.61145449387E+00  0.28593415067E+01 -0.60593283422E+00  0.29861120727E+01  0.51100000000E-03 0. -1.
        -11    1    3    3    0    0 -0.29409715153E+01  0.57321128844E+00  0.20425205977E+02  0.20643810794E+02  0.51100000000E-03 0.  1.
        -12    1    3    3    0    0  0.97535943430E+01 -0.32965522413E+02 -0.95203608214E+01  0.35672055460E+02  0.00000000000E+00 0.  1.
</event>
<event>
 7    1  0.5837204E-012  0.5930193E+02  0.7816164E-02  0.1266605E+00
        -11   -1    0    0    0    0  0.00000000000E+00  0.00000000000E+00  0.45593999997E+02  0.45594000000E+02  0.51100000000E-03 0.  1.
         11   -1    0    0    0    0 -0.00000000000E+00 -0.00000000000E+00 -0.45593999997E+02  0.45594000000E+02  0.51100000000E-03 0. -1.
    9900012    2    1    2    0    0  0.25979104412E+02  0.10342531621E+02  0.15324484390E+02  0.59301927049E+02  0.49999969036E+02 0.  0.
         12    1    1    2    0    0 -0.25979104412E+02 -0.10342531621E+02 -0.15324484390E+02  0.31886072951E+02  0.00000000000E+00 0. -1.
         11    1    3    3    0    0  0.30665133139E+02  0.53865471200E+01  0.61081658284E+01  0.31728141615E+02  0.51100000000E-03 0. -1.
        -11    1    3    3    0    0  0.49779492467E+01  0.11749156101E+02  0.28267511437E+00  0.12763328456E+02  0.51100000000E-03 0.  1.
         12    1    3    3    0    0 -0.96639779739E+01 -0.67931715999E+01  0.89336434476E+01  0.14810456979E+02  0.00000000000E+00 0. -1.
</event>
<event>
 7    1  0.5837204E-012  0.5930195E+02  0.7816164E-02  0.1266605E+00
        -11   -1    0    0    0    0  0.00000000000E+00  0.00000000000E+00  0.45593999997E+02  0.45594000000E+02  0.51100000000E-03 0.  1.
         11   -1    0    0    0    0 -0.00000000000E+00 -0.00000000000E+00 -0.45593999997E+02  0.45594000000E+02  0.51100000000E-03 0. -1.
    9900012    2    1    2    0    0  0.39106442322E+01 -0.18605533076E+01  0.31590594072E+02  0.59301946141E+02  0.50000003853E+02 0.  0.
         12    1    1    2    0    0 -0.39106442322E+01  0.18605533076E+01 -0.31590594072E+02  0.31886053859E+02  0.00000000000E+00 0. -1.
         11    1    3    3    0    0  0.64320165017E+01 -0.27974970474E+01  0.58198361528E+01  0.91141274467E+01  0.51100000000E-03 0. -1.
        -11    1    3    3    0    0  0.86223400127E+01 -0.24671647216E+01  0.34488519973E+02  0.35635511211E+02  0.51100000000E-03 0.  1.
         12    1    3    3    0    0 -0.11143712282E+02  0.34041084614E+01 -0.87177620544E+01  0.14552307483E+02  0.00000000000E+00 0. -1.
</event>
<event>
 7    1  0.5837204E-012  0.5930195E+02  0.7816164E-02  0.1266605E+00
        -11   -1    0    0    0    0  0.00000000000E+00  0.00000000000E+00  0.45593999997E+02  0.45594000000E+02  0.51100000000E-03 0.  1.
         11   -1    0    0    0    0 -0.00000000000E+00 -0.00000000000E+00 -0.45593999997E+02  0.45594000000E+02  0.51100000000E-03 0. -1.
    9900012    2    1    2    0    0  0.24203838652E+02  0.20550814934E+02 -0.29254671055E+01  0.59301950422E+02  0.50000011661E+02 0.  0.
         12    1    1    2    0    0 -0.24203838652E+02 -0.20550814934E+02  0.29254671055E+01  0.31886049578E+02  0.00000000000E+00 0. -1.
         11    1    3    3    0    0 -0.47445835285E+01  0.80838960611E+01 -0.19190749906E+02  0.21357559098E+02  0.51100000000E-03 0. -1.
        -11    1    3    3    0    0  0.11137685568E+02  0.15055160465E+01 -0.33409341655E+00  0.11243942238E+02  0.51100000000E-03 0.  1.
        -12    1    3    3    0    0  0.17810736612E+02  0.10961402827E+02  0.16599376217E+02  0.26700449086E+02  0.00000000000E+00 0.  1.
</event>
<event>
 7    1  0.5837204E-012  0.5930194E+02  0.7816164E-02  0.1266605E+00
        -11   -1    0    0    0    0  0.00000000000E+00  0.00000000000E+00  0.45593999997E+02  0.45594000000E+02  0.51100000000E-03 0.  1.
         11   -1    0    0    0    0 -0.00000000000E+00 -0.00000000000E+00 -0.45593999997E+02  0.45594000000E+02  0.51100000000E-03 0. -1.
    9900012    2    1    2    0    0 -0.14969240743E+02 -0.19903967474E+02  0.19911668012E+02  0.59301943288E+02  0.49999998651E+02 0.  0.
         12    1    1    2    0    0  0.14969240743E+02  0.19903967474E+02 -0.19911668012E+02  0.31886056712E+02  0.00000000000E+00 0. -1.
         11    1    3    3    0    0  0.17185291204E+01 -0.13461926776E+01  0.19008227589E+02  0.19133172591E+02  0.51100000000E-03 0.  1.
        -11    1    3    3    0    0  0.64446136485E+00 -0.20306527694E+02 -0.63687191581E+01  0.21291570666E+02  0.51100000000E-03 0. -1.
         12    1    3    3    0    0 -0.17332231228E+02  0.17487528981E+01  0.72721595819E+01  0.18877200031E+02  0.00000000000E+00 0. -1.
</event>
<event>
 7    1  0.5837204E-012  0.5930197E+02  0.7816164E-02  0.1266605E+00
        -11   -1    0    0    0    0  0.00000000000E+00  0.00000000000E+00  0.45593999997E+02  0.45594000000E+02  0.51100000000E-03 0.  1.
         11   -1    0    0    0    0 -0.00000000000E+00 -0.00000000000E+00 -0.45593999997E+02  0.45594000000E+02  0.51100000000E-03 0. -1.
    9900012    2    1    2    0    0  0.12870644883E+02 -0.20758245134E+02 -0.20497823375E+02  0.59301968515E+02  0.50000044659E+02 0.  0.
         12    1    1    2    0    0 -0.12870644883E+02  0.20758245134E+02  0.20497823375E+02  0.31886031485E+02  0.00000000000E+00 0. -1.
         11    1    3    3    0    0 -0.48641682011E+01 -0.91400199044E+01 -0.17977658071E+02  0.20745994459E+02  0.51100000000E-03 0. -1.
        -11    1    3    3    0    0  0.17432506340E+02  0.78752068476E+00 -0.13440054460E+02  0.22026064793E+02  0.51100000000E-03 0.  1.
        -12    1    3    3    0    0  0.30230674373E+00 -0.12405745914E+02  0.10919889156E+02  0.16529909263E+02  0.00000000000E+00 0.  1.
</event>
<event>
 7    1  0.5837204E-012  0.5930194E+02  0.7816164E-02  0.1266605E+00
        -11   -1    0    0    0    0  0.00000000000E+00  0.00000000000E+00  0.45593999997E+02  0.45594000000E+02  0.51100000000E-03 0.  1.
         11   -1    0    0    0    0 -0.00000000000E+00 -0.00000000000E+00 -0.45593999997E+02  0.45594000000E+02  0.51100000000E-03 0. -1.
    9900012    2    1    2    0    0 -0.44922953255E+01  0.27325254659E+02  0.15807296401E+02  0.59301939112E+02  0.49999991035E+02 0.  0.
         12    1    1    2    0    0  0.44922953255E+01 -0.27325254659E+02 -0.15807296401E+02  0.31886060888E+02  0.00000000000E+00 0. -1.
         11    1    3    3    0    0  0.10322316148E+02  0.28633815113E+01  0.12799067133E+02  0.16690275135E+02  0.51100000000E-03 0. -1.
        -11    1    3    3    0    0  0.20574280930E+01  0.13378814359E+02  0.14127209481E+02  0.19565370734E+02  0.51100000000E-03 0.  1.
         12    1    3    3    0    0 -0.16872039567E+02  0.11083058789E+02 -0.11118980213E+02  0.23046293243E+02  0.00000000000E+00 0. -1.
</event>
<event>
 7    1  0.5837204E-012  0.5930193E+02  0.7816164E-02  0.1266605E+00
        -11   -1    0    0    0    0  0.00000000000E+00  0.00000000000E+00  0.45593999997E+02  0.45594000000E+02  0.51100000000E-03 0. -1.
         11   -1    0    0    0    0 -0.00000000000E+00 -0.00000000000E+00 -0.45593999997E+02  0.45594000000E+02  0.51100000000E-03 0.  1.
    9900012    2    1    2    0    0  0.13197548384E+02 -0.28236819802E+01 -0.28888982478E+02  0.59301925110E+02  0.49999965499E+02 0.  0.
         12    1    1    2    0    0 -0.13197548384E+02  0.28236819802E+01  0.28888982478E+02  0.31886074890E+02  0.00000000000E+00 0. -1.
         11    1    3    3    0    0 -0.45228969483E+01  0.13662996335E+02 -0.15011490102E+02  0.20796127067E+02  0.51100000000E-03 0. -1.
        -11    1    3    3    0    0 -0.17279445912E-01  0.54761417921E+00 -0.13902433755E+02  0.13913225523E+02  0.51100000000E-03 0.  1.
        -12    1    3    3    0    0  0.17737724778E+02 -0.17034292495E+02  0.24941379111E-01  0.24592572520E+02  0.00000000000E+00 0.  1.
</event>
<event>
 7    1  0.5837204E-012  0.5930196E+02  0.7816164E-02  0.1266605E+00
        -11   -1    0    0    0    0  0.00000000000E+00  0.00000000000E+00  0.45593999997E+02  0.45594000000E+02  0.51100000000E-03 0.  1.
         11   -1    0    0    0    0 -0.00000000000E+00 -0.00000000000E+00 -0.45593999997E+02  0.45594000000E+02  0.51100000000E-03 0. -1.
    9900012    2    1    2    0    0  0.22927393433E+02  0.84124434196E+01  0.20500854225E+02  0.59301959200E+02  0.50000027671E+02 0.  0.
         12    1    1    2    0    0 -0.22927393433E+02 -0.84124434196E+01 -0.20500854225E+02  0.31886040800E+02  0.00000000000E+00 0. -1.
         11    1    3    3    0    0  0.14026756280E+02 -0.10795522407E+02  0.88456167990E+01  0.19787322522E+02  0.51100000000E-03 0. -1.
        -11    1    3    3    0    0 -0.27624661104E+01 -0.48091582322E+01 -0.54743745874E+01  0.77928171605E+01  0.51100000000E-03 0.  1.
        -12    1    3    3    0    0  0.11663103263E+02  0.24017124059E+02  0.17129612013E+02  0.31721819518E+02  0.00000000000E+00 0.  1.
</event>
<event>
 7    1  0.5837204E-012  0.5930193E+02  0.7816164E-02  0.1266605E+00
        -11   -1    0    0    0    0  0.00000000000E+00  0.00000000000E+00  0.45593999997E+02  0.45594000000E+02  0.51100000000E-03 0. -1.
         11   -1    0    0    0    0 -0.00000000000E+00 -0.00000000000E+00 -0.45593999997E+02  0.45594000000E+02  0.51100000000E-03 0.  1.
    9900012    2    1    2    0    0 -0.21923467603E+02  0.12913129552E+02 -0.19218071594E+02  0.59301927455E+02  0.49999969775E+02 0.  0.
         12    1    1    2    0    0  0.21923467603E+02 -0.12913129552E+02  0.19218071594E+02  0.31886072545E+02  0.00000000000E+00 0. -1.
         11    1    3    3    0    0 -0.14487675077E+02  0.33526684687E+01 -0.11107749445E+01  0.14911972915E+02  0.51100000000E-03 0. -1.
        -11    1    3    3    0    0 -0.49237632346E+01  0.18730246386E+02  0.44845053236E+01  0.19879043295E+02  0.51100000000E-03 0.  1.
         12    1    3    3    0    0 -0.25120292915E+01 -0.91697853026E+01 -0.22591801973E+02  0.24510911245E+02  0.00000000000E+00 0. -1.
</event>
<event>
 7    1  0.5837204E-012  0.5930193E+02  0.7816164E-02  0.1266605E+00
        -11   -1    0    0    0    0  0.00000000000E+00  0.00000000000E+00  0.45593999997E+02  0.45594000000E+02  0.51100000000E-03 0. -1.
         11   -1    0    0    0    0 -0.00000000000E+00 -0.00000000000E+00 -0.45593999997E+02  0.45594000000E+02  0.51100000000E-03 0.  1.
    9900012    2    1    2    0    0  0.27576177816E+00  0.12777274870E+02 -0.29212779755E+02  0.59301932530E+02  0.49999979032E+02 0.  0.
         12    1    1    2    0    0 -0.27576177816E+00 -0.12777274870E+02  0.29212779755E+02  0.31886067470E+02  0.00000000000E+00 0. -1.
         11    1    3    3    0    0  0.13814839399E+02  0.18339302652E+01 -0.27551302323E+02  0.30875351784E+02  0.51100000000E-03 0. -1.
        -11    1    3    3    0    0  0.60647127830E+01  0.58625492123E+00 -0.14081152122E+01  0.62535769512E+01  0.51100000000E-03 0.  1.
        -12    1    3    3    0    0 -0.19603790403E+02  0.10357089684E+02 -0.25336221974E+00  0.22173003795E+02  0.00000000000E+00 0.  1.
</event>
<event>
 7    1  0.5837204E-012  0.5930194E+02  0.7816164E-02  0.1266605E+00
        -11   -1    0    0    0    0  0.00000000000E+00  0.00000000000E+00  0.45593999997E+02  0.45594000000E+02  0.51100000000E-03 0.  1.
         11   -1    0    0    0    0 -0.00000000000E+00 -0.00000000000E+00 -0.45593999997E+02  0.45594000000E+02  0.51100000000E-03 0. -1.
    9900012    2    1    2    0    0  0.18696403893E+01 -0.24333939397E+02 -0.20520354217E+02  0.59301935662E+02  0.49999984743E+02 0.  0.
         12    1    1    2    0    0 -0.18696403893E+01  0.24333939397E+02  0.20520354217E+02  0.31886064338E+02  0.00000000000E+00 0. -1.
         11    1    3    3    0    0 -0.23217901735E+01 -0.69288362297E+01 -0.23647744820E+02  0.24751066976E+02  0.51100000000E-03 0. -1.
        -11    1    3    3    0    0  0.85137918617E+01 -0.19099179659E+02 -0.80818419328E+01  0.22418284609E+02  0.51100000000E-03 0.  1.
        -12    1    3    3    0    0 -0.43223612989E+01  0.16940764918E+01  0.11209232535E+02  0.12132584077E+02  0.00000000000E+00 0.  1.
</event>
<event>
 7    1  0.5837204E-012  0.5930201E+02  0.7816164E-02  0.1266605E+00
        -11   -1    0    0    0    0  0.00000000000E+00  0.00000000000E+00  0.45593999997E+02  0.45594000000E+02  0.51100000000E-03 0. -1.
         11   -1    0    0    0    0 -0.00000000000E+00 -0.00000000000E+00 -0.45593999997E+02  0.45594000000E+02  0.51100000000E-03 0.  1.
    9900012    2    1    2    0    0 -0.25832487881E+02  0.13567129043E+02 -0.12858147278E+02  0.59302009785E+02  0.50000119925E+02 0.  0.
         12    1    1    2    0    0  0.25832487881E+02 -0.13567129043E+02  0.12858147278E+02  0.31885990215E+02  0.00000000000E+00 0. -1.
         11    1    3    3    0    0 -0.51073480536E+01  0.25185554011E+02 -0.94821284844E+01  0.27391748682E+02  0.51100000000E-03 0. -1.
        -11    1    3    3    0    0 -0.74968043432E+01 -0.29761126198E+00 -0.10661048961E+02  0.13036434061E+02  0.51100000000E-03 0.  1.
         12    1    3    3    0    0 -0.13228335484E+02 -0.11320813707E+02  0.72850301672E+01  0.18873827042E+02  0.00000000000E+00 0. -1.
</event>
<event>
 7    1  0.5837204E-012  0.5930194E+02  0.7816164E-02  0.1266605E+00
        -11   -1    0    0    0    0  0.00000000000E+00  0.00000000000E+00  0.45593999997E+02  0.45594000000E+02  0.51100000000E-03 0. -1.
         11   -1    0    0    0    0 -0.00000000000E+00 -0.00000000000E+00 -0.45593999997E+02  0.45594000000E+02  0.51100000000E-03 0.  1.
    9900012    2    1    2    0    0  0.30973003649E+01 -0.41917854243E+01 -0.31457214046E+02  0.59301942700E+02  0.49999997579E+02 0.  0.
         12    1    1    2    0    0 -0.30973003649E+01  0.41917854243E+01  0.31457214046E+02  0.31886057300E+02  0.00000000000E+00 0. -1.
         11    1    3    3    0    0 -0.15876428090E+01  0.55544972023E+01 -0.20421960805E+01  0.61272843864E+01  0.51100000000E-03 0. -1.
        -11    1    3    3    0    0  0.16099906745E+02  0.48358365878E+00 -0.33620792681E+02  0.37280002027E+02  0.51100000000E-03 0.  1.
         12    1    3    3    0    0 -0.11414963571E+02 -0.10229866285E+02  0.42057747157E+01  0.15894656288E+02  0.00000000000E+00 0. -1.
</event>
<event>
 7    1  0.5837204E-012  0.5930192E+02  0.7816164E-02  0.1266605E+00
        -11   -1    0    0    0    0  0.00000000000E+00  0.00000000000E+00  0.45593999997E+02  0.45594000000E+02  0.51100000000E-03 0.  1.
         11   -1    0    0    0    0 -0.00000000000E+00 -0.00000000000E+00 -0.45593999997E+02  0.45594000000E+02  0.51100000000E-03 0. -1.
    9900012    2    1    2    0    0  0.25368269216E+02  0.19283259779E+02  0.11526681204E+01  0.59301924128E+02  0.49999963708E+02 0.  0.
         12    1    1    2    0    0 -0.25368269216E+02 -0.19283259779E+02 -0.11526681204E+01  0.31886075872E+02  0.00000000000E+00 0. -1.
         11    1    3    3    0    0  0.30018485287E+00  0.12945552679E+02 -0.92540319282E+01  0.15915858516E+02  0.51100000000E-03 0. -1.
        -11    1    3    3    0    0 -0.47957145219E+00 -0.90243321527E+01  0.10128577111E+02  0.13574116330E+02  0.51100000000E-03 0.  1.
         12    1    3    3    0    0  0.25547655815E+02  0.15362039253E+02  0.27812293736E+00  0.29811949283E+02  0.00000000000E+00 0. -1.
</event>
<event>
 7    1  0.5837204E-012  0.5930194E+02  0.7816164E-02  0.1266605E+00
        -11   -1    0    0    0    0  0.00000000000E+00  0.00000000000E+00  0.45593999997E+02  0.45594000000E+02  0.51100000000E-03 0. -1.
         11   -1    0    0    0    0 -0.00000000000E+00 -0.00000000000E+00 -0.45593999997E+02  0.45594000000E+02  0.51100000000E-03 0.  1.
    9900012    2    1    2    0    0  0.14908779112E+02 -0.12109397227E+02 -0.25452146880E+02  0.59301937580E+02  0.49999988242E+02 0.  0.
         12    1    1    2    0    0 -0.14908779112E+02  0.12109397227E+02  0.25452146880E+02  0.31886062420E+02  0.00000000000E+00 0. -1.
         11    1    3    3    0    0  0.15657401684E+02  0.90268511782E+01 -0.81116357525E+01  0.19810020306E+02  0.51100000000E-03 0. -1.
        -11    1    3    3    0    0  0.11505656153E+02 -0.19447576775E+02 -0.79231596252E+01  0.23945037579E+02  0.51100000000E-03 0.  1.
        -12    1    3    3    0    0 -0.12254278725E+02 -0.16886716304E+01 -0.94173515021E+01  0.15546879695E+02  0.00000000000E+00 0.  1.
</event>
<event>
 7    1  0.5837204E-012  0.5930193E+02  0.7816164E-02  0.1266605E+00
        -11   -1    0    0    0    0  0.00000000000E+00  0.00000000000E+00  0.45593999997E+02  0.45594000000E+02  0.51100000000E-03 0. -1.
         11   -1    0    0    0    0 -0.00000000000E+00 -0.00000000000E+00 -0.45593999997E+02  0.45594000000E+02  0.51100000000E-03 0.  1.
    9900012    2    1    2    0    0  0.21376702045E+01  0.10839703542E+02 -0.29910744841E+02  0.59301929942E+02  0.49999974311E+02 0.  0.
         12    1    1    2    0    0 -0.21376702045E+01 -0.10839703542E+02  0.29910744841E+02  0.31886070058E+02  0.00000000000E+00 0. -1.
         11    1    3    3    0    0  0.93543243128E+01  0.22378608275E+02 -0.32303449003E+01  0.24469176939E+02  0.51100000000E-03 0. -1.
        -11    1    3    3    0    0  0.54035541984E+01 -0.49007632604E+01 -0.13835764513E+02  0.15641107967E+02  0.51100000000E-03 0.  1.
        -12    1    3    3    0    0 -0.12620208307E+02 -0.66381414717E+01 -0.12844635428E+02  0.19191645036E+02  0.00000000000E+00 0.  1.
</event>
<event>
 7    1  0.5837204E-012  0.5930197E+02  0.7816164E-02  0.1266605E+00
        -11   -1    0    0    0    0  0.00000000000E+00  0.00000000000E+00  0.45593999997E+02  0.45594000000E+02  0.51100000000E-03 0.  1.
         11   -1    0    0    0    0 -0.00000000000E+00 -0.00000000000E+00 -0.45593999997E+02  0.45594000000E+02  0.51100000000E-03 0. -1.
    9900012    2    1    2    0    0 -0.20389415533E+02 -0.16293992760E+02  0.18316556853E+02  0.59301972954E+02  0.50000052754E+02 0.  0.
         12    1    1    2    0    0  0.20389415533E+02  0.16293992760E+02 -0.18316556853E+02  0.31886027046E+02  0.00000000000E+00 0. -1.
         11    1    3    3    0    0 -0.28308982101E+01 -0.49419446936E+01  0.23321586614E+01  0.61543290709E+01  0.51100000000E-03 0. -1.
        -11    1    3    3    0    0 -0.33371324289E+02 -0.77420540981E+01  0.13081395879E+02  0.36670255042E+02  0.51100000000E-03 0.  1.
        -12    1    3    3    0    0  0.15812806966E+02 -0.36099939683E+01  0.29030023126E+01  0.16477388841E+02  0.00000000000E+00 0.  1.
</event>
<event>
 7    1  0.5837204E-012  0.5930203E+02  0.7816164E-02  0.1266604E+00
        -11   -1    0    0    0    0  0.00000000000E+00  0.00000000000E+00  0.45593999997E+02  0.45594000000E+02  0.51100000000E-03 0. -1.
         11   -1    0    0    0    0 -0.00000000000E+00 -0.00000000000E+00 -0.45593999997E+02  0.45594000000E+02  0.51100000000E-03 0.  1.
    9900012    2    1    2    0    0  0.58016647569E+01  0.16339206824E+02 -0.26759786188E+02  0.59302028940E+02  0.50000154859E+02 0.  0.
         12    1    1    2    0    0 -0.58016647569E+01 -0.16339206824E+02  0.26759786188E+02  0.31885971060E+02  0.00000000000E+00 0. -1.
         11    1    3    3    0    0  0.20513439865E+02  0.29238845695E+01 -0.13627446793E+00  0.20721218282E+02  0.51100000000E-03 0. -1.
        -11    1    3    3    0    0  0.25207555806E+01 -0.15016911604E+01 -0.98614037201E+01  0.10288662140E+02  0.51100000000E-03 0.  1.
        -12    1    3    3    0    0 -0.17232530689E+02  0.14917013415E+02 -0.16762108000E+02  0.28292148518E+02  0.00000000000E+00 0.  1.
</event>
<event>
 7    1  0.5837204E-012  0.5930195E+02  0.7816164E-02  0.1266605E+00
        -11   -1    0    0    0    0  0.00000000000E+00  0.00000000000E+00  0.45593999997E+02  0.45594000000E+02  0.51100000000E-03 0. -1.
         11   -1    0    0    0    0 -0.00000000000E+00 -0.00000000000E+00 -0.45593999997E+02  0.45594000000E+02  0.51100000000E-03 0.  1.
    9900012    2    1    2    0    0  0.81089194993E+01 -0.27102583041E+02  0.14711075447E+02  0.59301947818E+02  0.50000006913E+02 0.  0.
         12    1    1    2    0    0 -0.81089194993E+01  0.27102583041E+02 -0.14711075447E+02  0.31886052182E+02  0.00000000000E+00 0. -1.
         11    1    3    3    0    0  0.18206774447E+02 -0.33039765979E+01  0.16326978739E+01  0.18576022171E+02  0.51100000000E-03 0.  1.
        -11    1    3    3    0    0  0.26857697188E+01  0.56787777352E+01  0.81236534286E+00  0.63341781834E+01  0.51100000000E-03 0. -1.
         12    1    3    3    0    0 -0.12783624666E+02 -0.29477384178E+02  0.12266012230E+02  0.34391747464E+02  0.00000000000E+00 0. -1.
</event>
<event>
 7    1  0.5837204E-012  0.5930194E+02  0.7816164E-02  0.1266605E+00
        -11   -1    0    0    0    0  0.00000000000E+00  0.00000000000E+00  0.45593999997E+02  0.45594000000E+02  0.51100000000E-03 0. -1.
         11   -1    0    0    0    0 -0.00000000000E+00 -0.00000000000E+00 -0.45593999997E+02  0.45594000000E+02  0.51100000000E-03 0.  1.
    9900012    2    1    2    0    0 -0.92150745475E+01  0.28419053364E+02 -0.11142731800E+02  0.59301942467E+02  0.49999997154E+02 0.  0.
         12    1    1    2    0    0  0.92150745475E+01 -0.28419053364E+02  0.11142731800E+02  0.31886057533E+02  0.00000000000E+00 0. -1.
         11    1    3    3    0    0  0.60365947697E+01 -0.38276690506E+01  0.43943988216E+01  0.83906059399E+01  0.51100000000E-03 0. -1.
        -11    1    3    3    0    0 -0.18530033788E+01  0.34466789234E+02 -0.13983071714E+02  0.37241367811E+02  0.51100000000E-03 0.  1.
        -12    1    3    3    0    0 -0.13398665938E+02 -0.22200668191E+01 -0.15540589073E+01  0.13669968716E+02  0.00000000000E+00 0.  1.
</event>
<event>
 7    1  0.5837204E-012  0.5930194E+02  0.7816164E-02  0.1266605E+00
        -11   -1    0    0    0    0  0.00000000000E+00  0.00000000000E+00  0.45593999997E+02  0.45594000000E+02  0.51100000000E-03 0.  1.
         11   -1    0    0    0    0 -0.00000000000E+00 -0.00000000000E+00 -0.45593999997E+02  0.45594000000E+02  0.51100000000E-03 0. -1.
    9900012    2    1    2    0    0 -0.23282682416E+02  0.21678908207E+02  0.21593453307E+01  0.59301935116E+02  0.49999983747E+02 0.  0.
         12    1    1    2    0    0  0.23282682416E+02 -0.21678908207E+02 -0.21593453307E+01  0.31886064884E+02  0.00000000000E+00 0. -1.
         11    1    3    3    0    0 -0.15356115000E+00  0.33142216398E+01 -0.14018270735E+02  0.14405539239E+02  0.51100000000E-03 0. -1.
        -11    1    3    3    0    0 -0.18011357776E+02 -0.27903149741E+01  0.79415444607E+00  0.18243507013E+02  0.51100000000E-03 0.  1.
        -12    1    3    3    0    0 -0.51177634897E+01  0.21155001541E+02  0.15383461620E+02  0.26652888863E+02  0.00000000000E+00 0.  1.
</event>
<event>
 7    1  0.5837204E-012  0.5930196E+02  0.7816164E-02  0.1266605E+00
        -11   -1    0    0    0    0  0.00000000000E+00  0.00000000000E+00  0.45593999997E+02  0.45594000000E+02  0.51100000000E-03 0. -1.
         11   -1    0    0    0    0 -0.00000000000E+00 -0.00000000000E+00 -0.45593999997E+02  0.45594000000E+02  0.51100000000E-03 0.  1.
    9900012    2    1    2    0    0 -0.24697526169E+02  0.13694788184E+01 -0.20121545054E+02  0.59301955302E+02  0.50000020562E+02 0.  0.
         12    1    1    2    0    0  0.24697526169E+02 -0.13694788184E+01  0.20121545054E+02  0.31886044698E+02  0.00000000000E+00 0. -1.
         11    1    3    3    0    0  0.10836321868E+01 -0.11258850781E+02 -0.15272494156E+02  0.19004869313E+02  0.51100000000E-03 0. -1.
        -11    1    3    3    0    0  0.53680115151E+01  0.27059704536E+01  0.29381313008E+01  0.66910716275E+01  0.51100000000E-03 0.  1.
        -12    1    3    3    0    0 -0.31149169871E+02  0.99223591457E+01 -0.77871821988E+01  0.33606014362E+02  0.00000000000E+00 0.  1.
</event>
<event>
 7    1  0.5837204E-012  0.5930194E+02  0.7816164E-02  0.1266605E+00
        -11   -1    0    0    0    0  0.00000000000E+00  0.00000000000E+00  0.45593999997E+02  0.45594000000E+02  0.51100000000E-03 0.  1.
         11   -1    0    0    0    0 -0.00000000000E+00 -0.00000000000E+00 -0.45593999997E+02  0.45594000000E+02  0.51100000000E-03 0. -1.
    9900012    2    1    2    0    0 -0.47730922978E+01 -0.47325309869E-01  0.31526755233E+02  0.59301938072E+02  0.49999989137E+02 0.  0.
         12    1    1    2    0    0  0.47730922978E+01  0.47325309869E-01 -0.31526755233E+02  0.31886061928E+02  0.00000000000E+00 0. -1.
         11    1    3    3    0    0 -0.92804545400E+01 -0.20127821277E+02  0.11599301142E+02  0.25015991147E+02  0.51100000000E-03 0. -1.
        -11    1    3    3    0    0  0.43540549576E+01 -0.18308104421E+01  0.83642993082E-01  0.47240510010E+01  0.51100000000E-03 0.  1.
        -12    1    3    3    0    0  0.15330728466E+00  0.21911306409E+02  0.19843811098E+02  0.29561895924E+02  0.00000000000E+00 0.  1.
</event>
<event>
 7    1  0.5837204E-012  0.5930193E+02  0.7816164E-02  0.1266605E+00
        -11   -1    0    0    0    0  0.00000000000E+00  0.00000000000E+00  0.45593999997E+02  0.45594000000E+02  0.51100000000E-03 0. -1.
         11   -1    0    0    0    0 -0.00000000000E+00 -0.00000000000E+00 -0.45593999997E+02  0.45594000000E+02  0.51100000000E-03 0.  1.
    9900012    2    1    2    0    0  0.83259887763E+01 -0.12013289042E+02 -0.28338674703E+02  0.59301926447E+02  0.49999967937E+02 0.  0.
         12    1    1    2    0    0 -0.83259887763E+01  0.12013289042E+02  0.28338674703E+02  0.31886073553E+02  0.00000000000E+00 0. -1.
         11    1    3    3    0    0  0.10686135093E+02 -0.20262207155E+01 -0.11587874050E+02  0.15892698917E+02  0.51100000000E-03 0. -1.
        -11    1    3    3    0    0 -0.19759671632E-01 -0.24922913232E+02 -0.10792945456E+02  0.27159522571E+02  0.51100000000E-03 0.  1.
         12    1    3    3    0    0 -0.23403866454E+01  0.14935844906E+02 -0.59578551976E+01  0.16249704959E+02  0.00000000000E+00 0. -1.
</event>
<event>
 7    1  0.5837204E-012  0.5930195E+02  0.7816164E-02  0.1266605E+00
        -11   -1    0    0    0    0  0.00000000000E+00  0.00000000000E+00  0.45593999997E+02  0.45594000000E+02  0.51100000000E-03 0. -1.
         11   -1    0    0    0    0 -0.00000000000E+00 -0.00000000000E+00 -0.45593999997E+02  0.45594000000E+02  0.51100000000E-03 0.  1.
    9900012    2    1    2    0    0 -0.31528952537E+02  0.47495861875E+01  0.29408631432E+00  0.59301954403E+02  0.50000018923E+02 0.  0.
         12    1    1    2    0    0  0.31528952537E+02 -0.47495861875E+01 -0.29408631432E+00  0.31886045597E+02  0.00000000000E+00 0. -1.
         11    1    3    3    0    0 -0.32795805083E+02 -0.15064148601E+02 -0.37002724906E+01  0.36279269850E+02  0.51100000000E-03 0.  1.
        -11    1    3    3    0    0  0.23966205936E+01  0.62886643044E+01  0.63439770264E+01  0.92486287512E+01  0.51100000000E-03 0. -1.
        -12    1    3    3    0    0 -0.11297680477E+01  0.13525070484E+02 -0.23496182216E+01  0.13774055802E+02  0.00000000000E+00 0.  1.
</event>
<event>
 7    1  0.5837204E-012  0.5930193E+02  0.7816164E-02  0.1266605E+00
        -11   -1    0    0    0    0  0.00000000000E+00  0.00000000000E+00  0.45593999997E+02  0.45594000000E+02  0.51100000000E-03 0. -1.
         11   -1    0    0    0    0 -0.00000000000E+00 -0.00000000000E+00 -0.45593999997E+02  0.45594000000E+02  0.51100000000E-03 0.  1.
    9900012    2    1    2    0    0 -0.27121771486E+02 -0.36293380064E+01 -0.16369457688E+02  0.59301925800E+02  0.49999966757E+02 0.  0.
         12    1    1    2    0    0  0.27121771486E+02  0.36293380064E+01  0.16369457688E+02  0.31886074200E+02  0.00000000000E+00 0. -1.
         11    1    3    3    0    0  0.21426022194E+01 -0.14695301736E+02 -0.50939310195E+01  0.15700024550E+02  0.51100000000E-03 0. -1.
        -11    1    3    3    0    0 -0.90794165099E+01  0.22627338698E+01 -0.18244738355E+02  0.20504298248E+02  0.51100000000E-03 0.  1.
        -12    1    3    3    0    0 -0.20184957195E+02  0.88032298595E+01  0.69692116867E+01  0.23097603003E+02  0.00000000000E+00 0.  1.
</event>
<event>
 7    1  0.5837204E-012  0.5930195E+02  0.7816164E-02  0.1266605E+00
        -11   -1    0    0    0    0  0.00000000000E+00  0.00000000000E+00  0.45593999997E+02  0.45594000000E+02  0.51100000000E-03 0.  1.
         11   -1    0    0    0    0 -0.00000000000E+00 -0.00000000000E+00 -0.45593999997E+02  0.45594000000E+02  0.51100000000E-03 0. -1.
    9900012    2    1    2    0    0 -0.23533660808E+02  0.40279803147E+01  0.21134392502E+02  0.59301947205E+02  0.50000005795E+02 0.  0.
         12    1    1    2    0    0  0.23533660808E+02 -0.40279803147E+01 -0.21134392502E+02  0.31886052795E+02  0.00000000000E+00 0. -1.
         11    1    3    3    0    0 -0.12866738148E+02 -0.14568895627E+02  0.19673439028E+02  0.27655919326E+02  0.51100000000E-03 0. -1.
        -11    1    3    3    0    0 -0.42438403731E+01 -0.52842604402E+01 -0.74371488331E+00  0.68181156929E+01  0.51100000000E-03 0.  1.
        -12    1    3    3    0    0 -0.64230822869E+01  0.23881136381E+02  0.22046683570E+01  0.24827912186E+02  0.00000000000E+00 0.  1.
</event>
<event>
 7    1  0.5837204E-012  0.5930195E+02  0.7816164E-02  0.1266605E+00
        -11   -1    0    0    0    0  0.00000000000E+00  0.00000000000E+00  0.45593999997E+02  0.45594000000E+02  0.51100000000E-03 0.  1.
         11   -1    0    0    0    0 -0.00000000000E+00 -0.00000000000E+00 -0.45593999997E+02  0.45594000000E+02  0.51100000000E-03 0. -1.
    9900012    2    1    2    0    0  0.13149358084E+02  0.25968724210E+02  0.13016900470E+02  0.59301953633E+02  0.50000017517E+02 0.  0.
         12    1    1    2    0    0 -0.13149358084E+02 -0.25968724210E+02 -0.13016900470E+02  0.31886046367E+02  0.00000000000E+00 0. -1.
         11    1    3    3    0    0  0.31726062866E+01  0.79317903607E-01 -0.63778544335E+01  0.71238156500E+01  0.51100000000E-03 0. -1.
        -11    1    3    3    0    0 -0.27921371101E+01  0.24138733241E+02 -0.47958139246E+01  0.24768413425E+02  0.51100000000E-03 0.  1.
        -12    1    3    3    0    0  0.12768888907E+02  0.17506730648E+01  0.24190568828E+02  0.27409724558E+02  0.00000000000E+00 0.  1.
</event>
<event>
 7    1  0.5837204E-012  0.5930192E+02  0.7816164E-02  0.1266605E+00
        -11   -1    0    0    0    0  0.00000000000E+00  0.00000000000E+00  0.45593999997E+02  0.45594000000E+02  0.51100000000E-03 0. -1.
         11   -1    0    0    0    0 -0.00000000000E+00 -0.00000000000E+00 -0.45593999997E+02  0.45594000000E+02  0.51100000000E-03 0.  1.
    9900012    2    1    2    0    0 -0.96734099484E+01 -0.26565631741E+02 -0.14744984322E+02  0.59301918201E+02  0.49999952898E+02 0.  0.
         12    1    1    2    0    0  0.96734099484E+01  0.26565631741E+02  0.14744984322E+02  0.31886081799E+02  0.00000000000E+00 0. -1.
         11    1    3    3    0    0  0.11470590653E+01 -0.85478935083E+01 -0.61198262355E+01  0.10575183277E+02  0.51100000000E-03 0. -1.
        -11    1    3    3    0    0 -0.13092502901E+02 -0.31194492672E+02 -0.22276309521E+01  0.33903869177E+02  0.51100000000E-03 0.  1.
         12    1    3    3    0    0  0.22720338871E+01  0.13176754439E+02 -0.63975271339E+01  0.14822865747E+02  0.00000000000E+00 0. -1.
</event>
<event>
 7    1  0.5837204E-012  0.5930193E+02  0.7816164E-02  0.1266605E+00
        -11   -1    0    0    0    0  0.00000000000E+00  0.00000000000E+00  0.45593999997E+02  0.45594000000E+02  0.51100000000E-03 0. -1.
         11   -1    0    0    0    0 -0.00000000000E+00 -0.00000000000E+00 -0.45593999997E+02  0.45594000000E+02  0.51100000000E-03 0.  1.
    9900012    2    1    2    0    0 -0.13233176821E+02 -0.25736619253E+02  0.13387723097E+02  0.59301926722E+02  0.49999968438E+02 0.  0.
         12    1    1    2    0    0  0.13233176821E+02  0.25736619253E+02 -0.13387723097E+02  0.31886073278E+02  0.00000000000E+00 0. -1.
         11    1    3    3    0    0  0.53980313908E+01 -0.20888652664E+02 -0.92272627805E+00  0.21594582122E+02  0.51100000000E-03 0. -1.
        -11    1    3    3    0    0  0.52743316254E+01 -0.40017338881E+01  0.11961855590E+02  0.13671811790E+02  0.51100000000E-03 0.  1.
        -12    1    3    3    0    0 -0.23905539837E+02 -0.84623270159E+00  0.23485937856E+01  0.24035532810E+02  0.00000000000E+00 0.  1.
</event>
<event>
 7    1  0.5837204E-012  0.5930196E+02  0.7816164E-02  0.1266605E+00
        -11   -1    0    0    0    0  0.00000000000E+00  0.00000000000E+00  0.45593999997E+02  0.45594000000E+02  0.51100000000E-03 0.  1.
         11   -1    0    0    0    0 -0.00000000000E+00 -0.00000000000E+00 -0.45593999997E+02  0.45594000000E+02  0.51100000000E-03 0. -1.
    9900012    2    1    2    0    0  0.31722340344E+02 -0.13527974511E+01 -0.29296526339E+01  0.59301955993E+02  0.50000021822E+02 0.  0.
         12    1    1    2    0    0 -0.31722340344E+02  0.13527974511E+01  0.29296526339E+01  0.31886044007E+02  0.00000000000E+00 0. -1.
         11    1    3    3    0    0  0.11381549970E+02 -0.17519067056E+02 -0.74028225289E+00  0.20904674317E+02  0.51100000000E-03 0. -1.
        -11    1    3    3    0    0  0.17257670367E+02  0.12279289466E+02  0.11312963442E+02  0.24012315140E+02  0.51100000000E-03 0.  1.
        -12    1    3    3    0    0  0.30831200063E+01  0.38869801391E+01 -0.13502333823E+02  0.14384966536E+02  0.00000000000E+00 0.  1.
</event>
<event>
 7    1  0.5837204E-012  0.5930193E+02  0.7816164E-02  0.1266605E+00
        -11   -1    0    0    0    0  0.00000000000E+00  0.00000000000E+00  0.45593999997E+02  0.45594000000E+02  0.51100000000E-03 0. -1.
         11   -1    0    0    0    0 -0.00000000000E+00 -0.00000000000E+00 -0.45593999997E+02  0.45594000000E+02  0.51100000000E-03 0.  1.
    9900012    2    1    2    0    0 -0.22350496379E+02  0.19069422357E+02 -0.12390877923E+02  0.59301930736E+02  0.49999975759E+02 0.  0.
         12    1    1    2    0    0  0.22350496379E+02 -0.19069422357E+02  0.12390877923E+02  0.31886069264E+02  0.00000000000E+00 0. -1.
         11    1    3    3    0    0  0.36304859704E+01 -0.51587454993E+01 -0.23086027365E+01  0.67173454849E+01  0.51100000000E-03 0. -1.
        -11    1    3    3    0    0 -0.22210599228E+01 -0.42982756184E+00 -0.17418677190E+02  0.17564970089E+02  0.51100000000E-03 0.  1.
         12    1    3    3    0    0 -0.23759922426E+02  0.24657995418E+02  0.73364020037E+01  0.35019615162E+02  0.00000000000E+00 0. -1.
</event>
<event>
 7    1  0.5837204E-012  0.5930195E+02  0.7816164E-02  0.1266605E+00
        -11   -1    0    0    0    0  0.00000000000E+00  0.00000000000E+00  0.45593999997E+02  0.45594000000E+02  0.51100000000E-03 0.  1.
         11   -1    0    0    0    0 -0.00000000000E+00 -0.00000000000E+00 -0.45593999997E+02  0.45594000000E+02  0.51100000000E-03 0. -1.
    9900012    2    1    2    0    0 -0.12255728472E+02 -0.27251607233E+02  0.11129565458E+02  0.59301949689E+02  0.50000010325E+02 0.  0.
         12    1    1    2    0    0  0.12255728472E+02  0.27251607233E+02 -0.11129565458E+02  0.31886050311E+02  0.00000000000E+00 0. -1.
         11    1    3    3    0    0 -0.18107850317E+02  0.13692640317E+01  0.11650985795E+02  0.21575787294E+02  0.51100000000E-03 0. -1.
        -11    1    3    3    0    0 -0.90117368039E+01 -0.12226929014E+02  0.24942885107E+01  0.15392552380E+02  0.51100000000E-03 0.  1.
         12    1    3    3    0    0  0.14863858650E+02 -0.16393942250E+02 -0.30157088471E+01  0.22333610015E+02  0.00000000000E+00 0. -1.
</event>
<event>
 7    1  0.5837204E-012  0.5930195E+02  0.7816164E-02  0.1266605E+00
        -11   -1    0    0    0    0  0.00000000000E+00  0.00000000000E+00  0.45593999997E+02  0.45594000000E+02  0.51100000000E-03 0.  1.
         11   -1    0    0    0    0 -0.00000000000E+00 -0.00000000000E+00 -0.45593999997E+02  0.45594000000E+02  0.51100000000E-03 0. -1.
    9900012    2    1    2    0    0  0.39359284055E+01  0.99141186937E+00  0.31626664626E+02  0.59301947481E+02  0.50000006297E+02 0.  0.
         12    1    1    2    0    0 -0.39359284055E+01 -0.99141186937E+00 -0.31626664626E+02  0.31886052519E+02  0.00000000000E+00 0. -1.
         11    1    3    3    0    0  0.15741131025E+02  0.67068096077E+01  0.38185441620E+02  0.41843666821E+02  0.51100000000E-03 0. -1.
        -11    1    3    3    0    0 -0.13023961078E+01 -0.28010862054E+01 -0.57517823025E+01  0.65288068947E+01  0.51100000000E-03 0.  1.
        -12    1    3    3    0    0 -0.10502806512E+02 -0.29143115329E+01 -0.80699469163E+00  0.10929473765E+02  0.00000000000E+00 0.  1.
</event>
<event>
 7    1  0.5837204E-012  0.5930196E+02  0.7816164E-02  0.1266605E+00
        -11   -1    0    0    0    0  0.00000000000E+00  0.00000000000E+00  0.45593999997E+02  0.45594000000E+02  0.51100000000E-03 0.  1.
         11   -1    0    0    0    0 -0.00000000000E+00 -0.00000000000E+00 -0.45593999997E+02  0.45594000000E+02  0.51100000000E-03 0. -1.
    9900012    2    1    2    0    0 -0.80954544144E+01  0.28479128546E+02  0.11837331390E+02  0.59301959805E+02  0.50000028774E+02 0.  0.
         12    1    1    2    0    0  0.80954544144E+01 -0.28479128546E+02 -0.11837331390E+02  0.31886040195E+02  0.00000000000E+00 0. -1.
         11    1    3    3    0    0 -0.56310165642E+01  0.18884382920E+02 -0.63661590979E+00  0.19716326887E+02  0.51100000000E-03 0. -1.
        -11    1    3    3    0    0  0.70913615783E+01  0.15310131018E+02 -0.60903160601E+01  0.17938212586E+02  0.51100000000E-03 0.  1.
        -12    1    3    3    0    0 -0.95557994285E+01 -0.57153853929E+01  0.18564263360E+02  0.21647420332E+02  0.00000000000E+00 0.  1.
</event>
<event>
 7    1  0.5837204E-012  0.5930194E+02  0.7816164E-02  0.1266605E+00
        -11   -1    0    0    0    0  0.00000000000E+00  0.00000000000E+00  0.45593999997E+02  0.45594000000E+02  0.51100000000E-03 0. -1.
         11   -1    0    0    0    0 -0.00000000000E+00 -0.00000000000E+00 -0.45593999997E+02  0.45594000000E+02  0.51100000000E-03 0.  1.
    9900012    2    1    2    0    0  0.29767894196E+02 -0.97185643262E+01 -0.60119084862E+01  0.59301936256E+02  0.49999985826E+02 0.  0.
         12    1    1    2    0    0 -0.29767894196E+02  0.97185643262E+01  0.60119084862E+01  0.31886063744E+02  0.00000000000E+00 0. -1.
         11    1    3    3    0    0  0.10412703842E+02 -0.24009910134E+02  0.18291386938E+01  0.26234441762E+02  0.51100000000E-03 0. -1.
        -11    1    3    3    0    0 -0.49121710561E+00  0.93865695042E+01 -0.84150398184E+01  0.12615937409E+02  0.51100000000E-03 0.  1.
         12    1    3    3    0    0  0.19846407460E+02  0.49047763034E+01  0.57399263833E+00  0.20451557085E+02  0.00000000000E+00 0. -1.
</event>
<event>
 7    1  0.5837204E-012  0.5930193E+02  0.7816164E-02  0.1266605E+00
        -11   -1    0    0    0    0  0.00000000000E+00  0.00000000000E+00  0.45593999997E+02  0.45594000000E+02  0.51100000000E-03 0. -1.
         11   -1    0    0    0    0 -0.00000000000E+00 -0.00000000000E+00 -0.45593999997E+02  0.45594000000E+02  0.51100000000E-03 0.  1.
    9900012    2    1    2    0    0 -0.30149726682E+02  0.68174097693E+01 -0.78254781888E+01  0.59301934017E+02  0.49999981743E+02 0.  0.
         12    1    1    2    0    0  0.30149726682E+02 -0.68174097693E+01  0.78254781888E+01  0.31886065983E+02  0.00000000000E+00 0. -1.
         11    1    3    3    0    0 -0.12000293578E+02  0.17103100186E+02  0.68366639620E+00  0.20904317304E+02  0.51100000000E-03 0. -1.
        -11    1    3    3    0    0  0.64702461833E+01  0.37628126652E+01 -0.66141125780E+01  0.99884598553E+01  0.51100000000E-03 0.  1.
        -12    1    3    3    0    0 -0.24619679287E+02 -0.14048503082E+02 -0.18950320070E+01  0.28409156858E+02  0.00000000000E+00 0.  1.
</event>
<event>
 7    1  0.5837204E-012  0.5930194E+02  0.7816164E-02  0.1266605E+00
        -11   -1    0    0    0    0  0.00000000000E+00  0.00000000000E+00  0.45593999997E+02  0.45594000000E+02  0.51100000000E-03 0. -1.
         11   -1    0    0    0    0 -0.00000000000E+00 -0.00000000000E+00 -0.45593999997E+02  0.45594000000E+02  0.51100000000E-03 0.  1.
    9900012    2    1    2    0    0 -0.13288618684E+02  0.16750910659E+02 -0.23654601691E+02  0.59301943868E+02  0.49999999709E+02 0.  0.
         12    1    1    2    0    0  0.13288618684E+02 -0.16750910659E+02  0.23654601691E+02  0.31886056132E+02  0.00000000000E+00 0. -1.
         11    1    3    3    0    0 -0.10795000256E+02 -0.77229245177E+01 -0.15575423664E+02  0.20463856337E+02  0.51100000000E-03 0. -1.
        -11    1    3    3    0    0  0.42644781844E+01 -0.51757449997E+01  0.16561694328E+01  0.69077498462E+01  0.51100000000E-03 0.  1.
        -12    1    3    3    0    0 -0.67580966126E+01  0.29649580177E+02 -0.97353474606E+01  0.31930337685E+02  0.00000000000E+00 0.  1.
</event>
<event>
 7    1  0.5837204E-012  0.5930195E+02  0.7816164E-02  0.1266605E+00
        -11   -1    0    0    0    0  0.00000000000E+00  0.00000000000E+00  0.45593999997E+02  0.45594000000E+02  0.51100000000E-03 0.  1.
         11   -1    0    0    0    0 -0.00000000000E+00 -0.00000000000E+00 -0.45593999997E+02  0.45594000000E+02  0.51100000000E-03 0. -1.
    9900012    2    1    2    0    0 -0.13545549026E+02 -0.13768763865E+02  0.25370445897E+02  0.59301948476E+02  0.50000008112E+02 0.  0.
         12    1    1    2    0    0  0.13545549026E+02  0.13768763865E+02 -0.25370445897E+02  0.31886051524E+02  0.00000000000E+00 0. -1.
         11    1    3    3    0    0 -0.83486670212E+01 -0.13246171457E+02 -0.96440900158E+00  0.15687300095E+02  0.51100000000E-03 0. -1.
        -11    1    3    3    0    0  0.11423559476E+02 -0.96414164893E+01  0.68969039125E+01  0.16462742993E+02  0.51100000000E-03 0.  1.
        -12    1    3    3    0    0 -0.16620441480E+02  0.91188240815E+01  0.19437950986E+02  0.27151905388E+02  0.00000000000E+00 0.  1.
</event>
<event>
 7    1  0.5837204E-012  0.5930174E+02  0.7816164E-02  0.1266605E+00
        -11   -1    0    0    0    0  0.00000000000E+00  0.00000000000E+00  0.45593999997E+02  0.45594000000E+02  0.51100000000E-03 0.  1.
         11   -1    0    0    0    0 -0.00000000000E+00 -0.00000000000E+00 -0.45593999997E+02  0.45594000000E+02  0.51100000000E-03 0. -1.
    9900012    2    1    2    0    0  0.23193866427E+02  0.73741989877E+01  0.20600962072E+02  0.59301735107E+02  0.49999618976E+02 0.  0.
         12    1    1    2    0    0 -0.23193866427E+02 -0.73741989877E+01 -0.20600962072E+02  0.31886264893E+02  0.00000000000E+00 0. -1.
         11    1    3    3    0    0  0.10589685963E+01  0.16454787196E+02  0.18773967300E+02  0.24986862240E+02  0.51100000000E-03 0. -1.
        -11    1    3    3    0    0  0.42393720130E+01  0.76714956217E+01 -0.31276682057E+01  0.93062575080E+01  0.51100000000E-03 0.  1.
         12    1    3    3    0    0  0.17895525818E+02 -0.16752083830E+02  0.49546629775E+01  0.25008615359E+02  0.00000000000E+00 0. -1.
</event>
<event>
 7    1  0.5837204E-012  0.5930194E+02  0.7816164E-02  0.1266605E+00
        -11   -1    0    0    0    0  0.00000000000E+00  0.00000000000E+00  0.45593999997E+02  0.45594000000E+02  0.51100000000E-03 0.  1.
         11   -1    0    0    0    0 -0.00000000000E+00 -0.00000000000E+00 -0.45593999997E+02  0.45594000000E+02  0.51100000000E-03 0. -1.
    9900012    2    1    2    0    0 -0.52195699790E+01 -0.17162794638E+02  0.26361248415E+02  0.59301939589E+02  0.49999991905E+02 0.  0.
         12    1    1    2    0    0  0.52195699790E+01  0.17162794638E+02 -0.26361248415E+02  0.31886060411E+02  0.00000000000E+00 0. -1.
         11    1    3    3    0    0  0.17853483444E+01  0.48639805568E+01  0.33731691071E+02  0.34127302242E+02  0.51100000000E-03 0.  1.
        -11    1    3    3    0    0 -0.79824804551E+00 -0.13146784253E+02 -0.49724069749E+01  0.14078351022E+02  0.51100000000E-03 0. -1.
        -12    1    3    3    0    0 -0.62066702779E+01 -0.88799909418E+01 -0.23980356815E+01  0.11096286324E+02  0.00000000000E+00 0.  1.
</event>
<event>
 7    1  0.5837204E-012  0.5930194E+02  0.7816164E-02  0.1266605E+00
        -11   -1    0    0    0    0  0.00000000000E+00  0.00000000000E+00  0.45593999997E+02  0.45594000000E+02  0.51100000000E-03 0. -1.
         11   -1    0    0    0    0 -0.00000000000E+00 -0.00000000000E+00 -0.45593999997E+02  0.45594000000E+02  0.51100000000E-03 0.  1.
    9900012    2    1    2    0    0  0.27304149161E+02 -0.16360563163E+02 -0.18804404486E+01  0.59301942785E+02  0.49999997734E+02 0.  0.
         12    1    1    2    0    0 -0.27304149161E+02  0.16360563163E+02  0.18804404486E+01  0.31886057215E+02  0.00000000000E+00 0. -1.
         11    1    3    3    0    0  0.19211580806E+02 -0.23071746108E+01  0.78950165568E+01  0.20898305636E+02  0.51100000000E-03 0. -1.
        -11    1    3    3    0    0  0.35995363254E+01  0.79752555233E+01 -0.13021591570E+02  0.15688314431E+02  0.51100000000E-03 0.  1.
         12    1    3    3    0    0  0.44930320299E+01 -0.22028644075E+02  0.32461345642E+01  0.22715322719E+02  0.00000000000E+00 0. -1.
</event>
<event>
 7    1  0.5837204E-012  0.5930195E+02  0.7816164E-02  0.1266605E+00
        -11   -1    0    0    0    0  0.00000000000E+00  0.00000000000E+00  0.45593999997E+02  0.45594000000E+02  0.51100000000E-03 0.  1.
         11   -1    0    0    0    0 -0.00000000000E+00 -0.00000000000E+00 -0.45593999997E+02  0.45594000000E+02  0.51100000000E-03 0. -1.
    9900012    2    1    2    0    0  0.12629183995E+02 -0.24464844389E+02  0.16084016089E+02  0.59301945479E+02  0.50000002646E+02 0.  0.
         12    1    1    2    0    0 -0.12629183995E+02  0.24464844389E+02 -0.16084016089E+02  0.31886054521E+02  0.00000000000E+00 0. -1.
         11    1    3    3    0    0 -0.25714998273E+01 -0.11298949523E+02 -0.69456389291E+01  0.13510024873E+02  0.51100000000E-03 0. -1.
        -11    1    3    3    0    0  0.12373534063E+02 -0.20670931469E+02  0.30760233057E+01  0.24286903315E+02  0.51100000000E-03 0.  1.
         12    1    3    3    0    0  0.28271497599E+01  0.75050366022E+01  0.19953631712E+02  0.21505017291E+02  0.00000000000E+00 0. -1.
</event>
<event>
 7    1  0.5837204E-012  0.5930194E+02  0.7816164E-02  0.1266605E+00
        -11   -1    0    0    0    0  0.00000000000E+00  0.00000000000E+00  0.45593999997E+02  0.45594000000E+02  0.51100000000E-03 0.  1.
         11   -1    0    0    0    0 -0.00000000000E+00 -0.00000000000E+00 -0.45593999997E+02  0.45594000000E+02  0.51100000000E-03 0. -1.
    9900012    2    1    2    0    0 -0.27365258368E+02  0.98162799668E+01  0.13095948075E+02  0.59301943896E+02  0.49999999759E+02 0.  0.
         12    1    1    2    0    0  0.27365258368E+02 -0.98162799668E+01 -0.13095948075E+02  0.31886056104E+02  0.00000000000E+00 0. -1.
         11    1    3    3    0    0  0.48942072136E+01 -0.29924459135E+01 -0.52317158438E+01  0.77639453711E+01  0.51100000000E-03 0. -1.
        -11    1    3    3    0    0 -0.12148132080E+02 -0.10063895962E+02  0.13372810441E+02  0.20680695692E+02  0.51100000000E-03 0.  1.
         12    1    3    3    0    0 -0.20111333501E+02  0.22872621842E+02  0.49548534780E+01  0.30857302833E+02  0.00000000000E+00 0. -1.
</event>
<event>
 7    1  0.5837204E-012  0.5930189E+02  0.7816164E-02  0.1266605E+00
        -11   -1    0    0    0    0  0.00000000000E+00  0.00000000000E+00  0.45593999997E+02  0.45594000000E+02  0.51100000000E-03 0.  1.
         11   -1    0    0    0    0 -0.00000000000E+00 -0.00000000000E+00 -0.45593999997E+02  0.45594000000E+02  0.51100000000E-03 0. -1.
    9900012    2    1    2    0    0 -0.19577407339E+02 -0.12745069811E+02  0.21702813902E+02  0.59301893090E+02  0.49999907102E+02 0.  0.
         12    1    1    2    0    0  0.19577407339E+02  0.12745069811E+02 -0.21702813902E+02  0.31886106910E+02  0.00000000000E+00 0. -1.
         11    1    3    3    0    0  0.12028897883E+02 -0.71649498608E+01  0.89040023642E+00  0.14029387144E+02  0.51100000000E-03 0. -1.
        -11    1    3    3    0    0 -0.14030819737E+02 -0.14561510304E+02  0.13032535060E+02  0.24057191341E+02  0.51100000000E-03 0.  1.
         12    1    3    3    0    0 -0.17575485484E+02  0.89813903540E+01  0.77798786053E+01  0.21215314606E+02  0.00000000000E+00 0. -1.
</event>
<event>
 7    1  0.5837204E-012  0.5930195E+02  0.7816164E-02  0.1266605E+00
        -11   -1    0    0    0    0  0.00000000000E+00  0.00000000000E+00  0.45593999997E+02  0.45594000000E+02  0.51100000000E-03 0.  1.
         11   -1    0    0    0    0 -0.00000000000E+00 -0.00000000000E+00 -0.45593999997E+02  0.45594000000E+02  0.51100000000E-03 0. -1.
    9900012    2    1    2    0    0  0.16699972691E+02 -0.21820676515E+02  0.16176810008E+02  0.59301949860E+02  0.50000010637E+02 0.  0.
         12    1    1    2    0    0 -0.16699972691E+02  0.21820676515E+02 -0.16176810008E+02  0.31886050140E+02  0.00000000000E+00 0. -1.
         11    1    3    3    0    0  0.41280745567E+01 -0.15769494448E+02  0.10519906299E+02  0.19400679975E+02  0.51100000000E-03 0. -1.
        -11    1    3    3    0    0  0.32050880014E+01 -0.18935598893E+02 -0.60470239097E+01  0.20134447918E+02  0.51100000000E-03 0.  1.
         12    1    3    3    0    0  0.93668101328E+01  0.12884416825E+02  0.11703927619E+02  0.19766821968E+02  0.00000000000E+00 0. -1.
</event>
<event>
 7    1  0.5837204E-012  0.5930197E+02  0.7816164E-02  0.1266605E+00
        -11   -1    0    0    0    0  0.00000000000E+00  0.00000000000E+00  0.45593999997E+02  0.45594000000E+02  0.51100000000E-03 0.  1.
         11   -1    0    0    0    0 -0.00000000000E+00 -0.00000000000E+00 -0.45593999997E+02  0.45594000000E+02  0.51100000000E-03 0. -1.
    9900012    2    1    2    0    0  0.76509196972E+01 -0.30347118678E+02 -0.61020191250E+01  0.59301971372E+02  0.50000049869E+02 0.  0.
         12    1    1    2    0    0 -0.76509196972E+01  0.30347118678E+02  0.61020191250E+01  0.31886028628E+02  0.00000000000E+00 0. -1.
         11    1    3    3    0    0 -0.27258906607E+01 -0.28730922386E+02 -0.38179096836E+01  0.29111386357E+02  0.51100000000E-03 0.  1.
        -11    1    3    3    0    0 -0.89999477114E+01 -0.27760285821E+01  0.33199949976E+01  0.99863787502E+01  0.51100000000E-03 0. -1.
         12    1    3    3    0    0  0.19376758069E+02  0.11598322894E+01 -0.56041044390E+01  0.20204206264E+02  0.00000000000E+00 0. -1.
</event>
<event>
 7    1  0.5837204E-012  0.5930195E+02  0.7816164E-02  0.1266605E+00
        -11   -1    0    0    0    0  0.00000000000E+00  0.00000000000E+00  0.45593999997E+02  0.45594000000E+02  0.51100000000E-03 0.  1.
         11   -1    0    0    0    0 -0.00000000000E+00 -0.00000000000E+00 -0.45593999997E+02  0.45594000000E+02  0.51100000000E-03 0. -1.
    9900012    2    1    2    0    0  0.61046415352E+01 -0.28521300674E+02  0.12883664448E+02  0.59301952110E+02  0.50000014740E+02 0.  0.
         12    1    1    2    0    0 -0.61046415352E+01  0.28521300674E+02 -0.12883664448E+02  0.31886047890E+02  0.00000000000E+00 0. -1.
         11    1    3    3    0    0 -0.29946614897E+01  0.74200467091E+01 -0.72235402113E+00  0.80341076789E+01  0.51100000000E-03 0. -1.
        -11    1    3    3    0    0  0.20869600515E+02 -0.29100804838E+02  0.10188285221E+02  0.37231683066E+02  0.51100000000E-03 0.  1.
         12    1    3    3    0    0 -0.11770297490E+02 -0.68405425452E+01  0.34177332488E+01  0.14036161366E+02  0.00000000000E+00 0. -1.
</event>
<event>
 7    1  0.5837204E-012  0.5930201E+02  0.7816164E-02  0.1266605E+00
        -11   -1    0    0    0    0  0.00000000000E+00  0.00000000000E+00  0.45593999997E+02  0.45594000000E+02  0.51100000000E-03 0.  1.
         11   -1    0    0    0    0 -0.00000000000E+00 -0.00000000000E+00 -0.45593999997E+02  0.45594000000E+02  0.51100000000E-03 0. -1.
    9900012    2    1    2    0    0 -0.68825514043E+01  0.11832726274E+01  0.31111838630E+02  0.59302013252E+02  0.50000126249E+02 0.  0.
         12    1    1    2    0    0  0.68825514043E+01 -0.11832726274E+01 -0.31111838630E+02  0.31885986748E+02  0.00000000000E+00 0. -1.
         11    1    3    3    0    0 -0.57638499603E+01  0.13225104363E+02  0.19942819373E+02  0.24613845627E+02  0.51100000000E-03 0. -1.
        -11    1    3    3    0    0 -0.95058196057E+01  0.70286845963E+01  0.58303986922E+01  0.13181675262E+02  0.51100000000E-03 0.  1.
         12    1    3    3    0    0  0.83871181617E+01 -0.19070516332E+02  0.53386205651E+01  0.21506492363E+02  0.00000000000E+00 0. -1.
</event>
<event>
 7    1  0.5837204E-012  0.5930196E+02  0.7816164E-02  0.1266605E+00
        -11   -1    0    0    0    0  0.00000000000E+00  0.00000000000E+00  0.45593999997E+02  0.45594000000E+02  0.51100000000E-03 0.  1.
         11   -1    0    0    0    0 -0.00000000000E+00 -0.00000000000E+00 -0.45593999997E+02  0.45594000000E+02  0.51100000000E-03 0. -1.
    9900012    2    1    2    0    0  0.11207427174E+01  0.29974094857E+02  0.10817457998E+02  0.59301955650E+02  0.50000021197E+02 0.  0.
         12    1    1    2    0    0 -0.11207427174E+01 -0.29974094857E+02 -0.10817457998E+02  0.31886044350E+02  0.00000000000E+00 0. -1.
         11    1    3    3    0    0  0.17245995696E+02  0.78244148926E+01  0.50228945355E+01  0.19592736045E+02  0.51100000000E-03 0. -1.
        -11    1    3    3    0    0 -0.18182879474E+01  0.23090121185E+02  0.92837764620E+01  0.24952923137E+02  0.51100000000E-03 0.  1.
        -12    1    3    3    0    0 -0.14306965032E+02 -0.94044122078E+00 -0.34892129999E+01  0.14756296468E+02  0.00000000000E+00 0.  1.
</event>
<event>
 7    1  0.5837204E-012  0.5930195E+02  0.7816164E-02  0.1266605E+00
        -11   -1    0    0    0    0  0.00000000000E+00  0.00000000000E+00  0.45593999997E+02  0.45594000000E+02  0.51100000000E-03 0. -1.
         11   -1    0    0    0    0 -0.00000000000E+00 -0.00000000000E+00 -0.45593999997E+02  0.45594000000E+02  0.51100000000E-03 0.  1.
    9900012    2    1    2    0    0  0.12722420969E+02 -0.25686862529E+02 -0.13965855055E+02  0.59301952749E+02  0.50000015905E+02 0.  0.
         12    1    1    2    0    0 -0.12722420969E+02  0.25686862529E+02  0.13965855055E+02  0.31886047251E+02  0.00000000000E+00 0. -1.
         11    1    3    3    0    0  0.35231978717E+00  0.15096233066E+01  0.11507828320E+02  0.11611770091E+02  0.51100000000E-03 0. -1.
        -11    1    3    3    0    0  0.12365372040E+02 -0.16418477136E+02 -0.57865392105E+00  0.20562190004E+02  0.51100000000E-03 0.  1.
        -12    1    3    3    0    0  0.47291413257E-02 -0.10778008700E+02 -0.24895029454E+02  0.27127992654E+02  0.00000000000E+00 0.  1.
</event>
<event>
 7    1  0.5837204E-012  0.5930201E+02  0.7816164E-02  0.1266605E+00
        -11   -1    0    0    0    0  0.00000000000E+00  0.00000000000E+00  0.45593999997E+02  0.45594000000E+02  0.51100000000E-03 0.  1.
         11   -1    0    0    0    0 -0.00000000000E+00 -0.00000000000E+00 -0.45593999997E+02  0.45594000000E+02  0.51100000000E-03 0. -1.
    9900012    2    1    2    0    0 -0.34627129329E+01  0.25575847402E+02  0.18724361511E+02  0.59302014596E+02  0.50000128700E+02 0.  0.
         12    1    1    2    0    0  0.34627129329E+01 -0.25575847402E+02 -0.18724361511E+02  0.31885985404E+02  0.00000000000E+00 0. -1.
         11    1    3    3    0    0 -0.30670463955E+01  0.19562575612E+02 -0.64525878770E+01  0.20826354187E+02  0.51100000000E-03 0. -1.
        -11    1    3    3    0    0 -0.10754057470E+02  0.81334971883E+01  0.28638380635E+01  0.13784233649E+02  0.51100000000E-03 0.  1.
         12    1    3    3    0    0  0.10358390933E+02 -0.21202253985E+01  0.22313111324E+02  0.24691426760E+02  0.00000000000E+00 0. -1.
</event>
<event>
 7    1  0.5837204E-012  0.5930197E+02  0.7816164E-02  0.1266605E+00
        -11   -1    0    0    0    0  0.00000000000E+00  0.00000000000E+00  0.45593999997E+02  0.45594000000E+02  0.51100000000E-03 0. -1.
         11   -1    0    0    0    0 -0.00000000000E+00 -0.00000000000E+00 -0.45593999997E+02  0.45594000000E+02  0.51100000000E-03 0.  1.
    9900012    2    1    2    0    0 -0.57586552558E+01 -0.16641196363E+02 -0.26582462088E+02  0.59301971439E+02  0.50000049992E+02 0.  0.
         12    1    1    2    0    0  0.57586552558E+01  0.16641196363E+02  0.26582462088E+02  0.31886028561E+02  0.00000000000E+00 0. -1.
         11    1    3    3    0    0 -0.33620400262E+00  0.38878656439E+01 -0.29031422815E+02  0.29292525383E+02  0.51100000000E-03 0. -1.
        -11    1    3    3    0    0 -0.48522041202E+01  0.28242399773E+01 -0.24754208798E+01  0.61357905005E+01  0.51100000000E-03 0.  1.
         12    1    3    3    0    0 -0.57024713301E+00 -0.23353301984E+02  0.49243816070E+01  0.23873655555E+02  0.00000000000E+00 0. -1.
</event>
<event>
 7    1  0.5837204E-012  0.5930190E+02  0.7816164E-02  0.1266605E+00
        -11   -1    0    0    0    0  0.00000000000E+00  0.00000000000E+00  0.45593999997E+02  0.45594000000E+02  0.51100000000E-03 0.  1.
         11   -1    0    0    0    0 -0.00000000000E+00 -0.00000000000E+00 -0.45593999997E+02  0.45594000000E+02  0.51100000000E-03 0. -1.
    9900012    2    1    2    0    0  0.27688196105E+02  0.14356849674E+02  0.66308432978E+01  0.59301899283E+02  0.49999918396E+02 0.  0.
         12    1    1    2    0    0 -0.27688196105E+02 -0.14356849674E+02 -0.66308432978E+01  0.31886100717E+02  0.00000000000E+00 0. -1.
         11    1    3    3    0    0  0.80335948020E+00 -0.20609928198E+01  0.32520163307E+00  0.22358072862E+01  0.51100000000E-03 0. -1.
        -11    1    3    3    0    0 -0.10144475621E+02  0.81966134889E+01  0.13152064778E+02  0.18522193890E+02  0.51100000000E-03 0.  1.
         12    1    3    3    0    0  0.37029312246E+02  0.82212290044E+01 -0.68464231137E+01  0.38543898106E+02  0.00000000000E+00 0. -1.
</event>
<event>
 7    1  0.5837204E-012  0.5930197E+02  0.7816164E-02  0.1266605E+00
        -11   -1    0    0    0    0  0.00000000000E+00  0.00000000000E+00  0.45593999997E+02  0.45594000000E+02  0.51100000000E-03 0. -1.
         11   -1    0    0    0    0 -0.00000000000E+00 -0.00000000000E+00 -0.45593999997E+02  0.45594000000E+02  0.51100000000E-03 0.  1.
    9900012    2    1    2    0    0  0.78154794804E+01 -0.23254040247E+02 -0.20368773961E+02  0.59301967635E+02  0.50000043054E+02 0.  0.
         12    1    1    2    0    0 -0.78154794804E+01  0.23254040247E+02  0.20368773961E+02  0.31886032365E+02  0.00000000000E+00 0. -1.
         11    1    3    3    0    0  0.44038313951E+01  0.41269956812E+00  0.57411762147E+01  0.72474241272E+01  0.51100000000E-03 0. -1.
        -11    1    3    3    0    0 -0.65110378675E+01  0.53952555495E+01 -0.18612527560E+02  0.20443301568E+02  0.51100000000E-03 0.  1.
        -12    1    3    3    0    0  0.99226859528E+01 -0.29061995365E+02 -0.74974226155E+01  0.31611241940E+02  0.00000000000E+00 0.  1.
</event>
<event>
 7    1  0.5837204E-012  0.5930201E+02  0.7816164E-02  0.1266605E+00
        -11   -1    0    0    0    0  0.00000000000E+00  0.00000000000E+00  0.45593999997E+02  0.45594000000E+02  0.51100000000E-03 0.  1.
         11   -1    0    0    0    0 -0.00000000000E+00 -0.00000000000E+00 -0.45593999997E+02  0.45594000000E+02  0.51100000000E-03 0. -1.
    9900012    2    1    2    0    0  0.31150927259E+02 -0.53017598148E+01 -0.42693830242E+01  0.59302006874E+02  0.50000114616E+02 0.  0.
         12    1    1    2    0    0 -0.31150927259E+02  0.53017598148E+01  0.42693830242E+01  0.31885993126E+02  0.00000000000E+00 0. -1.
         11    1    3    3    0    0  0.35406643795E+00 -0.90619278780E+00 -0.12486577511E+02  0.12524422805E+02  0.51100000000E-03 0. -1.
        -11    1    3    3    0    0 -0.71868423595E+01  0.68869841413E+00  0.39189792730E+01  0.82148285076E+01  0.51100000000E-03 0.  1.
        -12    1    3    3    0    0  0.37983703181E+02 -0.50842654411E+01  0.42982152136E+01  0.38562755561E+02  0.00000000000E+00 0.  1.
</event>
<event>
 7    1  0.5837204E-012  0.5930190E+02  0.7816164E-02  0.1266605E+00
        -11   -1    0    0    0    0  0.00000000000E+00  0.00000000000E+00  0.45593999997E+02  0.45594000000E+02  0.51100000000E-03 0. -1.
         11   -1    0    0    0    0 -0.00000000000E+00 -0.00000000000E+00 -0.45593999997E+02  0.45594000000E+02  0.51100000000E-03 0.  1.
    9900012    2    1    2    0    0 -0.24964421478E+02  0.16134116351E+02  0.11540860392E+02  0.59301897875E+02  0.49999915828E+02 0.  0.
         12    1    1    2    0    0  0.24964421478E+02 -0.16134116351E+02 -0.11540860392E+02  0.31886102125E+02  0.00000000000E+00 0. -1.
         11    1    3    3    0    0  0.30307043072E+00 -0.11692841850E+02  0.50783474051E+00  0.11707787946E+02  0.51100000000E-03 0. -1.
        -11    1    3    3    0    0 -0.15007509373E+02  0.10196353524E+02 -0.78760774460E+01  0.19779372057E+02  0.51100000000E-03 0.  1.
        -12    1    3    3    0    0 -0.10259982535E+02  0.17630604677E+02  0.18909103098E+02  0.27814737871E+02  0.00000000000E+00 0.  1.
</event>
<event>
 7    1  0.5837204E-012  0.5930194E+02  0.7816164E-02  0.1266605E+00
        -11   -1    0    0    0    0  0.00000000000E+00  0.00000000000E+00  0.45593999997E+02  0.45594000000E+02  0.51100000000E-03 0.  1.
         11   -1    0    0    0    0 -0.00000000000E+00 -0.00000000000E+00 -0.45593999997E+02  0.45594000000E+02  0.51100000000E-03 0. -1.
    9900012    2    1    2    0    0  0.27046149620E+02 -0.67923827656E+01  0.15462532113E+02  0.59301943921E+02  0.49999999806E+02 0.  0.
         12    1    1    2    0    0 -0.27046149620E+02  0.67923827656E+01 -0.15462532113E+02  0.31886056079E+02  0.00000000000E+00 0. -1.
         11    1    3    3    0    0  0.24479411853E+02 -0.14406843225E+02 -0.76557441112E+01  0.29417837353E+02  0.51100000000E-03 0. -1.
        -11    1    3    3    0    0  0.42193774649E+01  0.91198903311E+01  0.42941953046E+01  0.10927747225E+02  0.51100000000E-03 0.  1.
        -12    1    3    3    0    0 -0.16526396977E+01 -0.15054298720E+01  0.18824080920E+02  0.18956359343E+02  0.00000000000E+00 0.  1.
</event>
<event>
 7    1  0.5837204E-012  0.5930193E+02  0.7816164E-02  0.1266605E+00
        -11   -1    0    0    0    0  0.00000000000E+00  0.00000000000E+00  0.45593999997E+02  0.45594000000E+02  0.51100000000E-03 0. -1.
         11   -1    0    0    0    0 -0.00000000000E+00 -0.00000000000E+00 -0.45593999997E+02  0.45594000000E+02  0.51100000000E-03 0.  1.
    9900012    2    1    2    0    0  0.20164503405E+02  0.19061416012E+02 -0.15709133569E+02  0.59301926936E+02  0.49999968829E+02 0.  0.
         12    1    1    2    0    0 -0.20164503405E+02 -0.19061416012E+02  0.15709133569E+02  0.31886073064E+02  0.00000000000E+00 0. -1.
         11    1    3    3    0    0 -0.87128969410E+01  0.15125132664E+02 -0.67385258942E+01  0.18710744045E+02  0.51100000000E-03 0. -1.
        -11    1    3    3    0    0  0.48493481507E+01 -0.31302241941E+01  0.83421606656E+01  0.10144265662E+02  0.51100000000E-03 0.  1.
        -12    1    3    3    0    0  0.24028052195E+02  0.70665075419E+01 -0.17312768341E+02  0.30446917229E+02  0.00000000000E+00 0.  1.
</event>
<event>
 7    1  0.5837204E-012  0.5930194E+02  0.7816164E-02  0.1266605E+00
        -11   -1    0    0    0    0  0.00000000000E+00  0.00000000000E+00  0.45593999997E+02  0.45594000000E+02  0.51100000000E-03 0.  1.
         11   -1    0    0    0    0 -0.00000000000E+00 -0.00000000000E+00 -0.45593999997E+02  0.45594000000E+02  0.51100000000E-03 0. -1.
    9900012    2    1    2    0    0  0.23007451372E+02  0.67433474123E+01  0.21021538736E+02  0.59301942799E+02  0.49999997760E+02 0.  0.
         12    1    1    2    0    0 -0.23007451372E+02 -0.67433474123E+01 -0.21021538736E+02  0.31886057201E+02  0.00000000000E+00 0. -1.
         11    1    3    3    0    0 -0.14746729254E+00  0.26403972916E+01 -0.11031356135E+02  0.11343908625E+02  0.51100000000E-03 0. -1.
        -11    1    3    3    0    0  0.25114828247E+02 -0.39607863264E+00  0.12998840254E+02  0.28282173261E+02  0.51100000000E-03 0.  1.
        -12    1    3    3    0    0 -0.19599095826E+01  0.44990287533E+01  0.19054054617E+02  0.19675860913E+02  0.00000000000E+00 0.  1.
</event>
<event>
 7    1  0.5837204E-012  0.5930197E+02  0.7816164E-02  0.1266605E+00
        -11   -1    0    0    0    0  0.00000000000E+00  0.00000000000E+00  0.45593999997E+02  0.45594000000E+02  0.51100000000E-03 0.  1.
         11   -1    0    0    0    0 -0.00000000000E+00 -0.00000000000E+00 -0.45593999997E+02  0.45594000000E+02  0.51100000000E-03 0. -1.
    9900012    2    1    2    0    0  0.84261466504E+01  0.18374242716E+02  0.24659806718E+02  0.59301971552E+02  0.50000050198E+02 0.  0.
         12    1    1    2    0    0 -0.84261466504E+01 -0.18374242716E+02 -0.24659806718E+02  0.31886028448E+02  0.00000000000E+00 0. -1.
         11    1    3    3    0    0 -0.13883237452E+00 -0.12681192520E+02  0.98216908766E+01  0.16040496566E+02  0.51100000000E-03 0. -1.
        -11    1    3    3    0    0  0.60449769517E+01  0.53515608137E+01  0.15444356516E+02  0.17427251589E+02  0.51100000000E-03 0.  1.
        -12    1    3    3    0    0  0.25200020732E+01  0.25703874423E+02 -0.60624067382E+00  0.25834223397E+02  0.00000000000E+00 0.  1.
</event>
<event>
 7    1  0.5837204E-012  0.5930194E+02  0.7816164E-02  0.1266605E+00
        -11   -1    0    0    0    0  0.00000000000E+00  0.00000000000E+00  0.45593999997E+02  0.45594000000E+02  0.51100000000E-03 0. -1.
         11   -1    0    0    0    0 -0.00000000000E+00 -0.00000000000E+00 -0.45593999997E+02  0.45594000000E+02  0.51100000000E-03 0.  1.
    9900012    2    1    2    0    0 -0.79101768402E+01  0.21362345726E+02 -0.22311427644E+02  0.59301944802E+02  0.50000001413E+02 0.  0.
         12    1    1    2    0    0  0.79101768402E+01 -0.21362345726E+02  0.22311427644E+02  0.31886055198E+02  0.00000000000E+00 0. -1.
         11    1    3    3    0    0 -0.15024514003E+02 -0.60683931669E+01 -0.46302131841E+01  0.16852308181E+02  0.51100000000E-03 0. -1.
        -11    1    3    3    0    0  0.52827422068E+01  0.86650413643E+01 -0.20982587100E+02  0.23307922875E+02  0.51100000000E-03 0.  1.
         12    1    3    3    0    0  0.18315949559E+01  0.18765697529E+02  0.33013726402E+01  0.19141713746E+02  0.00000000000E+00 0. -1.
</event>
<event>
 7    1  0.5837204E-012  0.5930197E+02  0.7816164E-02  0.1266605E+00
        -11   -1    0    0    0    0  0.00000000000E+00  0.00000000000E+00  0.45593999997E+02  0.45594000000E+02  0.51100000000E-03 0.  1.
         11   -1    0    0    0    0 -0.00000000000E+00 -0.00000000000E+00 -0.45593999997E+02  0.45594000000E+02  0.51100000000E-03 0. -1.
    9900012    2    1    2    0    0  0.24281938704E+02 -0.20547195330E+02  0.22178719889E+01  0.59301972663E+02  0.50000052224E+02 0.  0.
         12    1    1    2    0    0 -0.24281938704E+02  0.20547195330E+02 -0.22178719889E+01  0.31886027337E+02  0.00000000000E+00 0. -1.
         11    1    3    3    0    0 -0.55415765883E+01 -0.12361476305E+02  0.17683324924E+02  0.22275887147E+02  0.51100000000E-03 0. -1.
        -11    1    3    3    0    0  0.37566976575E+01 -0.82220910972E+00  0.24415004835E+01  0.45551871512E+01  0.51100000000E-03 0.  1.
        -12    1    3    3    0    0  0.26066817635E+02 -0.73635099153E+01 -0.17906953419E+02  0.32470898365E+02  0.00000000000E+00 0.  1.
</event>
<event>
 7    1  0.5837204E-012  0.5930197E+02  0.7816164E-02  0.1266605E+00
        -11   -1    0    0    0    0  0.00000000000E+00  0.00000000000E+00  0.45593999997E+02  0.45594000000E+02  0.51100000000E-03 0.  1.
         11   -1    0    0    0    0 -0.00000000000E+00 -0.00000000000E+00 -0.45593999997E+02  0.45594000000E+02  0.51100000000E-03 0. -1.
    9900012    2    1    2    0    0 -0.21049251455E+02 -0.20325195565E+02  0.12670220280E+02  0.59301967893E+02  0.50000043525E+02 0.  0.
         12    1    1    2    0    0  0.21049251455E+02  0.20325195565E+02 -0.12670220280E+02  0.31886032107E+02  0.00000000000E+00 0. -1.
         11    1    3    3    0    0 -0.32134922866E+01  0.10439239813E+02  0.82521619966E+01  0.13689501029E+02  0.51100000000E-03 0. -1.
        -11    1    3    3    0    0 -0.22655630287E+02 -0.19335070163E+02  0.10775766796E+02  0.31673958897E+02  0.51100000000E-03 0.  1.
         12    1    3    3    0    0  0.48198711190E+01 -0.11429365214E+02 -0.63577085125E+01  0.13938507967E+02  0.00000000000E+00 0. -1.
</event>
<event>
 7    1  0.5837204E-012  0.5930197E+02  0.7816164E-02  0.1266605E+00
        -11   -1    0    0    0    0  0.00000000000E+00  0.00000000000E+00  0.45593999997E+02  0.45594000000E+02  0.51100000000E-03 0. -1.
         11   -1    0    0    0    0 -0.00000000000E+00 -0.00000000000E+00 -0.45593999997E+02  0.45594000000E+02  0.51100000000E-03 0.  1.
    9900012    2    1    2    0    0 -0.39881540641E+01 -0.22487296119E+02 -0.22251623166E+02  0.59301974956E+02  0.50000056406E+02 0.  0.
         12    1    1    2    0    0  0.39881540641E+01  0.22487296119E+02  0.22251623166E+02  0.31886025044E+02  0.00000000000E+00 0. -1.
         11    1    3    3    0    0  0.70852018534E+01 -0.15779574719E+02 -0.52937667626E+01  0.18089196511E+02  0.51100000000E-03 0. -1.
        -11    1    3    3    0    0 -0.14587786698E+01  0.74633571265E+01 -0.22068202198E+02  0.23341706949E+02  0.51100000000E-03 0.  1.
         12    1    3    3    0    0 -0.96145772477E+01 -0.14171078526E+02  0.51103457950E+01  0.17871071496E+02  0.00000000000E+00 0. -1.
</event>
<event>
 7    1  0.5837204E-012  0.5930193E+02  0.7816164E-02  0.1266605E+00
        -11   -1    0    0    0    0  0.00000000000E+00  0.00000000000E+00  0.45593999997E+02  0.45594000000E+02  0.51100000000E-03 0.  1.
         11   -1    0    0    0    0 -0.00000000000E+00 -0.00000000000E+00 -0.45593999997E+02  0.45594000000E+02  0.51100000000E-03 0. -1.
    9900012    2    1    2    0    0 -0.16747209030E+02 -0.13207321122E+02  0.23702722189E+02  0.59301931245E+02  0.49999976687E+02 0.  0.
         12    1    1    2    0    0  0.16747209030E+02  0.13207321122E+02 -0.23702722189E+02  0.31886068755E+02  0.00000000000E+00 0. -1.
         11    1    3    3    0    0  0.27873985834E+01 -0.13494011628E+02  0.19738112235E+01  0.13919549982E+02  0.51100000000E-03 0. -1.
        -11    1    3    3    0    0 -0.16818776020E+01  0.75406740085E+01 -0.72409784783E+01  0.10588779267E+02  0.51100000000E-03 0.  1.
        -12    1    3    3    0    0 -0.17852730011E+02 -0.72539835022E+01  0.28969889444E+02  0.34793601996E+02  0.00000000000E+00 0.  1.
</event>
<event>
 7    1  0.5837204E-012  0.5930190E+02  0.7816164E-02  0.1266605E+00
        -11   -1    0    0    0    0  0.00000000000E+00  0.00000000000E+00  0.45593999997E+02  0.45594000000E+02  0.51100000000E-03 0.  1.
         11   -1    0    0    0    0 -0.00000000000E+00 -0.00000000000E+00 -0.45593999997E+02  0.45594000000E+02  0.51100000000E-03 0. -1.
    9900012    2    1    2    0    0 -0.23830396621E+02  0.16510567636E+02  0.13275406572E+02  0.59301904811E+02  0.49999928477E+02 0.  0.
         12    1    1    2    0    0  0.23830396621E+02 -0.16510567636E+02 -0.13275406572E+02  0.31886095189E+02  0.00000000000E+00 0. -1.
         11    1    3    3    0    0  0.67703389308E+01  0.40805648448E+01  0.14141992427E+02  0.16201371817E+02  0.51100000000E-03 0. -1.
        -11    1    3    3    0    0 -0.82270496895E+01 -0.36719549261E+00  0.11793481798E+02  0.14384206349E+02  0.51100000000E-03 0.  1.
        -12    1    3    3    0    0 -0.22373685862E+02  0.12797198284E+02 -0.12660067652E+02  0.28716326644E+02  0.00000000000E+00 0.  1.
</event>
<event>
 7    1  0.5837204E-012  0.5930194E+02  0.7816164E-02  0.1266605E+00
        -11   -1    0    0    0    0  0.00000000000E+00  0.00000000000E+00  0.45593999997E+02  0.45594000000E+02  0.51100000000E-03 0. -1.
         11   -1    0    0    0    0 -0.00000000000E+00 -0.00000000000E+00 -0.45593999997E+02  0.45594000000E+02  0.51100000000E-03 0.  1.
    9900012    2    1    2    0    0 -0.95033198729E+01  0.17080326017E+02 -0.25192661850E+02  0.59301939777E+02  0.49999992248E+02 0.  0.
         12    1    1    2    0    0  0.95033198729E+01 -0.17080326017E+02  0.25192661850E+02  0.31886060223E+02  0.00000000000E+00 0. -1.
         11    1    3    3    0    0 -0.35952280527E+01  0.60817120143E+01 -0.41569883621E+01  0.81971603790E+01  0.51100000000E-03 0. -1.
        -11    1    3    3    0    0 -0.16332281223E+02 -0.48644706985E+01 -0.26361614044E+02  0.31390144638E+02  0.51100000000E-03 0.  1.
         12    1    3    3    0    0  0.10424189403E+02  0.15863084701E+02  0.53259405554E+01  0.19714634760E+02  0.00000000000E+00 0. -1.
</event>
<event>
 7    1  0.5837204E-012  0.5930199E+02  0.7816164E-02  0.1266605E+00
        -11   -1    0    0    0    0  0.00000000000E+00  0.00000000000E+00  0.45593999997E+02  0.45594000000E+02  0.51100000000E-03 0. -1.
         11   -1    0    0    0    0 -0.00000000000E+00 -0.00000000000E+00 -0.45593999997E+02  0.45594000000E+02  0.51100000000E-03 0.  1.
    9900012    2    1    2    0    0  0.43501080025E+01  0.28470243252E+02 -0.13683535380E+02  0.59301994748E+02  0.50000092501E+02 0.  0.
         12    1    1    2    0    0 -0.43501080025E+01 -0.28470243252E+02  0.13683535380E+02  0.31886005252E+02  0.00000000000E+00 0. -1.
         11    1    3    3    0    0  0.24737279424E+01 -0.58882052831E+01 -0.11313007979E+02  0.12991321764E+02  0.51100000000E-03 0. -1.
        -11    1    3    3    0    0  0.19170140213E+01 -0.54941346096E+01 -0.27958697071E+01  0.64557993732E+01  0.51100000000E-03 0.  1.
        -12    1    3    3    0    0 -0.40633961230E-01  0.39852583144E+02  0.42534230644E+00  0.39854873610E+02  0.00000000000E+00 0.  1.
</event>
<event>
 7    1  0.5837204E-012  0.5930176E+02  0.7816164E-02  0.1266605E+00
        -11   -1    0    0    0    0  0.00000000000E+00  0.00000000000E+00  0.45593999997E+02  0.45594000000E+02  0.51100000000E-03 0. -1.
         11   -1    0    0    0    0 -0.00000000000E+00 -0.00000000000E+00 -0.45593999997E+02  0.45594000000E+02  0.51100000000E-03 0.  1.
    9900012    2    1    2    0    0 -0.38298183583E+01 -0.22018187924E+02 -0.22743441616E+02  0.59301760889E+02  0.49999665999E+02 0.  0.
         12    1    1    2    0    0  0.38298183583E+01  0.22018187924E+02  0.22743441616E+02  0.31886239111E+02  0.00000000000E+00 0. -1.
         11    1    3    3    0    0 -0.85167496961E+01 -0.17906837133E+02 -0.15164869200E+02  0.24963234959E+02  0.51100000000E-03 0.  1.
        -11    1    3    3    0    0 -0.38059734975E+01 -0.31521382837E+01  0.11998902766E+02  0.12976712907E+02  0.51100000000E-03 0. -1.
         12    1    3    3    0    0  0.84929048353E+01 -0.95921250668E+00 -0.19577475181E+02  0.21361813023E+02  0.00000000000E+00 0. -1.
</event>
<event>
 7    1  0.5837204E-012  0.5930198E+02  0.7816164E-02  0.1266605E+00
        -11   -1    0    0    0    0  0.00000000000E+00  0.00000000000E+00  0.45593999997E+02  0.45594000000E+02  0.51100000000E-03 0.  1.
         11   -1    0    0    0    0 -0.00000000000E+00 -0.00000000000E+00 -0.45593999997E+02  0.45594000000E+02  0.51100000000E-03 0. -1.
    9900012    2    1    2    0    0 -0.54300540135E+01 -0.12488192000E+02  0.28831894704E+02  0.59301975189E+02  0.50000056830E+02 0.  0.
         12    1    1    2    0    0  0.54300540135E+01  0.12488192000E+02 -0.28831894704E+02  0.31886024811E+02  0.00000000000E+00 0. -1.
         11    1    3    3    0    0 -0.10117559227E+02 -0.96414260904E+01  0.35227524315E+01  0.14412906949E+02  0.51100000000E-03 0. -1.
        -11    1    3    3    0    0 -0.21593279339E+01  0.10020598676E+02 -0.48893978499E+01  0.11356993728E+02  0.51100000000E-03 0.  1.
        -12    1    3    3    0    0  0.68468331472E+01 -0.12867364585E+02  0.30198540123E+02  0.33532074512E+02  0.00000000000E+00 0.  1.
</event>
<event>
 7    1  0.5837204E-012  0.5930193E+02  0.7816164E-02  0.1266605E+00
        -11   -1    0    0    0    0  0.00000000000E+00  0.00000000000E+00  0.45593999997E+02  0.45594000000E+02  0.51100000000E-03 0. -1.
         11   -1    0    0    0    0 -0.00000000000E+00 -0.00000000000E+00 -0.45593999997E+02  0.45594000000E+02  0.51100000000E-03 0.  1.
    9900012    2    1    2    0    0 -0.18042366263E+02  0.26290128693E+02 -0.15357990404E+00  0.59301930410E+02  0.49999975165E+02 0.  0.
         12    1    1    2    0    0  0.18042366263E+02 -0.26290128693E+02  0.15357990404E+00  0.31886069590E+02  0.00000000000E+00 0. -1.
         11    1    3    3    0    0  0.63409704202E+01  0.27338986443E+02  0.75362491944E+01  0.29058959682E+02  0.51100000000E-03 0. -1.
        -11    1    3    3    0    0 -0.80241883044E+00 -0.28982888952E+01  0.30342748847E+01  0.42720930276E+01  0.51100000000E-03 0.  1.
        -12    1    3    3    0    0 -0.23580917853E+02  0.18494311458E+01 -0.10724103983E+02  0.25970877701E+02  0.00000000000E+00 0.  1.
</event>
<event>
 7    1  0.5837204E-012  0.5930195E+02  0.7816164E-02  0.1266605E+00
        -11   -1    0    0    0    0  0.00000000000E+00  0.00000000000E+00  0.45593999997E+02  0.45594000000E+02  0.51100000000E-03 0.  1.
         11   -1    0    0    0    0 -0.00000000000E+00 -0.00000000000E+00 -0.45593999997E+02  0.45594000000E+02  0.51100000000E-03 0. -1.
    9900012    2    1    2    0    0  0.18284325682E+02  0.92905239020E+01  0.24414945628E+02  0.59301953364E+02  0.50000017027E+02 0.  0.
         12    1    1    2    0    0 -0.18284325682E+02 -0.92905239020E+01 -0.24414945628E+02  0.31886046636E+02  0.00000000000E+00 0. -1.
         11    1    3    3    0    0  0.11014545159E+00  0.40037001944E+01 -0.40269899760E+01  0.56796475062E+01  0.51100000000E-03 0. -1.
        -11    1    3    3    0    0  0.26852202293E+02  0.78262583251E+01  0.48891875710E+01  0.28393577491E+02  0.51100000000E-03 0.  1.
        -12    1    3    3    0    0 -0.86780220626E+01 -0.25394346174E+01  0.23552748033E+02  0.25228728367E+02  0.00000000000E+00 0.  1.
</event>
<event>
 7    1  0.5837204E-012  0.5930177E+02  0.7816164E-02  0.1266605E+00
        -11   -1    0    0    0    0  0.00000000000E+00  0.00000000000E+00  0.45593999997E+02  0.45594000000E+02  0.51100000000E-03 0.  1.
         11   -1    0    0    0    0 -0.00000000000E+00 -0.00000000000E+00 -0.45593999997E+02  0.45594000000E+02  0.51100000000E-03 0. -1.
    9900012    2    1    2    0    0  0.25616904820E+02  0.36415358301E+01 -0.18634507903E+02  0.59301772870E+02  0.49999687849E+02 0.  0.
         12    1    1    2    0    0 -0.25616904820E+02 -0.36415358301E+01  0.18634507903E+02  0.31886227130E+02  0.00000000000E+00 0. -1.
         11    1    3    3    0    0 -0.25119189577E+01  0.66862983587E+01 -0.50919195123E+01  0.87717710396E+01  0.51100000000E-03 0. -1.
        -11    1    3    3    0    0  0.75692565401E+01  0.16355490035E+02  0.22301816391E+01  0.18159554214E+02  0.51100000000E-03 0.  1.
         12    1    3    3    0    0  0.20559567238E+02 -0.19400252563E+02 -0.15772770030E+02  0.32370447617E+02  0.00000000000E+00 0. -1.
</event>
<event>
 7    1  0.5837204E-012  0.5930198E+02  0.7816164E-02  0.1266605E+00
        -11   -1    0    0    0    0  0.00000000000E+00  0.00000000000E+00  0.45593999997E+02  0.45594000000E+02  0.51100000000E-03 0.  1.
         11   -1    0    0    0    0 -0.00000000000E+00 -0.00000000000E+00 -0.45593999997E+02  0.45594000000E+02  0.51100000000E-03 0. -1.
    9900012    2    1    2    0    0 -0.94883203153E+01 -0.95476957081E+01  0.28905567170E+02  0.59301975959E+02  0.50000058235E+02 0.  0.
         12    1    1    2    0    0  0.94883203153E+01  0.95476957081E+01 -0.28905567170E+02  0.31886024041E+02  0.00000000000E+00 0. -1.
         11    1    3    3    0    0  0.50097481682E+00  0.37488880848E+01  0.44396881441E+01  0.58323210403E+01  0.51100000000E-03 0. -1.
        -11    1    3    3    0    0 -0.17647434731E+02 -0.45371571771E+01  0.33902452127E+02  0.38488881619E+02  0.51100000000E-03 0.  1.
         12    1    3    3    0    0  0.76581395990E+01 -0.87594266159E+01 -0.94365731008E+01  0.14980773299E+02  0.00000000000E+00 0. -1.
</event>
<event>
 7    1  0.5837204E-012  0.5930195E+02  0.7816164E-02  0.1266605E+00
        -11   -1    0    0    0    0  0.00000000000E+00  0.00000000000E+00  0.45593999997E+02  0.45594000000E+02  0.51100000000E-03 0. -1.
         11   -1    0    0    0    0 -0.00000000000E+00 -0.00000000000E+00 -0.45593999997E+02  0.45594000000E+02  0.51100000000E-03 0.  1.
    9900012    2    1    2    0    0 -0.14414241512E+02 -0.67348291226E+01 -0.27633161784E+02  0.59301954277E+02  0.50000018692E+02 0.  0.
         12    1    1    2    0    0  0.14414241512E+02  0.67348291226E+01  0.27633161784E+02  0.31886045723E+02  0.00000000000E+00 0. -1.
         11    1    3    3    0    0  0.97421052948E+01  0.71032287526E+01 -0.17572582634E+02  0.21311033175E+02  0.51100000000E-03 0. -1.
        -11    1    3    3    0    0 -0.82068001152E+01  0.64502049567E+01 -0.54497548797E+01  0.11775251192E+02  0.51100000000E-03 0.  1.
         12    1    3    3    0    0 -0.15949546691E+02 -0.20288262832E+02 -0.46108242702E+01  0.26215669910E+02  0.00000000000E+00 0. -1.
</event>
<event>
 7    1  0.5837204E-012  0.5930193E+02  0.7816164E-02  0.1266605E+00
        -11   -1    0    0    0    0  0.00000000000E+00  0.00000000000E+00  0.45593999997E+02  0.45594000000E+02  0.51100000000E-03 0.  1.
         11   -1    0    0    0    0 -0.00000000000E+00 -0.00000000000E+00 -0.45593999997E+02  0.45594000000E+02  0.51100000000E-03 0. -1.
    9900012    2    1    2    0    0  0.28682890746E+02  0.13017345655E+02  0.49559709198E+01  0.59301934748E+02  0.49999983076E+02 0.  0.
         12    1    1    2    0    0 -0.28682890746E+02 -0.13017345655E+02 -0.49559709198E+01  0.31886065252E+02  0.00000000000E+00 0. -1.
         11    1    3    3    0    0 -0.19865389885E+00  0.19547032087E+02 -0.25897068196E+01  0.19718836387E+02  0.51100000000E-03 0.  1.
        -11    1    3    3    0    0  0.82127097210E+00 -0.57761198094E+01 -0.60402497985E+01  0.83977773221E+01  0.51100000000E-03 0. -1.
         12    1    3    3    0    0  0.28060273673E+02 -0.75356662196E+00  0.13585927538E+02  0.31185321040E+02  0.00000000000E+00 0. -1.
</event>
<event>
 7    1  0.5837204E-012  0.5930197E+02  0.7816164E-02  0.1266605E+00
        -11   -1    0    0    0    0  0.00000000000E+00  0.00000000000E+00  0.45593999997E+02  0.45594000000E+02  0.51100000000E-03 0.  1.
         11   -1    0    0    0    0 -0.00000000000E+00 -0.00000000000E+00 -0.45593999997E+02  0.45594000000E+02  0.51100000000E-03 0. -1.
    9900012    2    1    2    0    0  0.30071049583E+02 -0.71563386628E+01 -0.78254623401E+01  0.59301967526E+02  0.50000042855E+02 0.  0.
         12    1    1    2    0    0 -0.30071049583E+02  0.71563386628E+01  0.78254623401E+01  0.31886032474E+02  0.00000000000E+00 0. -1.
         11    1    3    3    0    0  0.40360594341E+01  0.68164251874E+01 -0.38941838567E+01  0.88271227623E+01  0.51100000000E-03 0.  1.
        -11    1    3    3    0    0  0.51270047525E+01 -0.12135335464E+02 -0.20064052913E+02  0.24002474125E+02  0.51100000000E-03 0. -1.
        -12    1    3    3    0    0  0.20907985397E+02 -0.18374283858E+01  0.16132774429E+02  0.26472370639E+02  0.00000000000E+00 0.  1.
</event>
<event>
 7    1  0.5837204E-012  0.5930195E+02  0.7816164E-02  0.1266605E+00
        -11   -1    0    0    0    0  0.00000000000E+00  0.00000000000E+00  0.45593999997E+02  0.45594000000E+02  0.51100000000E-03 0.  1.
         11   -1    0    0    0    0 -0.00000000000E+00 -0.00000000000E+00 -0.45593999997E+02  0.45594000000E+02  0.51100000000E-03 0. -1.
    9900012    2    1    2    0    0 -0.25346745427E+02  0.10129838660E+02  0.16481785068E+02  0.59301947029E+02  0.50000005473E+02 0.  0.
         12    1    1    2    0    0  0.25346745427E+02 -0.10129838660E+02 -0.16481785068E+02  0.31886052971E+02  0.00000000000E+00 0. -1.
         11    1    3    3    0    0  0.48665830938E+01 -0.66602267894E+01  0.11641818398E+02  0.14267942660E+02  0.51100000000E-03 0.  1.
        -11    1    3    3    0    0 -0.14421683201E+02 -0.11375556298E+01  0.13337794493E+02  0.19676781784E+02  0.51100000000E-03 0. -1.
         12    1    3    3    0    0 -0.15791645320E+02  0.17927621080E+02 -0.84978278230E+01  0.25357222585E+02  0.00000000000E+00 0. -1.
</event>
<event>
 7    1  0.5837204E-012  0.5930195E+02  0.7816164E-02  0.1266605E+00
        -11   -1    0    0    0    0  0.00000000000E+00  0.00000000000E+00  0.45593999997E+02  0.45594000000E+02  0.51100000000E-03 0.  1.
         11   -1    0    0    0    0 -0.00000000000E+00 -0.00000000000E+00 -0.45593999997E+02  0.45594000000E+02  0.51100000000E-03 0. -1.
    9900012    2    1    2    0    0 -0.20366729130E+02  0.24497399487E+02  0.13394641711E+01  0.59301946602E+02  0.50000004694E+02 0.  0.
         12    1    1    2    0    0  0.20366729130E+02 -0.24497399487E+02 -0.13394641711E+01  0.31886053398E+02  0.00000000000E+00 0. -1.
         11    1    3    3    0    0 -0.75848378228E+01  0.47764636509E+01  0.13889993044E+02  0.16531070045E+02  0.51100000000E-03 0. -1.
        -11    1    3    3    0    0 -0.13103720299E+02 -0.49084993701E+01  0.20422601305E+01  0.14141134270E+02  0.51100000000E-03 0.  1.
         12    1    3    3    0    0  0.32182899192E+00  0.24629435206E+02 -0.14592789004E+02  0.28629742286E+02  0.00000000000E+00 0. -1.
</event>
<event>
 7    1  0.5837204E-012  0.5930194E+02  0.7816164E-02  0.1266605E+00
        -11   -1    0    0    0    0  0.00000000000E+00  0.00000000000E+00  0.45593999997E+02  0.45594000000E+02  0.51100000000E-03 0.  1.
         11   -1    0    0    0    0 -0.00000000000E+00 -0.00000000000E+00 -0.45593999997E+02  0.45594000000E+02  0.51100000000E-03 0. -1.
    9900012    2    1    2    0    0 -0.13724392269E+02  0.25430266922E+01  0.28668706621E+02  0.59301942432E+02  0.49999997089E+02 0.  0.
         12    1    1    2    0    0  0.13724392269E+02 -0.25430266922E+01 -0.28668706621E+02  0.31886057568E+02  0.00000000000E+00 0. -1.
         11    1    3    3    0    0 -0.19220538673E+01  0.11053329304E+01  0.26847134297E+02  0.26938535078E+02  0.51100000000E-03 0. -1.
        -11    1    3    3    0    0  0.15852644548E+01 -0.75193813568E+01  0.11306342883E+02  0.13670682098E+02  0.51100000000E-03 0.  1.
         12    1    3    3    0    0 -0.13387602857E+02  0.89570751186E+01 -0.94847705583E+01  0.18692725255E+02  0.00000000000E+00 0. -1.
</event>
<event>
 7    1  0.5837204E-012  0.5930194E+02  0.7816164E-02  0.1266605E+00
        -11   -1    0    0    0    0  0.00000000000E+00  0.00000000000E+00  0.45593999997E+02  0.45594000000E+02  0.51100000000E-03 0.  1.
         11   -1    0    0    0    0 -0.00000000000E+00 -0.00000000000E+00 -0.45593999997E+02  0.45594000000E+02  0.51100000000E-03 0. -1.
    9900012    2    1    2    0    0 -0.40279987089E+01  0.99619818923E+01  0.30020911205E+02  0.59301937741E+02  0.49999988534E+02 0.  0.
         12    1    1    2    0    0  0.40279987089E+01 -0.99619818923E+01 -0.30020911205E+02  0.31886062259E+02  0.00000000000E+00 0. -1.
         11    1    3    3    0    0 -0.13204306662E+02  0.22063947886E+02  0.12502464916E+02  0.28591662071E+02  0.51100000000E-03 0. -1.
        -11    1    3    3    0    0  0.98431439061E+01 -0.25792195585E+01  0.18500146564E+02  0.21113864607E+02  0.51100000000E-03 0.  1.
        -12    1    3    3    0    0 -0.66683595332E+00 -0.95227464353E+01 -0.98170027464E+00  0.95964110629E+01  0.00000000000E+00 0.  1.
</event>
<event>
 7    1  0.5837204E-012  0.5930200E+02  0.7816164E-02  0.1266605E+00
        -11   -1    0    0    0    0  0.00000000000E+00  0.00000000000E+00  0.45593999997E+02  0.45594000000E+02  0.51100000000E-03 0.  1.
         11   -1    0    0    0    0 -0.00000000000E+00 -0.00000000000E+00 -0.45593999997E+02  0.45594000000E+02  0.51100000000E-03 0. -1.
    9900012    2    1    2    0    0 -0.30283779171E+02 -0.72163117263E+01 -0.68945334592E+01  0.59301999507E+02  0.50000101181E+02 0.  0.
         12    1    1    2    0    0  0.30283779171E+02  0.72163117263E+01  0.68945334592E+01  0.31886000493E+02  0.00000000000E+00 0. -1.
         11    1    3    3    0    0 -0.10494275345E+02 -0.46407117283E+01  0.99158150478E+01  0.15165401699E+02  0.51100000000E-03 0. -1.
        -11    1    3    3    0    0 -0.15420599871E+02 -0.15087058454E+02  0.13951361803E+01  0.21618525352E+02  0.51100000000E-03 0.  1.
         12    1    3    3    0    0 -0.43689039546E+01  0.12511458456E+02 -0.18205484687E+02  0.22518072456E+02  0.00000000000E+00 0. -1.
</event>
<event>
 7    1  0.5837204E-012  0.5930187E+02  0.7816164E-02  0.1266605E+00
        -11   -1    0    0    0    0  0.00000000000E+00  0.00000000000E+00  0.45593999997E+02  0.45594000000E+02  0.51100000000E-03 0. -1.
         11   -1    0    0    0    0 -0.00000000000E+00 -0.00000000000E+00 -0.45593999997E+02  0.45594000000E+02  0.51100000000E-03 0.  1.
    9900012    2    1    2    0    0  0.26089296006E+02 -0.12467980722E+02 -0.13439608049E+02  0.59301874901E+02  0.49999873929E+02 0.  0.
         12    1    1    2    0    0 -0.26089296006E+02  0.12467980722E+02  0.13439608049E+02  0.31886125099E+02  0.00000000000E+00 0. -1.
         11    1    3    3    0    0  0.77767064697E+01  0.11235222879E+02  0.71916532372E+01  0.15441090415E+02  0.51100000000E-03 0. -1.
        -11    1    3    3    0    0  0.12087777002E+02 -0.98419776336E+01  0.28949027706E+01  0.15854316097E+02  0.51100000000E-03 0.  1.
        -12    1    3    3    0    0  0.62248125342E+01 -0.13861225967E+02 -0.23526164056E+02  0.28006468389E+02  0.00000000000E+00 0.  1.
</event>
<event>
 7    1  0.5837204E-012  0.5930188E+02  0.7816164E-02  0.1266605E+00
        -11   -1    0    0    0    0  0.00000000000E+00  0.00000000000E+00  0.45593999997E+02  0.45594000000E+02  0.51100000000E-03 0.  1.
         11   -1    0    0    0    0 -0.00000000000E+00 -0.00000000000E+00 -0.45593999997E+02  0.45594000000E+02  0.51100000000E-03 0. -1.
    9900012    2    1    2    0    0  0.27841689180E+02 -0.15402156989E+02  0.20828543868E+01  0.59301884233E+02  0.49999890948E+02 0.  0.
         12    1    1    2    0    0 -0.27841689180E+02  0.15402156989E+02 -0.20828543868E+01  0.31886115767E+02  0.00000000000E+00 0. -1.
         11    1    3    3    0    0  0.25336124607E+01 -0.16927074451E+02 -0.20095507370E+01  0.17233204461E+02  0.51100000000E-03 0. -1.
        -11    1    3    3    0    0  0.13993050656E+02 -0.15279687811E+02  0.63849245214E+01  0.21680442516E+02  0.51100000000E-03 0.  1.
         12    1    3    3    0    0  0.11315026064E+02  0.16804605273E+02 -0.22925193976E+01  0.20388237256E+02  0.00000000000E+00 0. -1.
</event>
<event>
 7    1  0.5837204E-012  0.5930192E+02  0.7816164E-02  0.1266605E+00
        -11   -1    0    0    0    0  0.00000000000E+00  0.00000000000E+00  0.45593999997E+02  0.45594000000E+02  0.51100000000E-03 0.  1.
         11   -1    0    0    0    0 -0.00000000000E+00 -0.00000000000E+00 -0.45593999997E+02  0.45594000000E+02  0.51100000000E-03 0. -1.
    9900012    2    1    2    0    0  0.10858196889E+02 -0.14924710891E+02  0.26001431333E+02  0.59301923631E+02  0.49999962801E+02 0.  0.
         12    1    1    2    0    0 -0.10858196889E+02  0.14924710891E+02 -0.26001431333E+02  0.31886076369E+02  0.00000000000E+00 0. -1.
         11    1    3    3    0    0  0.57747972216E+01  0.25994035960E+01  0.29940726738E+01  0.70049734791E+01  0.51100000000E-03 0. -1.
        -11    1    3    3    0    0 -0.40906583450E+01  0.13411891185E+02  0.30292333144E+01  0.14345332536E+02  0.51100000000E-03 0.  1.
         12    1    3    3    0    0  0.91740580126E+01 -0.30936005671E+02  0.19978125345E+02  0.37951617615E+02  0.00000000000E+00 0. -1.
</event>
<event>
 7    1  0.5837204E-012  0.5930191E+02  0.7816164E-02  0.1266605E+00
        -11   -1    0    0    0    0  0.00000000000E+00  0.00000000000E+00  0.45593999997E+02  0.45594000000E+02  0.51100000000E-03 0.  1.
         11   -1    0    0    0    0 -0.00000000000E+00 -0.00000000000E+00 -0.45593999997E+02  0.45594000000E+02  0.51100000000E-03 0. -1.
    9900012    2    1    2    0    0 -0.76471792527E+01  0.29391118761E+02  0.97162454975E+01  0.59301911511E+02  0.49999940698E+02 0.  0.
         12    1    1    2    0    0  0.76471792527E+01 -0.29391118761E+02 -0.97162454975E+01  0.31886088489E+02  0.00000000000E+00 0. -1.
         11    1    3    3    0    0 -0.11647020584E+02  0.81347531738E+01  0.18672776360E+02  0.23462733748E+02  0.51100000000E-03 0. -1.
        -11    1    3    3    0    0  0.10295459891E+02  0.20102776491E+02  0.24921341982E+01  0.22722870640E+02  0.51100000000E-03 0.  1.
         12    1    3    3    0    0 -0.62956185602E+01  0.11535890963E+01 -0.11448665061E+02  0.13116307123E+02  0.00000000000E+00 0. -1.
</event>
<event>
 7    1  0.5837204E-012  0.5930194E+02  0.7816164E-02  0.1266605E+00
        -11   -1    0    0    0    0  0.00000000000E+00  0.00000000000E+00  0.45593999997E+02  0.45594000000E+02  0.51100000000E-03 0. -1.
         11   -1    0    0    0    0 -0.00000000000E+00 -0.00000000000E+00 -0.45593999997E+02  0.45594000000E+02  0.51100000000E-03 0.  1.
    9900012    2    1    2    0    0 -0.43405130661E+00  0.46047328489E+01 -0.31548832763E+02  0.59301940133E+02  0.49999992897E+02 0.  0.
         12    1    1    2    0    0  0.43405130661E+00 -0.46047328489E+01  0.31548832763E+02  0.31886059867E+02  0.00000000000E+00 0. -1.
         11    1    3    3    0    0 -0.32606303530E+00 -0.16333726663E+02 -0.13236865815E+02  0.21026449075E+02  0.51100000000E-03 0. -1.
        -11    1    3    3    0    0  0.13072752971E+02  0.10102025183E+02 -0.97643235424E+01  0.19190877978E+02  0.51100000000E-03 0.  1.
         12    1    3    3    0    0 -0.13180741242E+02  0.10836434329E+02 -0.85476434052E+01  0.19084613081E+02  0.00000000000E+00 0. -1.
</event>
<event>
 7    1  0.5837204E-012  0.5930195E+02  0.7816164E-02  0.1266605E+00
        -11   -1    0    0    0    0  0.00000000000E+00  0.00000000000E+00  0.45593999997E+02  0.45594000000E+02  0.51100000000E-03 0.  1.
         11   -1    0    0    0    0 -0.00000000000E+00 -0.00000000000E+00 -0.45593999997E+02  0.45594000000E+02  0.51100000000E-03 0. -1.
    9900012    2    1    2    0    0  0.95179699691E+01  0.12907915020E+02  0.27559283379E+02  0.59301950968E+02  0.50000012657E+02 0.  0.
         12    1    1    2    0    0 -0.95179699691E+01 -0.12907915020E+02 -0.27559283379E+02  0.31886049032E+02  0.00000000000E+00 0. -1.
         11    1    3    3    0    0  0.91067572706E+01  0.27301378058E+02  0.66560090066E+01  0.29539815978E+02  0.51100000000E-03 0. -1.
        -11    1    3    3    0    0 -0.17026937217E+01  0.30988857403E+01  0.41081778992E+01  0.54202753300E+01  0.51100000000E-03 0.  1.
         12    1    3    3    0    0  0.21139064202E+01 -0.17492348779E+02  0.16795096474E+02  0.24341859660E+02  0.00000000000E+00 0. -1.
</event>
<event>
 7    1  0.5837204E-012  0.5930196E+02  0.7816164E-02  0.1266605E+00
        -11   -1    0    0    0    0  0.00000000000E+00  0.00000000000E+00  0.45593999997E+02  0.45594000000E+02  0.51100000000E-03 0.  1.
         11   -1    0    0    0    0 -0.00000000000E+00 -0.00000000000E+00 -0.45593999997E+02  0.45594000000E+02  0.51100000000E-03 0. -1.
    9900012    2    1    2    0    0 -0.45000958241E+01 -0.84972297933E+00  0.31555455645E+02  0.59301958030E+02  0.50000025536E+02 0.  0.
         12    1    1    2    0    0  0.45000958241E+01  0.84972297933E+00 -0.31555455645E+02  0.31886041970E+02  0.00000000000E+00 0. -1.
         11    1    3    3    0    0  0.12514986818E+02  0.76692134723E+00  0.30438319627E+01  0.12902634486E+02  0.51100000000E-03 0. -1.
        -11    1    3    3    0    0  0.63333397552E+01  0.16486017221E+00  0.20803764442E+02  0.21747068459E+02  0.51100000000E-03 0.  1.
         12    1    3    3    0    0 -0.23348422397E+02 -0.17815044988E+01  0.77078592403E+01  0.24652255085E+02  0.00000000000E+00 0. -1.
</event>
<event>
 7    1  0.5837204E-012  0.5930191E+02  0.7816164E-02  0.1266605E+00
        -11   -1    0    0    0    0  0.00000000000E+00  0.00000000000E+00  0.45593999997E+02  0.45594000000E+02  0.51100000000E-03 0. -1.
         11   -1    0    0    0    0 -0.00000000000E+00 -0.00000000000E+00 -0.45593999997E+02  0.45594000000E+02  0.51100000000E-03 0.  1.
    9900012    2    1    2    0    0  0.17033877446E+02 -0.84306210469E+01  0.25602621974E+02  0.59301912061E+02  0.49999941701E+02 0.  0.
         12    1    1    2    0    0 -0.17033877446E+02  0.84306210469E+01 -0.25602621974E+02  0.31886087939E+02  0.00000000000E+00 0. -1.
         11    1    3    3    0    0 -0.68789722434E+01  0.48060924722E+01  0.54384502669E+01  0.99997762747E+01  0.51100000000E-03 0. -1.
        -11    1    3    3    0    0  0.68899936157E+01 -0.62709518711E+01 -0.10192035545E+02  0.13808491525E+02  0.51100000000E-03 0.  1.
        -12    1    3    3    0    0  0.17022856074E+02 -0.69657616481E+01  0.30356207252E+02  0.35493644262E+02  0.00000000000E+00 0.  1.
</event>
<event>
 7    1  0.5837204E-012  0.5930195E+02  0.7816164E-02  0.1266605E+00
        -11   -1    0    0    0    0  0.00000000000E+00  0.00000000000E+00  0.45593999997E+02  0.45594000000E+02  0.51100000000E-03 0.  1.
         11   -1    0    0    0    0 -0.00000000000E+00 -0.00000000000E+00 -0.45593999997E+02  0.45594000000E+02  0.51100000000E-03 0. -1.
    9900012    2    1    2    0    0 -0.11513790319E+02  0.10435916859E+01  0.29716383284E+02  0.59301954673E+02  0.50000019414E+02 0.  0.
         12    1    1    2    0    0  0.11513790319E+02 -0.10435916859E+01 -0.29716383284E+02  0.31886045327E+02  0.00000000000E+00 0. -1.
         11    1    3    3    0    0 -0.10766947877E+02 -0.58491466953E+01 -0.43377434218E+01  0.12998296116E+02  0.51100000000E-03 0. -1.
        -11    1    3    3    0    0 -0.92763557201E+01  0.13395151774E+02  0.80483022869E+01  0.18172947930E+02  0.51100000000E-03 0.  1.
        -12    1    3    3    0    0  0.85295132779E+01 -0.65024133930E+01  0.26005824419E+02  0.28130710627E+02  0.00000000000E+00 0.  1.
</event>
<event>
 7    1  0.5837204E-012  0.5930195E+02  0.7816164E-02  0.1266605E+00
        -11   -1    0    0    0    0  0.00000000000E+00  0.00000000000E+00  0.45593999997E+02  0.45594000000E+02  0.51100000000E-03 0.  1.
         11   -1    0    0    0    0 -0.00000000000E+00 -0.00000000000E+00 -0.45593999997E+02  0.45594000000E+02  0.51100000000E-03 0. -1.
    9900012    2    1    2    0    0  0.29185259735E+02 -0.71738089383E+01  0.10652574665E+02  0.59301948700E+02  0.50000008522E+02 0.  0.
         12    1    1    2    0    0 -0.29185259735E+02  0.71738089383E+01 -0.10652574665E+02  0.31886051300E+02  0.00000000000E+00 0. -1.
         11    1    3    3    0    0  0.23409508286E+02 -0.21026238136E+02  0.27096790883E+00  0.31467144647E+02  0.51100000000E-03 0. -1.
        -11    1    3    3    0    0 -0.17202670788E+01 -0.49491026570E+01  0.40643643759E+01  0.66311382110E+01  0.51100000000E-03 0.  1.
        -12    1    3    3    0    0  0.74960185281E+01  0.18801531855E+02  0.63172423804E+01  0.21203665843E+02  0.00000000000E+00 0.  1.
</event>
<event>
 7    1  0.5837204E-012  0.5930191E+02  0.7816164E-02  0.1266605E+00
        -11   -1    0    0    0    0  0.00000000000E+00  0.00000000000E+00  0.45593999997E+02  0.45594000000E+02  0.51100000000E-03 0. -1.
         11   -1    0    0    0    0 -0.00000000000E+00 -0.00000000000E+00 -0.45593999997E+02  0.45594000000E+02  0.51100000000E-03 0.  1.
    9900012    2    1    2    0    0  0.44748308446E+01  0.20105599700E+02 -0.24340567654E+02  0.59301913942E+02  0.49999945131E+02 0.  0.
         12    1    1    2    0    0 -0.44748308446E+01 -0.20105599700E+02  0.24340567654E+02  0.31886086058E+02  0.00000000000E+00 0. -1.
         11    1    3    3    0    0 -0.47320974667E+01 -0.57093420001E+01 -0.11338130267E+01  0.75016574667E+01  0.51100000000E-03 0. -1.
        -11    1    3    3    0    0 -0.25773737163E+01  0.20619479272E+02  0.44865680312E+01  0.21258764632E+02  0.51100000000E-03 0.  1.
         12    1    3    3    0    0  0.11784302028E+02  0.51954624278E+01 -0.27693322659E+02  0.30541491843E+02  0.00000000000E+00 0. -1.
</event>
<event>
 7    1  0.5837204E-012  0.5930198E+02  0.7816164E-02  0.1266605E+00
        -11   -1    0    0    0    0  0.00000000000E+00  0.00000000000E+00  0.45593999997E+02  0.45594000000E+02  0.51100000000E-03 0. -1.
         11   -1    0    0    0    0 -0.00000000000E+00 -0.00000000000E+00 -0.45593999997E+02  0.45594000000E+02  0.51100000000E-03 0.  1.
    9900012    2    1    2    0    0  0.52721740680E+01 -0.31446841581E+02 -0.13652618958E+00  0.59301979486E+02  0.50000064667E+02 0.  0.
         12    1    1    2    0    0 -0.52721740680E+01  0.31446841581E+02  0.13652618958E+00  0.31886020514E+02  0.00000000000E+00 0. -1.
         11    1    3    3    0    0 -0.10304047510E+02 -0.63432521244E+01  0.13655583942E+02  0.18245142249E+02  0.51100000000E-03 0. -1.
        -11    1    3    3    0    0  0.30915209184E+01 -0.25727399392E+02 -0.70506412094E+01  0.26854573592E+02  0.51100000000E-03 0.  1.
        -12    1    3    3    0    0  0.12484700660E+02  0.62380993544E+00 -0.67414689226E+01  0.14202263645E+02  0.00000000000E+00 0.  1.
</event>
<event>
 7    1  0.5837204E-012  0.5930192E+02  0.7816164E-02  0.1266605E+00
        -11   -1    0    0    0    0  0.00000000000E+00  0.00000000000E+00  0.45593999997E+02  0.45594000000E+02  0.51100000000E-03 0. -1.
         11   -1    0    0    0    0 -0.00000000000E+00 -0.00000000000E+00 -0.45593999997E+02  0.45594000000E+02  0.51100000000E-03 0.  1.
    9900012    2    1    2    0    0 -0.62777914925E+01  0.30014799644E+01 -0.31117559050E+02  0.59301921075E+02  0.49999958139E+02 0.  0.
         12    1    1    2    0    0  0.62777914925E+01 -0.30014799644E+01  0.31117559050E+02  0.31886078925E+02  0.00000000000E+00 0. -1.
         11    1    3    3    0    0 -0.49125508845E+01 -0.35131074401E+01 -0.10369382353E+02  0.11999965447E+02  0.51100000000E-03 0. -1.
        -11    1    3    3    0    0  0.69511705231E+01  0.84856009190E+01 -0.31622443799E+02  0.33470929875E+02  0.51100000000E-03 0.  1.
         12    1    3    3    0    0 -0.83164111311E+01 -0.19710135145E+01  0.10874267102E+02  0.13831025753E+02  0.00000000000E+00 0. -1.
</event>
<event>
 7    1  0.5837204E-012  0.5930193E+02  0.7816164E-02  0.1266605E+00
        -11   -1    0    0    0    0  0.00000000000E+00  0.00000000000E+00  0.45593999997E+02  0.45594000000E+02  0.51100000000E-03 0. -1.
         11   -1    0    0    0    0 -0.00000000000E+00 -0.00000000000E+00 -0.45593999997E+02  0.45594000000E+02  0.51100000000E-03 0.  1.
    9900012    2    1    2    0    0  0.30809362647E+02 -0.14835739505E+01 -0.80810586323E+01  0.59301932086E+02  0.49999978221E+02 0.  0.
         12    1    1    2    0    0 -0.30809362647E+02  0.14835739505E+01  0.80810586323E+01  0.31886067914E+02  0.00000000000E+00 0. -1.
         11    1    3    3    0    0  0.27367061078E+02 -0.47304009136E+01 -0.15892345416E+02  0.31998427585E+02  0.51100000000E-03 0. -1.
        -11    1    3    3    0    0  0.99361201003E+01  0.18519945278E+01 -0.61581184018E+01  0.11835488536E+02  0.51100000000E-03 0.  1.
         12    1    3    3    0    0 -0.64938185312E+01  0.13948324352E+01  0.13969405185E+02  0.15468015964E+02  0.00000000000E+00 0. -1.
</event>
<event>
 7    1  0.5837204E-012  0.5930195E+02  0.7816164E-02  0.1266605E+00
        -11   -1    0    0    0    0  0.00000000000E+00  0.00000000000E+00  0.45593999997E+02  0.45594000000E+02  0.51100000000E-03 0.  1.
         11   -1    0    0    0    0 -0.00000000000E+00 -0.00000000000E+00 -0.45593999997E+02  0.45594000000E+02  0.51100000000E-03 0. -1.
    9900012    2    1    2    0    0 -0.16752922799E+02 -0.20146789105E+02 -0.18170490118E+02  0.59301949058E+02  0.50000009174E+02 0.  0.
         12    1    1    2    0    0  0.16752922799E+02  0.20146789105E+02  0.18170490118E+02  0.31886050942E+02  0.00000000000E+00 0. -1.
         11    1    3    3    0    0 -0.12207728492E+02  0.96562167254E+01  0.19301207691E+01  0.15684276293E+02  0.51100000000E-03 0. -1.
        -11    1    3    3    0    0 -0.43119851496E+01 -0.41142240942E+01  0.49413861292E+01  0.77419217877E+01  0.51100000000E-03 0.  1.
         12    1    3    3    0    0 -0.23320915687E+00 -0.25688781736E+02 -0.25041997016E+02  0.35875750977E+02  0.00000000000E+00 0. -1.
</event>
<event>
 7    1  0.5837204E-012  0.5930193E+02  0.7816164E-02  0.1266605E+00
        -11   -1    0    0    0    0  0.00000000000E+00  0.00000000000E+00  0.45593999997E+02  0.45594000000E+02  0.51100000000E-03 0. -1.
         11   -1    0    0    0    0 -0.00000000000E+00 -0.00000000000E+00 -0.45593999997E+02  0.45594000000E+02  0.51100000000E-03 0.  1.
    9900012    2    1    2    0    0  0.30208722766E+02 -0.96255833760E+01 -0.33915802225E+01  0.59301927760E+02  0.49999970332E+02 0.  0.
         12    1    1    2    0    0 -0.30208722766E+02  0.96255833760E+01  0.33915802225E+01  0.31886072240E+02  0.00000000000E+00 0. -1.
         11    1    3    3    0    0  0.49965067049E+01 -0.54123602473E+01 -0.13332403366E+02  0.15231930359E+02  0.51100000000E-03 0.  1.
        -11    1    3    3    0    0  0.95012431217E+01  0.99594463503E+01 -0.83516433834E+01  0.16100128569E+02  0.51100000000E-03 0. -1.
        -12    1    3    3    0    0  0.15710972939E+02 -0.14172669479E+02  0.18292466527E+02  0.27969868832E+02  0.00000000000E+00 0.  1.
</event>
<event>
 7    1  0.5837204E-012  0.5930183E+02  0.7816164E-02  0.1266605E+00
        -11   -1    0    0    0    0  0.00000000000E+00  0.00000000000E+00  0.45593999997E+02  0.45594000000E+02  0.51100000000E-03 0.  1.
         11   -1    0    0    0    0 -0.00000000000E+00 -0.00000000000E+00 -0.45593999997E+02  0.45594000000E+02  0.51100000000E-03 0. -1.
    9900012    2    1    2    0    0  0.13896487553E+01  0.21166940867E+02  0.23806667175E+02  0.59301828839E+02  0.49999789923E+02 0.  0.
         12    1    1    2    0    0 -0.13896487553E+01 -0.21166940867E+02 -0.23806667175E+02  0.31886171161E+02  0.00000000000E+00 0. -1.
         11    1    3    3    0    0 -0.26177039736E+00  0.12977715792E+02  0.70259746780E+01  0.14759876400E+02  0.51100000000E-03 0. -1.
        -11    1    3    3    0    0 -0.12054133632E+01  0.95537943714E+01  0.29709516616E+02  0.31231128479E+02  0.51100000000E-03 0.  1.
         12    1    3    3    0    0  0.28568325158E+01 -0.13645692963E+01 -0.12928824119E+02  0.13310823960E+02  0.00000000000E+00 0. -1.
</event>
<event>
 7    1  0.5837204E-012  0.5930198E+02  0.7816164E-02  0.1266605E+00
        -11   -1    0    0    0    0  0.00000000000E+00  0.00000000000E+00  0.45593999997E+02  0.45594000000E+02  0.51100000000E-03 0. -1.
         11   -1    0    0    0    0 -0.00000000000E+00 -0.00000000000E+00 -0.45593999997E+02  0.45594000000E+02  0.51100000000E-03 0.  1.
    9900012    2    1    2    0    0  0.11681737518E+01 -0.31845204370E+02 -0.11119607692E+01  0.59301982248E+02  0.50000069705E+02 0.  0.
         12    1    1    2    0    0 -0.11681737518E+01  0.31845204370E+02  0.11119607692E+01  0.31886017752E+02  0.00000000000E+00 0. -1.
         11    1    3    3    0    0  0.89037195736E+01  0.61678955837E+00  0.15472941268E+02  0.17862490401E+02  0.51100000000E-03 0. -1.
        -11    1    3    3    0    0 -0.41151952138E+01  0.10675889676E+01 -0.18342945639E+01  0.46302499565E+01  0.51100000000E-03 0.  1.
        -12    1    3    3    0    0 -0.36203506079E+01 -0.33529582896E+02 -0.14750607473E+02  0.36809241890E+02  0.00000000000E+00 0.  1.
</event>
<event>
 7    1  0.5837204E-012  0.5930194E+02  0.7816164E-02  0.1266605E+00
        -11   -1    0    0    0    0  0.00000000000E+00  0.00000000000E+00  0.45593999997E+02  0.45594000000E+02  0.51100000000E-03 0.  1.
         11   -1    0    0    0    0 -0.00000000000E+00 -0.00000000000E+00 -0.45593999997E+02  0.45594000000E+02  0.51100000000E-03 0. -1.
    9900012    2    1    2    0    0  0.62762903795E+01 -0.22753238912E+02  0.21438732362E+02  0.59301938042E+02  0.49999989083E+02 0.  0.
         12    1    1    2    0    0 -0.62762903795E+01  0.22753238912E+02 -0.21438732362E+02  0.31886061958E+02  0.00000000000E+00 0. -1.
         11    1    3    3    0    0  0.10897784962E+01  0.13017665474E+02 -0.60218249933E+00  0.13077073663E+02  0.51100000000E-03 0. -1.
        -11    1    3    3    0    0  0.53365598846E+01 -0.59625394719E+01  0.12656331898E+02  0.14973759906E+02  0.51100000000E-03 0.  1.
        -12    1    3    3    0    0 -0.15004800130E+00 -0.29808364915E+02  0.93845829630E+01  0.31251104472E+02  0.00000000000E+00 0.  1.
</event>
<event>
 7    1  0.5837204E-012  0.5930193E+02  0.7816164E-02  0.1266605E+00
        -11   -1    0    0    0    0  0.00000000000E+00  0.00000000000E+00  0.45593999997E+02  0.45594000000E+02  0.51100000000E-03 0.  1.
         11   -1    0    0    0    0 -0.00000000000E+00 -0.00000000000E+00 -0.45593999997E+02  0.45594000000E+02  0.51100000000E-03 0. -1.
    9900012    2    1    2    0    0 -0.10706855332E+02 -0.28109327638E+02 -0.10580652098E+02  0.59301933291E+02  0.49999980418E+02 0.  0.
         12    1    1    2    0    0  0.10706855332E+02  0.28109327638E+02  0.10580652098E+02  0.31886066709E+02  0.00000000000E+00 0. -1.
         11    1    3    3    0    0  0.44739821317E+01 -0.10525742197E+02 -0.11901685768E+02  0.16506298473E+02  0.51100000000E-03 0. -1.
        -11    1    3    3    0    0 -0.55750539942E+01  0.22528250258E+01 -0.14478680525E+02  0.15677647707E+02  0.51100000000E-03 0.  1.
        -12    1    3    3    0    0 -0.96057834692E+01 -0.19836410467E+02  0.15799714195E+02  0.27117987110E+02  0.00000000000E+00 0.  1.
</event>
<event>
 7    1  0.5837204E-012  0.5930192E+02  0.7816164E-02  0.1266605E+00
        -11   -1    0    0    0    0  0.00000000000E+00  0.00000000000E+00  0.45593999997E+02  0.45594000000E+02  0.51100000000E-03 0. -1.
         11   -1    0    0    0    0 -0.00000000000E+00 -0.00000000000E+00 -0.45593999997E+02  0.45594000000E+02  0.51100000000E-03 0.  1.
    9900012    2    1    2    0    0 -0.30908459695E+02 -0.75732119998E+01 -0.20088390236E+01  0.59301923808E+02  0.49999963123E+02 0.  0.
         12    1    1    2    0    0  0.30908459695E+02  0.75732119998E+01  0.20088390236E+01  0.31886076192E+02  0.00000000000E+00 0. -1.
         11    1    3    3    0    0  0.21538573282E+01 -0.54492631946E+01 -0.12871573639E+02  0.14142523783E+02  0.51100000000E-03 0. -1.
        -11    1    3    3    0    0 -0.24108731814E+02  0.10160910372E+02 -0.52152193119E+00  0.26167671555E+02  0.51100000000E-03 0.  1.
         12    1    3    3    0    0 -0.89535852098E+01 -0.12284859177E+02  0.11384256547E+02  0.18991728469E+02  0.00000000000E+00 0. -1.
</event>
<event>
 7    1  0.5837204E-012  0.5930193E+02  0.7816164E-02  0.1266605E+00
        -11   -1    0    0    0    0  0.00000000000E+00  0.00000000000E+00  0.45593999997E+02  0.45594000000E+02  0.51100000000E-03 0.  1.
         11   -1    0    0    0    0 -0.00000000000E+00 -0.00000000000E+00 -0.45593999997E+02  0.45594000000E+02  0.51100000000E-03 0. -1.
    9900012    2    1    2    0    0 -0.13433524624E+02 -0.47826419590E+01  0.28519964894E+02  0.59301927093E+02  0.49999969114E+02 0.  0.
         12    1    1    2    0    0  0.13433524624E+02  0.47826419590E+01 -0.28519964894E+02  0.31886072907E+02  0.00000000000E+00 0. -1.
         11    1    3    3    0    0  0.51726081837E+01 -0.41564256813E+01  0.12969056557E+02  0.14568053339E+02  0.51100000000E-03 0. -1.
        -11    1    3    3    0    0 -0.18832231849E+02 -0.11937962242E+02  0.22320280237E+02  0.31549370977E+02  0.51100000000E-03 0.  1.
         12    1    3    3    0    0  0.22609904148E+00  0.11311745965E+02 -0.67693718999E+01  0.13184502777E+02  0.00000000000E+00 0. -1.
</event>
<event>
 7    1  0.5837204E-012  0.5930194E+02  0.7816164E-02  0.1266605E+00
        -11   -1    0    0    0    0  0.00000000000E+00  0.00000000000E+00  0.45593999997E+02  0.45594000000E+02  0.51100000000E-03 0. -1.
         11   -1    0    0    0    0 -0.00000000000E+00 -0.00000000000E+00 -0.45593999997E+02  0.45594000000E+02  0.51100000000E-03 0.  1.
    9900012    2    1    2    0    0  0.15306719402E+02  0.11910708345E+02 -0.25309288230E+02  0.59301941873E+02  0.49999996070E+02 0.  0.
         12    1    1    2    0    0 -0.15306719402E+02 -0.11910708345E+02  0.25309288230E+02  0.31886058127E+02  0.00000000000E+00 0. -1.
         11    1    3    3    0    0  0.12809017245E+02  0.25827526075E+02 -0.26870283795E+02  0.39409950234E+02  0.51100000000E-03 0. -1.
        -11    1    3    3    0    0 -0.31158273291E+01  0.71059281778E+00 -0.20719777378E+01  0.38087286730E+01  0.51100000000E-03 0.  1.
         12    1    3    3    0    0  0.56135294858E+01 -0.14627410548E+02  0.36329733022E+01  0.16083262966E+02  0.00000000000E+00 0. -1.
</event>
<event>
 7    1  0.5837204E-012  0.5930188E+02  0.7816164E-02  0.1266605E+00
        -11   -1    0    0    0    0  0.00000000000E+00  0.00000000000E+00  0.45593999997E+02  0.45594000000E+02  0.51100000000E-03 0. -1.
         11   -1    0    0    0    0 -0.00000000000E+00 -0.00000000000E+00 -0.45593999997E+02  0.45594000000E+02  0.51100000000E-03 0.  1.
    9900012    2    1    2    0    0 -0.15144175983E+02 -0.27878123278E+02 -0.31919483353E+01  0.59301884560E+02  0.49999891544E+02 0.  0.
         12    1    1    2    0    0  0.15144175983E+02  0.27878123278E+02  0.31919483353E+01  0.31886115440E+02  0.00000000000E+00 0. -1.
         11    1    3    3    0    0  0.29828343308E+01  0.10558856826E+02  0.42356036873E+01  0.11761254056E+02  0.51100000000E-03 0. -1.
        -11    1    3    3    0    0  0.43686021957E+01 -0.78746277427E+01 -0.16289948928E+01  0.91513972623E+01  0.51100000000E-03 0.  1.
         12    1    3    3    0    0 -0.22495612509E+02 -0.30562352362E+02 -0.57985571298E+01  0.38389233241E+02  0.00000000000E+00 0. -1.
</event>
<event>
 7    1  0.5837204E-012  0.5930194E+02  0.7816164E-02  0.1266605E+00
        -11   -1    0    0    0    0  0.00000000000E+00  0.00000000000E+00  0.45593999997E+02  0.45594000000E+02  0.51100000000E-03 0. -1.
         11   -1    0    0    0    0 -0.00000000000E+00 -0.00000000000E+00 -0.45593999997E+02  0.45594000000E+02  0.51100000000E-03 0.  1.
    9900012    2    1    2    0    0  0.85011074986E+01 -0.11104151526E+02 -0.28655707301E+02  0.59301943945E+02  0.49999999849E+02 0.  0.
         12    1    1    2    0    0 -0.85011074986E+01  0.11104151526E+02  0.28655707301E+02  0.31886056055E+02  0.00000000000E+00 0. -1.
         11    1    3    3    0    0  0.19563272600E+02  0.11011822892E+02 -0.42682381157E+01  0.22851689984E+02  0.51100000000E-03 0.  1.
        -11    1    3    3    0    0 -0.22529480412E+01 -0.12702399957E+00  0.25256651711E+00  0.22706166738E+01  0.51100000000E-03 0. -1.
        -12    1    3    3    0    0 -0.88092170602E+01 -0.21988950418E+02 -0.24640035702E+02  0.34179637288E+02  0.00000000000E+00 0.  1.
</event>
<event>
 7    1  0.5837204E-012  0.5930197E+02  0.7816164E-02  0.1266605E+00
        -11   -1    0    0    0    0  0.00000000000E+00  0.00000000000E+00  0.45593999997E+02  0.45594000000E+02  0.51100000000E-03 0. -1.
         11   -1    0    0    0    0 -0.00000000000E+00 -0.00000000000E+00 -0.45593999997E+02  0.45594000000E+02  0.51100000000E-03 0.  1.
    9900012    2    1    2    0    0 -0.62033221551E+01  0.30458808647E+02  0.71062575213E+01  0.59301966601E+02  0.50000041169E+02 0.  0.
         12    1    1    2    0    0  0.62033221551E+01 -0.30458808647E+02 -0.71062575213E+01  0.31886033399E+02  0.00000000000E+00 0. -1.
         11    1    3    3    0    0  0.30154314901E+01  0.94847137052E+00 -0.80985046725E+01  0.86935725225E+01  0.51100000000E-03 0. -1.
        -11    1    3    3    0    0 -0.75359684420E+01  0.26734491217E+02 -0.66111918143E+01  0.28552262580E+02  0.51100000000E-03 0.  1.
        -12    1    3    3    0    0 -0.16827852032E+01  0.27758460593E+01  0.21815954008E+02  0.22056131498E+02  0.00000000000E+00 0.  1.
</event>
<event>
 7    1  0.5837204E-012  0.5930195E+02  0.7816164E-02  0.1266605E+00
        -11   -1    0    0    0    0  0.00000000000E+00  0.00000000000E+00  0.45593999997E+02  0.45594000000E+02  0.51100000000E-03 0.  1.
         11   -1    0    0    0    0 -0.00000000000E+00 -0.00000000000E+00 -0.45593999997E+02  0.45594000000E+02  0.51100000000E-03 0. -1.
    9900012    2    1    2    0    0  0.13224165559E+02 -0.28214611339E+02 -0.67658872116E+01  0.59301951680E+02  0.50000013955E+02 0.  0.
         12    1    1    2    0    0 -0.13224165559E+02  0.28214611339E+02  0.67658872116E+01  0.31886048320E+02  0.00000000000E+00 0. -1.
         11    1    3    3    0    0  0.13919852828E+01 -0.12369082830E+02 -0.13989052124E+02  0.18724994331E+02  0.51100000000E-03 0. -1.
        -11    1    3    3    0    0 -0.85836881001E+01  0.55934353337E+01  0.29789271965E+01  0.10669593607E+02  0.51100000000E-03 0.  1.
        -12    1    3    3    0    0  0.20415868376E+02 -0.21438963843E+02  0.42442377162E+01  0.29907363742E+02  0.00000000000E+00 0.  1.
</event>
<event>
 7    1  0.5837204E-012  0.5930191E+02  0.7816164E-02  0.1266605E+00
        -11   -1    0    0    0    0  0.00000000000E+00  0.00000000000E+00  0.45593999997E+02  0.45594000000E+02  0.51100000000E-03 0. -1.
         11   -1    0    0    0    0 -0.00000000000E+00 -0.00000000000E+00 -0.45593999997E+02  0.45594000000E+02  0.51100000000E-03 0.  1.
    9900012    2    1    2    0    0  0.24895919015E+02  0.88075498068E+01 -0.17870166150E+02  0.59301912824E+02  0.49999943091E+02 0.  0.
         12    1    1    2    0    0 -0.24895919015E+02 -0.88075498068E+01  0.17870166150E+02  0.31886087176E+02  0.00000000000E+00 0. -1.
         11    1    3    3    0    0  0.17405458781E+02  0.20355020886E+01 -0.26946393567E+02  0.32143450198E+02  0.51100000000E-03 0.  1.
        -11    1    3    3    0    0  0.55070432194E+00 -0.55771964829E+01 -0.47628650380E+01  0.73548133552E+01  0.51100000000E-03 0. -1.
         12    1    3    3    0    0  0.69397559119E+01  0.12349244201E+02  0.13839092455E+02  0.19803649270E+02  0.00000000000E+00 0. -1.
</event>
<event>
 7    1  0.5837204E-012  0.5930206E+02  0.7816164E-02  0.1266604E+00
        -11   -1    0    0    0    0  0.00000000000E+00  0.00000000000E+00  0.45593999997E+02  0.45594000000E+02  0.51100000000E-03 0. -1.
         11   -1    0    0    0    0 -0.00000000000E+00 -0.00000000000E+00 -0.45593999997E+02  0.45594000000E+02  0.51100000000E-03 0.  1.
    9900012    2    1    2    0    0  0.19314690808E+02 -0.25057116705E+02  0.39744969385E+01  0.59302062591E+02  0.50000216230E+02 0.  0.
         12    1    1    2    0    0 -0.19314690808E+02  0.25057116705E+02 -0.39744969385E+01  0.31885937409E+02  0.00000000000E+00 0. -1.
         11    1    3    3    0    0  0.15008042199E+02  0.26464145364E+01  0.27198400119E+01  0.15480386639E+02  0.51100000000E-03 0. -1.
        -11    1    3    3    0    0  0.16075337924E+02 -0.10081553456E+02  0.93298010615E+01  0.21144725053E+02  0.51100000000E-03 0.  1.
         12    1    3    3    0    0 -0.11768689315E+02 -0.17621977785E+02 -0.80751441349E+01  0.22676950899E+02  0.00000000000E+00 0. -1.
</event>
<event>
 7    1  0.5837204E-012  0.5930194E+02  0.7816164E-02  0.1266605E+00
        -11   -1    0    0    0    0  0.00000000000E+00  0.00000000000E+00  0.45593999997E+02  0.45594000000E+02  0.51100000000E-03 0.  1.
         11   -1    0    0    0    0 -0.00000000000E+00 -0.00000000000E+00 -0.45593999997E+02  0.45594000000E+02  0.51100000000E-03 0. -1.
    9900012    2    1    2    0    0 -0.12222460644E+02 -0.75429976741E+00  0.29440842103E+02  0.59301941980E+02  0.49999996265E+02 0.  0.
         12    1    1    2    0    0  0.12222460644E+02  0.75429976741E+00 -0.29440842103E+02  0.31886058020E+02  0.00000000000E+00 0. -1.
         11    1    3    3    0    0  0.76138062998E+01 -0.70168561215E+01  0.65814543996E+01  0.12268734999E+02  0.51100000000E-03 0. -1.
        -11    1    3    3    0    0  0.10691443182E+01  0.72449622300E+01  0.24948081651E+02  0.26000756250E+02  0.51100000000E-03 0.  1.
         12    1    3    3    0    0 -0.20905411262E+02 -0.98240587586E+00 -0.20886939473E+01  0.21032450730E+02  0.00000000000E+00 0. -1.
</event>
<event>
 7    1  0.5837204E-012  0.5930194E+02  0.7816164E-02  0.1266605E+00
        -11   -1    0    0    0    0  0.00000000000E+00  0.00000000000E+00  0.45593999997E+02  0.45594000000E+02  0.51100000000E-03 0.  1.
         11   -1    0    0    0    0 -0.00000000000E+00 -0.00000000000E+00 -0.45593999997E+02  0.45594000000E+02  0.51100000000E-03 0. -1.
    9900012    2    1    2    0    0 -0.73180288453E-01  0.20121296709E+02  0.24735574038E+02  0.59301944119E+02  0.50000000167E+02 0.  0.
         12    1    1    2    0    0  0.73180288453E-01 -0.20121296709E+02 -0.24735574038E+02  0.31886055881E+02  0.00000000000E+00 0. -1.
         11    1    3    3    0    0 -0.13847147172E+02  0.74287333982E+01 -0.72648031645E+01  0.17312045806E+02  0.51100000000E-03 0. -1.
        -11    1    3    3    0    0  0.14439988446E+02  0.46542659533E+01  0.90553592059E+01  0.17668474424E+02  0.51100000000E-03 0.  1.
        -12    1    3    3    0    0 -0.66602156214E+00  0.80382973577E+01  0.22945017997E+02  0.24321423889E+02  0.00000000000E+00 0.  1.
</event>
<event>
 7    1  0.5837204E-012  0.5930196E+02  0.7816164E-02  0.1266605E+00
        -11   -1    0    0    0    0  0.00000000000E+00  0.00000000000E+00  0.45593999997E+02  0.45594000000E+02  0.51100000000E-03 0.  1.
         11   -1    0    0    0    0 -0.00000000000E+00 -0.00000000000E+00 -0.45593999997E+02  0.45594000000E+02  0.51100000000E-03 0. -1.
    9900012    2    1    2    0    0 -0.11802829695E+01  0.18204156092E+02  0.26152151124E+02  0.59301962690E+02  0.50000034036E+02 0.  0.
         12    1    1    2    0    0  0.11802829695E+01 -0.18204156092E+02 -0.26152151124E+02  0.31886037310E+02  0.00000000000E+00 0. -1.
         11    1    3    3    0    0 -0.13004467288E+02  0.25847760974E+02  0.13328134974E+02  0.31856900335E+02  0.51100000000E-03 0. -1.
        -11    1    3    3    0    0 -0.37544234991E+01 -0.58247555591E+01  0.88953086596E+01  0.11276080416E+02  0.51100000000E-03 0.  1.
        -12    1    3    3    0    0  0.15578607818E+02 -0.18188493237E+01  0.39287074905E+01  0.16168981939E+02  0.00000000000E+00 0.  1.
</event>
<event>
 7    1  0.5837204E-012  0.5930193E+02  0.7816164E-02  0.1266605E+00
        -11   -1    0    0    0    0  0.00000000000E+00  0.00000000000E+00  0.45593999997E+02  0.45594000000E+02  0.51100000000E-03 0.  1.
         11   -1    0    0    0    0 -0.00000000000E+00 -0.00000000000E+00 -0.45593999997E+02  0.45594000000E+02  0.51100000000E-03 0. -1.
    9900012    2    1    2    0    0 -0.15309870970E+02  0.18245099905E+02  0.21200126536E+02  0.59301934316E+02  0.49999982288E+02 0.  0.
         12    1    1    2    0    0  0.15309870970E+02 -0.18245099905E+02 -0.21200126536E+02  0.31886065684E+02  0.00000000000E+00 0. -1.
         11    1    3    3    0    0  0.13850621080E+02  0.26437942792E+01  0.99402931686E+01  0.17252210903E+02  0.51100000000E-03 0. -1.
        -11    1    3    3    0    0 -0.39128607318E+01  0.94746426157E+01  0.12345717951E+02  0.16046684511E+02  0.51100000000E-03 0.  1.
        -12    1    3    3    0    0 -0.25247631318E+02  0.61266630100E+01 -0.10858845837E+01  0.26003038902E+02  0.00000000000E+00 0.  1.
</event>
<event>
 7    1  0.5837204E-012  0.5930194E+02  0.7816164E-02  0.1266605E+00
        -11   -1    0    0    0    0  0.00000000000E+00  0.00000000000E+00  0.45593999997E+02  0.45594000000E+02  0.51100000000E-03 0.  1.
         11   -1    0    0    0    0 -0.00000000000E+00 -0.00000000000E+00 -0.45593999997E+02  0.45594000000E+02  0.51100000000E-03 0. -1.
    9900012    2    1    2    0    0 -0.61080355491E-01  0.18662603443E+02  0.25853902497E+02  0.59301940783E+02  0.49999994082E+02 0.  0.
         12    1    1    2    0    0  0.61080355491E-01 -0.18662603443E+02 -0.25853902497E+02  0.31886059217E+02  0.00000000000E+00 0. -1.
         11    1    3    3    0    0  0.74687950353E+01  0.16503174983E+02  0.50306290633E+01  0.18800130660E+02  0.51100000000E-03 0. -1.
        -11    1    3    3    0    0  0.17531373078E+01  0.15219161283E+02  0.14902486664E+01  0.15392114927E+02  0.51100000000E-03 0.  1.
         12    1    3    3    0    0 -0.92830126986E+01 -0.13059732823E+02  0.19333024767E+02  0.25109695196E+02  0.00000000000E+00 0. -1.
</event>
<event>
 7    1  0.5837204E-012  0.5930195E+02  0.7816164E-02  0.1266605E+00
        -11   -1    0    0    0    0  0.00000000000E+00  0.00000000000E+00  0.45593999997E+02  0.45594000000E+02  0.51100000000E-03 0. -1.
         11   -1    0    0    0    0 -0.00000000000E+00 -0.00000000000E+00 -0.45593999997E+02  0.45594000000E+02  0.51100000000E-03 0.  1.
    9900012    2    1    2    0    0  0.17685822800E+02  0.51550162756E+01 -0.26026091283E+02  0.59301953704E+02  0.50000017648E+02 0.  0.
         12    1    1    2    0    0 -0.17685822800E+02 -0.51550162756E+01  0.26026091283E+02  0.31886046296E+02  0.00000000000E+00 0. -1.
         11    1    3    3    0    0  0.96360966722E+01  0.56241011629E+01 -0.36505469203E+01  0.11739308585E+02  0.51100000000E-03 0. -1.
        -11    1    3    3    0    0  0.20377954030E+02 -0.12807267115E+02 -0.94655545298E+01  0.25862788407E+02  0.51100000000E-03 0.  1.
         12    1    3    3    0    0 -0.12328227901E+02  0.12338182227E+02 -0.12909989833E+02  0.21699856712E+02  0.00000000000E+00 0. -1.
</event>
<event>
 7    1  0.5837204E-012  0.5930191E+02  0.7816164E-02  0.1266605E+00
        -11   -1    0    0    0    0  0.00000000000E+00  0.00000000000E+00  0.45593999997E+02  0.45594000000E+02  0.51100000000E-03 0.  1.
         11   -1    0    0    0    0 -0.00000000000E+00 -0.00000000000E+00 -0.45593999997E+02  0.45594000000E+02  0.51100000000E-03 0. -1.
    9900012    2    1    2    0    0 -0.35385260656E+01  0.39189031695E+01  0.31445886013E+02  0.59301910307E+02  0.49999938502E+02 0.  0.
         12    1    1    2    0    0  0.35385260656E+01 -0.39189031695E+01 -0.31445886013E+02  0.31886089693E+02  0.00000000000E+00 0. -1.
         11    1    3    3    0    0  0.69161164112E+01  0.18591839427E+02  0.20024138238E+02  0.28186082948E+02  0.51100000000E-03 0. -1.
        -11    1    3    3    0    0 -0.78701287797E+01  0.47469066746E+01  0.52031888490E+01  0.10561497263E+02  0.51100000000E-03 0.  1.
         12    1    3    3    0    0 -0.25845136971E+01 -0.19419842933E+02  0.62185589259E+01  0.20554330096E+02  0.00000000000E+00 0. -1.
</event>
<event>
 7    1  0.5837204E-012  0.5930196E+02  0.7816164E-02  0.1266605E+00
        -11   -1    0    0    0    0  0.00000000000E+00  0.00000000000E+00  0.45593999997E+02  0.45594000000E+02  0.51100000000E-03 0.  1.
         11   -1    0    0    0    0 -0.00000000000E+00 -0.00000000000E+00 -0.45593999997E+02  0.45594000000E+02  0.51100000000E-03 0. -1.
    9900012    2    1    2    0    0  0.29523009747E+01 -0.16528823922E+02  0.27107223377E+02  0.59301958218E+02  0.50000025880E+02 0.  0.
         12    1    1    2    0    0 -0.29523009747E+01  0.16528823922E+02 -0.27107223377E+02  0.31886041782E+02  0.00000000000E+00 0. -1.
         11    1    3    3    0    0  0.14956943884E+02  0.12568409493E+02  0.60239215393E+01  0.20444136531E+02  0.51100000000E-03 0. -1.
        -11    1    3    3    0    0  0.13857023814E+01 -0.24477421759E+01  0.19821517034E+01  0.34410083531E+01  0.51100000000E-03 0.  1.
        -12    1    3    3    0    0 -0.13390345290E+02 -0.26649491239E+02  0.19101150134E+02  0.35416813334E+02  0.00000000000E+00 0.  1.
</event>
<event>
 7    1  0.5837204E-012  0.5930194E+02  0.7816164E-02  0.1266605E+00
        -11   -1    0    0    0    0  0.00000000000E+00  0.00000000000E+00  0.45593999997E+02  0.45594000000E+02  0.51100000000E-03 0.  1.
         11   -1    0    0    0    0 -0.00000000000E+00 -0.00000000000E+00 -0.45593999997E+02  0.45594000000E+02  0.51100000000E-03 0. -1.
    9900012    2    1    2    0    0  0.13232210522E+02 -0.27950908423E+02  0.77702122245E+01  0.59301939174E+02  0.49999991148E+02 0.  0.
         12    1    1    2    0    0 -0.13232210522E+02  0.27950908423E+02 -0.77702122245E+01  0.31886060826E+02  0.00000000000E+00 0. -1.
         11    1    3    3    0    0  0.15309181326E+02 -0.13378980969E+02  0.84169750203E+01  0.22004854769E+02  0.51100000000E-03 0. -1.
        -11    1    3    3    0    0 -0.17205415413E+01 -0.15911182911E+02  0.14794013603E+02  0.21794238770E+02  0.51100000000E-03 0.  1.
         12    1    3    3    0    0 -0.35642926275E+00  0.13392554569E+01 -0.15440776399E+02  0.15502845635E+02  0.00000000000E+00 0. -1.
</event>
<event>
 7    1  0.5837204E-012  0.5930194E+02  0.7816164E-02  0.1266605E+00
        -11   -1    0    0    0    0  0.00000000000E+00  0.00000000000E+00  0.45593999997E+02  0.45594000000E+02  0.51100000000E-03 0.  1.
         11   -1    0    0    0    0 -0.00000000000E+00 -0.00000000000E+00 -0.45593999997E+02  0.45594000000E+02  0.51100000000E-03 0. -1.
    9900012    2    1    2    0    0 -0.16671327265E+02 -0.94408122919E+00  0.27164247537E+02  0.59301940563E+02  0.49999993682E+02 0.  0.
         12    1    1    2    0    0  0.16671327265E+02  0.94408122919E+00 -0.27164247537E+02  0.31886059437E+02  0.00000000000E+00 0. -1.
         11    1    3    3    0    0  0.39697743051E+01  0.77475585047E+01  0.80528901349E+01  0.11858870545E+02  0.51100000000E-03 0.  1.
        -11    1    3    3    0    0 -0.96963174746E+01 -0.36425257323E+01  0.29665691893E+02  0.31421964325E+02  0.51100000000E-03 0. -1.
         12    1    3    3    0    0 -0.10944784095E+02 -0.50491140016E+01 -0.10554334491E+02  0.16021105693E+02  0.00000000000E+00 0. -1.
</event>
<event>
 7    1  0.5837204E-012  0.5930194E+02  0.7816164E-02  0.1266605E+00
        -11   -1    0    0    0    0  0.00000000000E+00  0.00000000000E+00  0.45593999997E+02  0.45594000000E+02  0.51100000000E-03 0. -1.
         11   -1    0    0    0    0 -0.00000000000E+00 -0.00000000000E+00 -0.45593999997E+02  0.45594000000E+02  0.51100000000E-03 0.  1.
    9900012    2    1    2    0    0 -0.20501179926E+02  0.10385999524E+01 -0.24399666242E+02  0.59301940649E+02  0.49999993838E+02 0.  0.
         12    1    1    2    0    0  0.20501179926E+02 -0.10385999524E+01  0.24399666242E+02  0.31886059351E+02  0.00000000000E+00 0. -1.
         11    1    3    3    0    0  0.11609786388E+01  0.43151444501E+01 -0.80717588068E+01  0.92261386030E+01  0.51100000000E-03 0.  1.
        -11    1    3    3    0    0  0.89753207673E+01 -0.11028175207E+02 -0.11110885606E+02  0.18045188015E+02  0.51100000000E-03 0. -1.
        -12    1    3    3    0    0 -0.30637479332E+02  0.77516307089E+01 -0.52170218285E+01  0.32030614032E+02  0.00000000000E+00 0.  1.
</event>
<event>
 7    1  0.5837204E-012  0.5930195E+02  0.7816164E-02  0.1266605E+00
        -11   -1    0    0    0    0  0.00000000000E+00  0.00000000000E+00  0.45593999997E+02  0.45594000000E+02  0.51100000000E-03 0.  1.
         11   -1    0    0    0    0 -0.00000000000E+00 -0.00000000000E+00 -0.45593999997E+02  0.45594000000E+02  0.51100000000E-03 0. -1.
    9900012    2    1    2    0    0  0.31182621429E+02 -0.50873857374E+01  0.42991431015E+01  0.59301952828E+02  0.50000016050E+02 0.  0.
         12    1    1    2    0    0 -0.31182621429E+02  0.50873857374E+01 -0.42991431015E+01  0.31886047172E+02  0.00000000000E+00 0. -1.
         11    1    3    3    0    0  0.88587808169E+01 -0.95538198746E+01 -0.32391308522E+01  0.13425551784E+02  0.51100000000E-03 0. -1.
        -11    1    3    3    0    0  0.86267991943E+01 -0.20932992183E+01 -0.15746720444E+02  0.18076580732E+02  0.51100000000E-03 0.  1.
        -12    1    3    3    0    0  0.13697041418E+02  0.65597333555E+01  0.23284994398E+02  0.27799820312E+02  0.00000000000E+00 0.  1.
</event>
<event>
 7    1  0.5837204E-012  0.5930194E+02  0.7816164E-02  0.1266605E+00
        -11   -1    0    0    0    0  0.00000000000E+00  0.00000000000E+00  0.45593999997E+02  0.45594000000E+02  0.51100000000E-03 0.  1.
         11   -1    0    0    0    0 -0.00000000000E+00 -0.00000000000E+00 -0.45593999997E+02  0.45594000000E+02  0.51100000000E-03 0. -1.
    9900012    2    1    2    0    0 -0.28801679982E+02 -0.32690037372E+01 -0.13285239730E+02  0.59301941136E+02  0.49999994726E+02 0.  0.
         12    1    1    2    0    0  0.28801679982E+02  0.32690037372E+01  0.13285239730E+02  0.31886058864E+02  0.00000000000E+00 0. -1.
         11    1    3    3    0    0 -0.27190888799E+02 -0.13716483142E+02 -0.57905437583E+01  0.31000270011E+02  0.51100000000E-03 0. -1.
        -11    1    3    3    0    0 -0.62974099250E+01 -0.51432548880E+01 -0.87855776000E+01  0.11970664837E+02  0.51100000000E-03 0.  1.
         12    1    3    3    0    0  0.46866187422E+01  0.15590734293E+02  0.12908816284E+01  0.16331006289E+02  0.00000000000E+00 0. -1.
</event>
<event>
 7    1  0.5837204E-012  0.5930200E+02  0.7816164E-02  0.1266605E+00
        -11   -1    0    0    0    0  0.00000000000E+00  0.00000000000E+00  0.45593999997E+02  0.45594000000E+02  0.51100000000E-03 0.  1.
         11   -1    0    0    0    0 -0.00000000000E+00 -0.00000000000E+00 -0.45593999997E+02  0.45594000000E+02  0.51100000000E-03 0. -1.
    9900012    2    1    2    0    0  0.90151163845E+01 -0.26649737663E+02 -0.15007860646E+02  0.59302004296E+02  0.50000109914E+02 0.  0.
         12    1    1    2    0    0 -0.90151163845E+01  0.26649737663E+02  0.15007860646E+02  0.31885995704E+02  0.00000000000E+00 0. -1.
         11    1    3    3    0    0  0.20772500355E+02  0.23337677969E+01 -0.53600271061E+01  0.21579460928E+02  0.51100000000E-03 0. -1.
        -11    1    3    3    0    0  0.48849274484E+01 -0.10164729108E+02 -0.19280793513E+01  0.11441229141E+02  0.51100000000E-03 0.  1.
         12    1    3    3    0    0 -0.16642311419E+02 -0.18818776351E+02 -0.77197541881E+01  0.26281314226E+02  0.00000000000E+00 0. -1.
</event>
<event>
 7    1  0.5837204E-012  0.5930184E+02  0.7816164E-02  0.1266605E+00
        -11   -1    0    0    0    0  0.00000000000E+00  0.00000000000E+00  0.45593999997E+02  0.45594000000E+02  0.51100000000E-03 0. -1.
         11   -1    0    0    0    0 -0.00000000000E+00 -0.00000000000E+00 -0.45593999997E+02  0.45594000000E+02  0.51100000000E-03 0.  1.
    9900012    2    1    2    0    0 -0.28834651116E+02  0.13517862777E+02 -0.15993021469E+01  0.59301835502E+02  0.49999802075E+02 0.  0.
         12    1    1    2    0    0  0.28834651116E+02 -0.13517862777E+02  0.15993021469E+01  0.31886164498E+02  0.00000000000E+00 0. -1.
         11    1    3    3    0    0  0.41960984252E+00  0.33581342795E+01 -0.15092572113E+02  0.15467348561E+02  0.51100000000E-03 0.  1.
        -11    1    3    3    0    0 -0.17838298666E+02 -0.83491423391E+01  0.88771390022E+01  0.21603626414E+02  0.51100000000E-03 0. -1.
        -12    1    3    3    0    0 -0.11415962292E+02  0.18508870836E+02  0.46161309640E+01  0.22230860527E+02  0.00000000000E+00 0.  1.
</event>
<event>
 7    1  0.5837204E-012  0.5930192E+02  0.7816164E-02  0.1266605E+00
        -11   -1    0    0    0    0  0.00000000000E+00  0.00000000000E+00  0.45593999997E+02  0.45594000000E+02  0.51100000000E-03 0. -1.
         11   -1    0    0    0    0 -0.00000000000E+00 -0.00000000000E+00 -0.45593999997E+02  0.45594000000E+02  0.51100000000E-03 0.  1.
    9900012    2    1    2    0    0 -0.25036937143E+02 -0.19577121885E+02 -0.25710340515E+01  0.59301919355E+02  0.49999955003E+02 0.  0.
         12    1    1    2    0    0  0.25036937143E+02  0.19577121885E+02  0.25710340515E+01  0.31886080645E+02  0.00000000000E+00 0. -1.
         11    1    3    3    0    0  0.19930660243E+00 -0.14163348836E+02  0.11858300361E+01  0.14214301478E+02  0.51100000000E-03 0. -1.
        -11    1    3    3    0    0 -0.24182227527E+02 -0.16051846293E+02 -0.12180850039E+02  0.31477214068E+02  0.51100000000E-03 0.  1.
        -12    1    3    3    0    0 -0.10540162185E+01  0.10638073244E+02  0.84239859512E+01  0.13610403809E+02  0.00000000000E+00 0.  1.
</event>
<event>
 7    1  0.5837204E-012  0.5930198E+02  0.7816164E-02  0.1266605E+00
        -11   -1    0    0    0    0  0.00000000000E+00  0.00000000000E+00  0.45593999997E+02  0.45594000000E+02  0.51100000000E-03 0.  1.
         11   -1    0    0    0    0 -0.00000000000E+00 -0.00000000000E+00 -0.45593999997E+02  0.45594000000E+02  0.51100000000E-03 0. -1.
    9900012    2    1    2    0    0 -0.23764921713E+02  0.79828674829E+01  0.19703308343E+02  0.59301983678E+02  0.50000072312E+02 0.  0.
         12    1    1    2    0    0  0.23764921713E+02 -0.79828674829E+01 -0.19703308343E+02  0.31886016322E+02  0.00000000000E+00 0. -1.
         11    1    3    3    0    0  0.36655025073E+01  0.41941878200E+01 -0.60566011182E+01  0.82285805256E+01  0.51100000000E-03 0. -1.
        -11    1    3    3    0    0 -0.51335980543E+01 -0.10785395798E+02 -0.25369816664E+01  0.12211259875E+02  0.51100000000E-03 0.  1.
        -12    1    3    3    0    0 -0.22296826166E+02  0.14574075461E+02  0.28296891127E+02  0.38862143277E+02  0.00000000000E+00 0.  1.
</event>
<event>
 7    1  0.5837204E-012  0.5930197E+02  0.7816164E-02  0.1266605E+00
        -11   -1    0    0    0    0  0.00000000000E+00  0.00000000000E+00  0.45593999997E+02  0.45594000000E+02  0.51100000000E-03 0. -1.
         11   -1    0    0    0    0 -0.00000000000E+00 -0.00000000000E+00 -0.45593999997E+02  0.45594000000E+02  0.51100000000E-03 0.  1.
    9900012    2    1    2    0    0 -0.17006676735E+02  0.60155604731E+01 -0.26292672868E+02  0.59301973783E+02  0.50000054266E+02 0.  0.
         12    1    1    2    0    0  0.17006676735E+02 -0.60155604731E+01  0.26292672868E+02  0.31886026217E+02  0.00000000000E+00 0. -1.
         11    1    3    3    0    0  0.39595595782E+00 -0.42981579712E+00  0.63375790481E+01  0.63644662928E+01  0.51100000000E-03 0. -1.
        -11    1    3    3    0    0 -0.28681613336E+02  0.46612890913E+01 -0.17287119289E+02  0.33811345036E+02  0.51100000000E-03 0.  1.
        -12    1    3    3    0    0  0.11278980644E+02  0.17840871790E+01 -0.15343132627E+02  0.19126162454E+02  0.00000000000E+00 0.  1.
</event>
<event>
 7    1  0.5837204E-012  0.5930194E+02  0.7816164E-02  0.1266605E+00
        -11   -1    0    0    0    0  0.00000000000E+00  0.00000000000E+00  0.45593999997E+02  0.45594000000E+02  0.51100000000E-03 0.  1.
         11   -1    0    0    0    0 -0.00000000000E+00 -0.00000000000E+00 -0.45593999997E+02  0.45594000000E+02  0.51100000000E-03 0. -1.
    9900012    2    1    2    0    0  0.33834730015E+01 -0.30608144420E+02  0.82712860944E+01  0.59301943987E+02  0.49999999926E+02 0.  0.
         12    1    1    2    0    0 -0.33834730015E+01  0.30608144420E+02 -0.82712860944E+01  0.31886056013E+02  0.00000000000E+00 0. -1.
         11    1    3    3    0    0 -0.69654959845E+01 -0.11655129591E+01  0.92288066436E+01  0.11620990797E+02  0.51100000000E-03 0. -1.
        -11    1    3    3    0    0 -0.31136629669E+01 -0.32392894866E+02  0.45114072273E+01  0.32853421896E+02  0.51100000000E-03 0.  1.
        -12    1    3    3    0    0  0.13462631953E+02  0.29502634045E+01 -0.54689277766E+01  0.14827531294E+02  0.00000000000E+00 0.  1.
</event>
<event>
 7    1  0.5837204E-012  0.5930191E+02  0.7816164E-02  0.1266605E+00
        -11   -1    0    0    0    0  0.00000000000E+00  0.00000000000E+00  0.45593999997E+02  0.45594000000E+02  0.51100000000E-03 0.  1.
         11   -1    0    0    0    0 -0.00000000000E+00 -0.00000000000E+00 -0.45593999997E+02  0.45594000000E+02  0.51100000000E-03 0. -1.
    9900012    2    1    2    0    0 -0.44096868543E+01 -0.73237660937E+01  0.30718719227E+02  0.59301912142E+02  0.49999941847E+02 0.  0.
         12    1    1    2    0    0  0.44096868543E+01  0.73237660937E+01 -0.30718719227E+02  0.31886087858E+02  0.00000000000E+00 0. -1.
         11    1    3    3    0    0  0.14953693694E+02  0.87297625069E+01  0.99691438178E+00  0.17344034913E+02  0.51100000000E-03 0.  1.
        -11    1    3    3    0    0 -0.22846588894E+01  0.29928320957E+01  0.21076005242E+01  0.43149380557E+01  0.51100000000E-03 0. -1.
        -12    1    3    3    0    0 -0.17078721659E+02 -0.19046360696E+02  0.27614204321E+02  0.37642939173E+02  0.00000000000E+00 0.  1.
</event>
<event>
 7    1  0.5837204E-012  0.5930194E+02  0.7816164E-02  0.1266605E+00
        -11   -1    0    0    0    0  0.00000000000E+00  0.00000000000E+00  0.45593999997E+02  0.45594000000E+02  0.51100000000E-03 0. -1.
         11   -1    0    0    0    0 -0.00000000000E+00 -0.00000000000E+00 -0.45593999997E+02  0.45594000000E+02  0.51100000000E-03 0.  1.
    9900012    2    1    2    0    0 -0.10279439035E+02  0.11013285733E+02 -0.28102697887E+02  0.59301937872E+02  0.49999988774E+02 0.  0.
         12    1    1    2    0    0  0.10279439035E+02 -0.11013285733E+02  0.28102697887E+02  0.31886062128E+02  0.00000000000E+00 0. -1.
         11    1    3    3    0    0  0.54664584580E+00  0.17064860998E+01  0.11973557853E+02  0.12106899042E+02  0.51100000000E-03 0. -1.
        -11    1    3    3    0    0 -0.10088713502E+02  0.76556464911E+01 -0.78119735396E+01  0.14880120771E+02  0.51100000000E-03 0.  1.
         12    1    3    3    0    0 -0.73737137833E+00  0.16511531422E+01 -0.32264282200E+02  0.32314918059E+02  0.00000000000E+00 0. -1.
</event>
<event>
 7    1  0.5837204E-012  0.5930198E+02  0.7816164E-02  0.1266605E+00
        -11   -1    0    0    0    0  0.00000000000E+00  0.00000000000E+00  0.45593999997E+02  0.45594000000E+02  0.51100000000E-03 0.  1.
         11   -1    0    0    0    0 -0.00000000000E+00 -0.00000000000E+00 -0.45593999997E+02  0.45594000000E+02  0.51100000000E-03 0. -1.
    9900012    2    1    2    0    0 -0.99175393681E+01 -0.10754821891E+02  0.28331859110E+02  0.59301983917E+02  0.50000072748E+02 0.  0.
         12    1    1    2    0    0  0.99175393681E+01  0.10754821891E+02 -0.28331859110E+02  0.31886016083E+02  0.00000000000E+00 0. -1.
         11    1    3    3    0    0  0.22040417746E+01 -0.16090693691E+02 -0.24584339225E+01  0.16425958761E+02  0.51100000000E-03 0. -1.
        -11    1    3    3    0    0 -0.13906042186E+02 -0.74054648866E+01  0.10792317188E+02  0.19096937713E+02  0.51100000000E-03 0.  1.
        -12    1    3    3    0    0  0.17844610433E+01  0.12741336686E+02  0.19997975844E+02  0.23779087443E+02  0.00000000000E+00 0.  1.
</event>
<event>
 7    1  0.5837204E-012  0.5930194E+02  0.7816164E-02  0.1266605E+00
        -11   -1    0    0    0    0  0.00000000000E+00  0.00000000000E+00  0.45593999997E+02  0.45594000000E+02  0.51100000000E-03 0.  1.
         11   -1    0    0    0    0 -0.00000000000E+00 -0.00000000000E+00 -0.45593999997E+02  0.45594000000E+02  0.51100000000E-03 0. -1.
    9900012    2    1    2    0    0  0.85484817929E+01 -0.22059054830E+02  0.21378556428E+02  0.59301935396E+02  0.49999984259E+02 0.  0.
         12    1    1    2    0    0 -0.85484817929E+01  0.22059054830E+02 -0.21378556428E+02  0.31886064604E+02  0.00000000000E+00 0. -1.
         11    1    3    3    0    0  0.78198571743E+01 -0.21628557457E+01  0.88415963427E+01  0.12000080723E+02  0.51100000000E-03 0. -1.
        -11    1    3    3    0    0  0.13386235405E+02 -0.20951311708E+02 -0.52838362285E+01  0.25417861557E+02  0.51100000000E-03 0.  1.
         12    1    3    3    0    0 -0.12657610786E+02  0.10551126231E+01  0.17820796313E+02  0.21883993116E+02  0.00000000000E+00 0. -1.
</event>
<event>
 7    1  0.5837204E-012  0.5930206E+02  0.7816164E-02  0.1266604E+00
        -11   -1    0    0    0    0  0.00000000000E+00  0.00000000000E+00  0.45593999997E+02  0.45594000000E+02  0.51100000000E-03 0.  1.
         11   -1    0    0    0    0 -0.00000000000E+00 -0.00000000000E+00 -0.45593999997E+02  0.45594000000E+02  0.51100000000E-03 0. -1.
    9900012    2    1    2    0    0 -0.25699493555E+02  0.10431891109E+02  0.15729749350E+02  0.59302057397E+02  0.50000206758E+02 0.  0.
         12    1    1    2    0    0  0.25699493555E+02 -0.10431891109E+02 -0.15729749350E+02  0.31885942603E+02  0.00000000000E+00 0. -1.
         11    1    3    3    0    0 -0.18777813776E+02  0.10608480127E+02  0.15926866881E-01  0.21567252832E+02  0.51100000000E-03 0. -1.
        -11    1    3    3    0    0 -0.15081777163E+02 -0.10052992461E+02  0.89705124931E+00  0.18147378902E+02  0.51100000000E-03 0.  1.
        -12    1    3    3    0    0  0.81600973838E+01  0.98764034430E+01  0.14816771234E+02  0.19587425662E+02  0.00000000000E+00 0.  1.
</event>
<event>
 7    1  0.5837204E-012  0.5930194E+02  0.7816164E-02  0.1266605E+00
        -11   -1    0    0    0    0  0.00000000000E+00  0.00000000000E+00  0.45593999997E+02  0.45594000000E+02  0.51100000000E-03 0.  1.
         11   -1    0    0    0    0 -0.00000000000E+00 -0.00000000000E+00 -0.45593999997E+02  0.45594000000E+02  0.51100000000E-03 0. -1.
    9900012    2    1    2    0    0  0.33923422115E+01 -0.27806493562E+02  0.15231926934E+02  0.59301942420E+02  0.49999997067E+02 0.  0.
         12    1    1    2    0    0 -0.33923422115E+01  0.27806493562E+02 -0.15231926934E+02  0.31886057580E+02  0.00000000000E+00 0. -1.
         11    1    3    3    0    0  0.73250294574E+01 -0.80473174442E+01  0.26906613465E+01  0.11209595592E+02  0.51100000000E-03 0. -1.
        -11    1    3    3    0    0  0.15450138027E+02 -0.34822922388E+01  0.16039512567E+02  0.22541053390E+02  0.51100000000E-03 0.  1.
         12    1    3    3    0    0 -0.19382825273E+02 -0.16276883879E+02 -0.34982469793E+01  0.25551293437E+02  0.00000000000E+00 0. -1.
</event>
<event>
 7    1  0.5837204E-012  0.5930192E+02  0.7816164E-02  0.1266605E+00
        -11   -1    0    0    0    0  0.00000000000E+00  0.00000000000E+00  0.45593999997E+02  0.45594000000E+02  0.51100000000E-03 0. -1.
         11   -1    0    0    0    0 -0.00000000000E+00 -0.00000000000E+00 -0.45593999997E+02  0.45594000000E+02  0.51100000000E-03 0.  1.
    9900012    2    1    2    0    0 -0.41310223036E+01 -0.17356839357E+02 -0.26427202693E+02  0.59301917457E+02  0.49999951542E+02 0.  0.
         12    1    1    2    0    0  0.41310223036E+01  0.17356839357E+02  0.26427202693E+02  0.31886082543E+02  0.00000000000E+00 0. -1.
         11    1    3    3    0    0 -0.11332624313E+02 -0.61500437751E+01 -0.16377871947E+02  0.20844330213E+02  0.51100000000E-03 0. -1.
        -11    1    3    3    0    0 -0.92270232442E+01 -0.16551834059E+02 -0.94387862208E+01  0.21170542134E+02  0.51100000000E-03 0.  1.
         12    1    3    3    0    0  0.16428625253E+02  0.53450384767E+01 -0.61054452456E+00  0.17287045110E+02  0.00000000000E+00 0. -1.
</event>
<event>
 7    1  0.5837204E-012  0.5930196E+02  0.7816164E-02  0.1266605E+00
        -11   -1    0    0    0    0  0.00000000000E+00  0.00000000000E+00  0.45593999997E+02  0.45594000000E+02  0.51100000000E-03 0.  1.
         11   -1    0    0    0    0 -0.00000000000E+00 -0.00000000000E+00 -0.45593999997E+02  0.45594000000E+02  0.51100000000E-03 0. -1.
    9900012    2    1    2    0    0  0.10382600051E+02 -0.29832119196E+02 -0.43549784677E+01  0.59301959842E+02  0.50000028841E+02 0.  0.
         12    1    1    2    0    0 -0.10382600051E+02  0.29832119196E+02  0.43549784677E+01  0.31886040158E+02  0.00000000000E+00 0. -1.
         11    1    3    3    0    0  0.22621152393E+01  0.49431647023E+01  0.17752630961E+01  0.57187063180E+01  0.51100000000E-03 0. -1.
        -11    1    3    3    0    0  0.16144186222E+02 -0.39997537272E+02 -0.78924494876E+01  0.43848928103E+02  0.51100000000E-03 0.  1.
         12    1    3    3    0    0 -0.80237014103E+01  0.52222533741E+01  0.17622079238E+01  0.97343254205E+01  0.00000000000E+00 0. -1.
</event>
<event>
 7    1  0.5837204E-012  0.5930176E+02  0.7816164E-02  0.1266605E+00
        -11   -1    0    0    0    0  0.00000000000E+00  0.00000000000E+00  0.45593999997E+02  0.45594000000E+02  0.51100000000E-03 0.  1.
         11   -1    0    0    0    0 -0.00000000000E+00 -0.00000000000E+00 -0.45593999997E+02  0.45594000000E+02  0.51100000000E-03 0. -1.
    9900012    2    1    2    0    0  0.50365329674E+01  0.16805056052E+02  0.26626226568E+02  0.59301756657E+02  0.49999658280E+02 0.  0.
         12    1    1    2    0    0 -0.50365329674E+01 -0.16805056052E+02 -0.26626226568E+02  0.31886243343E+02  0.00000000000E+00 0. -1.
         11    1    3    3    0    0  0.36926643275E+01  0.10711031053E+02  0.10622089964E+02  0.15530317174E+02  0.51100000000E-03 0.  1.
        -11    1    3    3    0    0  0.33306856526E+01  0.16192031558E+02 -0.74699249511E+01  0.18140428107E+02  0.51100000000E-03 0. -1.
         12    1    3    3    0    0 -0.19868170126E+01 -0.10098006558E+02  0.23474061555E+02  0.25631011376E+02  0.00000000000E+00 0. -1.
</event>
<event>
 7    1  0.5837204E-012  0.5930194E+02  0.7816164E-02  0.1266605E+00
        -11   -1    0    0    0    0  0.00000000000E+00  0.00000000000E+00  0.45593999997E+02  0.45594000000E+02  0.51100000000E-03 0.  1.
         11   -1    0    0    0    0 -0.00000000000E+00 -0.00000000000E+00 -0.45593999997E+02  0.45594000000E+02  0.51100000000E-03 0. -1.
    9900012    2    1    2    0    0 -0.38104941377E+01 -0.14068334072E+02  0.28359877992E+02  0.59301943974E+02  0.49999999903E+02 0.  0.
         12    1    1    2    0    0  0.38104941377E+01  0.14068334072E+02 -0.28359877992E+02  0.31886056026E+02  0.00000000000E+00 0. -1.
         11    1    3    3    0    0 -0.16534048649E+02 -0.14821773407E+02  0.24745873804E+02  0.33247827030E+02  0.51100000000E-03 0.  1.
        -11    1    3    3    0    0 -0.99010428335E+00 -0.86653523545E+01  0.35521695816E+01  0.94173534986E+01  0.51100000000E-03 0. -1.
         12    1    3    3    0    0  0.13713658795E+02  0.94187916890E+01  0.61834606315E-01  0.16636763445E+02  0.00000000000E+00 0. -1.
</event>
<event>
 7    1  0.5837204E-012  0.5930194E+02  0.7816164E-02  0.1266605E+00
        -11   -1    0    0    0    0  0.00000000000E+00  0.00000000000E+00  0.45593999997E+02  0.45594000000E+02  0.51100000000E-03 0. -1.
         11   -1    0    0    0    0 -0.00000000000E+00 -0.00000000000E+00 -0.45593999997E+02  0.45594000000E+02  0.51100000000E-03 0.  1.
    9900012    2    1    2    0    0  0.30468256637E+01 -0.23090980032E+02 -0.21777148860E+02  0.59301941637E+02  0.49999995640E+02 0.  0.
         12    1    1    2    0    0 -0.30468256637E+01  0.23090980032E+02  0.21777148860E+02  0.31886058363E+02  0.00000000000E+00 0. -1.
         11    1    3    3    0    0 -0.10463537843E+02 -0.28064586397E+02 -0.73873780266E+01  0.30849310985E+02  0.51100000000E-03 0. -1.
        -11    1    3    3    0    0  0.68007019897E+01 -0.70063268654E+01 -0.20185335479E+01  0.99705888313E+01  0.51100000000E-03 0.  1.
        -12    1    3    3    0    0  0.67096615173E+01  0.11979933231E+02 -0.12371237286E+02  0.18482041821E+02  0.00000000000E+00 0.  1.
</event>
<event>
 7    1  0.5837204E-012  0.5930189E+02  0.7816164E-02  0.1266605E+00
        -11   -1    0    0    0    0  0.00000000000E+00  0.00000000000E+00  0.45593999997E+02  0.45594000000E+02  0.51100000000E-03 0.  1.
         11   -1    0    0    0    0 -0.00000000000E+00 -0.00000000000E+00 -0.45593999997E+02  0.45594000000E+02  0.51100000000E-03 0. -1.
    9900012    2    1    2    0    0  0.17895951216E+02 -0.67198566954E+01  0.25520630711E+02  0.59301888042E+02  0.49999897896E+02 0.  0.
         12    1    1    2    0    0 -0.17895951216E+02  0.67198566954E+01 -0.25520630711E+02  0.31886111958E+02  0.00000000000E+00 0. -1.
         11    1    3    3    0    0  0.68285016570E-01  0.10734377088E+02  0.90335076067E+01  0.14029817328E+02  0.51100000000E-03 0. -1.
        -11    1    3    3    0    0  0.12280052561E+02 -0.24332164714E+01 -0.88275196329E+01  0.15318137499E+02  0.51100000000E-03 0.  1.
        -12    1    3    3    0    0  0.55476136377E+01 -0.15021017312E+02  0.25314642737E+02  0.29953933215E+02  0.00000000000E+00 0.  1.
</event>
<event>
 7    1  0.5837204E-012  0.5930193E+02  0.7816164E-02  0.1266605E+00
        -11   -1    0    0    0    0  0.00000000000E+00  0.00000000000E+00  0.45593999997E+02  0.45594000000E+02  0.51100000000E-03 0.  1.
         11   -1    0    0    0    0 -0.00000000000E+00 -0.00000000000E+00 -0.45593999997E+02  0.45594000000E+02  0.51100000000E-03 0. -1.
    9900012    2    1    2    0    0  0.21846606093E+02 -0.19410702189E+02  0.12754289682E+02  0.59301929961E+02  0.49999974346E+02 0.  0.
         12    1    1    2    0    0 -0.21846606093E+02  0.19410702189E+02 -0.12754289682E+02  0.31886070039E+02  0.00000000000E+00 0. -1.
         11    1    3    3    0    0  0.14700928501E+01 -0.18822627677E+01 -0.25500439859E+01  0.34938246530E+01  0.51100000000E-03 0. -1.
        -11    1    3    3    0    0  0.13349874444E+02 -0.19388601914E+02 -0.12788886039E+02  0.26789786080E+02  0.51100000000E-03 0.  1.
         12    1    3    3    0    0  0.70266387988E+01  0.18601624925E+01  0.28093219707E+02  0.29018319228E+02  0.00000000000E+00 0. -1.
</event>
<event>
 7    1  0.5837204E-012  0.5930194E+02  0.7816164E-02  0.1266605E+00
        -11   -1    0    0    0    0  0.00000000000E+00  0.00000000000E+00  0.45593999997E+02  0.45594000000E+02  0.51100000000E-03 0.  1.
         11   -1    0    0    0    0 -0.00000000000E+00 -0.00000000000E+00 -0.45593999997E+02  0.45594000000E+02  0.51100000000E-03 0. -1.
    9900012    2    1    2    0    0  0.17982434351E+02 -0.23151036268E+02 -0.12545218758E+02  0.59301938168E+02  0.49999989314E+02 0.  0.
         12    1    1    2    0    0 -0.17982434351E+02  0.23151036268E+02  0.12545218758E+02  0.31886061832E+02  0.00000000000E+00 0. -1.
         11    1    3    3    0    0  0.16144369575E+02 -0.21269944409E+02 -0.18492292878E+02  0.32481011380E+02  0.51100000000E-03 0. -1.
        -11    1    3    3    0    0  0.57163906819E+01 -0.10774202626E+02  0.10509223499E+02  0.16099824331E+02  0.51100000000E-03 0.  1.
        -12    1    3    3    0    0 -0.38783259057E+01  0.88931107673E+01 -0.45621493794E+01  0.10721102458E+02  0.00000000000E+00 0.  1.
</event>
<event>
 7    1  0.5837204E-012  0.5930186E+02  0.7816164E-02  0.1266605E+00
        -11   -1    0    0    0    0  0.00000000000E+00  0.00000000000E+00  0.45593999997E+02  0.45594000000E+02  0.51100000000E-03 0.  1.
         11   -1    0    0    0    0 -0.00000000000E+00 -0.00000000000E+00 -0.45593999997E+02  0.45594000000E+02  0.51100000000E-03 0. -1.
    9900012    2    1    2    0    0 -0.10392623464E+02  0.76320614425E+01  0.29162831835E+02  0.59301862808E+02  0.49999851875E+02 0.  0.
         12    1    1    2    0    0  0.10392623464E+02 -0.76320614425E+01 -0.29162831835E+02  0.31886137192E+02  0.00000000000E+00 0. -1.
         11    1    3    3    0    0  0.10386473614E+02 -0.11293516615E+01  0.14189191310E+02  0.17620653211E+02  0.51100000000E-03 0. -1.
        -11    1    3    3    0    0 -0.84359161896E+01  0.20218518015E+02  0.66458682337E+01  0.22893682917E+02  0.51100000000E-03 0.  1.
         12    1    3    3    0    0 -0.12343180889E+02 -0.11457104911E+02  0.83277722918E+01  0.18787526680E+02  0.00000000000E+00 0. -1.
</event>
<event>
 7    1  0.5837204E-012  0.5930195E+02  0.7816164E-02  0.1266605E+00
        -11   -1    0    0    0    0  0.00000000000E+00  0.00000000000E+00  0.45593999997E+02  0.45594000000E+02  0.51100000000E-03 0. -1.
         11   -1    0    0    0    0 -0.00000000000E+00 -0.00000000000E+00 -0.45593999997E+02  0.45594000000E+02  0.51100000000E-03 0.  1.
    9900012    2    1    2    0    0 -0.23304494593E+02  0.19252194041E+02 -0.10147613356E+02  0.59301945047E+02  0.50000001859E+02 0.  0.
         12    1    1    2    0    0  0.23304494593E+02 -0.19252194041E+02  0.10147613356E+02  0.31886054953E+02  0.00000000000E+00 0. -1.
         11    1    3    3    0    0 -0.16432396484E+02  0.14120966031E+02 -0.78570047136E+00  0.21680467277E+02  0.51100000000E-03 0. -1.
        -11    1    3    3    0    0 -0.11107510619E+02  0.90122255043E+01  0.99821188809E+01  0.17442468240E+02  0.51100000000E-03 0.  1.
         12    1    3    3    0    0  0.42354125090E+01 -0.38809974942E+01 -0.19344031766E+02  0.20179009530E+02  0.00000000000E+00 0. -1.
</event>
<event>
 7    1  0.5837204E-012  0.5930193E+02  0.7816164E-02  0.1266605E+00
        -11   -1    0    0    0    0  0.00000000000E+00  0.00000000000E+00  0.45593999997E+02  0.45594000000E+02  0.51100000000E-03 0. -1.
         11   -1    0    0    0    0 -0.00000000000E+00 -0.00000000000E+00 -0.45593999997E+02  0.45594000000E+02  0.51100000000E-03 0.  1.
    9900012    2    1    2    0    0 -0.19064471889E+02  0.24644237756E+02 -0.67770687029E+01  0.59301934027E+02  0.49999981762E+02 0.  0.
         12    1    1    2    0    0  0.19064471889E+02 -0.24644237756E+02  0.67770687029E+01  0.31886065973E+02  0.00000000000E+00 0. -1.
         11    1    3    3    0    0  0.10729493416E+02  0.13115203685E+02 -0.51359450648E+01  0.17706172049E+02  0.51100000000E-03 0. -1.
        -11    1    3    3    0    0 -0.36781217951E+01  0.34449232278E+01 -0.11482669655E+02  0.12539847633E+02  0.51100000000E-03 0.  1.
         12    1    3    3    0    0 -0.26115843511E+02  0.80841108433E+01  0.98415460173E+01  0.29055914345E+02  0.00000000000E+00 0. -1.
</event>
<event>
 7    1  0.5837204E-012  0.5930196E+02  0.7816164E-02  0.1266605E+00
        -11   -1    0    0    0    0  0.00000000000E+00  0.00000000000E+00  0.45593999997E+02  0.45594000000E+02  0.51100000000E-03 0. -1.
         11   -1    0    0    0    0 -0.00000000000E+00 -0.00000000000E+00 -0.45593999997E+02  0.45594000000E+02  0.51100000000E-03 0.  1.
    9900012    2    1    2    0    0  0.36886894062E+00  0.12262167859E+02 -0.29431664443E+02  0.59301957650E+02  0.50000024843E+02 0.  0.
         12    1    1    2    0    0 -0.36886894062E+00 -0.12262167859E+02  0.29431664443E+02  0.31886042350E+02  0.00000000000E+00 0. -1.
         11    1    3    3    0    0  0.12905745549E+02 -0.57920760832E+01 -0.17473751336E+02  0.22481957200E+02  0.51100000000E-03 0. -1.
        -11    1    3    3    0    0 -0.75252964528E+01  0.49679693650E+01 -0.19078080835E+02  0.21101752887E+02  0.51100000000E-03 0.  1.
         12    1    3    3    0    0 -0.50115801559E+01  0.13086274577E+02  0.71201677275E+01  0.15718247562E+02  0.00000000000E+00 0. -1.
</event>
<event>
 7    1  0.5837204E-012  0.5930203E+02  0.7816164E-02  0.1266604E+00
        -11   -1    0    0    0    0  0.00000000000E+00  0.00000000000E+00  0.45593999997E+02  0.45594000000E+02  0.51100000000E-03 0.  1.
         11   -1    0    0    0    0 -0.00000000000E+00 -0.00000000000E+00 -0.45593999997E+02  0.45594000000E+02  0.51100000000E-03 0. -1.
    9900012    2    1    2    0    0 -0.93308754692E+01 -0.36125802386E+01  0.30275388982E+02  0.59302028931E+02  0.50000154844E+02 0.  0.
         12    1    1    2    0    0  0.93308754692E+01  0.36125802386E+01 -0.30275388982E+02  0.31885971069E+02  0.00000000000E+00 0. -1.
         11    1    3    3    0    0 -0.23553765862E+01 -0.76319755824E+01  0.11867151160E+02  0.14304688989E+02  0.51100000000E-03 0. -1.
        -11    1    3    3    0    0 -0.15572587613E+02 -0.21003521750E+01  0.27099848184E+02  0.31326007344E+02  0.51100000000E-03 0.  1.
         12    1    3    3    0    0  0.85970887304E+01  0.61197475187E+01 -0.86916103626E+01  0.13671332599E+02  0.00000000000E+00 0. -1.
</event>
<event>
 7    1  0.5837204E-012  0.5930194E+02  0.7816164E-02  0.1266605E+00
        -11   -1    0    0    0    0  0.00000000000E+00  0.00000000000E+00  0.45593999997E+02  0.45594000000E+02  0.51100000000E-03 0.  1.
         11   -1    0    0    0    0 -0.00000000000E+00 -0.00000000000E+00 -0.45593999997E+02  0.45594000000E+02  0.51100000000E-03 0. -1.
    9900012    2    1    2    0    0 -0.29738501850E+02 -0.40265884032E+00  0.11496961087E+02  0.59301941280E+02  0.49999994989E+02 0.  0.
         12    1    1    2    0    0  0.29738501850E+02  0.40265884032E+00 -0.11496961087E+02  0.31886058720E+02  0.00000000000E+00 0. -1.
         11    1    3    3    0    0  0.68475392006E+01 -0.81444673966E+01  0.10333623998E+02  0.14832563078E+02  0.51100000000E-03 0.  1.
        -11    1    3    3    0    0 -0.12262541222E+02  0.60984007430E+01 -0.10678685397E+02  0.17366482974E+02  0.51100000000E-03 0. -1.
        -12    1    3    3    0    0 -0.24323499829E+02  0.16434078132E+01  0.11842022485E+02  0.27102895228E+02  0.00000000000E+00 0.  1.
</event>
<event>
 7    1  0.5837204E-012  0.5930195E+02  0.7816164E-02  0.1266605E+00
        -11   -1    0    0    0    0  0.00000000000E+00  0.00000000000E+00  0.45593999997E+02  0.45594000000E+02  0.51100000000E-03 0.  1.
         11   -1    0    0    0    0 -0.00000000000E+00 -0.00000000000E+00 -0.45593999997E+02  0.45594000000E+02  0.51100000000E-03 0. -1.
    9900012    2    1    2    0    0  0.28016427166E+02 -0.60095111027E+01  0.13988784009E+02  0.59301945166E+02  0.50000002076E+02 0.  0.
         12    1    1    2    0    0 -0.28016427166E+02  0.60095111027E+01 -0.13988784009E+02  0.31886054834E+02  0.00000000000E+00 0. -1.
         11    1    3    3    0    0 -0.13542881699E+01  0.79369151900E+01 -0.46335386894E+01  0.92896932257E+01  0.51100000000E-03 0. -1.
        -11    1    3    3    0    0  0.44324926049E+01 -0.17299098045E+02  0.17224199092E+02  0.24810860898E+02  0.51100000000E-03 0.  1.
         12    1    3    3    0    0  0.24938222731E+02  0.33526717522E+01  0.13981236058E+01  0.25201391042E+02  0.00000000000E+00 0. -1.
</event>
<event>
 7    1  0.5837204E-012  0.5930194E+02  0.7816164E-02  0.1266605E+00
        -11   -1    0    0    0    0  0.00000000000E+00  0.00000000000E+00  0.45593999997E+02  0.45594000000E+02  0.51100000000E-03 0.  1.
         11   -1    0    0    0    0 -0.00000000000E+00 -0.00000000000E+00 -0.45593999997E+02  0.45594000000E+02  0.51100000000E-03 0. -1.
    9900012    2    1    2    0    0  0.87645456533E+01 -0.14662671601E+02  0.26924147375E+02  0.59301938612E+02  0.49999990123E+02 0.  0.
         12    1    1    2    0    0 -0.87645456533E+01  0.14662671601E+02 -0.26924147375E+02  0.31886061388E+02  0.00000000000E+00 0. -1.
         11    1    3    3    0    0 -0.22427929462E+01  0.14954227251E+02  0.83422301377E+01  0.17269969218E+02  0.51100000000E-03 0. -1.
        -11    1    3    3    0    0 -0.45290144603E+01 -0.10795309621E+02  0.11977788234E+02  0.16748674366E+02  0.51100000000E-03 0.  1.
        -12    1    3    3    0    0  0.15536353060E+02 -0.18821589231E+02  0.66041290033E+01  0.25283295028E+02  0.00000000000E+00 0.  1.
</event>
<event>
 7    1  0.5837204E-012  0.5930193E+02  0.7816164E-02  0.1266605E+00
        -11   -1    0    0    0    0  0.00000000000E+00  0.00000000000E+00  0.45593999997E+02  0.45594000000E+02  0.51100000000E-03 0.  1.
         11   -1    0    0    0    0 -0.00000000000E+00 -0.00000000000E+00 -0.45593999997E+02  0.45594000000E+02  0.51100000000E-03 0. -1.
    9900012    2    1    2    0    0  0.12160217519E+02 -0.15536836972E+01  0.29435300696E+02  0.59301925450E+02  0.49999966119E+02 0.  0.
         12    1    1    2    0    0 -0.12160217519E+02  0.15536836972E+01 -0.29435300696E+02  0.31886074550E+02  0.00000000000E+00 0. -1.
         11    1    3    3    0    0  0.13897601485E+01  0.75813319420E+01 -0.34979095642E+01  0.84642423681E+01  0.51100000000E-03 0. -1.
        -11    1    3    3    0    0  0.21273904229E+02  0.28387900174E+01  0.25294148456E+02  0.33172755030E+02  0.51100000000E-03 0.  1.
        -12    1    3    3    0    0 -0.10503446859E+02 -0.11973805657E+02  0.76390618039E+01  0.17664928052E+02  0.00000000000E+00 0.  1.
</event>
<event>
 7    1  0.5837204E-012  0.5930193E+02  0.7816164E-02  0.1266605E+00
        -11   -1    0    0    0    0  0.00000000000E+00  0.00000000000E+00  0.45593999997E+02  0.45594000000E+02  0.51100000000E-03 0.  1.
         11   -1    0    0    0    0 -0.00000000000E+00 -0.00000000000E+00 -0.45593999997E+02  0.45594000000E+02  0.51100000000E-03 0. -1.
    9900012    2    1    2    0    0 -0.72357997294E+01 -0.12779808982E+02 -0.28302669351E+02  0.59301930821E+02  0.49999975913E+02 0.  0.
         12    1    1    2    0    0  0.72357997294E+01  0.12779808982E+02  0.28302669351E+02  0.31886069179E+02  0.00000000000E+00 0. -1.
         11    1    3    3    0    0  0.92059278369E+01  0.24481863759E+01 -0.63888891062E+01  0.11469988149E+02  0.51100000000E-03 0. -1.
        -11    1    3    3    0    0 -0.34035453130E+01  0.20801345372E+01  0.91357024444E+01  0.99685575589E+01  0.51100000000E-03 0.  1.
         12    1    3    3    0    0 -0.13038182253E+02 -0.17308129895E+02 -0.31049482689E+02  0.37863385113E+02  0.00000000000E+00 0. -1.
</event>
<event>
 7    1  0.5837204E-012  0.5930195E+02  0.7816164E-02  0.1266605E+00
        -11   -1    0    0    0    0  0.00000000000E+00  0.00000000000E+00  0.45593999997E+02  0.45594000000E+02  0.51100000000E-03 0.  1.
         11   -1    0    0    0    0 -0.00000000000E+00 -0.00000000000E+00 -0.45593999997E+02  0.45594000000E+02  0.51100000000E-03 0. -1.
    9900012    2    1    2    0    0  0.28970962410E+02 -0.60823792299E+01  0.11849406752E+02  0.59301945988E+02  0.50000003576E+02 0.  0.
         12    1    1    2    0    0 -0.28970962410E+02  0.60823792299E+01 -0.11849406752E+02  0.31886054012E+02  0.00000000000E+00 0. -1.
         11    1    3    3    0    0 -0.53375837804E+01 -0.14957812235E+01  0.15742198017E+02  0.16689636328E+02  0.51100000000E-03 0. -1.
        -11    1    3    3    0    0  0.14730904410E+02 -0.11959079809E+02  0.53908456210E+01  0.19725119807E+02  0.51100000000E-03 0.  1.
         12    1    3    3    0    0  0.19577641780E+02  0.73724818024E+01 -0.92836368857E+01  0.22887189854E+02  0.00000000000E+00 0. -1.
</event>
<event>
 7    1  0.5837204E-012  0.5930202E+02  0.7816164E-02  0.1266605E+00
        -11   -1    0    0    0    0  0.00000000000E+00  0.00000000000E+00  0.45593999997E+02  0.45594000000E+02  0.51100000000E-03 0.  1.
         11   -1    0    0    0    0 -0.00000000000E+00 -0.00000000000E+00 -0.45593999997E+02  0.45594000000E+02  0.51100000000E-03 0. -1.
    9900012    2    1    2    0    0  0.20267329931E+01  0.15773498333E+02  0.27637022303E+02  0.59302017216E+02  0.50000133478E+02 0.  0.
         12    1    1    2    0    0 -0.20267329931E+01 -0.15773498333E+02 -0.27637022303E+02  0.31885982784E+02  0.00000000000E+00 0. -1.
         11    1    3    3    0    0  0.29575835970E+00  0.13813919128E+02  0.96389028349E+01  0.16846966576E+02  0.51100000000E-03 0. -1.
        -11    1    3    3    0    0 -0.13840063071E+02  0.10706684774E+02  0.57957163506E+00  0.17507608295E+02  0.51100000000E-03 0.  1.
        -12    1    3    3    0    0  0.15571037704E+02 -0.87471055681E+01  0.17418547833E+02  0.24947442346E+02  0.00000000000E+00 0.  1.
</event>
<event>
 7    1  0.5837204E-012  0.5930196E+02  0.7816164E-02  0.1266605E+00
        -11   -1    0    0    0    0  0.00000000000E+00  0.00000000000E+00  0.45593999997E+02  0.45594000000E+02  0.51100000000E-03 0.  1.
         11   -1    0    0    0    0 -0.00000000000E+00 -0.00000000000E+00 -0.45593999997E+02  0.45594000000E+02  0.51100000000E-03 0. -1.
    9900012    2    1    2    0    0 -0.17894359680E+02  0.17257703722E+02  0.19967049684E+02  0.59301960434E+02  0.50000029921E+02 0.  0.
         12    1    1    2    0    0  0.17894359680E+02 -0.17257703722E+02 -0.19967049684E+02  0.31886039566E+02  0.00000000000E+00 0. -1.
         11    1    3    3    0    0  0.47003701046E+00 -0.27867546255E+01 -0.71022766060E+01  0.76439040669E+01  0.51100000000E-03 0. -1.
        -11    1    3    3    0    0  0.70780069234E+01 -0.30498650579E+01  0.11714617762E+02  0.14022557842E+02  0.51100000000E-03 0.  1.
         12    1    3    3    0    0 -0.25442403614E+02  0.23094323405E+02  0.15354708528E+02  0.37635498525E+02  0.00000000000E+00 0. -1.
</event>
<event>
 7    1  0.5837204E-012  0.5930195E+02  0.7816164E-02  0.1266605E+00
        -11   -1    0    0    0    0  0.00000000000E+00  0.00000000000E+00  0.45593999997E+02  0.45594000000E+02  0.51100000000E-03 0. -1.
         11   -1    0    0    0    0 -0.00000000000E+00 -0.00000000000E+00 -0.45593999997E+02  0.45594000000E+02  0.51100000000E-03 0.  1.
    9900012    2    1    2    0    0 -0.10822236102E+02  0.29945880129E+02 -0.16863496647E+01  0.59301948094E+02  0.50000007416E+02 0.  0.
         12    1    1    2    0    0  0.10822236102E+02 -0.29945880129E+02  0.16863496647E+01  0.31886051906E+02  0.00000000000E+00 0. -1.
         11    1    3    3    0    0  0.94784925708E+01  0.61295529844E+01  0.79918376149E+01  0.13830499265E+02  0.51100000000E-03 0. -1.
        -11    1    3    3    0    0  0.48015766115E+01  0.17988249053E+02 -0.50305665444E+01  0.19285716009E+02  0.51100000000E-03 0.  1.
         12    1    3    3    0    0 -0.25102305284E+02  0.58280780915E+01 -0.46476207353E+01  0.26185732820E+02  0.00000000000E+00 0. -1.
</event>
<event>
 7    1  0.5837204E-012  0.5930193E+02  0.7816164E-02  0.1266605E+00
        -11   -1    0    0    0    0  0.00000000000E+00  0.00000000000E+00  0.45593999997E+02  0.45594000000E+02  0.51100000000E-03 0. -1.
         11   -1    0    0    0    0 -0.00000000000E+00 -0.00000000000E+00 -0.45593999997E+02  0.45594000000E+02  0.51100000000E-03 0.  1.
    9900012    2    1    2    0    0  0.19724831333E+02 -0.25044791349E+02 -0.64085385738E+00  0.59301933475E+02  0.49999980753E+02 0.  0.
         12    1    1    2    0    0 -0.19724831333E+02  0.25044791349E+02  0.64085385738E+00  0.31886066525E+02  0.00000000000E+00 0. -1.
         11    1    3    3    0    0 -0.37635766597E+00 -0.66911750708E+01  0.16261982217E+02  0.17588790032E+02  0.51100000000E-03 0. -1.
        -11    1    3    3    0    0 -0.11565441743E+00 -0.17349861394E+02 -0.43226441646E+01  0.17880612942E+02  0.51100000000E-03 0.  1.
        -12    1    3    3    0    0  0.20216843416E+02 -0.10037548835E+01 -0.12580191909E+02  0.23832530500E+02  0.00000000000E+00 0.  1.
</event>
<event>
 7    1  0.5837204E-012  0.5930198E+02  0.7816164E-02  0.1266605E+00
        -11   -1    0    0    0    0  0.00000000000E+00  0.00000000000E+00  0.45593999997E+02  0.45594000000E+02  0.51100000000E-03 0.  1.
         11   -1    0    0    0    0 -0.00000000000E+00 -0.00000000000E+00 -0.45593999997E+02  0.45594000000E+02  0.51100000000E-03 0. -1.
    9900012    2    1    2    0    0  0.14645006152E+02 -0.76461503825E+01  0.27272306777E+02  0.59301975823E+02  0.50000057987E+02 0.  0.
         12    1    1    2    0    0 -0.14645006152E+02  0.76461503825E+01 -0.27272306777E+02  0.31886024177E+02  0.00000000000E+00 0. -1.
         11    1    3    3    0    0  0.77669482798E+01 -0.81812041516E+01  0.17532027648E+01  0.11416273786E+02  0.51100000000E-03 0. -1.
        -11    1    3    3    0    0  0.22022062100E+02 -0.50356709248E+01  0.21655258584E+02  0.31293440613E+02  0.51100000000E-03 0.  1.
         12    1    3    3    0    0 -0.15144004228E+02  0.55707246938E+01  0.38638454285E+01  0.16592261424E+02  0.00000000000E+00 0. -1.
</event>
<event>
 7    1  0.6649486E-012  0.5930193E+02  0.7816164E-02  0.1266605E+00
        -11   -1    0    0    0    0  0.00000000000E+00  0.00000000000E+00  0.45593999997E+02  0.45594000000E+02  0.51100000000E-03 0.  1.
         11   -1    0    0    0    0 -0.00000000000E+00 -0.00000000000E+00 -0.45593999997E+02  0.45594000000E+02  0.51100000000E-03 0. -1.
    9900012    2    1    2    0    0 -0.27308932957E+02 -0.31127142175E+01  0.16163377208E+02  0.59301928248E+02  0.49999971221E+02 0.  0.
         12    1    1    2    0    0  0.27308932957E+02  0.31127142175E+01 -0.16163377208E+02  0.31886071752E+02  0.00000000000E+00 0. -1.
         11    1    3    3    0    0  0.75828397979E+01  0.19941917020E+00 -0.85031623398E+01  0.11394867153E+02  0.51100000000E-03 0. -1.
        -11    1    3    3    0    0 -0.10822846015E+02 -0.11165489496E+02  0.11713850505E+02  0.19468344703E+02  0.51100000000E-03 0.  1.
        -12    1    3    3    0    0 -0.24068926740E+02  0.78533561082E+01  0.12952689042E+02  0.28438716392E+02  0.00000000000E+00 0.  1.
</event>
<event>
 7    1  0.5837204E-012  0.5930195E+02  0.7816164E-02  0.1266605E+00
        -11   -1    0    0    0    0  0.00000000000E+00  0.00000000000E+00  0.45593999997E+02  0.45594000000E+02  0.51100000000E-03 0. -1.
         11   -1    0    0    0    0 -0.00000000000E+00 -0.00000000000E+00 -0.45593999997E+02  0.45594000000E+02  0.51100000000E-03 0.  1.
    9900012    2    1    2    0    0 -0.11369646319E+02 -0.28738405260E+02 -0.78457421922E+01  0.59301945605E+02  0.50000002877E+02 0.  0.
         12    1    1    2    0    0  0.11369646319E+02  0.28738405260E+02  0.78457421922E+01  0.31886054395E+02  0.00000000000E+00 0. -1.
         11    1    3    3    0    0  0.35164497929E+01 -0.94178838551E+01  0.63618175519E+01  0.11896834801E+02  0.51100000000E-03 0. -1.
        -11    1    3    3    0    0 -0.86958443416E+01 -0.18683977922E+02  0.96452742829E+01  0.22753901996E+02  0.51100000000E-03 0.  1.
        -12    1    3    3    0    0 -0.61902517705E+01 -0.63654348349E+00 -0.23852834027E+02  0.24651208808E+02  0.00000000000E+00 0.  1.
</event>
<event>
 7    1  0.5837204E-012  0.5930195E+02  0.7816164E-02  0.1266605E+00
        -11   -1    0    0    0    0  0.00000000000E+00  0.00000000000E+00  0.45593999997E+02  0.45594000000E+02  0.51100000000E-03 0.  1.
         11   -1    0    0    0    0 -0.00000000000E+00 -0.00000000000E+00 -0.45593999997E+02  0.45594000000E+02  0.51100000000E-03 0. -1.
    9900012    2    1    2    0    0  0.16387955854E+02 -0.20444571371E+02  0.18170708957E+02  0.59301948824E+02  0.50000008747E+02 0.  0.
         12    1    1    2    0    0 -0.16387955854E+02  0.20444571371E+02 -0.18170708957E+02  0.31886051176E+02  0.00000000000E+00 0. -1.
         11    1    3    3    0    0 -0.31164025615E+01  0.13071599336E+02  0.50853920616E+01  0.14368016105E+02  0.51100000000E-03 0. -1.
        -11    1    3    3    0    0 -0.17540187441E+01 -0.13897618093E+02  0.53001366043E+01  0.14977043056E+02  0.51100000000E-03 0.  1.
        -12    1    3    3    0    0  0.21258377159E+02 -0.19618552614E+02  0.77851802915E+01  0.29956889663E+02  0.00000000000E+00 0.  1.
</event>
<event>
 7    1  0.9010256E-012  0.5930191E+02  0.7816164E-02  0.1266605E+00
        -11   -1    0    0    0    0  0.00000000000E+00  0.00000000000E+00  0.45593999997E+02  0.45594000000E+02  0.51100000000E-03 0. -1.
         11   -1    0    0    0    0 -0.00000000000E+00 -0.00000000000E+00 -0.45593999997E+02  0.45594000000E+02  0.51100000000E-03 0.  1.
    9900012    2    1    2    0    0  0.30385011676E+02  0.81056712545E+01 -0.52699152398E+01  0.59301908241E+02  0.49999934733E+02 0.  0.
         12    1    1    2    0    0 -0.30385011676E+02 -0.81056712545E+01  0.52699152398E+01  0.31886091759E+02  0.00000000000E+00 0. -1.
         11    1    3    3    0    0 -0.54091629984E+01  0.11457506974E+01  0.11167652796E+02  0.12461470950E+02  0.51100000000E-03 0. -1.
        -11    1    3    3    0    0  0.26537048774E+02  0.23106295921E+01  0.89014584110E+00  0.26652323100E+02  0.51100000000E-03 0.  1.
        -12    1    3    3    0    0  0.92571259001E+01  0.46492909650E+01 -0.17327713876E+02  0.20188114191E+02  0.00000000000E+00 0.  1.
</event>
<event>
 7    1  0.5837204E-012  0.5930197E+02  0.7816164E-02  0.1266605E+00
        -11   -1    0    0    0    0  0.00000000000E+00  0.00000000000E+00  0.45593999997E+02  0.45594000000E+02  0.51100000000E-03 0.  1.
         11   -1    0    0    0    0 -0.00000000000E+00 -0.00000000000E+00 -0.45593999997E+02  0.45594000000E+02  0.51100000000E-03 0. -1.
    9900012    2    1    2    0    0 -0.82123003164E+01 -0.29251189416E+02  0.96770382597E+01  0.59301968133E+02  0.50000043962E+02 0.  0.
         12    1    1    2    0    0  0.82123003164E+01  0.29251189416E+02 -0.96770382597E+01  0.31886031867E+02  0.00000000000E+00 0. -1.
         11    1    3    3    0    0  0.17244394222E+01 -0.14881934844E+02 -0.83365189206E+01  0.17144772497E+02  0.51100000000E-03 0. -1.
        -11    1    3    3    0    0  0.10248836804E+02 -0.13436963363E+02  0.13043998152E+02  0.21347986516E+02  0.51100000000E-03 0.  1.
         12    1    3    3    0    0 -0.20185576542E+02 -0.93229121006E+00  0.49695590283E+01  0.20809209119E+02  0.00000000000E+00 0. -1.
</event>
<event>
 7    1  0.5837204E-012  0.5930194E+02  0.7816164E-02  0.1266605E+00
        -11   -1    0    0    0    0  0.00000000000E+00  0.00000000000E+00  0.45593999997E+02  0.45594000000E+02  0.51100000000E-03 0.  1.
         11   -1    0    0    0    0 -0.00000000000E+00 -0.00000000000E+00 -0.45593999997E+02  0.45594000000E+02  0.51100000000E-03 0. -1.
    9900012    2    1    2    0    0 -0.14591001974E+02  0.28308024408E+02  0.15746116719E+01  0.59301937427E+02  0.49999987961E+02 0.  0.
         12    1    1    2    0    0  0.14591001974E+02 -0.28308024408E+02 -0.15746116719E+01  0.31886062573E+02  0.00000000000E+00 0. -1.
         11    1    3    3    0    0 -0.33460367291E+01 -0.46180503120E+01  0.73253640979E+01  0.92834966422E+01  0.51100000000E-03 0. -1.
        -11    1    3    3    0    0 -0.17529765638E+02  0.18689007672E+02  0.10341637505E+02  0.27631886610E+02  0.51100000000E-03 0.  1.
        -12    1    3    3    0    0  0.62848003924E+01  0.14237067048E+02 -0.16092389931E+02  0.22386554174E+02  0.00000000000E+00 0.  1.
</event>
<event>
 7    1  0.5837204E-012  0.5930190E+02  0.7816164E-02  0.1266605E+00
        -11   -1    0    0    0    0  0.00000000000E+00  0.00000000000E+00  0.45593999997E+02  0.45594000000E+02  0.51100000000E-03 0.  1.
         11   -1    0    0    0    0 -0.00000000000E+00 -0.00000000000E+00 -0.45593999997E+02  0.45594000000E+02  0.51100000000E-03 0. -1.
    9900012    2    1    2    0    0 -0.51086509508E+01  0.11851187917E+02  0.29157751663E+02  0.59301898770E+02  0.49999917461E+02 0.  0.
         12    1    1    2    0    0  0.51086509508E+01 -0.11851187917E+02 -0.29157751663E+02  0.31886101230E+02  0.00000000000E+00 0. -1.
         11    1    3    3    0    0 -0.15181863104E+02  0.60734499146E+00 -0.55230988690E+00  0.15204041625E+02  0.51100000000E-03 0. -1.
        -11    1    3    3    0    0 -0.13764853023E+01 -0.84879368442E+00 -0.51857469098E+01  0.54320469236E+01  0.51100000000E-03 0.  1.
        -12    1    3    3    0    0  0.11449697456E+02  0.12092636610E+02  0.34895808460E+02  0.38665810222E+02  0.00000000000E+00 0.  1.
</event>
<event>
 7    1  0.5837204E-012  0.5930195E+02  0.7816164E-02  0.1266605E+00
        -11   -1    0    0    0    0  0.00000000000E+00  0.00000000000E+00  0.45593999997E+02  0.45594000000E+02  0.51100000000E-03 0. -1.
         11   -1    0    0    0    0 -0.00000000000E+00 -0.00000000000E+00 -0.45593999997E+02  0.45594000000E+02  0.51100000000E-03 0.  1.
    9900012    2    1    2    0    0 -0.13658240612E+02  0.28792902361E+02  0.10684380353E+01  0.59301947833E+02  0.50000006939E+02 0.  0.
         12    1    1    2    0    0  0.13658240612E+02 -0.28792902361E+02 -0.10684380353E+01  0.31886052167E+02  0.00000000000E+00 0. -1.
         11    1    3    3    0    0 -0.61030366241E+01  0.20684367445E+01 -0.14681667840E+01  0.66091603527E+01  0.51100000000E-03 0. -1.
        -11    1    3    3    0    0 -0.55891934074E+01 -0.44276231269E+01 -0.15201497146E+02  0.16790724976E+02  0.51100000000E-03 0.  1.
         12    1    3    3    0    0 -0.19660105801E+01  0.31152088744E+02  0.17738101965E+02  0.35902062504E+02  0.00000000000E+00 0. -1.
</event>
<event>
 7    1  0.5837204E-012  0.5930188E+02  0.7816164E-02  0.1266605E+00
        -11   -1    0    0    0    0  0.00000000000E+00  0.00000000000E+00  0.45593999997E+02  0.45594000000E+02  0.51100000000E-03 0.  1.
         11   -1    0    0    0    0 -0.00000000000E+00 -0.00000000000E+00 -0.45593999997E+02  0.45594000000E+02  0.51100000000E-03 0. -1.
    9900012    2    1    2    0    0  0.41356095529E+00 -0.39357140723E+01  0.31639596160E+02  0.59301875696E+02  0.49999875380E+02 0.  0.
         12    1    1    2    0    0 -0.41356095529E+00  0.39357140723E+01 -0.31639596160E+02  0.31886124304E+02  0.00000000000E+00 0. -1.
         11    1    3    3    0    0 -0.86192013097E+00  0.89425346220E+01 -0.94865737066E+01  0.13065485553E+02  0.51100000000E-03 0. -1.
        -11    1    3    3    0    0  0.74534222763E+01 -0.62422912503E+01  0.10559853471E+02  0.14353752446E+02  0.51100000000E-03 0.  1.
        -12    1    3    3    0    0 -0.61779411901E+01 -0.66359574439E+01  0.30566316396E+02  0.31882637697E+02  0.00000000000E+00 0.  1.
</event>
<event>
 7    1  0.5837204E-012  0.5930189E+02  0.7816164E-02  0.1266605E+00
        -11   -1    0    0    0    0  0.00000000000E+00  0.00000000000E+00  0.45593999997E+02  0.45594000000E+02  0.51100000000E-03 0.  1.
         11   -1    0    0    0    0 -0.00000000000E+00 -0.00000000000E+00 -0.45593999997E+02  0.45594000000E+02  0.51100000000E-03 0. -1.
    9900012    2    1    2    0    0  0.10928157525E+02 -0.19761680839E+02  0.22511675688E+02  0.59301887055E+02  0.49999896095E+02 0.  0.
         12    1    1    2    0    0 -0.10928157525E+02  0.19761680839E+02 -0.22511675688E+02  0.31886112945E+02  0.00000000000E+00 0. -1.
         11    1    3    3    0    0 -0.56570279117E+01  0.13035763325E+02  0.71507005674E+01  0.15908035992E+02  0.51100000000E-03 0. -1.
        -11    1    3    3    0    0  0.37168698993E+01  0.13298473333E+01  0.27141604125E+01  0.47906453412E+01  0.51100000000E-03 0.  1.
        -12    1    3    3    0    0  0.12868315537E+02 -0.34127291498E+02  0.12646814708E+02  0.38603205722E+02  0.00000000000E+00 0.  1.
</event>
<event>
 7    1  0.5837204E-012  0.5930195E+02  0.7816164E-02  0.1266605E+00
        -11   -1    0    0    0    0  0.00000000000E+00  0.00000000000E+00  0.45593999997E+02  0.45594000000E+02  0.51100000000E-03 0.  1.
         11   -1    0    0    0    0 -0.00000000000E+00 -0.00000000000E+00 -0.45593999997E+02  0.45594000000E+02  0.51100000000E-03 0. -1.
    9900012    2    1    2    0    0 -0.16455652372E+02 -0.58115000485E+01  0.26686294262E+02  0.59301947732E+02  0.50000006756E+02 0.  0.
         12    1    1    2    0    0  0.16455652372E+02  0.58115000485E+01 -0.26686294262E+02  0.31886052268E+02  0.00000000000E+00 0. -1.
         11    1    3    3    0    0  0.43760114021E+01 -0.18381259060E+01  0.27440044940E+00  0.47543115701E+01  0.51100000000E-03 0. -1.
        -11    1    3    3    0    0  0.12926726298E+02  0.10680840928E+01  0.34888004871E+01  0.13431782663E+02  0.51100000000E-03 0.  1.
        -12    1    3    3    0    0 -0.33758390071E+02 -0.50414582353E+01  0.22923093326E+02  0.41115853499E+02  0.00000000000E+00 0.  1.
</event>
<event>
 7    1  0.5837204E-012  0.5930199E+02  0.7816164E-02  0.1266605E+00
        -11   -1    0    0    0    0  0.00000000000E+00  0.00000000000E+00  0.45593999997E+02  0.45594000000E+02  0.51100000000E-03 0.  1.
         11   -1    0    0    0    0 -0.00000000000E+00 -0.00000000000E+00 -0.45593999997E+02  0.45594000000E+02  0.51100000000E-03 0. -1.
    9900012    2    1    2    0    0 -0.48111184648E+01  0.13464998010E+02  0.28500252316E+02  0.59301993440E+02  0.50000090115E+02 0.  0.
         12    1    1    2    0    0  0.48111184648E+01 -0.13464998010E+02 -0.28500252316E+02  0.31886006560E+02  0.00000000000E+00 0. -1.
         11    1    3    3    0    0  0.22887372474E+01  0.25428661385E+02  0.14015523540E+02  0.29125419110E+02  0.51100000000E-03 0. -1.
        -11    1    3    3    0    0  0.76399760747E+01 -0.37623282460E+00  0.31868137593E+01  0.82865292950E+01  0.51100000000E-03 0.  1.
        -12    1    3    3    0    0 -0.14739831787E+02 -0.11587430550E+02  0.11297915017E+02  0.21890045034E+02  0.00000000000E+00 0.  1.
</event>
<event>
 7    1  0.5837204E-012  0.5930190E+02  0.7816164E-02  0.1266605E+00
        -11   -1    0    0    0    0  0.00000000000E+00  0.00000000000E+00  0.45593999997E+02  0.45594000000E+02  0.51100000000E-03 0.  1.
         11   -1    0    0    0    0 -0.00000000000E+00 -0.00000000000E+00 -0.45593999997E+02  0.45594000000E+02  0.51100000000E-03 0. -1.
    9900012    2    1    2    0    0 -0.18793147349E+02 -0.21200927388E+02 -0.14630853315E+02  0.59301896787E+02  0.49999913844E+02 0.  0.
         12    1    1    2    0    0  0.18793147349E+02  0.21200927388E+02  0.14630853315E+02  0.31886103213E+02  0.00000000000E+00 0. -1.
         11    1    3    3    0    0 -0.71482459456E+01  0.95530717207E+00 -0.11636555216E+02  0.13690122331E+02  0.51100000000E-03 0. -1.
        -11    1    3    3    0    0  0.37060825851E+01 -0.15150235815E+02 -0.17441329165E+02  0.23397962661E+02  0.51100000000E-03 0.  1.
        -12    1    3    3    0    0 -0.15350983988E+02 -0.70059987456E+01  0.14447031066E+02  0.22213811795E+02  0.00000000000E+00 0.  1.
</event>
<event>
 7    1  0.5837204E-012  0.5930196E+02  0.7816164E-02  0.1266605E+00
        -11   -1    0    0    0    0  0.00000000000E+00  0.00000000000E+00  0.45593999997E+02  0.45594000000E+02  0.51100000000E-03 0.  1.
         11   -1    0    0    0    0 -0.00000000000E+00 -0.00000000000E+00 -0.45593999997E+02  0.45594000000E+02  0.51100000000E-03 0. -1.
    9900012    2    1    2    0    0  0.24468099684E+02  0.12565586572E+02  0.16128778993E+02  0.59301962619E+02  0.50000033906E+02 0.  0.
         12    1    1    2    0    0 -0.24468099684E+02 -0.12565586572E+02 -0.16128778993E+02  0.31886037381E+02  0.00000000000E+00 0. -1.
         11    1    3    3    0    0  0.20499463509E+01  0.20458217306E+01 -0.57602077546E+01  0.64472986772E+01  0.51100000000E-03 0. -1.
        -11    1    3    3    0    0 -0.13734806475E+01  0.20116474235E+02  0.17761348802E+02  0.26870513509E+02  0.51100000000E-03 0.  1.
         12    1    3    3    0    0  0.23791633981E+02 -0.95967093941E+01  0.41276379462E+01  0.25984150432E+02  0.00000000000E+00 0. -1.
</event>
<event>
 7    1  0.5837204E-012  0.5930188E+02  0.7816164E-02  0.1266605E+00
        -11   -1    0    0    0    0  0.00000000000E+00  0.00000000000E+00  0.45593999997E+02  0.45594000000E+02  0.51100000000E-03 0.  1.
         11   -1    0    0    0    0 -0.00000000000E+00 -0.00000000000E+00 -0.45593999997E+02  0.45594000000E+02  0.51100000000E-03 0. -1.
    9900012    2    1    2    0    0  0.47562321488E+01  0.23758215725E+02  0.20728001223E+02  0.59301880867E+02  0.49999884809E+02 0.  0.
         12    1    1    2    0    0 -0.47562321488E+01 -0.23758215725E+02 -0.20728001223E+02  0.31886119133E+02  0.00000000000E+00 0. -1.
         11    1    3    3    0    0 -0.11931309147E+01 -0.38397430277E+01 -0.81030952916E+01  0.90458466416E+01  0.51100000000E-03 0. -1.
        -11    1    3    3    0    0  0.14204455709E+02  0.12058712298E+02  0.28090879781E+01  0.18843303315E+02  0.51100000000E-03 0.  1.
         12    1    3    3    0    0 -0.82550926456E+01  0.15539246455E+02  0.26022008537E+02  0.31412730910E+02  0.00000000000E+00 0. -1.
</event>
<event>
 7    1  0.5837204E-012  0.5930196E+02  0.7816164E-02  0.1266605E+00
        -11   -1    0    0    0    0  0.00000000000E+00  0.00000000000E+00  0.45593999997E+02  0.45594000000E+02  0.51100000000E-03 0. -1.
         11   -1    0    0    0    0 -0.00000000000E+00 -0.00000000000E+00 -0.45593999997E+02  0.45594000000E+02  0.51100000000E-03 0.  1.
    9900012    2    1    2    0    0 -0.35091599520E+01 -0.16883066249E+02  0.26821029390E+02  0.59301956861E+02  0.50000023404E+02 0.  0.
         12    1    1    2    0    0  0.35091599520E+01  0.16883066249E+02 -0.26821029390E+02  0.31886043139E+02  0.00000000000E+00 0. -1.
         11    1    3    3    0    0 -0.75739069029E+01 -0.38818493865E+00  0.13377858887E+02  0.15377966770E+02  0.51100000000E-03 0. -1.
        -11    1    3    3    0    0 -0.96152419445E+01  0.25281656060E+01 -0.75343656350E+01  0.12474420418E+02  0.51100000000E-03 0.  1.
         12    1    3    3    0    0  0.13679988895E+02 -0.19023046916E+02  0.20977536139E+02  0.31449569673E+02  0.00000000000E+00 0. -1.
</event>
<event>
 7    1  0.5837204E-012  0.5930195E+02  0.7816164E-02  0.1266605E+00
        -11   -1    0    0    0    0  0.00000000000E+00  0.00000000000E+00  0.45593999997E+02  0.45594000000E+02  0.51100000000E-03 0. -1.
         11   -1    0    0    0    0 -0.00000000000E+00 -0.00000000000E+00 -0.45593999997E+02  0.45594000000E+02  0.51100000000E-03 0.  1.
    9900012    2    1    2    0    0  0.16153338429E+02 -0.27274143678E+02 -0.34512527955E+01  0.59301946597E+02  0.50000004686E+02 0.  0.
         12    1    1    2    0    0 -0.16153338429E+02  0.27274143678E+02  0.34512527955E+01  0.31886053403E+02  0.00000000000E+00 0. -1.
         11    1    3    3    0    0 -0.59078272550E+01 -0.37988321302E+01  0.87431542191E+01  0.11215003094E+02  0.51100000000E-03 0.  1.
        -11    1    3    3    0    0  0.21958050987E+01  0.64776272775E+01  0.47740257214E+01  0.83410153475E+01  0.51100000000E-03 0. -1.
        -12    1    3    3    0    0  0.19865360585E+02 -0.29952938825E+02 -0.16968432736E+02  0.39745928156E+02  0.00000000000E+00 0.  1.
</event>
<event>
 7    1  0.5837204E-012  0.5930192E+02  0.7816164E-02  0.1266605E+00
        -11   -1    0    0    0    0  0.00000000000E+00  0.00000000000E+00  0.45593999997E+02  0.45594000000E+02  0.51100000000E-03 0.  1.
         11   -1    0    0    0    0 -0.00000000000E+00 -0.00000000000E+00 -0.45593999997E+02  0.45594000000E+02  0.51100000000E-03 0. -1.
    9900012    2    1    2    0    0 -0.87852981827E+01  0.21901033074E+02  0.21444944769E+02  0.59301915730E+02  0.49999948393E+02 0.  0.
         12    1    1    2    0    0  0.87852981827E+01 -0.21901033074E+02 -0.21444944769E+02  0.31886084270E+02  0.00000000000E+00 0. -1.
         11    1    3    3    0    0 -0.88269468403E+01 -0.14039982773E+02  0.41680913802E+01  0.17099973474E+02  0.51100000000E-03 0. -1.
        -11    1    3    3    0    0 -0.64234873349E+01  0.18393020110E+02  0.60982473232E+01  0.20414529114E+02  0.51100000000E-03 0.  1.
        -12    1    3    3    0    0  0.64651359925E+01  0.17547995738E+02  0.11178606066E+02  0.21787413142E+02  0.00000000000E+00 0.  1.
</event>
<event>
 7    1  0.5837204E-012  0.5930197E+02  0.7816164E-02  0.1266605E+00
        -11   -1    0    0    0    0  0.00000000000E+00  0.00000000000E+00  0.45593999997E+02  0.45594000000E+02  0.51100000000E-03 0. -1.
         11   -1    0    0    0    0 -0.00000000000E+00 -0.00000000000E+00 -0.45593999997E+02  0.45594000000E+02  0.51100000000E-03 0.  1.
    9900012    2    1    2    0    0 -0.10860962171E+02 -0.51918557958E+01 -0.29526307169E+02  0.59301973579E+02  0.50000053895E+02 0.  0.
         12    1    1    2    0    0  0.10860962171E+02  0.51918557958E+01  0.29526307169E+02  0.31886026421E+02  0.00000000000E+00 0. -1.
         11    1    3    3    0    0  0.18390726084E+01 -0.29303822230E+01 -0.14378885033E+02  0.14789241465E+02  0.51100000000E-03 0. -1.
        -11    1    3    3    0    0 -0.19593805392E+02  0.60354560080E+00 -0.25240470273E+02  0.31958767449E+02  0.51100000000E-03 0.  1.
         12    1    3    3    0    0  0.68937706119E+01 -0.28650191736E+01  0.10093048137E+02  0.12553964665E+02  0.00000000000E+00 0. -1.
</event>
<event>
 7    1  0.5837204E-012  0.5930198E+02  0.7816164E-02  0.1266605E+00
        -11   -1    0    0    0    0  0.00000000000E+00  0.00000000000E+00  0.45593999997E+02  0.45594000000E+02  0.51100000000E-03 0. -1.
         11   -1    0    0    0    0 -0.00000000000E+00 -0.00000000000E+00 -0.45593999997E+02  0.45594000000E+02  0.51100000000E-03 0.  1.
    9900012    2    1    2    0    0 -0.11270521255E+02 -0.27125784135E+01 -0.29704136592E+02  0.59301977016E+02  0.50000060163E+02 0.  0.
         12    1    1    2    0    0  0.11270521255E+02  0.27125784135E+01  0.29704136592E+02  0.31886022984E+02  0.00000000000E+00 0. -1.
         11    1    3    3    0    0 -0.22615832227E+01 -0.87933581201E+01  0.69556969395E+01  0.11437640748E+02  0.51100000000E-03 0. -1.
        -11    1    3    3    0    0 -0.10500579536E+02 -0.71520309011E+01 -0.52474942221E+01  0.13745905298E+02  0.51100000000E-03 0.  1.
        -12    1    3    3    0    0  0.14916415033E+01  0.13232810608E+02 -0.31412339310E+02  0.34118430970E+02  0.00000000000E+00 0.  1.
</event>
<event>
 7    1  0.6062123E-012  0.5930195E+02  0.7816164E-02  0.1266605E+00
        -11   -1    0    0    0    0  0.00000000000E+00  0.00000000000E+00  0.45593999997E+02  0.45594000000E+02  0.51100000000E-03 0. -1.
         11   -1    0    0    0    0 -0.00000000000E+00 -0.00000000000E+00 -0.45593999997E+02  0.45594000000E+02  0.51100000000E-03 0.  1.
    9900012    2    1    2    0    0  0.14960425780E+02 -0.19857725518E+02 -0.19964390503E+02  0.59301945204E+02  0.50000002146E+02 0.  0.
         12    1    1    2    0    0 -0.14960425780E+02  0.19857725518E+02  0.19964390503E+02  0.31886054796E+02  0.00000000000E+00 0. -1.
         11    1    3    3    0    0  0.29389852635E+01 -0.12575738652E+02  0.11050346856E+02  0.16996970404E+02  0.51100000000E-03 0. -1.
        -11    1    3    3    0    0 -0.76440617841E+00 -0.13103049224E+02 -0.21984189310E+02  0.25604272996E+02  0.51100000000E-03 0.  1.
        -12    1    3    3    0    0  0.12785846695E+02  0.58210623582E+01 -0.90305480486E+01  0.16700701804E+02  0.00000000000E+00 0.  1.
</event>
<event>
 7    1  0.5837204E-012  0.5930233E+02  0.7816164E-02  0.1266603E+00
        -11   -1    0    0    0    0  0.00000000000E+00  0.00000000000E+00  0.45593999997E+02  0.45594000000E+02  0.51100000000E-03 0.  1.
         11   -1    0    0    0    0 -0.00000000000E+00 -0.00000000000E+00 -0.45593999997E+02  0.45594000000E+02  0.51100000000E-03 0. -1.
    9900012    2    1    2    0    0  0.36503112741E+01 -0.22382075642E+02  0.22414595496E+02  0.59302326513E+02  0.50000697557E+02 0.  0.
         12    1    1    2    0    0 -0.36503112741E+01  0.22382075642E+02 -0.22414595496E+02  0.31885673487E+02  0.00000000000E+00 0. -1.
         11    1    3    3    0    0  0.35235218168E+01 -0.64462351918E+01  0.24641201243E+00  0.73505015667E+01  0.51100000000E-03 0. -1.
        -11    1    3    3    0    0  0.40343387203E+01 -0.12623072167E+02  0.35380612813E+02  0.37781021732E+02  0.51100000000E-03 0.  1.
         12    1    3    3    0    0 -0.39075492630E+01 -0.33127682830E+01 -0.13212429330E+02  0.14170803214E+02  0.00000000000E+00 0. -1.
</event>
<event>
 7    1  0.5837204E-012  0.5930184E+02  0.7816164E-02  0.1266605E+00
        -11   -1    0    0    0    0  0.00000000000E+00  0.00000000000E+00  0.45593999997E+02  0.45594000000E+02  0.51100000000E-03 0.  1.
         11   -1    0    0    0    0 -0.00000000000E+00 -0.00000000000E+00 -0.45593999997E+02  0.45594000000E+02  0.51100000000E-03 0. -1.
    9900012    2    1    2    0    0  0.18767054066E+02  0.12223499071E+02  0.22696051214E+02  0.59301843308E+02  0.49999816312E+02 0.  0.
         12    1    1    2    0    0 -0.18767054066E+02 -0.12223499071E+02 -0.22696051214E+02  0.31886156692E+02  0.00000000000E+00 0. -1.
         11    1    3    3    0    0  0.11693487093E+02 -0.36281865362E+01  0.41499836891E+01  0.12927634850E+02  0.51100000000E-03 0. -1.
        -11    1    3    3    0    0  0.35521358191E+01 -0.72982887255E+01  0.21302296028E+02  0.22796282669E+02  0.51100000000E-03 0.  1.
         12    1    3    3    0    0  0.35214311536E+01  0.23149974333E+02 -0.27562285026E+01  0.23577925789E+02  0.00000000000E+00 0. -1.
</event>
<event>
 7    1  0.5837204E-012  0.5930197E+02  0.7816164E-02  0.1266605E+00
        -11   -1    0    0    0    0  0.00000000000E+00  0.00000000000E+00  0.45593999997E+02  0.45594000000E+02  0.51100000000E-03 0.  1.
         11   -1    0    0    0    0 -0.00000000000E+00 -0.00000000000E+00 -0.45593999997E+02  0.45594000000E+02  0.51100000000E-03 0. -1.
    9900012    2    1    2    0    0  0.16407109403E+02  0.19970330274E+01  0.27267888688E+02  0.59301966484E+02  0.50000040955E+02 0.  0.
         12    1    1    2    0    0 -0.16407109403E+02 -0.19970330274E+01 -0.27267888688E+02  0.31886033516E+02  0.00000000000E+00 0. -1.
         11    1    3    3    0    0  0.11384484050E+02 -0.98111873051E+01 -0.51816648892E+01  0.15897028801E+02  0.51100000000E-03 0. -1.
        -11    1    3    3    0    0  0.10522506552E+02 -0.41259181030E+01  0.86125698234E+01  0.14209950864E+02  0.51100000000E-03 0.  1.
        -12    1    3    3    0    0 -0.54998811991E+01  0.15934138435E+02  0.23836983754E+02  0.29194986819E+02  0.00000000000E+00 0.  1.
</event>
<event>
 7    1  0.5837204E-012  0.5930195E+02  0.7816164E-02  0.1266605E+00
        -11   -1    0    0    0    0  0.00000000000E+00  0.00000000000E+00  0.45593999997E+02  0.45594000000E+02  0.51100000000E-03 0. -1.
         11   -1    0    0    0    0 -0.00000000000E+00 -0.00000000000E+00 -0.45593999997E+02  0.45594000000E+02  0.51100000000E-03 0.  1.
    9900012    2    1    2    0    0 -0.64072939679E+01 -0.26738903896E+02  0.16146131755E+02  0.59301953393E+02  0.50000017080E+02 0.  0.
         12    1    1    2    0    0  0.64072939679E+01  0.26738903896E+02 -0.16146131755E+02  0.31886046607E+02  0.00000000000E+00 0. -1.
         11    1    3    3    0    0  0.13045406551E+02 -0.25121065131E+02  0.28767265830E+01  0.28452172176E+02  0.51100000000E-03 0.  1.
        -11    1    3    3    0    0  0.62429483220E+00  0.58627497751E+00 -0.41136217730E+01  0.42018265956E+01  0.51100000000E-03 0. -1.
        -12    1    3    3    0    0 -0.20076995352E+02 -0.22041137425E+01  0.17383026945E+02  0.26647954622E+02  0.00000000000E+00 0.  1.
</event>
<event>
 7    1  0.5837204E-012  0.5930192E+02  0.7816164E-02  0.1266605E+00
        -11   -1    0    0    0    0  0.00000000000E+00  0.00000000000E+00  0.45593999997E+02  0.45594000000E+02  0.51100000000E-03 0.  1.
         11   -1    0    0    0    0 -0.00000000000E+00 -0.00000000000E+00 -0.45593999997E+02  0.45594000000E+02  0.51100000000E-03 0. -1.
    9900012    2    1    2    0    0 -0.29741326616E+02 -0.42736714020E+00  0.11488808506E+02  0.59301923533E+02  0.49999962623E+02 0.  0.
         12    1    1    2    0    0  0.29741326616E+02  0.42736714020E+00 -0.11488808506E+02  0.31886076467E+02  0.00000000000E+00 0. -1.
         11    1    3    3    0    0 -0.10857613553E+01  0.47173650862E+01 -0.60075424542E+01  0.77151135881E+01  0.51100000000E-03 0. -1.
        -11    1    3    3    0    0 -0.34913750918E+01  0.15140362747E+02  0.17587305500E+01  0.15636924811E+02  0.51100000000E-03 0.  1.
         12    1    3    3    0    0 -0.25164190169E+02 -0.20285094973E+02  0.15737620410E+02  0.35949885134E+02  0.00000000000E+00 0. -1.
</event>
<event>
 7    1  0.5837204E-012  0.5930201E+02  0.7816164E-02  0.1266605E+00
        -11   -1    0    0    0    0  0.00000000000E+00  0.00000000000E+00  0.45593999997E+02  0.45594000000E+02  0.51100000000E-03 0. -1.
         11   -1    0    0    0    0 -0.00000000000E+00 -0.00000000000E+00 -0.45593999997E+02  0.45594000000E+02  0.51100000000E-03 0.  1.
    9900012    2    1    2    0    0  0.10793632292E+02 -0.17415396607E+02 -0.24431895714E+02  0.59302014596E+02  0.50000128699E+02 0.  0.
         12    1    1    2    0    0 -0.10793632292E+02  0.17415396607E+02  0.24431895714E+02  0.31885985404E+02  0.00000000000E+00 0. -1.
         11    1    3    3    0    0 -0.57291825807E+01  0.70859642801E+01 -0.69163709282E+01  0.11439869313E+02  0.51100000000E-03 0. -1.
        -11    1    3    3    0    0 -0.81311858054E+01 -0.12376324573E+01  0.23739645979E+01  0.85605855450E+01  0.51100000000E-03 0.  1.
        -12    1    3    3    0    0  0.24654000678E+02 -0.23263728430E+02 -0.19889489384E+02  0.39301559738E+02  0.00000000000E+00 0.  1.
</event>
<event>
 7    1  0.5837204E-012  0.5930209E+02  0.7816164E-02  0.1266604E+00
        -11   -1    0    0    0    0  0.00000000000E+00  0.00000000000E+00  0.45593999997E+02  0.45594000000E+02  0.51100000000E-03 0.  1.
         11   -1    0    0    0    0 -0.00000000000E+00 -0.00000000000E+00 -0.45593999997E+02  0.45594000000E+02  0.51100000000E-03 0. -1.
    9900012    2    1    2    0    0 -0.12002407465E+02  0.26976966148E+02 -0.12037317109E+02  0.59302086328E+02  0.50000259521E+02 0.  0.
         12    1    1    2    0    0  0.12002407465E+02 -0.26976966148E+02  0.12037317109E+02  0.31885913672E+02  0.00000000000E+00 0. -1.
         11    1    3    3    0    0  0.61704626183E+01 -0.47767693924E+01  0.11074364096E+01  0.78815322377E+01  0.51100000000E-03 0. -1.
        -11    1    3    3    0    0 -0.17958333168E+02  0.19278095024E-01 -0.40771501105E+01  0.18415353787E+02  0.51100000000E-03 0.  1.
        -12    1    3    3    0    0 -0.21453691472E+00  0.31734457446E+02 -0.90676034080E+01  0.33005200303E+02  0.00000000000E+00 0.  1.
</event>
<event>
 7    1  0.5837204E-012  0.5930194E+02  0.7816164E-02  0.1266605E+00
        -11   -1    0    0    0    0  0.00000000000E+00  0.00000000000E+00  0.45593999997E+02  0.45594000000E+02  0.51100000000E-03 0.  1.
         11   -1    0    0    0    0 -0.00000000000E+00 -0.00000000000E+00 -0.45593999997E+02  0.45594000000E+02  0.51100000000E-03 0. -1.
    9900012    2    1    2    0    0 -0.12076244207E+02 -0.11722289019E+02  0.27082709797E+02  0.59301938720E+02  0.49999990320E+02 0.  0.
         12    1    1    2    0    0  0.12076244207E+02  0.11722289019E+02 -0.27082709797E+02  0.31886061280E+02  0.00000000000E+00 0. -1.
         11    1    3    3    0    0 -0.53927774881E+01  0.24376197044E+01 -0.16191025642E+01  0.61355955077E+01  0.51100000000E-03 0. -1.
        -11    1    3    3    0    0 -0.19804773176E+02 -0.13026402930E+02  0.31774389714E+02  0.39642503147E+02  0.51100000000E-03 0.  1.
         12    1    3    3    0    0  0.13121306457E+02 -0.11335057935E+01 -0.30725773522E+01  0.13523840065E+02  0.00000000000E+00 0. -1.
</event>
<event>
 7    1  0.5837204E-012  0.5930179E+02  0.7816164E-02  0.1266605E+00
        -11   -1    0    0    0    0  0.00000000000E+00  0.00000000000E+00  0.45593999997E+02  0.45594000000E+02  0.51100000000E-03 0. -1.
         11   -1    0    0    0    0 -0.00000000000E+00 -0.00000000000E+00 -0.45593999997E+02  0.45594000000E+02  0.51100000000E-03 0.  1.
    9900012    2    1    2    0    0 -0.81250007592E+00 -0.53263748601E+01 -0.31427691981E+02  0.59301792186E+02  0.49999723077E+02 0.  0.
         12    1    1    2    0    0  0.81250007592E+00  0.53263748601E+01  0.31427691981E+02  0.31886207814E+02  0.00000000000E+00 0. -1.
         11    1    3    3    0    0 -0.45871297974E+01 -0.96110049072E+01 -0.35468920167E+02  0.37033194207E+02  0.51100000000E-03 0. -1.
        -11    1    3    3    0    0  0.50154495938E+01  0.28900976334E+01 -0.81160591851E+01  0.99688422555E+01  0.51100000000E-03 0.  1.
         12    1    3    3    0    0 -0.12408198724E+01  0.13945324137E+01  0.12157287372E+02  0.12299755723E+02  0.00000000000E+00 0. -1.
</event>
<event>
 7    1  0.5837204E-012  0.5930195E+02  0.7816164E-02  0.1266605E+00
        -11   -1    0    0    0    0  0.00000000000E+00  0.00000000000E+00  0.45593999997E+02  0.45594000000E+02  0.51100000000E-03 0.  1.
         11   -1    0    0    0    0 -0.00000000000E+00 -0.00000000000E+00 -0.45593999997E+02  0.45594000000E+02  0.51100000000E-03 0. -1.
    9900012    2    1    2    0    0 -0.26154411036E+02  0.24722910255E+01  0.18070827845E+02  0.59301948840E+02  0.50000008777E+02 0.  0.
         12    1    1    2    0    0  0.26154411036E+02 -0.24722910255E+01 -0.18070827845E+02  0.31886051160E+02  0.00000000000E+00 0. -1.
         11    1    3    3    0    0 -0.21863919612E+02 -0.54122976484E+01  0.51439966653E+01  0.23103779963E+02  0.51100000000E-03 0. -1.
        -11    1    3    3    0    0 -0.15850360662E+02  0.11447027468E+01  0.15911412011E+02  0.22488159327E+02  0.51100000000E-03 0.  1.
         12    1    3    3    0    0  0.11559869238E+02  0.67398859270E+01 -0.29845808313E+01  0.13710009549E+02  0.00000000000E+00 0. -1.
</event>
<event>
 7    1  0.5837204E-012  0.5930188E+02  0.7816164E-02  0.1266605E+00
        -11   -1    0    0    0    0  0.00000000000E+00  0.00000000000E+00  0.45593999997E+02  0.45594000000E+02  0.51100000000E-03 0. -1.
         11   -1    0    0    0    0 -0.00000000000E+00 -0.00000000000E+00 -0.45593999997E+02  0.45594000000E+02  0.51100000000E-03 0.  1.
    9900012    2    1    2    0    0 -0.20448001486E+02 -0.40326427015E-01 -0.24466350889E+02  0.59301878932E+02  0.49999881280E+02 0.  0.
         12    1    1    2    0    0  0.20448001486E+02  0.40326427015E-01  0.24466350889E+02  0.31886121068E+02  0.00000000000E+00 0. -1.
         11    1    3    3    0    0  0.13939687500E+01  0.46120063547E+01 -0.15206336441E+02  0.15951376734E+02  0.51100000000E-03 0. -1.
        -11    1    3    3    0    0 -0.30242464865E+02  0.32446090943E+01 -0.93497615358E+01  0.31820625548E+02  0.51100000000E-03 0.  1.
         12    1    3    3    0    0  0.84004946290E+01 -0.78969418761E+01  0.89747087850E-01  0.11529876649E+02  0.00000000000E+00 0. -1.
</event>
<event>
 7    1  0.5837204E-012  0.5930199E+02  0.7816164E-02  0.1266605E+00
        -11   -1    0    0    0    0  0.00000000000E+00  0.00000000000E+00  0.45593999997E+02  0.45594000000E+02  0.51100000000E-03 0.  1.
         11   -1    0    0    0    0 -0.00000000000E+00 -0.00000000000E+00 -0.45593999997E+02  0.45594000000E+02  0.51100000000E-03 0. -1.
    9900012    2    1    2    0    0 -0.20597151819E+02  0.80347525714E+01  0.22976458606E+02  0.59301991124E+02  0.50000085893E+02 0.  0.
         12    1    1    2    0    0  0.20597151819E+02 -0.80347525714E+01 -0.22976458606E+02  0.31886008876E+02  0.00000000000E+00 0. -1.
         11    1    3    3    0    0  0.64123344215E+01  0.57193867163E+01  0.14027017283E+01  0.87061466530E+01  0.51100000000E-03 0. -1.
        -11    1    3    3    0    0  0.48536001170E+01  0.58689818420E+01  0.16451201920E+02  0.18128552806E+02  0.51100000000E-03 0.  1.
         12    1    3    3    0    0 -0.31863086358E+02 -0.35536159869E+01  0.51225549580E+01  0.32467291666E+02  0.00000000000E+00 0. -1.
</event>
<event>
 7    1  0.5837204E-012  0.5930181E+02  0.7816164E-02  0.1266605E+00
        -11   -1    0    0    0    0  0.00000000000E+00  0.00000000000E+00  0.45593999997E+02  0.45594000000E+02  0.51100000000E-03 0.  1.
         11   -1    0    0    0    0 -0.00000000000E+00 -0.00000000000E+00 -0.45593999997E+02  0.45594000000E+02  0.51100000000E-03 0. -1.
    9900012    2    1    2    0    0 -0.30512837047E+02  0.17399147584E+01  0.90922368379E+01  0.59301807083E+02  0.49999750244E+02 0.  0.
         12    1    1    2    0    0  0.30512837047E+02 -0.17399147584E+01 -0.90922368379E+01  0.31886192917E+02  0.00000000000E+00 0. -1.
         11    1    3    3    0    0  0.46242011529E+01 -0.27941921228E+01 -0.15810687729E+01  0.56294337768E+01  0.51100000000E-03 0. -1.
        -11    1    3    3    0    0 -0.44044182378E+00 -0.61100382125E+01  0.15868463327E+02  0.17009840816E+02  0.51100000000E-03 0.  1.
        -12    1    3    3    0    0 -0.34696596376E+02  0.10644145094E+02 -0.51951577162E+01  0.36662532490E+02  0.00000000000E+00 0.  1.
</event>
<event>
 7    1  0.5837204E-012  0.5930194E+02  0.7816164E-02  0.1266605E+00
        -11   -1    0    0    0    0  0.00000000000E+00  0.00000000000E+00  0.45593999997E+02  0.45594000000E+02  0.51100000000E-03 0.  1.
         11   -1    0    0    0    0 -0.00000000000E+00 -0.00000000000E+00 -0.45593999997E+02  0.45594000000E+02  0.51100000000E-03 0. -1.
    9900012    2    1    2    0    0 -0.89246033899E+01  0.30420127724E+02 -0.34187558834E+01  0.59301943358E+02  0.49999998779E+02 0.  0.
         12    1    1    2    0    0  0.89246033899E+01 -0.30420127724E+02  0.34187558834E+01  0.31886056642E+02  0.00000000000E+00 0. -1.
         11    1    3    3    0    0 -0.18545683756E+01  0.56367790571E+01  0.62333166386E+01  0.86062151133E+01  0.51100000000E-03 0. -1.
        -11    1    3    3    0    0 -0.15586093653E+02  0.29468849627E+02  0.43828550796E+01  0.33623635029E+02  0.51100000000E-03 0.  1.
         12    1    3    3    0    0  0.85160586383E+01 -0.46855009601E+01 -0.14034927602E+02  0.17072093216E+02  0.00000000000E+00 0. -1.
</event>
<event>
 7    1  0.5837204E-012  0.5930194E+02  0.7816164E-02  0.1266605E+00
        -11   -1    0    0    0    0  0.00000000000E+00  0.00000000000E+00  0.45593999997E+02  0.45594000000E+02  0.51100000000E-03 0.  1.
         11   -1    0    0    0    0 -0.00000000000E+00 -0.00000000000E+00 -0.45593999997E+02  0.45594000000E+02  0.51100000000E-03 0. -1.
    9900012    2    1    2    0    0  0.27940657145E+02  0.32392399081E+01  0.15018241948E+02  0.59301943673E+02  0.49999999353E+02 0.  0.
         12    1    1    2    0    0 -0.27940657145E+02 -0.32392399081E+01 -0.15018241948E+02  0.31886056327E+02  0.00000000000E+00 0. -1.
         11    1    3    3    0    0  0.13281860405E+02 -0.45488071550E+01 -0.90374537395E+01  0.16696557511E+02  0.51100000000E-03 0. -1.
        -11    1    3    3    0    0 -0.85028453080E+00 -0.38758803995E+01 -0.57818100530E+01  0.70124717757E+01  0.51100000000E-03 0.  1.
        -12    1    3    3    0    0  0.15509081271E+02  0.11663927463E+02  0.29837505741E+02  0.35592914387E+02  0.00000000000E+00 0.  1.
</event>
<event>
 7    1  0.5837204E-012  0.5930196E+02  0.7816164E-02  0.1266605E+00
        -11   -1    0    0    0    0  0.00000000000E+00  0.00000000000E+00  0.45593999997E+02  0.45594000000E+02  0.51100000000E-03 0. -1.
         11   -1    0    0    0    0 -0.00000000000E+00 -0.00000000000E+00 -0.45593999997E+02  0.45594000000E+02  0.51100000000E-03 0.  1.
    9900012    2    1    2    0    0 -0.23212349713E+02 -0.12196039981E+01 -0.21827024955E+02  0.59301958673E+02  0.50000026709E+02 0.  0.
         12    1    1    2    0    0  0.23212349713E+02  0.12196039981E+01  0.21827024955E+02  0.31886041327E+02  0.00000000000E+00 0. -1.
         11    1    3    3    0    0 -0.66847864716E+01  0.54343980027E+01 -0.21321269568E+02  0.22995990696E+02  0.51100000000E-03 0. -1.
        -11    1    3    3    0    0 -0.26318047875E+01 -0.15348053374E+01 -0.15165411468E+02  0.15468410685E+02  0.51100000000E-03 0.  1.
         12    1    3    3    0    0 -0.13895758454E+02 -0.51191966634E+01  0.14659656081E+02  0.20837557292E+02  0.00000000000E+00 0. -1.
</event>
<event>
 7    1  0.5837204E-012  0.5930196E+02  0.7816164E-02  0.1266605E+00
        -11   -1    0    0    0    0  0.00000000000E+00  0.00000000000E+00  0.45593999997E+02  0.45594000000E+02  0.51100000000E-03 0.  1.
         11   -1    0    0    0    0 -0.00000000000E+00 -0.00000000000E+00 -0.45593999997E+02  0.45594000000E+02  0.51100000000E-03 0. -1.
    9900012    2    1    2    0    0 -0.27686324459E+02  0.20504810593E+01 -0.15683837756E+02  0.59301956010E+02  0.50000021852E+02 0.  0.
         12    1    1    2    0    0  0.27686324459E+02 -0.20504810593E+01  0.15683837756E+02  0.31886043990E+02  0.00000000000E+00 0. -1.
         11    1    3    3    0    0 -0.12304723879E+02 -0.76149369476E+01  0.69673672797E+01  0.16060439020E+02  0.51100000000E-03 0.  1.
        -11    1    3    3    0    0  0.28583740847E+01  0.15994753889E+02 -0.16046315113E+02  0.22836082925E+02  0.51100000000E-03 0. -1.
         12    1    3    3    0    0 -0.18239974665E+02 -0.63293358826E+01 -0.66048899232E+01  0.20405434065E+02  0.00000000000E+00 0. -1.
</event>
<event>
 7    1  0.5837204E-012  0.5930194E+02  0.7816164E-02  0.1266605E+00
        -11   -1    0    0    0    0  0.00000000000E+00  0.00000000000E+00  0.45593999997E+02  0.45594000000E+02  0.51100000000E-03 0.  1.
         11   -1    0    0    0    0 -0.00000000000E+00 -0.00000000000E+00 -0.45593999997E+02  0.45594000000E+02  0.51100000000E-03 0. -1.
    9900012    2    1    2    0    0  0.56095821917E+00  0.73163735394E+01  0.31030261005E+02  0.59301935741E+02  0.49999984887E+02 0.  0.
         12    1    1    2    0    0 -0.56095821917E+00 -0.73163735394E+01 -0.31030261005E+02  0.31886064259E+02  0.00000000000E+00 0. -1.
         11    1    3    3    0    0  0.99416998319E+01 -0.71114637506E+00  0.31139488840E+02  0.32695731987E+02  0.51100000000E-03 0. -1.
        -11    1    3    3    0    0  0.63482094342E+01  0.56725012743E+01  0.50348192273E+01  0.98907248793E+01  0.51100000000E-03 0.  1.
         12    1    3    3    0    0 -0.15728951047E+02  0.23550186402E+01 -0.51440470615E+01  0.16715478874E+02  0.00000000000E+00 0. -1.
</event>
<event>
 7    1  0.5837204E-012  0.5930193E+02  0.7816164E-02  0.1266605E+00
        -11   -1    0    0    0    0  0.00000000000E+00  0.00000000000E+00  0.45593999997E+02  0.45594000000E+02  0.51100000000E-03 0.  1.
         11   -1    0    0    0    0 -0.00000000000E+00 -0.00000000000E+00 -0.45593999997E+02  0.45594000000E+02  0.51100000000E-03 0. -1.
    9900012    2    1    2    0    0 -0.22159235005E+02  0.17900918183E+02  0.14326431878E+02  0.59301933793E+02  0.49999981335E+02 0.  0.
         12    1    1    2    0    0  0.22159235005E+02 -0.17900918183E+02 -0.14326431878E+02  0.31886066207E+02  0.00000000000E+00 0. -1.
         11    1    3    3    0    0 -0.13661358787E+02  0.14175520232E+02 -0.59048710629E+01  0.20553481464E+02  0.51100000000E-03 0. -1.
        -11    1    3    3    0    0  0.12092156033E+00  0.17005587613E+02  0.12650200509E+02  0.21195098614E+02  0.51100000000E-03 0.  1.
         12    1    3    3    0    0 -0.86187977782E+01 -0.13280189661E+02  0.75811024316E+01  0.17553353716E+02  0.00000000000E+00 0. -1.
</event>
<event>
 7    1  0.5837204E-012  0.5930198E+02  0.7816164E-02  0.1266605E+00
        -11   -1    0    0    0    0  0.00000000000E+00  0.00000000000E+00  0.45593999997E+02  0.45594000000E+02  0.51100000000E-03 0.  1.
         11   -1    0    0    0    0 -0.00000000000E+00 -0.00000000000E+00 -0.45593999997E+02  0.45594000000E+02  0.51100000000E-03 0. -1.
    9900012    2    1    2    0    0 -0.45894562898E+00  0.26069018817E+02  0.18355220814E+02  0.59301976349E+02  0.50000058945E+02 0.  0.
         12    1    1    2    0    0  0.45894562898E+00 -0.26069018817E+02 -0.18355220814E+02  0.31886023651E+02  0.00000000000E+00 0. -1.
         11    1    3    3    0    0  0.27405813076E+01 -0.36712019288E+01  0.20627843819E+01  0.50242998690E+01  0.51100000000E-03 0. -1.
        -11    1    3    3    0    0  0.65045271209E+01 -0.24425898269E+01 -0.95978620185E+01  0.11848800518E+02  0.51100000000E-03 0.  1.
        -12    1    3    3    0    0 -0.97040540575E+01  0.32182810573E+02  0.25890298450E+02  0.42428875962E+02  0.00000000000E+00 0.  1.
</event>
<event>
 7    1  0.5837204E-012  0.5930195E+02  0.7816164E-02  0.1266605E+00
        -11   -1    0    0    0    0  0.00000000000E+00  0.00000000000E+00  0.45593999997E+02  0.45594000000E+02  0.51100000000E-03 0.  1.
         11   -1    0    0    0    0 -0.00000000000E+00 -0.00000000000E+00 -0.45593999997E+02  0.45594000000E+02  0.51100000000E-03 0. -1.
    9900012    2    1    2    0    0  0.17295614403E+02  0.23984488648E+02 -0.11930053200E+02  0.59301950658E+02  0.50000012092E+02 0.  0.
         12    1    1    2    0    0 -0.17295614403E+02 -0.23984488648E+02  0.11930053200E+02  0.31886049342E+02  0.00000000000E+00 0. -1.
         11    1    3    3    0    0  0.97257529856E+01  0.11841988357E+02 -0.27653713817E+02  0.31615674080E+02  0.51100000000E-03 0. -1.
        -11    1    3    3    0    0  0.48370026544E+01  0.26399921090E+00 -0.27375854027E+01  0.55642307968E+01  0.51100000000E-03 0.  1.
        -12    1    3    3    0    0  0.27328587629E+01  0.11878501080E+02  0.18461246020E+02  0.22122045781E+02  0.00000000000E+00 0.  1.
</event>
<event>
 7    1  0.5837204E-012  0.5930192E+02  0.7816164E-02  0.1266605E+00
        -11   -1    0    0    0    0  0.00000000000E+00  0.00000000000E+00  0.45593999997E+02  0.45594000000E+02  0.51100000000E-03 0.  1.
         11   -1    0    0    0    0 -0.00000000000E+00 -0.00000000000E+00 -0.45593999997E+02  0.45594000000E+02  0.51100000000E-03 0. -1.
    9900012    2    1    2    0    0  0.93630074934E+01  0.15549418556E+02  0.26215871248E+02  0.59301917895E+02  0.49999952340E+02 0.  0.
         12    1    1    2    0    0 -0.93630074934E+01 -0.15549418556E+02 -0.26215871248E+02  0.31886082105E+02  0.00000000000E+00 0. -1.
         11    1    3    3    0    0  0.99845416000E+01 -0.27580548677E+00  0.42198511022E+01  0.10843167582E+02  0.51100000000E-03 0. -1.
        -11    1    3    3    0    0  0.16877872166E+02  0.71354659651E+01 -0.91618452769E+00  0.18347120694E+02  0.51100000000E-03 0.  1.
        -12    1    3    3    0    0 -0.17499406273E+02  0.86897580773E+01  0.22912204673E+02  0.30111629619E+02  0.00000000000E+00 0.  1.
</event>
<event>
 7    1  0.5837204E-012  0.5930194E+02  0.7816164E-02  0.1266605E+00
        -11   -1    0    0    0    0  0.00000000000E+00  0.00000000000E+00  0.45593999997E+02  0.45594000000E+02  0.51100000000E-03 0. -1.
         11   -1    0    0    0    0 -0.00000000000E+00 -0.00000000000E+00 -0.45593999997E+02  0.45594000000E+02  0.51100000000E-03 0.  1.
    9900012    2    1    2    0    0 -0.17728813261E+02 -0.66491471214E+01 -0.25655381219E+02  0.59301944072E+02  0.50000000082E+02 0.  0.
         12    1    1    2    0    0  0.17728813261E+02  0.66491471214E+01  0.25655381219E+02  0.31886055928E+02  0.00000000000E+00 0. -1.
         11    1    3    3    0    0 -0.35352976737E+01 -0.81661989201E+00  0.91549968471E+01  0.98478000194E+01  0.51100000000E-03 0. -1.
        -11    1    3    3    0    0 -0.10837744004E+02  0.95199161542E+01 -0.41650742495E+01  0.15014437800E+02  0.51100000000E-03 0.  1.
        -12    1    3    3    0    0 -0.33557715834E+01 -0.15352443384E+02 -0.30645303817E+02  0.34439706253E+02  0.00000000000E+00 0.  1.
</event>
<event>
 7    1  0.5837204E-012  0.5930194E+02  0.7816164E-02  0.1266605E+00
        -11   -1    0    0    0    0  0.00000000000E+00  0.00000000000E+00  0.45593999997E+02  0.45594000000E+02  0.51100000000E-03 0. -1.
         11   -1    0    0    0    0 -0.00000000000E+00 -0.00000000000E+00 -0.45593999997E+02  0.45594000000E+02  0.51100000000E-03 0.  1.
    9900012    2    1    2    0    0 -0.19998938157E+02  0.16939347319E+01 -0.24776882754E+02  0.59301939389E+02  0.49999991541E+02 0.  0.
         12    1    1    2    0    0  0.19998938157E+02 -0.16939347319E+01  0.24776882754E+02  0.31886060611E+02  0.00000000000E+00 0. -1.
         11    1    3    3    0    0  0.21337931038E+01 -0.26279135513E+00  0.10230150054E+02  0.10453616728E+02  0.51100000000E-03 0. -1.
        -11    1    3    3    0    0 -0.59563459374E+01 -0.11291328686E+02 -0.97740606370E+01  0.16078072708E+02  0.51100000000E-03 0.  1.
        -12    1    3    3    0    0 -0.16176385324E+02  0.13248054773E+02 -0.25232972171E+02  0.32770249953E+02  0.00000000000E+00 0.  1.
</event>
<event>
 7    1  0.5837204E-012  0.5930196E+02  0.7816164E-02  0.1266605E+00
        -11   -1    0    0    0    0  0.00000000000E+00  0.00000000000E+00  0.45593999997E+02  0.45594000000E+02  0.51100000000E-03 0.  1.
         11   -1    0    0    0    0 -0.00000000000E+00 -0.00000000000E+00 -0.45593999997E+02  0.45594000000E+02  0.51100000000E-03 0. -1.
    9900012    2    1    2    0    0 -0.18678867377E+02 -0.79175604705E+01  0.24599429028E+02  0.59301956677E+02  0.50000023070E+02 0.  0.
         12    1    1    2    0    0  0.18678867377E+02  0.79175604705E+01 -0.24599429028E+02  0.31886043323E+02  0.00000000000E+00 0. -1.
         11    1    3    3    0    0 -0.20963123151E+02  0.18153410847E+01  0.13231922565E+02  0.24856221968E+02  0.51100000000E-03 0. -1.
        -11    1    3    3    0    0 -0.10788299821E+02 -0.54271671618E+01  0.15890056607E+02  0.19958343010E+02  0.51100000000E-03 0.  1.
         12    1    3    3    0    0  0.13072555595E+02 -0.43057343934E+01 -0.45225501444E+01  0.14487391700E+02  0.00000000000E+00 0. -1.
</event>
<event>
 7    1  0.5837204E-012  0.5930177E+02  0.7816164E-02  0.1266605E+00
        -11   -1    0    0    0    0  0.00000000000E+00  0.00000000000E+00  0.45593999997E+02  0.45594000000E+02  0.51100000000E-03 0.  1.
         11   -1    0    0    0    0 -0.00000000000E+00 -0.00000000000E+00 -0.45593999997E+02  0.45594000000E+02  0.51100000000E-03 0. -1.
    9900012    2    1    2    0    0 -0.71852865063E+01 -0.26210060485E+02  0.16677405154E+02  0.59301773264E+02  0.49999688568E+02 0.  0.
         12    1    1    2    0    0  0.71852865063E+01  0.26210060485E+02 -0.16677405154E+02  0.31886226736E+02  0.00000000000E+00 0. -1.
         11    1    3    3    0    0  0.11024426139E+02 -0.11505744446E+02  0.19946641622E+02  0.25530151571E+02  0.51100000000E-03 0. -1.
        -11    1    3    3    0    0  0.54483104332E+01 -0.63171493956E+01  0.64734334386E+00  0.83671689793E+01  0.51100000000E-03 0.  1.
         12    1    3    3    0    0 -0.23658023079E+02 -0.83871666433E+01 -0.39165798126E+01  0.25404452714E+02  0.00000000000E+00 0. -1.
</event>
<event>
 7    1  0.5837204E-012  0.5930194E+02  0.7816164E-02  0.1266605E+00
        -11   -1    0    0    0    0  0.00000000000E+00  0.00000000000E+00  0.45593999997E+02  0.45594000000E+02  0.51100000000E-03 0.  1.
         11   -1    0    0    0    0 -0.00000000000E+00 -0.00000000000E+00 -0.45593999997E+02  0.45594000000E+02  0.51100000000E-03 0. -1.
    9900012    2    1    2    0    0 -0.15103001380E+01 -0.25710188945E+02  0.18799630271E+02  0.59301938462E+02  0.49999989849E+02 0.  0.
         12    1    1    2    0    0  0.15103001380E+01  0.25710188945E+02 -0.18799630271E+02  0.31886061538E+02  0.00000000000E+00 0. -1.
         11    1    3    3    0    0  0.24662438611E+01 -0.15565288235E+01 -0.37089091237E+01  0.47181720941E+01  0.51100000000E-03 0. -1.
        -11    1    3    3    0    0  0.14392835520E+02  0.59895149701E+00 -0.28313861287E+01  0.14680912944E+02  0.51100000000E-03 0.  1.
        -12    1    3    3    0    0 -0.18369379519E+02 -0.24752611618E+02  0.25339925524E+02  0.39902853424E+02  0.00000000000E+00 0.  1.
</event>
<event>
 7    1  0.5837204E-012  0.5930195E+02  0.7816164E-02  0.1266605E+00
        -11   -1    0    0    0    0  0.00000000000E+00  0.00000000000E+00  0.45593999997E+02  0.45594000000E+02  0.51100000000E-03 0. -1.
         11   -1    0    0    0    0 -0.00000000000E+00 -0.00000000000E+00 -0.45593999997E+02  0.45594000000E+02  0.51100000000E-03 0.  1.
    9900012    2    1    2    0    0  0.28618164957E+02 -0.74369631468E+01 -0.11933662628E+02  0.59301951482E+02  0.50000013595E+02 0.  0.
         12    1    1    2    0    0 -0.28618164957E+02  0.74369631468E+01  0.11933662628E+02  0.31886048518E+02  0.00000000000E+00 0. -1.
         11    1    3    3    0    0 -0.81917620449E+01  0.14159081002E+01 -0.32301659111E+01  0.89187293503E+01  0.51100000000E-03 0. -1.
        -11    1    3    3    0    0  0.19146127601E+02  0.53163718414E+00 -0.19767856141E+02  0.27524988227E+02  0.51100000000E-03 0.  1.
        -12    1    3    3    0    0  0.17663799401E+02 -0.93845084312E+01  0.11064359424E+02  0.22858233905E+02  0.00000000000E+00 0.  1.
</event>
<event>
 7    1  0.5837204E-012  0.5930193E+02  0.7816164E-02  0.1266605E+00
        -11   -1    0    0    0    0  0.00000000000E+00  0.00000000000E+00  0.45593999997E+02  0.45594000000E+02  0.51100000000E-03 0. -1.
         11   -1    0    0    0    0 -0.00000000000E+00 -0.00000000000E+00 -0.45593999997E+02  0.45594000000E+02  0.51100000000E-03 0.  1.
    9900012    2    1    2    0    0  0.11016923107E+02 -0.22751532596E+02 -0.19434932000E+02  0.59301930752E+02  0.49999975789E+02 0.  0.
         12    1    1    2    0    0 -0.11016923107E+02  0.22751532596E+02  0.19434932000E+02  0.31886069248E+02  0.00000000000E+00 0. -1.
         11    1    3    3    0    0  0.12075591908E+02 -0.48351804356E+00  0.75330268626E+01  0.14240793643E+02  0.51100000000E-03 0. -1.
        -11    1    3    3    0    0 -0.51070788474E+01  0.34949493243E+01 -0.15274338468E+02  0.16480362285E+02  0.51100000000E-03 0.  1.
        -12    1    3    3    0    0  0.40484100465E+01 -0.25762963877E+02 -0.11693620395E+02  0.28580774824E+02  0.00000000000E+00 0.  1.
</event>
<event>
 7    1  0.5837204E-012  0.5930194E+02  0.7816164E-02  0.1266605E+00
        -11   -1    0    0    0    0  0.00000000000E+00  0.00000000000E+00  0.45593999997E+02  0.45594000000E+02  0.51100000000E-03 0. -1.
         11   -1    0    0    0    0 -0.00000000000E+00 -0.00000000000E+00 -0.45593999997E+02  0.45594000000E+02  0.51100000000E-03 0.  1.
    9900012    2    1    2    0    0 -0.26258546333E+02 -0.18193441169E+01 -0.17997209170E+02  0.59301940249E+02  0.49999993108E+02 0.  0.
         12    1    1    2    0    0  0.26258546333E+02  0.18193441169E+01  0.17997209170E+02  0.31886059751E+02  0.00000000000E+00 0. -1.
         11    1    3    3    0    0  0.57461064589E+01  0.60560538996E+01  0.20998528217E+01  0.86083047347E+01  0.51100000000E-03 0. -1.
        -11    1    3    3    0    0 -0.30516576727E+01  0.10495288312E+02 -0.10333291839E+02  0.15041296879E+02  0.51100000000E-03 0.  1.
        -12    1    3    3    0    0 -0.28952995120E+02 -0.18370686328E+02 -0.97637701526E+01  0.35652338635E+02  0.00000000000E+00 0.  1.
</event>
<event>
 7    1  0.5837204E-012  0.5930196E+02  0.7816164E-02  0.1266605E+00
        -11   -1    0    0    0    0  0.00000000000E+00  0.00000000000E+00  0.45593999997E+02  0.45594000000E+02  0.51100000000E-03 0.  1.
         11   -1    0    0    0    0 -0.00000000000E+00 -0.00000000000E+00 -0.45593999997E+02  0.45594000000E+02  0.51100000000E-03 0. -1.
    9900012    2    1    2    0    0 -0.31703267265E+02  0.33713527894E+01  0.50652160277E+00  0.59301956987E+02  0.50000023634E+02 0.  0.
         12    1    1    2    0    0  0.31703267265E+02 -0.33713527894E+01 -0.50652160277E+00  0.31886043013E+02  0.00000000000E+00 0. -1.
         11    1    3    3    0    0 -0.15541107879E+02 -0.62156552222E+01 -0.84674041112E+01  0.18757860661E+02  0.51100000000E-03 0. -1.
        -11    1    3    3    0    0  0.95977409232E+01 -0.18244177037E+01 -0.25613614816E+01  0.10099787309E+02  0.51100000000E-03 0.  1.
        -12    1    3    3    0    0 -0.25759900309E+02  0.11411425715E+02  0.11535287196E+02  0.30444309016E+02  0.00000000000E+00 0.  1.
</event>
<event>
 7    1  0.5837204E-012  0.5930196E+02  0.7816164E-02  0.1266605E+00
        -11   -1    0    0    0    0  0.00000000000E+00  0.00000000000E+00  0.45593999997E+02  0.45594000000E+02  0.51100000000E-03 0.  1.
         11   -1    0    0    0    0 -0.00000000000E+00 -0.00000000000E+00 -0.45593999997E+02  0.45594000000E+02  0.51100000000E-03 0. -1.
    9900012    2    1    2    0    0 -0.20923611067E+02  0.63316366516E+01  0.23212769019E+02  0.59301956528E+02  0.50000022798E+02 0.  0.
         12    1    1    2    0    0  0.20923611067E+02 -0.63316366516E+01 -0.23212769019E+02  0.31886043472E+02  0.00000000000E+00 0. -1.
         11    1    3    3    0    0  0.42791400984E+01  0.55643680301E+01 -0.88716680929E+01  0.11312812496E+02  0.51100000000E-03 0. -1.
        -11    1    3    3    0    0 -0.32630455839E+01  0.10796460991E+02  0.74923607528E+01  0.13540550444E+02  0.51100000000E-03 0.  1.
        -12    1    3    3    0    0 -0.21939705582E+02 -0.10029192369E+02  0.24592076359E+02  0.34448593589E+02  0.00000000000E+00 0.  1.
</event>
<event>
 7    1  0.5837204E-012  0.5930192E+02  0.7816164E-02  0.1266605E+00
        -11   -1    0    0    0    0  0.00000000000E+00  0.00000000000E+00  0.45593999997E+02  0.45594000000E+02  0.51100000000E-03 0. -1.
         11   -1    0    0    0    0 -0.00000000000E+00 -0.00000000000E+00 -0.45593999997E+02  0.45594000000E+02  0.51100000000E-03 0.  1.
    9900012    2    1    2    0    0  0.15419074113E+02 -0.15022524976E+02 -0.23522288517E+02  0.59301919020E+02  0.49999954392E+02 0.  0.
         12    1    1    2    0    0 -0.15419074113E+02  0.15022524976E+02  0.23522288517E+02  0.31886080980E+02  0.00000000000E+00 0. -1.
         11    1    3    3    0    0 -0.47690477710E+01 -0.99357432092E+00 -0.35574026550E+01  0.60320908882E+01  0.51100000000E-03 0. -1.
        -11    1    3    3    0    0  0.18851335036E+02  0.11666526115E+02 -0.15755083044E+02  0.27197487131E+02  0.51100000000E-03 0.  1.
         12    1    3    3    0    0  0.13367868482E+01 -0.25695476770E+02 -0.42098028181E+01  0.26072341001E+02  0.00000000000E+00 0. -1.
</event>
<event>
 7    1  0.5837204E-012  0.5930195E+02  0.7816164E-02  0.1266605E+00
        -11   -1    0    0    0    0  0.00000000000E+00  0.00000000000E+00  0.45593999997E+02  0.45594000000E+02  0.51100000000E-03 0. -1.
         11   -1    0    0    0    0 -0.00000000000E+00 -0.00000000000E+00 -0.45593999997E+02  0.45594000000E+02  0.51100000000E-03 0.  1.
    9900012    2    1    2    0    0  0.14154644974E+02  0.22022902333E+02 -0.18203248381E+02  0.59301945789E+02  0.50000003213E+02 0.  0.
         12    1    1    2    0    0 -0.14154644974E+02 -0.22022902333E+02  0.18203248381E+02  0.31886054211E+02  0.00000000000E+00 0. -1.
         11    1    3    3    0    0 -0.98820259374E+01  0.17140501135E+01 -0.11666814615E+02  0.15385284136E+02  0.51100000000E-03 0. -1.
        -11    1    3    3    0    0  0.19191671408E+02  0.12483305915E+02 -0.18065991422E+02  0.29163902762E+02  0.51100000000E-03 0.  1.
        -12    1    3    3    0    0  0.48449995033E+01  0.78255463044E+01  0.11529557657E+02  0.14752758891E+02  0.00000000000E+00 0.  1.
</event>
<event>
 7    1  0.5837204E-012  0.5930193E+02  0.7816164E-02  0.1266605E+00
        -11   -1    0    0    0    0  0.00000000000E+00  0.00000000000E+00  0.45593999997E+02  0.45594000000E+02  0.51100000000E-03 0.  1.
         11   -1    0    0    0    0 -0.00000000000E+00 -0.00000000000E+00 -0.45593999997E+02  0.45594000000E+02  0.51100000000E-03 0. -1.
    9900012    2    1    2    0    0 -0.20158339899E+02 -0.18512297658E+02  0.16360243641E+02  0.59301930878E+02  0.49999976018E+02 0.  0.
         12    1    1    2    0    0  0.20158339899E+02  0.18512297658E+02 -0.16360243641E+02  0.31886069122E+02  0.00000000000E+00 0. -1.
         11    1    3    3    0    0  0.50876807145E+01  0.42825401746E+01 -0.36427262986E+01  0.75824864357E+01  0.51100000000E-03 0. -1.
        -11    1    3    3    0    0  0.30524853002E+01  0.34820931171E+01  0.11188837493E+02  0.12109199961E+02  0.51100000000E-03 0.  1.
        -12    1    3    3    0    0 -0.28298505914E+02 -0.26276930949E+02  0.88141324468E+01  0.39610244481E+02  0.00000000000E+00 0.  1.
</event>
<event>
 7    1  0.5837204E-012  0.5930192E+02  0.7816164E-02  0.1266605E+00
        -11   -1    0    0    0    0  0.00000000000E+00  0.00000000000E+00  0.45593999997E+02  0.45594000000E+02  0.51100000000E-03 0.  1.
         11   -1    0    0    0    0 -0.00000000000E+00 -0.00000000000E+00 -0.45593999997E+02  0.45594000000E+02  0.51100000000E-03 0. -1.
    9900012    2    1    2    0    0  0.22032403261E+02  0.93115096555E+01  0.21085334505E+02  0.59301916253E+02  0.49999949346E+02 0.  0.
         12    1    1    2    0    0 -0.22032403261E+02 -0.93115096555E+01 -0.21085334505E+02  0.31886083747E+02  0.00000000000E+00 0. -1.
         11    1    3    3    0    0 -0.84534627750E+01  0.44963272395E+01  0.91534883409E+01  0.13246295354E+02  0.51100000000E-03 0. -1.
        -11    1    3    3    0    0  0.95605219284E+01  0.15665518138E+02  0.12951735701E+02  0.22462401831E+02  0.51100000000E-03 0.  1.
        -12    1    3    3    0    0  0.20925344108E+02 -0.10850335722E+02 -0.10198895371E+01  0.23593219068E+02  0.00000000000E+00 0.  1.
</event>
<event>
 7    1  0.5837204E-012  0.5930195E+02  0.7816164E-02  0.1266605E+00
        -11   -1    0    0    0    0  0.00000000000E+00  0.00000000000E+00  0.45593999997E+02  0.45594000000E+02  0.51100000000E-03 0.  1.
         11   -1    0    0    0    0 -0.00000000000E+00 -0.00000000000E+00 -0.45593999997E+02  0.45594000000E+02  0.51100000000E-03 0. -1.
    9900012    2    1    2    0    0 -0.55242869324E+01 -0.15229231164E+02  0.27464027159E+02  0.59301952648E+02  0.50000015721E+02 0.  0.
         12    1    1    2    0    0  0.55242869324E+01  0.15229231164E+02 -0.27464027159E+02  0.31886047352E+02  0.00000000000E+00 0. -1.
         11    1    3    3    0    0  0.13440792693E+02 -0.82393515018E+01  0.13123287093E+02  0.20512495845E+02  0.51100000000E-03 0. -1.
        -11    1    3    3    0    0  0.30774171920E+01  0.11885095589E+01  0.14911167816E+02  0.15271737866E+02  0.51100000000E-03 0.  1.
         12    1    3    3    0    0 -0.22042496818E+02 -0.81783892207E+01 -0.57042774951E+00  0.23517718937E+02  0.00000000000E+00 0. -1.
</event>
<event>
 7    1  0.5837204E-012  0.5930193E+02  0.7816164E-02  0.1266605E+00
        -11   -1    0    0    0    0  0.00000000000E+00  0.00000000000E+00  0.45593999997E+02  0.45594000000E+02  0.51100000000E-03 0.  1.
         11   -1    0    0    0    0 -0.00000000000E+00 -0.00000000000E+00 -0.45593999997E+02  0.45594000000E+02  0.51100000000E-03 0. -1.
    9900012    2    1    2    0    0  0.52162729183E+01  0.17563623526E+01  0.31407439460E+02  0.59301928350E+02  0.49999971407E+02 0.  0.
         12    1    1    2    0    0 -0.52162729183E+01 -0.17563623526E+01 -0.31407439460E+02  0.31886071650E+02  0.00000000000E+00 0. -1.
         11    1    3    3    0    0  0.68663547883E-02 -0.66397241429E+01  0.82732262804E+00  0.66910721736E+01  0.51100000000E-03 0. -1.
        -11    1    3    3    0    0 -0.16286981804E+02 -0.53758504599E+01  0.10298959685E+02  0.20005852027E+02  0.51100000000E-03 0.  1.
        -12    1    3    3    0    0  0.21496388368E+02  0.13771936955E+02  0.20281157147E+02  0.32605004150E+02  0.00000000000E+00 0.  1.
</event>
<event>
 7    1  0.5837204E-012  0.5930195E+02  0.7816164E-02  0.1266605E+00
        -11   -1    0    0    0    0  0.00000000000E+00  0.00000000000E+00  0.45593999997E+02  0.45594000000E+02  0.51100000000E-03 0. -1.
         11   -1    0    0    0    0 -0.00000000000E+00 -0.00000000000E+00 -0.45593999997E+02  0.45594000000E+02  0.51100000000E-03 0.  1.
    9900012    2    1    2    0    0  0.55946288857E+01  0.29460037572E+02 -0.10840953401E+02  0.59301953573E+02  0.50000017409E+02 0.  0.
         12    1    1    2    0    0 -0.55946288857E+01 -0.29460037572E+02  0.10840953401E+02  0.31886046427E+02  0.00000000000E+00 0. -1.
         11    1    3    3    0    0 -0.11246240671E+02 -0.94009322183E+01 -0.53568758470E+01  0.15606139013E+02  0.51100000000E-03 0. -1.
        -11    1    3    3    0    0  0.16612879965E+01  0.63176962001E+01 -0.41946855287E+01  0.77632821686E+01  0.51100000000E-03 0.  1.
        -12    1    3    3    0    0  0.15179581560E+02  0.32543273590E+02 -0.12893920255E+01  0.35932532391E+02  0.00000000000E+00 0.  1.
</event>
<event>
 7    1  0.5837204E-012  0.5930194E+02  0.7816164E-02  0.1266605E+00
        -11   -1    0    0    0    0  0.00000000000E+00  0.00000000000E+00  0.45593999997E+02  0.45594000000E+02  0.51100000000E-03 0. -1.
         11   -1    0    0    0    0 -0.00000000000E+00 -0.00000000000E+00 -0.45593999997E+02  0.45594000000E+02  0.51100000000E-03 0.  1.
    9900012    2    1    2    0    0  0.30982567129E+02 -0.10944889286E+01  0.74567911760E+01  0.59301935543E+02  0.49999984526E+02 0.  0.
         12    1    1    2    0    0 -0.30982567129E+02  0.10944889286E+01 -0.74567911760E+01  0.31886064457E+02  0.00000000000E+00 0. -1.
         11    1    3    3    0    0 -0.39193454790E+01 -0.75640941048E+00  0.88691548209E+01  0.97260131440E+01  0.51100000000E-03 0. -1.
        -11    1    3    3    0    0  0.58701586448E+01  0.11691090431E+02  0.96546482535E+01  0.16258923431E+02  0.51100000000E-03 0.  1.
        -12    1    3    3    0    0  0.29031753963E+02 -0.12029169949E+02 -0.11067011898E+02  0.33316998968E+02  0.00000000000E+00 0.  1.
</event>
<event>
 7    1  0.5837204E-012  0.5930194E+02  0.7816164E-02  0.1266605E+00
        -11   -1    0    0    0    0  0.00000000000E+00  0.00000000000E+00  0.45593999997E+02  0.45594000000E+02  0.51100000000E-03 0.  1.
         11   -1    0    0    0    0 -0.00000000000E+00 -0.00000000000E+00 -0.45593999997E+02  0.45594000000E+02  0.51100000000E-03 0. -1.
    9900012    2    1    2    0    0  0.23825658427E+02  0.19297673768E+02 -0.87555002125E+01  0.59301937272E+02  0.49999987678E+02 0.  0.
         12    1    1    2    0    0 -0.23825658427E+02 -0.19297673768E+02  0.87555002125E+01  0.31886062728E+02  0.00000000000E+00 0. -1.
         11    1    3    3    0    0  0.14578957517E+02  0.15547684225E+02 -0.96747346788E+01  0.23406772063E+02  0.51100000000E-03 0. -1.
        -11    1    3    3    0    0  0.16483844733E+02  0.13393565235E+02  0.70371445081E+01  0.22374676087E+02  0.51100000000E-03 0.  1.
         12    1    3    3    0    0 -0.72371438224E+01 -0.96435756918E+01 -0.61179100418E+01  0.13520489122E+02  0.00000000000E+00 0. -1.
</event>
<event>
 7    1  0.5837204E-012  0.5930197E+02  0.7816164E-02  0.1266605E+00
        -11   -1    0    0    0    0  0.00000000000E+00  0.00000000000E+00  0.45593999997E+02  0.45594000000E+02  0.51100000000E-03 0. -1.
         11   -1    0    0    0    0 -0.00000000000E+00 -0.00000000000E+00 -0.45593999997E+02  0.45594000000E+02  0.51100000000E-03 0.  1.
    9900012    2    1    2    0    0 -0.10565976605E+02  0.26344160005E+02 -0.14528055692E+02  0.59301968102E+02  0.50000043906E+02 0.  0.
         12    1    1    2    0    0  0.10565976605E+02 -0.26344160005E+02  0.14528055692E+02  0.31886031898E+02  0.00000000000E+00 0. -1.
         11    1    3    3    0    0 -0.11335012035E+02  0.26876671101E+02 -0.20869256590E+01  0.29243686606E+02  0.51100000000E-03 0. -1.
        -11    1    3    3    0    0 -0.78723692420E+01  0.27359310784E+01  0.54252593431E+01  0.99444937301E+01  0.51100000000E-03 0.  1.
        -12    1    3    3    0    0  0.86414046727E+01 -0.32684421741E+01 -0.17866389376E+02  0.20113787766E+02  0.00000000000E+00 0.  1.
</event>
<event>
 7    1  0.5837204E-012  0.5930201E+02  0.7816164E-02  0.1266605E+00
        -11   -1    0    0    0    0  0.00000000000E+00  0.00000000000E+00  0.45593999997E+02  0.45594000000E+02  0.51100000000E-03 0.  1.
         11   -1    0    0    0    0 -0.00000000000E+00 -0.00000000000E+00 -0.45593999997E+02  0.45594000000E+02  0.51100000000E-03 0. -1.
    9900012    2    1    2    0    0 -0.10511006183E+02 -0.76537004551E+01  0.29114534505E+02  0.59302007760E+02  0.50000116233E+02 0.  0.
         12    1    1    2    0    0  0.10511006183E+02  0.76537004551E+01 -0.29114534505E+02  0.31885992240E+02  0.00000000000E+00 0. -1.
         11    1    3    3    0    0 -0.22481400254E+01 -0.11574134314E+01 -0.11963286256E+02  0.12227590022E+02  0.51100000000E-03 0. -1.
        -11    1    3    3    0    0 -0.79503605705E+00  0.47106455461E+01  0.11180733996E+01  0.49063583421E+01  0.51100000000E-03 0.  1.
        -12    1    3    3    0    0 -0.74678301006E+01 -0.11206932570E+02  0.39959747362E+02  0.42168059397E+02  0.00000000000E+00 0.  1.
</event>
<event>
 7    1  0.5837204E-012  0.5930194E+02  0.7816164E-02  0.1266605E+00
        -11   -1    0    0    0    0  0.00000000000E+00  0.00000000000E+00  0.45593999997E+02  0.45594000000E+02  0.51100000000E-03 0. -1.
         11   -1    0    0    0    0 -0.00000000000E+00 -0.00000000000E+00 -0.45593999997E+02  0.45594000000E+02  0.51100000000E-03 0.  1.
    9900012    2    1    2    0    0 -0.17014480479E+02  0.14116229761E+02 -0.22977384939E+02  0.59301941804E+02  0.49999995945E+02 0.  0.
         12    1    1    2    0    0  0.17014480479E+02 -0.14116229761E+02  0.22977384939E+02  0.31886058196E+02  0.00000000000E+00 0. -1.
         11    1    3    3    0    0 -0.88403696210E+01 -0.15964440061E+02 -0.18209891996E+02  0.25780140579E+02  0.51100000000E-03 0. -1.
        -11    1    3    3    0    0  0.23169607246E+01  0.10631097296E+02  0.15427192232E+00  0.10881743279E+02  0.51100000000E-03 0.  1.
        -12    1    3    3    0    0 -0.10491071582E+02  0.19449572526E+02 -0.49217648657E+01  0.22640057946E+02  0.00000000000E+00 0.  1.
</event>
<event>
 7    1  0.5837204E-012  0.5930192E+02  0.7816164E-02  0.1266605E+00
        -11   -1    0    0    0    0  0.00000000000E+00  0.00000000000E+00  0.45593999997E+02  0.45594000000E+02  0.51100000000E-03 0. -1.
         11   -1    0    0    0    0 -0.00000000000E+00 -0.00000000000E+00 -0.45593999997E+02  0.45594000000E+02  0.51100000000E-03 0.  1.
    9900012    2    1    2    0    0 -0.17220723397E+01  0.79014589110E+01 -0.30843529851E+02  0.59301922792E+02  0.49999961271E+02 0.  0.
         12    1    1    2    0    0  0.17220723397E+01 -0.79014589110E+01  0.30843529851E+02  0.31886077208E+02  0.00000000000E+00 0. -1.
         11    1    3    3    0    0  0.95335099795E+01  0.60575065279E-01 -0.71658749679E+01  0.11926493457E+02  0.51100000000E-03 0. -1.
        -11    1    3    3    0    0  0.61488441382E+01 -0.12546133215E+02 -0.10671321360E+02  0.17580979572E+02  0.51100000000E-03 0.  1.
        -12    1    3    3    0    0 -0.17404426457E+02  0.20387017061E+02 -0.13006333523E+02  0.29794449763E+02  0.00000000000E+00 0.  1.
</event>
<event>
 7    1  0.5837204E-012  0.5930195E+02  0.7816164E-02  0.1266605E+00
        -11   -1    0    0    0    0  0.00000000000E+00  0.00000000000E+00  0.45593999997E+02  0.45594000000E+02  0.51100000000E-03 0.  1.
         11   -1    0    0    0    0 -0.00000000000E+00 -0.00000000000E+00 -0.45593999997E+02  0.45594000000E+02  0.51100000000E-03 0. -1.
    9900012    2    1    2    0    0 -0.53902954129E+01 -0.31393625168E+02  0.14510237418E+01  0.59301945748E+02  0.50000003138E+02 0.  0.
         12    1    1    2    0    0  0.53902954129E+01  0.31393625168E+02 -0.14510237418E+01  0.31886054252E+02  0.00000000000E+00 0. -1.
         11    1    3    3    0    0 -0.13639482964E+02 -0.23422688991E+02 -0.71831144215E+01  0.28040238732E+02  0.51100000000E-03 0. -1.
        -11    1    3    3    0    0 -0.60046394560E+01  0.37585130409E+01 -0.46900652464E+01  0.84958123538E+01  0.51100000000E-03 0.  1.
        -12    1    3    3    0    0  0.14253827007E+02 -0.11729449218E+02  0.13324203410E+02  0.22765894663E+02  0.00000000000E+00 0.  1.
</event>
<event>
 7    1  0.5837204E-012  0.5930197E+02  0.7816164E-02  0.1266605E+00
        -11   -1    0    0    0    0  0.00000000000E+00  0.00000000000E+00  0.45593999997E+02  0.45594000000E+02  0.51100000000E-03 0.  1.
         11   -1    0    0    0    0 -0.00000000000E+00 -0.00000000000E+00 -0.45593999997E+02  0.45594000000E+02  0.51100000000E-03 0. -1.
    9900012    2    1    2    0    0 -0.13814819293E+02  0.27813074559E+02  0.72320465762E+01  0.59301970987E+02  0.50000049168E+02 0.  0.
         12    1    1    2    0    0  0.13814819293E+02 -0.27813074559E+02 -0.72320465762E+01  0.31886029013E+02  0.00000000000E+00 0. -1.
         11    1    3    3    0    0 -0.22183985284E+02  0.10053261303E+02 -0.87916865955E+01  0.25893841341E+02  0.51100000000E-03 0. -1.
        -11    1    3    3    0    0 -0.57548542652E+01 -0.12150751556E+00  0.65791596407E+01  0.87417648979E+01  0.51100000000E-03 0.  1.
         12    1    3    3    0    0  0.14124020257E+02  0.17881320771E+02  0.94445735310E+01  0.24666364749E+02  0.00000000000E+00 0. -1.
</event>
<event>
 7    1  0.5837204E-012  0.5930199E+02  0.7816164E-02  0.1266605E+00
        -11   -1    0    0    0    0  0.00000000000E+00  0.00000000000E+00  0.45593999997E+02  0.45594000000E+02  0.51100000000E-03 0. -1.
         11   -1    0    0    0    0 -0.00000000000E+00 -0.00000000000E+00 -0.45593999997E+02  0.45594000000E+02  0.51100000000E-03 0.  1.
    9900012    2    1    2    0    0  0.30201488310E+02  0.10009467277E+02  0.20972392765E+01  0.59301988272E+02  0.50000080691E+02 0.  0.
         12    1    1    2    0    0 -0.30201488310E+02 -0.10009467277E+02 -0.20972392765E+01  0.31886011728E+02  0.00000000000E+00 0. -1.
         11    1    3    3    0    0  0.82967800637E+01  0.13790953169E+01  0.40583573214E+01  0.93385613307E+01  0.51100000000E-03 0. -1.
        -11    1    3    3    0    0 -0.91407727337E-01 -0.41627740185E+01  0.17462083490E+02  0.17951640677E+02  0.51100000000E-03 0.  1.
        -12    1    3    3    0    0  0.21996115974E+02  0.12793145978E+02 -0.19423201535E+02  0.32011786265E+02  0.00000000000E+00 0.  1.
</event>
<event>
 7    1  0.5837204E-012  0.5930193E+02  0.7816164E-02  0.1266605E+00
        -11   -1    0    0    0    0  0.00000000000E+00  0.00000000000E+00  0.45593999997E+02  0.45594000000E+02  0.51100000000E-03 0.  1.
         11   -1    0    0    0    0 -0.00000000000E+00 -0.00000000000E+00 -0.45593999997E+02  0.45594000000E+02  0.51100000000E-03 0. -1.
    9900012    2    1    2    0    0 -0.30806921758E+02  0.65112507109E+01  0.50257718926E+01  0.59301934123E+02  0.49999981936E+02 0.  0.
         12    1    1    2    0    0  0.30806921758E+02 -0.65112507109E+01 -0.50257718926E+01  0.31886065877E+02  0.00000000000E+00 0. -1.
         11    1    3    3    0    0 -0.74992315381E+01 -0.10427210009E+02 -0.43089551201E+01  0.13547408488E+02  0.51100000000E-03 0. -1.
        -11    1    3    3    0    0 -0.16779257695E+01 -0.93652505642E+01 -0.22615327770E+01  0.97794623462E+01  0.51100000000E-03 0.  1.
        -12    1    3    3    0    0 -0.21629764450E+02  0.26303711285E+02  0.11596259790E+02  0.35975063289E+02  0.00000000000E+00 0.  1.
</event>
<event>
 7    1  0.5837204E-012  0.5930191E+02  0.7816164E-02  0.1266605E+00
        -11   -1    0    0    0    0  0.00000000000E+00  0.00000000000E+00  0.45593999997E+02  0.45594000000E+02  0.51100000000E-03 0.  1.
         11   -1    0    0    0    0 -0.00000000000E+00 -0.00000000000E+00 -0.45593999997E+02  0.45594000000E+02  0.51100000000E-03 0. -1.
    9900012    2    1    2    0    0  0.17548510457E+02 -0.71620696836E+01  0.25641325572E+02  0.59301905248E+02  0.49999929276E+02 0.  0.
         12    1    1    2    0    0 -0.17548510457E+02  0.71620696836E+01 -0.25641325572E+02  0.31886094752E+02  0.00000000000E+00 0. -1.
         11    1    3    3    0    0 -0.10059331077E+02  0.39457529396E+01 -0.80866464501E+00  0.10835730097E+02  0.51100000000E-03 0. -1.
        -11    1    3    3    0    0  0.12638169894E+02 -0.17000170718E+02  0.24297786498E+02  0.32235253554E+02  0.51100000000E-03 0.  1.
         12    1    3    3    0    0  0.14969671639E+02  0.58923480948E+01  0.21522037192E+01  0.16230921597E+02  0.00000000000E+00 0. -1.
</event>
<event>
 7    1  0.5837204E-012  0.5930194E+02  0.7816164E-02  0.1266605E+00
        -11   -1    0    0    0    0  0.00000000000E+00  0.00000000000E+00  0.45593999997E+02  0.45594000000E+02  0.51100000000E-03 0.  1.
         11   -1    0    0    0    0 -0.00000000000E+00 -0.00000000000E+00 -0.45593999997E+02  0.45594000000E+02  0.51100000000E-03 0. -1.
    9900012    2    1    2    0    0  0.31432317787E+02  0.18692860085E+01  0.50235307974E+01  0.59301942023E+02  0.49999996344E+02 0.  0.
         12    1    1    2    0    0 -0.31432317787E+02 -0.18692860085E+01 -0.50235307974E+01  0.31886057977E+02  0.00000000000E+00 0. -1.
         11    1    3    3    0    0  0.62846245628E+01  0.14944851596E+00  0.65524824190E+00  0.63204581538E+01  0.51100000000E-03 0.  1.
        -11    1    3    3    0    0  0.36830356562E+01  0.22396163262E+02  0.46894565886E+01  0.23176364768E+02  0.51100000000E-03 0. -1.
         12    1    3    3    0    0  0.21464657568E+02 -0.20676325770E+02 -0.32117403312E+00  0.29805119101E+02  0.00000000000E+00 0. -1.
</event>
<event>
 7    1  0.5837204E-012  0.5930196E+02  0.7816164E-02  0.1266605E+00
        -11   -1    0    0    0    0  0.00000000000E+00  0.00000000000E+00  0.45593999997E+02  0.45594000000E+02  0.51100000000E-03 0.  1.
         11   -1    0    0    0    0 -0.00000000000E+00 -0.00000000000E+00 -0.45593999997E+02  0.45594000000E+02  0.51100000000E-03 0. -1.
    9900012    2    1    2    0    0  0.28037145241E+02 -0.11441588031E+02  0.99863900849E+01  0.59301961725E+02  0.50000032275E+02 0.  0.
         12    1    1    2    0    0 -0.28037145241E+02  0.11441588031E+02 -0.99863900849E+01  0.31886038275E+02  0.00000000000E+00 0. -1.
         11    1    3    3    0    0 -0.23426529613E+01 -0.10310672754E+02  0.15317867461E+01  0.10683836691E+02  0.51100000000E-03 0. -1.
        -11    1    3    3    0    0  0.28724065123E+02 -0.15119947724E+02  0.11059118771E+02  0.34292693750E+02  0.51100000000E-03 0.  1.
         12    1    3    3    0    0  0.16557330796E+01  0.13989032447E+02 -0.26045154322E+01  0.14325431284E+02  0.00000000000E+00 0. -1.
</event>
<event>
 7    1  0.5837204E-012  0.5930197E+02  0.7816164E-02  0.1266605E+00
        -11   -1    0    0    0    0  0.00000000000E+00  0.00000000000E+00  0.45593999997E+02  0.45594000000E+02  0.51100000000E-03 0. -1.
         11   -1    0    0    0    0 -0.00000000000E+00 -0.00000000000E+00 -0.45593999997E+02  0.45594000000E+02  0.51100000000E-03 0.  1.
    9900012    2    1    2    0    0  0.23829061267E+02  0.20361932343E+02  0.58554376797E+01  0.59301974847E+02  0.50000056208E+02 0.  0.
         12    1    1    2    0    0 -0.23829061267E+02 -0.20361932343E+02 -0.58554376797E+01  0.31886025153E+02  0.00000000000E+00 0. -1.
         11    1    3    3    0    0  0.20344138546E+01  0.10648147122E+02 -0.18527895025E+01  0.10997940992E+02  0.51100000000E-03 0. -1.
        -11    1    3    3    0    0  0.27016837729E+02  0.19342504209E+02  0.13557275199E+02  0.35886511408E+02  0.51100000000E-03 0.  1.
         12    1    3    3    0    0 -0.52221903168E+01 -0.96287189875E+01 -0.58490480164E+01  0.12417522448E+02  0.00000000000E+00 0. -1.
</event>
<event>
 7    1  0.5837204E-012  0.5930192E+02  0.7816164E-02  0.1266605E+00
        -11   -1    0    0    0    0  0.00000000000E+00  0.00000000000E+00  0.45593999997E+02  0.45594000000E+02  0.51100000000E-03 0. -1.
         11   -1    0    0    0    0 -0.00000000000E+00 -0.00000000000E+00 -0.45593999997E+02  0.45594000000E+02  0.51100000000E-03 0.  1.
    9900012    2    1    2    0    0 -0.16906775581E+02 -0.18516161030E+02 -0.19698601447E+02  0.59301918730E+02  0.49999953862E+02 0.  0.
         12    1    1    2    0    0  0.16906775581E+02  0.18516161030E+02  0.19698601447E+02  0.31886081270E+02  0.00000000000E+00 0. -1.
         11    1    3    3    0    0 -0.23128582288E+02 -0.94736629729E+01  0.39756694317E+01  0.25307855628E+02  0.51100000000E-03 0. -1.
        -11    1    3    3    0    0 -0.26615057802E+00  0.52921052224E+01  0.31153718172E+00  0.53079439986E+01  0.51100000000E-03 0.  1.
        -12    1    3    3    0    0  0.64879572851E+01 -0.14334603279E+02 -0.23985808060E+02  0.28686119103E+02  0.00000000000E+00 0.  1.
</event>
<event>
 7    1  0.5837204E-012  0.5930195E+02  0.7816164E-02  0.1266605E+00
        -11   -1    0    0    0    0  0.00000000000E+00  0.00000000000E+00  0.45593999997E+02  0.45594000000E+02  0.51100000000E-03 0.  1.
         11   -1    0    0    0    0 -0.00000000000E+00 -0.00000000000E+00 -0.45593999997E+02  0.45594000000E+02  0.51100000000E-03 0. -1.
    9900012    2    1    2    0    0  0.24451298479E+02  0.10503130416E+02  0.17565264870E+02  0.59301948570E+02  0.50000008285E+02 0.  0.
         12    1    1    2    0    0 -0.24451298479E+02 -0.10503130416E+02 -0.17565264870E+02  0.31886051430E+02  0.00000000000E+00 0. -1.
         11    1    3    3    0    0  0.87986497240E+00 -0.13991408376E+02  0.16635424964E+01  0.14117402191E+02  0.51100000000E-03 0. -1.
        -11    1    3    3    0    0  0.12823901277E+02  0.22156797419E+01  0.15772700923E+02  0.20448466333E+02  0.51100000000E-03 0.  1.
         12    1    3    3    0    0  0.10747532229E+02  0.22278859050E+02  0.12902145081E+00  0.24736080047E+02  0.00000000000E+00 0. -1.
</event>
<event>
 7    1  0.5837204E-012  0.5930197E+02  0.7816164E-02  0.1266605E+00
        -11   -1    0    0    0    0  0.00000000000E+00  0.00000000000E+00  0.45593999997E+02  0.45594000000E+02  0.51100000000E-03 0. -1.
         11   -1    0    0    0    0 -0.00000000000E+00 -0.00000000000E+00 -0.45593999997E+02  0.45594000000E+02  0.51100000000E-03 0.  1.
    9900012    2    1    2    0    0 -0.29524558747E+02 -0.11485540996E+02 -0.36196436694E+01  0.59301967926E+02  0.50000043584E+02 0.  0.
         12    1    1    2    0    0  0.29524558747E+02  0.11485540996E+02  0.36196436694E+01  0.31886032074E+02  0.00000000000E+00 0. -1.
         11    1    3    3    0    0  0.35459617689E+01  0.11580720781E+01  0.64923468443E+01  0.74876928096E+01  0.51100000000E-03 0.  1.
        -11    1    3    3    0    0 -0.70466723466E+01 -0.18991951817E+02  0.52614768208E+01  0.20929237052E+02  0.51100000000E-03 0. -1.
        -12    1    3    3    0    0 -0.26023848169E+02  0.63483387435E+01 -0.15373467334E+02  0.30885038064E+02  0.00000000000E+00 0.  1.
</event>
<event>
 7    1  0.5837204E-012  0.5930195E+02  0.7816164E-02  0.1266605E+00
        -11   -1    0    0    0    0  0.00000000000E+00  0.00000000000E+00  0.45593999997E+02  0.45594000000E+02  0.51100000000E-03 0.  1.
         11   -1    0    0    0    0 -0.00000000000E+00 -0.00000000000E+00 -0.45593999997E+02  0.45594000000E+02  0.51100000000E-03 0. -1.
    9900012    2    1    2    0    0  0.27220537545E+02  0.14190807892E+02  0.86245837489E+01  0.59301950736E+02  0.50000012234E+02 0.  0.
         12    1    1    2    0    0 -0.27220537545E+02 -0.14190807892E+02 -0.86245837489E+01  0.31886049264E+02  0.00000000000E+00 0. -1.
         11    1    3    3    0    0  0.62107919577E+01 -0.56061936088E+01  0.14419662573E+02  0.16671233083E+02  0.51100000000E-03 0. -1.
        -11    1    3    3    0    0  0.11216334033E+02  0.38525860917E+01  0.11954771334E+02  0.16839392110E+02  0.51100000000E-03 0.  1.
         12    1    3    3    0    0  0.97934115537E+01  0.15944415409E+02 -0.17749850158E+02  0.25791325542E+02  0.00000000000E+00 0. -1.
</event>
<event>
 7    1  0.5837204E-012  0.5930189E+02  0.7816164E-02  0.1266605E+00
        -11   -1    0    0    0    0  0.00000000000E+00  0.00000000000E+00  0.45593999997E+02  0.45594000000E+02  0.51100000000E-03 0.  1.
         11   -1    0    0    0    0 -0.00000000000E+00 -0.00000000000E+00 -0.45593999997E+02  0.45594000000E+02  0.51100000000E-03 0. -1.
    9900012    2    1    2    0    0 -0.92680597098E+01 -0.19949792189E+02  0.23083169367E+02  0.59301892567E+02  0.49999906149E+02 0.  0.
         12    1    1    2    0    0  0.92680597098E+01  0.19949792189E+02 -0.23083169367E+02  0.31886107433E+02  0.00000000000E+00 0. -1.
         11    1    3    3    0    0  0.40312123953E+01 -0.84995081059E+00  0.57482704003E+01  0.70721780671E+01  0.51100000000E-03 0. -1.
        -11    1    3    3    0    0 -0.14497051155E+02  0.97955396783E+01  0.15292619682E+02  0.23237497860E+02  0.51100000000E-03 0.  1.
        -12    1    3    3    0    0  0.11977790504E+01 -0.28895381057E+02  0.20422792854E+01  0.28992216641E+02  0.00000000000E+00 0.  1.
</event>
<event>
 7    1  0.5837204E-012  0.5930193E+02  0.7816164E-02  0.1266605E+00
        -11   -1    0    0    0    0  0.00000000000E+00  0.00000000000E+00  0.45593999997E+02  0.45594000000E+02  0.51100000000E-03 0. -1.
         11   -1    0    0    0    0 -0.00000000000E+00 -0.00000000000E+00 -0.45593999997E+02  0.45594000000E+02  0.51100000000E-03 0.  1.
    9900012    2    1    2    0    0 -0.30736030244E+01 -0.21286251772E+02 -0.23540807161E+02  0.59301934833E+02  0.49999983231E+02 0.  0.
         12    1    1    2    0    0  0.30736030244E+01  0.21286251772E+02  0.23540807161E+02  0.31886065167E+02  0.00000000000E+00 0. -1.
         11    1    3    3    0    0 -0.12309710518E+02 -0.46991466335E+01  0.17508455373E+01  0.13291967968E+02  0.51100000000E-03 0. -1.
        -11    1    3    3    0    0  0.33641945867E+01 -0.24994247183E+02 -0.90350209801E+01  0.26789210549E+02  0.51100000000E-03 0.  1.
        -12    1    3    3    0    0  0.58719129069E+01  0.84071420446E+01 -0.16256631718E+02  0.19220756316E+02  0.00000000000E+00 0.  1.
</event>
<event>
 7    1  0.5837204E-012  0.5930192E+02  0.7816164E-02  0.1266605E+00
        -11   -1    0    0    0    0  0.00000000000E+00  0.00000000000E+00  0.45593999997E+02  0.45594000000E+02  0.51100000000E-03 0. -1.
         11   -1    0    0    0    0 -0.00000000000E+00 -0.00000000000E+00 -0.45593999997E+02  0.45594000000E+02  0.51100000000E-03 0.  1.
    9900012    2    1    2    0    0 -0.22852971008E+02  0.51781461268E+01 -0.21625225856E+02  0.59301923500E+02  0.49999962563E+02 0.  0.
         12    1    1    2    0    0  0.22852971008E+02 -0.51781461268E+01  0.21625225856E+02  0.31886076500E+02  0.00000000000E+00 0. -1.
         11    1    3    3    0    0 -0.16291660152E+02  0.65680439177E+01  0.77600975272E+01  0.19203554497E+02  0.51100000000E-03 0. -1.
        -11    1    3    3    0    0 -0.16458684557E+02  0.20468717920E+01 -0.15474598998E+02  0.22683500521E+02  0.51100000000E-03 0.  1.
        -12    1    3    3    0    0  0.98973737010E+01 -0.34367695828E+01 -0.13910724386E+02  0.17414868483E+02  0.00000000000E+00 0.  1.
</event>
<event>
 7    1  0.5837204E-012  0.5930192E+02  0.7816164E-02  0.1266605E+00
        -11   -1    0    0    0    0  0.00000000000E+00  0.00000000000E+00  0.45593999997E+02  0.45594000000E+02  0.51100000000E-03 0.  1.
         11   -1    0    0    0    0 -0.00000000000E+00 -0.00000000000E+00 -0.45593999997E+02  0.45594000000E+02  0.51100000000E-03 0. -1.
    9900012    2    1    2    0    0  0.21253853545E+02  0.13692215856E+02  0.19429853976E+02  0.59301916968E+02  0.49999950650E+02 0.  0.
         12    1    1    2    0    0 -0.21253853545E+02 -0.13692215856E+02 -0.19429853976E+02  0.31886083032E+02  0.00000000000E+00 0. -1.
         11    1    3    3    0    0  0.61619611152E+01 -0.42862726264E+01  0.22595490786E+02  0.23809622045E+02  0.51100000000E-03 0. -1.
        -11    1    3    3    0    0  0.27868637677E+01  0.90970180279E+01  0.11130987522E+02  0.14643129110E+02  0.51100000000E-03 0.  1.
         12    1    3    3    0    0  0.12305028662E+02  0.88814704546E+01 -0.14296624332E+02  0.20849165813E+02  0.00000000000E+00 0. -1.
</event>
<event>
 7    1  0.5837204E-012  0.5930194E+02  0.7816164E-02  0.1266605E+00
        -11   -1    0    0    0    0  0.00000000000E+00  0.00000000000E+00  0.45593999997E+02  0.45594000000E+02  0.51100000000E-03 0.  1.
         11   -1    0    0    0    0 -0.00000000000E+00 -0.00000000000E+00 -0.45593999997E+02  0.45594000000E+02  0.51100000000E-03 0. -1.
    9900012    2    1    2    0    0 -0.82764005700E+01  0.92717479920E+01  0.29364209053E+02  0.59301938930E+02  0.49999990704E+02 0.  0.
         12    1    1    2    0    0  0.82764005700E+01 -0.92717479920E+01 -0.29364209053E+02  0.31886061070E+02  0.00000000000E+00 0. -1.
         11    1    3    3    0    0 -0.34890761931E+01 -0.18245810491E+02  0.69431851203E+01  0.19831567589E+02  0.51100000000E-03 0. -1.
        -11    1    3    3    0    0  0.57082048824E+01  0.48023051490E+01  0.53138430862E+01  0.91587480766E+01  0.51100000000E-03 0.  1.
        -12    1    3    3    0    0 -0.10495529259E+02  0.22715253334E+02  0.17107180847E+02  0.30311623265E+02  0.00000000000E+00 0.  1.
</event>
<event>
 7    1  0.5837204E-012  0.5930195E+02  0.7816164E-02  0.1266605E+00
        -11   -1    0    0    0    0  0.00000000000E+00  0.00000000000E+00  0.45593999997E+02  0.45594000000E+02  0.51100000000E-03 0.  1.
         11   -1    0    0    0    0 -0.00000000000E+00 -0.00000000000E+00 -0.45593999997E+02  0.45594000000E+02  0.51100000000E-03 0. -1.
    9900012    2    1    2    0    0  0.23097727258E+02  0.15407158002E+02  0.15679121280E+02  0.59301947151E+02  0.50000005695E+02 0.  0.
         12    1    1    2    0    0 -0.23097727258E+02 -0.15407158002E+02 -0.15679121280E+02  0.31886052849E+02  0.00000000000E+00 0. -1.
         11    1    3    3    0    0  0.45894530614E+01 -0.74539276719E+01  0.14895218990E+02  0.17276911361E+02  0.51100000000E-03 0. -1.
        -11    1    3    3    0    0  0.15229895119E+02  0.89012758221E+01  0.14002552883E+02  0.22522297931E+02  0.51100000000E-03 0.  1.
         12    1    3    3    0    0  0.32783790778E+01  0.13959809852E+02 -0.13218650593E+02  0.19502737859E+02  0.00000000000E+00 0. -1.
</event>
<event>
 7    1  0.5837204E-012  0.5930193E+02  0.7816164E-02  0.1266605E+00
        -11   -1    0    0    0    0  0.00000000000E+00  0.00000000000E+00  0.45593999997E+02  0.45594000000E+02  0.51100000000E-03 0.  1.
         11   -1    0    0    0    0 -0.00000000000E+00 -0.00000000000E+00 -0.45593999997E+02  0.45594000000E+02  0.51100000000E-03 0. -1.
    9900012    2    1    2    0    0 -0.27363328571E+02  0.16299679488E+02  0.15133271840E+01  0.59301929984E+02  0.49999974388E+02 0.  0.
         12    1    1    2    0    0  0.27363328571E+02 -0.16299679488E+02 -0.15133271840E+01  0.31886070016E+02  0.00000000000E+00 0. -1.
         11    1    3    3    0    0 -0.26760899265E+02  0.12258857821E+02  0.54591402049E+01  0.29937059585E+02  0.51100000000E-03 0. -1.
        -11    1    3    3    0    0 -0.11100663453E+02 -0.33632218539E+00  0.73635134166E+01  0.13325133088E+02  0.51100000000E-03 0.  1.
         12    1    3    3    0    0  0.10498234148E+02  0.43771438528E+01 -0.11309326437E+02  0.16039737311E+02  0.00000000000E+00 0. -1.
</event>
<event>
 7    1  0.5837204E-012  0.5930195E+02  0.7816164E-02  0.1266605E+00
        -11   -1    0    0    0    0  0.00000000000E+00  0.00000000000E+00  0.45593999997E+02  0.45594000000E+02  0.51100000000E-03 0.  1.
         11   -1    0    0    0    0 -0.00000000000E+00 -0.00000000000E+00 -0.45593999997E+02  0.45594000000E+02  0.51100000000E-03 0. -1.
    9900012    2    1    2    0    0  0.15312995945E+01 -0.29447721697E+02  0.12132883255E+02  0.59301952147E+02  0.50000014807E+02 0.  0.
         12    1    1    2    0    0 -0.15312995945E+01  0.29447721697E+02 -0.12132883255E+02  0.31886047853E+02  0.00000000000E+00 0. -1.
         11    1    3    3    0    0  0.57663772014E+01 -0.10006884594E+02 -0.50867348440E+01  0.12619972937E+02  0.51100000000E-03 0. -1.
        -11    1    3    3    0    0  0.47876144812E+01 -0.27468910936E+02  0.30278544133E+01  0.28046928941E+02  0.51100000000E-03 0.  1.
         12    1    3    3    0    0 -0.90226920880E+01  0.80280738329E+01  0.14191763686E+02  0.18635050268E+02  0.00000000000E+00 0. -1.
</event>
<event>
 7    1  0.5837204E-012  0.5930199E+02  0.7816164E-02  0.1266605E+00
        -11   -1    0    0    0    0  0.00000000000E+00  0.00000000000E+00  0.45593999997E+02  0.45594000000E+02  0.51100000000E-03 0. -1.
         11   -1    0    0    0    0 -0.00000000000E+00 -0.00000000000E+00 -0.45593999997E+02  0.45594000000E+02  0.51100000000E-03 0.  1.
    9900012    2    1    2    0    0 -0.24069236603E+02  0.19400354389E+02 -0.78112737887E+01  0.59301985836E+02  0.50000076248E+02 0.  0.
         12    1    1    2    0    0  0.24069236603E+02 -0.19400354389E+02  0.78112737887E+01  0.31886014164E+02  0.00000000000E+00 0. -1.
         11    1    3    3    0    0 -0.12697663309E+01  0.35932634036E+01  0.11481167123E+02  0.12097150375E+02  0.51100000000E-03 0. -1.
        -11    1    3    3    0    0 -0.20697407913E+02  0.20733646509E+01  0.29201459671E+01  0.21004970555E+02  0.51100000000E-03 0.  1.
        -12    1    3    3    0    0 -0.21020623595E+01  0.13733726334E+02 -0.22212586879E+02  0.26199864905E+02  0.00000000000E+00 0.  1.
</event>
<event>
 7    1  0.5837204E-012  0.5930192E+02  0.7816164E-02  0.1266605E+00
        -11   -1    0    0    0    0  0.00000000000E+00  0.00000000000E+00  0.45593999997E+02  0.45594000000E+02  0.51100000000E-03 0.  1.
         11   -1    0    0    0    0 -0.00000000000E+00 -0.00000000000E+00 -0.45593999997E+02  0.45594000000E+02  0.51100000000E-03 0. -1.
    9900012    2    1    2    0    0  0.60506584221E+01  0.30592619495E+02 -0.66485518044E+01  0.59301920342E+02  0.49999956802E+02 0.  0.
         12    1    1    2    0    0 -0.60506584221E+01 -0.30592619495E+02  0.66485518044E+01  0.31886079658E+02  0.00000000000E+00 0. -1.
         11    1    3    3    0    0  0.36909254039E+01  0.60901753952E+01 -0.65489568131E+01  0.96748127776E+01  0.51100000000E-03 0. -1.
        -11    1    3    3    0    0 -0.14662230150E+02  0.19731568608E+02 -0.12937550514E+02  0.27779416953E+02  0.51100000000E-03 0.  1.
        -12    1    3    3    0    0  0.17021963168E+02  0.47708754919E+01  0.12837955522E+02  0.21847690611E+02  0.00000000000E+00 0.  1.
</event>
<event>
 7    1  0.5837204E-012  0.5930199E+02  0.7816164E-02  0.1266605E+00
        -11   -1    0    0    0    0  0.00000000000E+00  0.00000000000E+00  0.45593999997E+02  0.45594000000E+02  0.51100000000E-03 0. -1.
         11   -1    0    0    0    0 -0.00000000000E+00 -0.00000000000E+00 -0.45593999997E+02  0.45594000000E+02  0.51100000000E-03 0.  1.
    9900012    2    1    2    0    0 -0.97172332958E+01 -0.64532794715E+01 -0.29675714688E+02  0.59301992393E+02  0.50000088207E+02 0.  0.
         12    1    1    2    0    0  0.97172332958E+01  0.64532794715E+01  0.29675714688E+02  0.31886007607E+02  0.00000000000E+00 0. -1.
         11    1    3    3    0    0 -0.91141187099E+01 -0.11727265761E+02 -0.11019658393E+02  0.18494020478E+02  0.51100000000E-03 0. -1.
        -11    1    3    3    0    0 -0.15325860886E+02  0.31766913325E+01 -0.20533492468E+02  0.25818553269E+02  0.51100000000E-03 0.  1.
        -12    1    3    3    0    0  0.14722746300E+02  0.20972949569E+01  0.18774361741E+01  0.14989418646E+02  0.00000000000E+00 0.  1.
</event>
<event>
 7    1  0.5837204E-012  0.5930205E+02  0.7816164E-02  0.1266604E+00
        -11   -1    0    0    0    0  0.00000000000E+00  0.00000000000E+00  0.45593999997E+02  0.45594000000E+02  0.51100000000E-03 0. -1.
         11   -1    0    0    0    0 -0.00000000000E+00 -0.00000000000E+00 -0.45593999997E+02  0.45594000000E+02  0.51100000000E-03 0.  1.
    9900012    2    1    2    0    0 -0.35865232649E+01 -0.29456468042E+02 -0.11669081547E+02  0.59302045055E+02  0.50000184249E+02 0.  0.
         12    1    1    2    0    0  0.35865232649E+01  0.29456468042E+02  0.11669081547E+02  0.31885954945E+02  0.00000000000E+00 0. -1.
         11    1    3    3    0    0 -0.13841114587E+02 -0.11013213087E+02  0.18853090181E+01  0.17788246284E+02  0.51100000000E-03 0. -1.
        -11    1    3    3    0    0 -0.11511423532E+02 -0.11372000615E+02 -0.37141878794E+01  0.16602122201E+02  0.51100000000E-03 0.  1.
        -12    1    3    3    0    0  0.21766014855E+02 -0.70712543403E+01 -0.98402026858E+01  0.24911676569E+02  0.00000000000E+00 0.  1.
</event>
<event>
 7    1  0.5837204E-012  0.5930194E+02  0.7816164E-02  0.1266605E+00
        -11   -1    0    0    0    0  0.00000000000E+00  0.00000000000E+00  0.45593999997E+02  0.45594000000E+02  0.51100000000E-03 0.  1.
         11   -1    0    0    0    0 -0.00000000000E+00 -0.00000000000E+00 -0.45593999997E+02  0.45594000000E+02  0.51100000000E-03 0. -1.
    9900012    2    1    2    0    0  0.94731524198E+01  0.30428181025E+02 -0.10515758410E+01  0.59301943032E+02  0.49999998183E+02 0.  0.
         12    1    1    2    0    0 -0.94731524198E+01 -0.30428181025E+02  0.10515758410E+01  0.31886056968E+02  0.00000000000E+00 0. -1.
         11    1    3    3    0    0  0.22306496542E+02  0.27109568620E+02  0.32343398494E-01  0.35107115306E+02  0.51100000000E-03 0.  1.
        -11    1    3    3    0    0 -0.55882893615E+01  0.11410186739E+02  0.20979114725E+01  0.12877211353E+02  0.51100000000E-03 0. -1.
         12    1    3    3    0    0 -0.72450547607E+01 -0.80915743343E+01 -0.31818307120E+01  0.11317616373E+02  0.00000000000E+00 0. -1.
</event>
<event>
 7    1  0.5837204E-012  0.5930190E+02  0.7816164E-02  0.1266605E+00
        -11   -1    0    0    0    0  0.00000000000E+00  0.00000000000E+00  0.45593999997E+02  0.45594000000E+02  0.51100000000E-03 0. -1.
         11   -1    0    0    0    0 -0.00000000000E+00 -0.00000000000E+00 -0.45593999997E+02  0.45594000000E+02  0.51100000000E-03 0.  1.
    9900012    2    1    2    0    0 -0.15297894004E+02 -0.25149592956E+02 -0.12255442300E+02  0.59301898753E+02  0.49999917429E+02 0.  0.
         12    1    1    2    0    0  0.15297894004E+02  0.25149592956E+02  0.12255442300E+02  0.31886101247E+02  0.00000000000E+00 0. -1.
         11    1    3    3    0    0  0.45041804174E+01 -0.21553593329E+02  0.58135550715E+01  0.22773722784E+02  0.51100000000E-03 0. -1.
        -11    1    3    3    0    0 -0.22138570108E+02 -0.10467242297E+02 -0.13886177254E+02  0.28151471839E+02  0.51100000000E-03 0.  1.
         12    1    3    3    0    0  0.23364956873E+01  0.68712426699E+01 -0.41828201181E+01  0.83767041291E+01  0.00000000000E+00 0. -1.
</event>
<event>
 7    1  0.5837204E-012  0.5930200E+02  0.7816164E-02  0.1266605E+00
        -11   -1    0    0    0    0  0.00000000000E+00  0.00000000000E+00  0.45593999997E+02  0.45594000000E+02  0.51100000000E-03 0. -1.
         11   -1    0    0    0    0 -0.00000000000E+00 -0.00000000000E+00 -0.45593999997E+02  0.45594000000E+02  0.51100000000E-03 0.  1.
    9900012    2    1    2    0    0 -0.28073975924E+02 -0.52441960040E+01 -0.14179808252E+02  0.59302004987E+02  0.50000111175E+02 0.  0.
         12    1    1    2    0    0  0.28073975924E+02  0.52441960040E+01  0.14179808252E+02  0.31885995013E+02  0.00000000000E+00 0. -1.
         11    1    3    3    0    0 -0.79537153671E+01  0.77087749203E+01  0.34391592448E+01  0.11598043606E+02  0.51100000000E-03 0. -1.
        -11    1    3    3    0    0  0.82410773822E+01  0.57350857759E+01 -0.65207357734E+01  0.11971907140E+02  0.51100000000E-03 0.  1.
         12    1    3    3    0    0 -0.28361337939E+02 -0.18688056700E+02 -0.11098231724E+02  0.35732054241E+02  0.00000000000E+00 0. -1.
</event>
<event>
 7    1  0.5837204E-012  0.5930191E+02  0.7816164E-02  0.1266605E+00
        -11   -1    0    0    0    0  0.00000000000E+00  0.00000000000E+00  0.45593999997E+02  0.45594000000E+02  0.51100000000E-03 0.  1.
         11   -1    0    0    0    0 -0.00000000000E+00 -0.00000000000E+00 -0.45593999997E+02  0.45594000000E+02  0.51100000000E-03 0. -1.
    9900012    2    1    2    0    0 -0.15806455238E+02 -0.25970934574E+02  0.96119258461E+01  0.59301912308E+02  0.49999942151E+02 0.  0.
         12    1    1    2    0    0  0.15806455238E+02  0.25970934574E+02 -0.96119258461E+01  0.31886087692E+02  0.00000000000E+00 0. -1.
         11    1    3    3    0    0 -0.18830348040E+02 -0.32422310740E+00 -0.28066244241E+00  0.18835230278E+02  0.51100000000E-03 0. -1.
        -11    1    3    3    0    0 -0.12901995987E+01 -0.60069772083E+01  0.17822316768E+02  0.18851614398E+02  0.51100000000E-03 0.  1.
         12    1    3    3    0    0  0.43140924016E+01 -0.19639734258E+02 -0.79297284795E+01  0.21615067632E+02  0.00000000000E+00 0. -1.
</event>
<event>
 7    1  0.5837204E-012  0.5930192E+02  0.7816164E-02  0.1266605E+00
        -11   -1    0    0    0    0  0.00000000000E+00  0.00000000000E+00  0.45593999997E+02  0.45594000000E+02  0.51100000000E-03 0. -1.
         11   -1    0    0    0    0 -0.00000000000E+00 -0.00000000000E+00 -0.45593999997E+02  0.45594000000E+02  0.51100000000E-03 0.  1.
    9900012    2    1    2    0    0 -0.88138450393E+01 -0.21819068106E+02 -0.21516662539E+02  0.59301915822E+02  0.49999948559E+02 0.  0.
         12    1    1    2    0    0  0.88138450393E+01  0.21819068106E+02  0.21516662539E+02  0.31886084178E+02  0.00000000000E+00 0. -1.
         11    1    3    3    0    0 -0.52059679530E+01  0.72356349632E+00  0.71822281548E+00  0.53048553925E+01  0.51100000000E-03 0. -1.
        -11    1    3    3    0    0 -0.23020683401E+02 -0.17897596677E+02 -0.14762612010E+02  0.32683490399E+02  0.51100000000E-03 0.  1.
         12    1    3    3    0    0  0.19412806315E+02 -0.46450349251E+01 -0.74722733453E+01  0.21313570030E+02  0.00000000000E+00 0. -1.
</event>
<event>
 7    1  0.5837204E-012  0.5930193E+02  0.7816164E-02  0.1266605E+00
        -11   -1    0    0    0    0  0.00000000000E+00  0.00000000000E+00  0.45593999997E+02  0.45594000000E+02  0.51100000000E-03 0.  1.
         11   -1    0    0    0    0 -0.00000000000E+00 -0.00000000000E+00 -0.45593999997E+02  0.45594000000E+02  0.51100000000E-03 0. -1.
    9900012    2    1    2    0    0  0.31386472644E+02  0.14287663834E+01 -0.54377870515E+01  0.59301928332E+02  0.49999971375E+02 0.  0.
         12    1    1    2    0    0 -0.31386472644E+02 -0.14287663834E+01  0.54377870515E+01  0.31886071668E+02  0.00000000000E+00 0. -1.
         11    1    3    3    0    0 -0.21279475847E+01 -0.67642173715E+01 -0.13557664662E+02  0.15300100291E+02  0.51100000000E-03 0. -1.
        -11    1    3    3    0    0  0.55431512977E+01  0.13476007512E+02  0.71694856875E+00  0.14589150773E+02  0.51100000000E-03 0.  1.
        -12    1    3    3    0    0  0.27971268931E+02 -0.52830237574E+01  0.74029290420E+01  0.29412677267E+02  0.00000000000E+00 0.  1.
</event>
<event>
 7    1  0.5837204E-012  0.5930195E+02  0.7816164E-02  0.1266605E+00
        -11   -1    0    0    0    0  0.00000000000E+00  0.00000000000E+00  0.45593999997E+02  0.45594000000E+02  0.51100000000E-03 0.  1.
         11   -1    0    0    0    0 -0.00000000000E+00 -0.00000000000E+00 -0.45593999997E+02  0.45594000000E+02  0.51100000000E-03 0. -1.
    9900012    2    1    2    0    0 -0.19408831615E+02  0.20304876522E+02  0.15090715727E+02  0.59301945738E+02  0.50000003120E+02 0.  0.
         12    1    1    2    0    0  0.19408831615E+02 -0.20304876522E+02 -0.15090715727E+02  0.31886054262E+02  0.00000000000E+00 0. -1.
         11    1    3    3    0    0  0.47153906105E+00  0.86643975849E+01 -0.33691517107E+01  0.93083466902E+01  0.51100000000E-03 0. -1.
        -11    1    3    3    0    0  0.38539710284E+01 -0.46255177577E+01  0.20287805168E+02  0.21162314287E+02  0.51100000000E-03 0.  1.
         12    1    3    3    0    0 -0.23734341704E+02  0.16265996695E+02 -0.18279377305E+01  0.28831284761E+02  0.00000000000E+00 0. -1.
</event>
<event>
 7    1  0.5837204E-012  0.5930195E+02  0.7816164E-02  0.1266605E+00
        -11   -1    0    0    0    0  0.00000000000E+00  0.00000000000E+00  0.45593999997E+02  0.45594000000E+02  0.51100000000E-03 0.  1.
         11   -1    0    0    0    0 -0.00000000000E+00 -0.00000000000E+00 -0.45593999997E+02  0.45594000000E+02  0.51100000000E-03 0. -1.
    9900012    2    1    2    0    0  0.12884290625E+02 -0.62663886688E+01  0.28485922523E+02  0.59301947346E+02  0.50000006052E+02 0.  0.
         12    1    1    2    0    0 -0.12884290625E+02  0.62663886688E+01 -0.28485922523E+02  0.31886052654E+02  0.00000000000E+00 0. -1.
         11    1    3    3    0    0 -0.12788419082E+02 -0.85788384425E+01  0.10101717250E+02  0.18416971068E+02  0.51100000000E-03 0. -1.
        -11    1    3    3    0    0  0.21563143621E+02 -0.31702416234E+01  0.57431795469E+00  0.21802509859E+02  0.51100000000E-03 0.  1.
         12    1    3    3    0    0  0.41095660865E+01  0.54826913970E+01  0.17809887318E+02  0.19082466419E+02  0.00000000000E+00 0. -1.
</event>
<event>
 7    1  0.5837204E-012  0.5930197E+02  0.7816164E-02  0.1266605E+00
        -11   -1    0    0    0    0  0.00000000000E+00  0.00000000000E+00  0.45593999997E+02  0.45594000000E+02  0.51100000000E-03 0.  1.
         11   -1    0    0    0    0 -0.00000000000E+00 -0.00000000000E+00 -0.45593999997E+02  0.45594000000E+02  0.51100000000E-03 0. -1.
    9900012    2    1    2    0    0 -0.21516283971E+02 -0.25269382489E+01  0.23396222784E+02  0.59301966484E+02  0.50000040955E+02 0.  0.
         12    1    1    2    0    0  0.21516283971E+02  0.25269382489E+01 -0.23396222784E+02  0.31886033516E+02  0.00000000000E+00 0. -1.
         11    1    3    3    0    0 -0.14316377081E+00 -0.42533145328E+01 -0.32669654102E+01  0.53650949323E+01  0.51100000000E-03 0. -1.
        -11    1    3    3    0    0 -0.20228723333E+02 -0.80209868513E+01 -0.36585996335E+01  0.22066327952E+02  0.51100000000E-03 0.  1.
        -12    1    3    3    0    0 -0.11443968670E+01  0.97473631353E+01  0.30321787827E+02  0.31870543599E+02  0.00000000000E+00 0.  1.
</event>
<event>
 7    1  0.5837204E-012  0.5930195E+02  0.7816164E-02  0.1266605E+00
        -11   -1    0    0    0    0  0.00000000000E+00  0.00000000000E+00  0.45593999997E+02  0.45594000000E+02  0.51100000000E-03 0.  1.
         11   -1    0    0    0    0 -0.00000000000E+00 -0.00000000000E+00 -0.45593999997E+02  0.45594000000E+02  0.51100000000E-03 0. -1.
    9900012    2    1    2    0    0 -0.96735408310E+01  0.81555629388E+01  0.29268234373E+02  0.59301950662E+02  0.50000012099E+02 0.  0.
         12    1    1    2    0    0  0.96735408310E+01 -0.81555629388E+01 -0.29268234373E+02  0.31886049338E+02  0.00000000000E+00 0. -1.
         11    1    3    3    0    0  0.18071942166E+02 -0.29205302799E+01  0.18341314273E+02  0.25913865020E+02  0.51100000000E-03 0.  1.
        -11    1    3    3    0    0 -0.14055196057E+02  0.10942720495E+02  0.52845741514E+01  0.18580053613E+02  0.51100000000E-03 0. -1.
        -12    1    3    3    0    0 -0.13690286939E+02  0.13337272363E+00  0.56423459490E+01  0.14808032029E+02  0.00000000000E+00 0.  1.
</event>
<event>
 7    1  0.5837204E-012  0.5930190E+02  0.7816164E-02  0.1266605E+00
        -11   -1    0    0    0    0  0.00000000000E+00  0.00000000000E+00  0.45593999997E+02  0.45594000000E+02  0.51100000000E-03 0. -1.
         11   -1    0    0    0    0 -0.00000000000E+00 -0.00000000000E+00 -0.45593999997E+02  0.45594000000E+02  0.51100000000E-03 0.  1.
    9900012    2    1    2    0    0 -0.17966104023E+02 -0.12626121432E+02 -0.23119760837E+02  0.59301903071E+02  0.49999925305E+02 0.  0.
         12    1    1    2    0    0  0.17966104023E+02  0.12626121432E+02  0.23119760837E+02  0.31886096929E+02  0.00000000000E+00 0. -1.
         11    1    3    3    0    0 -0.10867218830E+02 -0.10431392561E+02 -0.25725061583E+02  0.29810890452E+02  0.51100000000E-03 0.  1.
        -11    1    3    3    0    0  0.39103820020E+01 -0.10567478086E+02  0.88378409894E+01  0.14320269345E+02  0.51100000000E-03 0. -1.
         12    1    3    3    0    0 -0.11009267195E+02  0.83727492149E+01 -0.62325402434E+01  0.15170743274E+02  0.00000000000E+00 0. -1.
</event>
<event>
 7    1  0.5837204E-012  0.5930191E+02  0.7816164E-02  0.1266605E+00
        -11   -1    0    0    0    0  0.00000000000E+00  0.00000000000E+00  0.45593999997E+02  0.45594000000E+02  0.51100000000E-03 0. -1.
         11   -1    0    0    0    0 -0.00000000000E+00 -0.00000000000E+00 -0.45593999997E+02  0.45594000000E+02  0.51100000000E-03 0.  1.
    9900012    2    1    2    0    0 -0.13616602611E+02  0.22664278846E+02 -0.17822488160E+02  0.59301913905E+02  0.49999945063E+02 0.  0.
         12    1    1    2    0    0  0.13616602611E+02 -0.22664278846E+02  0.17822488160E+02  0.31886086095E+02  0.00000000000E+00 0. -1.
         11    1    3    3    0    0 -0.11560272452E+02 -0.82625202035E+00 -0.23039507703E+01  0.11816546914E+02  0.51100000000E-03 0. -1.
        -11    1    3    3    0    0 -0.60710849758E+01 -0.91156570382E+01 -0.85684879289E+01  0.13905835526E+02  0.51100000000E-03 0.  1.
         12    1    3    3    0    0  0.40147548168E+01  0.32606187904E+02 -0.69500494607E+01  0.33579531465E+02  0.00000000000E+00 0. -1.
</event>
<event>
 7    1  0.5837204E-012  0.5930192E+02  0.7816164E-02  0.1266605E+00
        -11   -1    0    0    0    0  0.00000000000E+00  0.00000000000E+00  0.45593999997E+02  0.45594000000E+02  0.51100000000E-03 0. -1.
         11   -1    0    0    0    0 -0.00000000000E+00 -0.00000000000E+00 -0.45593999997E+02  0.45594000000E+02  0.51100000000E-03 0.  1.
    9900012    2    1    2    0    0  0.89265510976E+01 -0.25831918706E+02 -0.16424088745E+02  0.59301921068E+02  0.49999958128E+02 0.  0.
         12    1    1    2    0    0 -0.89265510976E+01  0.25831918706E+02  0.16424088745E+02  0.31886078932E+02  0.00000000000E+00 0. -1.
         11    1    3    3    0    0  0.21948211433E+02 -0.37249831538E+01 -0.90375938575E+00  0.22280400937E+02  0.51100000000E-03 0. -1.
        -11    1    3    3    0    0 -0.51574264906E+01 -0.70798534185E+00 -0.13098384067E+02  0.14094962102E+02  0.51100000000E-03 0.  1.
        -12    1    3    3    0    0 -0.78642338448E+01 -0.21398950211E+02 -0.24219452922E+01  0.22926558029E+02  0.00000000000E+00 0.  1.
</event>
<event>
 7    1  0.5837204E-012  0.5930194E+02  0.7816164E-02  0.1266605E+00
        -11   -1    0    0    0    0  0.00000000000E+00  0.00000000000E+00  0.45593999997E+02  0.45594000000E+02  0.51100000000E-03 0. -1.
         11   -1    0    0    0    0 -0.00000000000E+00 -0.00000000000E+00 -0.45593999997E+02  0.45594000000E+02  0.51100000000E-03 0.  1.
    9900012    2    1    2    0    0 -0.66940581547E+01 -0.15958296716E+02 -0.26781396673E+02  0.59301939465E+02  0.49999991679E+02 0.  0.
         12    1    1    2    0    0  0.66940581547E+01  0.15958296716E+02  0.26781396673E+02  0.31886060535E+02  0.00000000000E+00 0. -1.
         11    1    3    3    0    0 -0.71764352732E+01 -0.10142950886E+02 -0.13243299711E+02  0.18159451077E+02  0.51100000000E-03 0. -1.
        -11    1    3    3    0    0 -0.43100145559E+01 -0.19088392151E+02 -0.17745634041E+02  0.26416859544E+02  0.51100000000E-03 0.  1.
         12    1    3    3    0    0  0.47923916745E+01  0.13273046321E+02  0.42075370788E+01  0.14725628844E+02  0.00000000000E+00 0. -1.
</event>
<event>
 7    1  0.5837204E-012  0.5930195E+02  0.7816164E-02  0.1266605E+00
        -11   -1    0    0    0    0  0.00000000000E+00  0.00000000000E+00  0.45593999997E+02  0.45594000000E+02  0.51100000000E-03 0.  1.
         11   -1    0    0    0    0 -0.00000000000E+00 -0.00000000000E+00 -0.45593999997E+02  0.45594000000E+02  0.51100000000E-03 0. -1.
    9900012    2    1    2    0    0  0.18013990623E+02  0.45030119717E+01  0.25921793858E+02  0.59301947064E+02  0.50000005538E+02 0.  0.
         12    1    1    2    0    0 -0.18013990623E+02 -0.45030119717E+01 -0.25921793858E+02  0.31886052936E+02  0.00000000000E+00 0. -1.
         11    1    3    3    0    0 -0.15087211110E+01  0.31932305957E+01 -0.13892933676E+01  0.37951412820E+01  0.51100000000E-03 0. -1.
        -11    1    3    3    0    0 -0.79633838515E+01 -0.90096600900E+01  0.22835860318E+02  0.25808253990E+02  0.51100000000E-03 0.  1.
        -12    1    3    3    0    0  0.27486095585E+02  0.10319441466E+02  0.44752269082E+01  0.29698551792E+02  0.00000000000E+00 0.  1.
</event>
<event>
 7    1  0.5837204E-012  0.5930204E+02  0.7816164E-02  0.1266604E+00
        -11   -1    0    0    0    0  0.00000000000E+00  0.00000000000E+00  0.45593999997E+02  0.45594000000E+02  0.51100000000E-03 0. -1.
         11   -1    0    0    0    0 -0.00000000000E+00 -0.00000000000E+00 -0.45593999997E+02  0.45594000000E+02  0.51100000000E-03 0.  1.
    9900012    2    1    2    0    0  0.19056019425E+02 -0.12942946087E+01 -0.25532475031E+02  0.59302041396E+02  0.50000177577E+02 0.  0.
         12    1    1    2    0    0 -0.19056019425E+02  0.12942946087E+01  0.25532475031E+02  0.31885958604E+02  0.00000000000E+00 0. -1.
         11    1    3    3    0    0  0.21949957198E+02 -0.65509911020E+01  0.13537919204E+01  0.22946652441E+02  0.51100000000E-03 0. -1.
        -11    1    3    3    0    0 -0.47873791940E+01  0.10060191458E+02 -0.24864843370E+01  0.11415299222E+02  0.51100000000E-03 0.  1.
        -12    1    3    3    0    0  0.18934414208E+01 -0.48034949644E+01 -0.24399782615E+02  0.24940089734E+02  0.00000000000E+00 0.  1.
</event>
<event>
 7    1  0.5837204E-012  0.5930198E+02  0.7816164E-02  0.1266605E+00
        -11   -1    0    0    0    0  0.00000000000E+00  0.00000000000E+00  0.45593999997E+02  0.45594000000E+02  0.51100000000E-03 0. -1.
         11   -1    0    0    0    0 -0.00000000000E+00 -0.00000000000E+00 -0.45593999997E+02  0.45594000000E+02  0.51100000000E-03 0.  1.
    9900012    2    1    2    0    0  0.31671078871E+02  0.28029800482E+00 -0.36854708776E+01  0.59301976425E+02  0.50000059085E+02 0.  0.
         12    1    1    2    0    0 -0.31671078871E+02 -0.28029800482E+00  0.36854708776E+01  0.31886023575E+02  0.00000000000E+00 0. -1.
         11    1    3    3    0    0  0.16579729757E-01  0.56225925862E+01 -0.94487297782E+01  0.10995104227E+02  0.51100000000E-03 0. -1.
        -11    1    3    3    0    0  0.20386939020E+00 -0.13512597887E+02 -0.44778939437E+01  0.14236691990E+02  0.51100000000E-03 0.  1.
         12    1    3    3    0    0  0.31450629751E+02  0.81703033055E+01  0.10241152844E+02  0.34070180208E+02  0.00000000000E+00 0. -1.
</event>
<event>
 7    1  0.5837204E-012  0.5930194E+02  0.7816164E-02  0.1266605E+00
        -11   -1    0    0    0    0  0.00000000000E+00  0.00000000000E+00  0.45593999997E+02  0.45594000000E+02  0.51100000000E-03 0. -1.
         11   -1    0    0    0    0 -0.00000000000E+00 -0.00000000000E+00 -0.45593999997E+02  0.45594000000E+02  0.51100000000E-03 0.  1.
    9900012    2    1    2    0    0  0.29632514631E+02 -0.11772440371E+02  0.21068681679E+00  0.59301942473E+02  0.49999997165E+02 0.  0.
         12    1    1    2    0    0 -0.29632514631E+02  0.11772440371E+02 -0.21068681679E+00  0.31886057527E+02  0.00000000000E+00 0. -1.
         11    1    3    3    0    0  0.64610356538E+01  0.74660675738E+01 -0.15702170694E+01  0.99976361528E+01  0.51100000000E-03 0.  1.
        -11    1    3    3    0    0  0.84873291120E+01  0.37794920229E+01  0.16014128428E+02  0.18514092605E+02  0.51100000000E-03 0. -1.
         12    1    3    3    0    0  0.14684149866E+02 -0.23017999968E+02 -0.14233224542E+02  0.30790213716E+02  0.00000000000E+00 0. -1.
</event>
<event>
 7    1  0.5837204E-012  0.5930193E+02  0.7816164E-02  0.1266605E+00
        -11   -1    0    0    0    0  0.00000000000E+00  0.00000000000E+00  0.45593999997E+02  0.45594000000E+02  0.51100000000E-03 0. -1.
         11   -1    0    0    0    0 -0.00000000000E+00 -0.00000000000E+00 -0.45593999997E+02  0.45594000000E+02  0.51100000000E-03 0.  1.
    9900012    2    1    2    0    0  0.84297847102E+01 -0.30613920666E+02  0.29065731261E+01  0.59301928179E+02  0.49999971096E+02 0.  0.
         12    1    1    2    0    0 -0.84297847102E+01  0.30613920666E+02 -0.29065731261E+01  0.31886071821E+02  0.00000000000E+00 0. -1.
         11    1    3    3    0    0 -0.25951702010E+00 -0.22337769480E+01  0.35182713449E+01  0.41755648785E+01  0.51100000000E-03 0. -1.
        -11    1    3    3    0    0  0.23243080230E+02 -0.60987278143E+01  0.10579480087E+02  0.26255678599E+02  0.51100000000E-03 0.  1.
        -12    1    3    3    0    0 -0.14553778499E+02 -0.22281415904E+02 -0.11191178305E+02  0.28870684702E+02  0.00000000000E+00 0.  1.
</event>
<event>
 7    1  0.5837204E-012  0.5930196E+02  0.7816164E-02  0.1266605E+00
        -11   -1    0    0    0    0  0.00000000000E+00  0.00000000000E+00  0.45593999997E+02  0.45594000000E+02  0.51100000000E-03 0. -1.
         11   -1    0    0    0    0 -0.00000000000E+00 -0.00000000000E+00 -0.45593999997E+02  0.45594000000E+02  0.51100000000E-03 0.  1.
    9900012    2    1    2    0    0 -0.24996998902E+02 -0.15550186128E+02  0.12249938803E+02  0.59301964759E+02  0.50000037808E+02 0.  0.
         12    1    1    2    0    0  0.24996998902E+02  0.15550186128E+02 -0.12249938803E+02  0.31886035241E+02  0.00000000000E+00 0. -1.
         11    1    3    3    0    0 -0.48800005440E+01 -0.16453598915E+02  0.12806408562E+02  0.21413533643E+02  0.51100000000E-03 0. -1.
        -11    1    3    3    0    0 -0.21390050261E+02 -0.11484305649E+02 -0.47695068172E+01  0.24742104234E+02  0.51100000000E-03 0.  1.
         12    1    3    3    0    0  0.12730519025E+01  0.12387718436E+02  0.42130370583E+01  0.13146326881E+02  0.00000000000E+00 0. -1.
</event>
<event>
 7    1  0.5837204E-012  0.5930197E+02  0.7816164E-02  0.1266605E+00
        -11   -1    0    0    0    0  0.00000000000E+00  0.00000000000E+00  0.45593999997E+02  0.45594000000E+02  0.51100000000E-03 0.  1.
         11   -1    0    0    0    0 -0.00000000000E+00 -0.00000000000E+00 -0.45593999997E+02  0.45594000000E+02  0.51100000000E-03 0. -1.
    9900012    2    1    2    0    0  0.25144721442E+02  0.88394563543E+00  0.19587764484E+02  0.59301970242E+02  0.50000047808E+02 0.  0.
         12    1    1    2    0    0 -0.25144721442E+02 -0.88394563543E+00 -0.19587764484E+02  0.31886029758E+02  0.00000000000E+00 0. -1.
         11    1    3    3    0    0  0.13874253981E+02  0.24755093161E+01  0.98230368109E+01  0.17178915052E+02  0.51100000000E-03 0. -1.
        -11    1    3    3    0    0  0.94309375585E+01  0.11353995895E+02  0.20461482313E+02  0.25229507818E+02  0.51100000000E-03 0.  1.
         12    1    3    3    0    0  0.18395299021E+01 -0.12945559576E+02 -0.10696754640E+02  0.16893547373E+02  0.00000000000E+00 0. -1.
</event>
<event>
 7    1  0.5837204E-012  0.5930198E+02  0.7816164E-02  0.1266605E+00
        -11   -1    0    0    0    0  0.00000000000E+00  0.00000000000E+00  0.45593999997E+02  0.45594000000E+02  0.51100000000E-03 0. -1.
         11   -1    0    0    0    0 -0.00000000000E+00 -0.00000000000E+00 -0.45593999997E+02  0.45594000000E+02  0.51100000000E-03 0.  1.
    9900012    2    1    2    0    0  0.44530926249E+01  0.23416841549E+02 -0.21178750328E+02  0.59301984766E+02  0.50000074296E+02 0.  0.
         12    1    1    2    0    0 -0.44530926249E+01 -0.23416841549E+02  0.21178750328E+02  0.31886015234E+02  0.00000000000E+00 0. -1.
         11    1    3    3    0    0 -0.42694492004E+01 -0.32534087698E+01 -0.21374313231E+02  0.22038015597E+02  0.51100000000E-03 0. -1.
        -11    1    3    3    0    0  0.16018742641E+02  0.19323659637E+02 -0.51327644059E+01  0.25619313189E+02  0.51100000000E-03 0.  1.
         12    1    3    3    0    0 -0.72962008158E+01  0.73465906817E+01  0.53283273084E+01  0.11644655980E+02  0.00000000000E+00 0. -1.
</event>
<event>
 7    1  0.5837204E-012  0.5930195E+02  0.7816164E-02  0.1266605E+00
        -11   -1    0    0    0    0  0.00000000000E+00  0.00000000000E+00  0.45593999997E+02  0.45594000000E+02  0.51100000000E-03 0. -1.
         11   -1    0    0    0    0 -0.00000000000E+00 -0.00000000000E+00 -0.45593999997E+02  0.45594000000E+02  0.51100000000E-03 0.  1.
    9900012    2    1    2    0    0 -0.98239003921E+01 -0.29860099883E+02  0.53465660119E+01  0.59301947374E+02  0.50000006103E+02 0.  0.
         12    1    1    2    0    0  0.98239003921E+01  0.29860099883E+02 -0.53465660119E+01  0.31886052626E+02  0.00000000000E+00 0. -1.
         11    1    3    3    0    0 -0.27707403826E+01 -0.26708994888E+01  0.54153108152E+01  0.66435154725E+01  0.51100000000E-03 0. -1.
        -11    1    3    3    0    0 -0.23996566257E+02 -0.25853820141E+02  0.29474222814E+01  0.35396927923E+02  0.51100000000E-03 0.  1.
         12    1    3    3    0    0  0.16943406248E+02 -0.13353802533E+01 -0.30161670847E+01  0.17261503978E+02  0.00000000000E+00 0. -1.
</event>
<event>
 7    1  0.5837204E-012  0.5930194E+02  0.7816164E-02  0.1266605E+00
        -11   -1    0    0    0    0  0.00000000000E+00  0.00000000000E+00  0.45593999997E+02  0.45594000000E+02  0.51100000000E-03 0. -1.
         11   -1    0    0    0    0 -0.00000000000E+00 -0.00000000000E+00 -0.45593999997E+02  0.45594000000E+02  0.51100000000E-03 0.  1.
    9900012    2    1    2    0    0 -0.52521349605E+01  0.22967745210E+02 -0.21485313882E+02  0.59301937931E+02  0.49999988881E+02 0.  0.
         12    1    1    2    0    0  0.52521349605E+01 -0.22967745210E+02  0.21485313882E+02  0.31886062069E+02  0.00000000000E+00 0. -1.
         11    1    3    3    0    0 -0.89492474317E+01  0.35502332461E+01  0.47772502963E+01  0.10747804722E+02  0.51100000000E-03 0. -1.
        -11    1    3    3    0    0 -0.10361708663E+00 -0.35548168972E+01 -0.24982499224E+02  0.25234356093E+02  0.51100000000E-03 0.  1.
         12    1    3    3    0    0  0.38007295579E+01  0.22972328861E+02 -0.12800649545E+01  0.23319777116E+02  0.00000000000E+00 0. -1.
</event>
<event>
 7    1  0.5837204E-012  0.5930194E+02  0.7816164E-02  0.1266605E+00
        -11   -1    0    0    0    0  0.00000000000E+00  0.00000000000E+00  0.45593999997E+02  0.45594000000E+02  0.51100000000E-03 0. -1.
         11   -1    0    0    0    0 -0.00000000000E+00 -0.00000000000E+00 -0.45593999997E+02  0.45594000000E+02  0.51100000000E-03 0.  1.
    9900012    2    1    2    0    0  0.21450973382E+02 -0.16044667802E+02 -0.17295806500E+02  0.59301944327E+02  0.50000000545E+02 0.  0.
         12    1    1    2    0    0 -0.21450973382E+02  0.16044667802E+02  0.17295806500E+02  0.31886055673E+02  0.00000000000E+00 0. -1.
         11    1    3    3    0    0 -0.12128417236E+02  0.65988467817E+01 -0.49103502159E+01  0.14654515448E+02  0.51100000000E-03 0. -1.
        -11    1    3    3    0    0  0.92897043374E+01 -0.14554916043E+02 -0.42101232975E+01  0.17772712965E+02  0.51100000000E-03 0.  1.
        -12    1    3    3    0    0  0.24289686281E+02 -0.80885985401E+01 -0.81753329870E+01  0.26874715913E+02  0.00000000000E+00 0.  1.
</event>
<event>
 7    1  0.5837204E-012  0.5930193E+02  0.7816164E-02  0.1266605E+00
        -11   -1    0    0    0    0  0.00000000000E+00  0.00000000000E+00  0.45593999997E+02  0.45594000000E+02  0.51100000000E-03 0.  1.
         11   -1    0    0    0    0 -0.00000000000E+00 -0.00000000000E+00 -0.45593999997E+02  0.45594000000E+02  0.51100000000E-03 0. -1.
    9900012    2    1    2    0    0  0.15044123916E+02  0.27668402955E+02  0.49854823503E+01  0.59301933752E+02  0.49999981260E+02 0.  0.
         12    1    1    2    0    0 -0.15044123916E+02 -0.27668402955E+02 -0.49854823503E+01  0.31886066248E+02  0.00000000000E+00 0. -1.
         11    1    3    3    0    0  0.64661822756E+01 -0.12219998838E+02 -0.34931413368E+01  0.14259800892E+02  0.51100000000E-03 0. -1.
        -11    1    3    3    0    0 -0.17463718796E+01  0.13932448078E+02  0.97251324453E+01  0.17080431070E+02  0.51100000000E-03 0.  1.
        -12    1    3    3    0    0  0.10324313520E+02  0.25955953715E+02 -0.12465087581E+01  0.27961701790E+02  0.00000000000E+00 0.  1.
</event>
<event>
 7    1  0.5837204E-012  0.5930168E+02  0.7816164E-02  0.1266606E+00
        -11   -1    0    0    0    0  0.00000000000E+00  0.00000000000E+00  0.45593999997E+02  0.45594000000E+02  0.51100000000E-03 0.  1.
         11   -1    0    0    0    0 -0.00000000000E+00 -0.00000000000E+00 -0.45593999997E+02  0.45594000000E+02  0.51100000000E-03 0. -1.
    9900012    2    1    2    0    0 -0.66490861138E+01 -0.29660921366E+02  0.96310210427E+01  0.59301683676E+02  0.49999525178E+02 0.  0.
         12    1    1    2    0    0  0.66490861138E+01  0.29660921366E+02 -0.96310210427E+01  0.31886316324E+02  0.00000000000E+00 0. -1.
         11    1    3    3    0    0 -0.11093867454E+02  0.12848878093E+01  0.58722445881E+01  0.12617768762E+02  0.51100000000E-03 0. -1.
        -11    1    3    3    0    0 -0.41738684730E+01 -0.11744409824E+02  0.17546562035E+02  0.21522875729E+02  0.51100000000E-03 0.  1.
        -12    1    3    3    0    0  0.86186498131E+01 -0.19201399352E+02 -0.13787785580E+02  0.25161039185E+02  0.00000000000E+00 0.  1.
</event>
<event>
 7    1  0.5837204E-012  0.5930194E+02  0.7816164E-02  0.1266605E+00
        -11   -1    0    0    0    0  0.00000000000E+00  0.00000000000E+00  0.45593999997E+02  0.45594000000E+02  0.51100000000E-03 0.  1.
         11   -1    0    0    0    0 -0.00000000000E+00 -0.00000000000E+00 -0.45593999997E+02  0.45594000000E+02  0.51100000000E-03 0. -1.
    9900012    2    1    2    0    0  0.12058428295E+02 -0.29164090442E+02  0.45574978072E+01  0.59301942694E+02  0.49999997567E+02 0.  0.
         12    1    1    2    0    0 -0.12058428295E+02  0.29164090442E+02 -0.45574978072E+01  0.31886057306E+02  0.00000000000E+00 0. -1.
         11    1    3    3    0    0 -0.18226077886E+01  0.51337901771E+01  0.91576812721E-01  0.54484940403E+01  0.51100000000E-03 0. -1.
        -11    1    3    3    0    0  0.18267555903E+02 -0.22618167381E+02  0.18974937138E+02  0.34717910853E+02  0.51100000000E-03 0.  1.
         12    1    3    3    0    0 -0.43865198189E+01 -0.11679713238E+02 -0.14509016144E+02  0.19135537800E+02  0.00000000000E+00 0. -1.
</event>
<event>
 7    1  0.5837204E-012  0.5930195E+02  0.7816164E-02  0.1266605E+00
        -11   -1    0    0    0    0  0.00000000000E+00  0.00000000000E+00  0.45593999997E+02  0.45594000000E+02  0.51100000000E-03 0. -1.
         11   -1    0    0    0    0 -0.00000000000E+00 -0.00000000000E+00 -0.45593999997E+02  0.45594000000E+02  0.51100000000E-03 0.  1.
    9900012    2    1    2    0    0 -0.48611031115E+01 -0.61767067305E+01 -0.30902078013E+02  0.59301945760E+02  0.50000003158E+02 0.  0.
         12    1    1    2    0    0  0.48611031115E+01  0.61767067305E+01  0.30902078013E+02  0.31886054240E+02  0.00000000000E+00 0. -1.
         11    1    3    3    0    0  0.63826209901E+01 -0.52251609445E+01  0.38975488382E+01  0.91231049981E+01  0.51100000000E-03 0. -1.
        -11    1    3    3    0    0 -0.53954925566E+00 -0.15294223909E+02 -0.63513420644E+01  0.16569367660E+02  0.51100000000E-03 0.  1.
         12    1    3    3    0    0 -0.10704174846E+02  0.14342678122E+02 -0.28448284787E+02  0.33609473102E+02  0.00000000000E+00 0. -1.
</event>
<event>
 7    1  0.5837204E-012  0.5930202E+02  0.7816164E-02  0.1266604E+00
        -11   -1    0    0    0    0  0.00000000000E+00  0.00000000000E+00  0.45593999997E+02  0.45594000000E+02  0.51100000000E-03 0. -1.
         11   -1    0    0    0    0 -0.00000000000E+00 -0.00000000000E+00 -0.45593999997E+02  0.45594000000E+02  0.51100000000E-03 0.  1.
    9900012    2    1    2    0    0 -0.41937350818E+01  0.13172469851E+02 -0.28733503849E+02  0.59302021587E+02  0.50000141450E+02 0.  0.
         12    1    1    2    0    0  0.41937350818E+01 -0.13172469851E+02  0.28733503849E+02  0.31885978413E+02  0.00000000000E+00 0. -1.
         11    1    3    3    0    0  0.80696207067E+01  0.13803121319E+02 -0.14434446508E+01  0.16053923795E+02  0.51100000000E-03 0. -1.
        -11    1    3    3    0    0 -0.98220833665E+00  0.14323014328E+02 -0.83431550867E+01  0.16604870060E+02  0.51100000000E-03 0.  1.
        -12    1    3    3    0    0 -0.11281147452E+02 -0.14953665796E+02 -0.18946904111E+02  0.26643227732E+02  0.00000000000E+00 0.  1.
</event>
<event>
 7    1  0.5837204E-012  0.5930167E+02  0.7816164E-02  0.1266606E+00
        -11   -1    0    0    0    0  0.00000000000E+00  0.00000000000E+00  0.45593999997E+02  0.45594000000E+02  0.51100000000E-03 0. -1.
         11   -1    0    0    0    0 -0.00000000000E+00 -0.00000000000E+00 -0.45593999997E+02  0.45594000000E+02  0.51100000000E-03 0.  1.
    9900012    2    1    2    0    0 -0.21453880378E+02 -0.12784699328E+02 -0.19824747667E+02  0.59301668442E+02  0.49999497395E+02 0.  0.
         12    1    1    2    0    0  0.21453880378E+02  0.12784699328E+02  0.19824747667E+02  0.31886331558E+02  0.00000000000E+00 0. -1.
         11    1    3    3    0    0 -0.24387247319E+01 -0.19062013159E+02 -0.43113161450E+01  0.19695054485E+02  0.51100000000E-03 0. -1.
        -11    1    3    3    0    0 -0.99664729806E+01  0.72346355820E+01  0.78018152249E+01  0.14578712451E+02  0.51100000000E-03 0.  1.
        -12    1    3    3    0    0 -0.90486826655E+01 -0.95732175063E+00 -0.23315246747E+02  0.25027901506E+02  0.00000000000E+00 0.  1.
</event>
<event>
 7    1  0.5837204E-012  0.5930192E+02  0.7816164E-02  0.1266605E+00
        -11   -1    0    0    0    0  0.00000000000E+00  0.00000000000E+00  0.45593999997E+02  0.45594000000E+02  0.51100000000E-03 0.  1.
         11   -1    0    0    0    0 -0.00000000000E+00 -0.00000000000E+00 -0.45593999997E+02  0.45594000000E+02  0.51100000000E-03 0. -1.
    9900012    2    1    2    0    0  0.15186688089E+02 -0.14223501678E+02  0.24161511146E+02  0.59301919715E+02  0.49999955659E+02 0.  0.
         12    1    1    2    0    0 -0.15186688089E+02  0.14223501678E+02 -0.24161511146E+02  0.31886080285E+02  0.00000000000E+00 0. -1.
         11    1    3    3    0    0 -0.11220175483E+01 -0.75212534821E+01  0.76559425705E+01  0.10790812491E+02  0.51100000000E-03 0.  1.
        -11    1    3    3    0    0  0.18145254779E+02 -0.22584248701E+02  0.14503817668E+02  0.32398445759E+02  0.51100000000E-03 0. -1.
         12    1    3    3    0    0 -0.18365491414E+01  0.15882000505E+02  0.20017509071E+01  0.16112661465E+02  0.00000000000E+00 0. -1.
</event>
<event>
 7    1  0.5837204E-012  0.5930192E+02  0.7816164E-02  0.1266605E+00
        -11   -1    0    0    0    0  0.00000000000E+00  0.00000000000E+00  0.45593999997E+02  0.45594000000E+02  0.51100000000E-03 0.  1.
         11   -1    0    0    0    0 -0.00000000000E+00 -0.00000000000E+00 -0.45593999997E+02  0.45594000000E+02  0.51100000000E-03 0. -1.
    9900012    2    1    2    0    0  0.25345062067E+02  0.12618971772E+02  0.14666668336E+02  0.59301924985E+02  0.49999965271E+02 0.  0.
         12    1    1    2    0    0 -0.25345062067E+02 -0.12618971772E+02 -0.14666668336E+02  0.31886075015E+02  0.00000000000E+00 0. -1.
         11    1    3    3    0    0  0.83135003756E+01  0.27724443553E+01  0.55219286874E+01  0.10358206065E+02  0.51100000000E-03 0. -1.
        -11    1    3    3    0    0  0.30207129743E+02  0.11195272391E+02 -0.10467998180E+01  0.32231981033E+02  0.51100000000E-03 0.  1.
         12    1    3    3    0    0 -0.13175568052E+02 -0.13487449745E+01  0.10191539467E+02  0.16711737887E+02  0.00000000000E+00 0. -1.
</event>
<event>
 7    1  0.5837204E-012  0.5930194E+02  0.7816164E-02  0.1266605E+00
        -11   -1    0    0    0    0  0.00000000000E+00  0.00000000000E+00  0.45593999997E+02  0.45594000000E+02  0.51100000000E-03 0.  1.
         11   -1    0    0    0    0 -0.00000000000E+00 -0.00000000000E+00 -0.45593999997E+02  0.45594000000E+02  0.51100000000E-03 0. -1.
    9900012    2    1    2    0    0  0.52314394820E+01 -0.13303511586E+02  0.28502098917E+02  0.59301936865E+02  0.49999986937E+02 0.  0.
         12    1    1    2    0    0 -0.52314394820E+01  0.13303511586E+02 -0.28502098917E+02  0.31886063135E+02  0.00000000000E+00 0. -1.
         11    1    3    3    0    0 -0.30505937558E+01  0.10142918695E+02  0.10833820998E+01  0.10647001406E+02  0.51100000000E-03 0. -1.
        -11    1    3    3    0    0 -0.43278680042E+01 -0.11094201866E+02 -0.40459902393E+01  0.12577034379E+02  0.51100000000E-03 0.  1.
        -12    1    3    3    0    0  0.12609901242E+02 -0.12352228415E+02  0.31464707057E+02  0.36077901080E+02  0.00000000000E+00 0.  1.
</event>
<event>
 7    1  0.5837204E-012  0.5930194E+02  0.7816164E-02  0.1266605E+00
        -11   -1    0    0    0    0  0.00000000000E+00  0.00000000000E+00  0.45593999997E+02  0.45594000000E+02  0.51100000000E-03 0. -1.
         11   -1    0    0    0    0 -0.00000000000E+00 -0.00000000000E+00 -0.45593999997E+02  0.45594000000E+02  0.51100000000E-03 0.  1.
    9900012    2    1    2    0    0 -0.85704936718E+01 -0.90635894287E+01 -0.29344828319E+02  0.59301937775E+02  0.49999988597E+02 0.  0.
         12    1    1    2    0    0  0.85704936718E+01  0.90635894287E+01  0.29344828319E+02  0.31886062225E+02  0.00000000000E+00 0. -1.
         11    1    3    3    0    0  0.13100687172E+02 -0.42580359601E+01 -0.34592045276E+01  0.14202991616E+02  0.51100000000E-03 0. -1.
        -11    1    3    3    0    0  0.31200642502E+01 -0.97714088268E+01 -0.22782264894E+01  0.10507404417E+02  0.51100000000E-03 0.  1.
        -12    1    3    3    0    0 -0.24791245094E+02  0.49658553583E+01 -0.23607397302E+02  0.34591541742E+02  0.00000000000E+00 0.  1.
</event>
<event>
 7    1  0.5837204E-012  0.5930187E+02  0.7816164E-02  0.1266605E+00
        -11   -1    0    0    0    0  0.00000000000E+00  0.00000000000E+00  0.45593999997E+02  0.45594000000E+02  0.51100000000E-03 0.  1.
         11   -1    0    0    0    0 -0.00000000000E+00 -0.00000000000E+00 -0.45593999997E+02  0.45594000000E+02  0.51100000000E-03 0. -1.
    9900012    2    1    2    0    0 -0.10534874184E+02  0.90362922145E+01  0.28706920750E+02  0.59301867434E+02  0.49999860312E+02 0.  0.
         12    1    1    2    0    0  0.10534874184E+02 -0.90362922145E+01 -0.28706920750E+02  0.31886132566E+02  0.00000000000E+00 0. -1.
         11    1    3    3    0    0  0.48877352095E+01  0.36688863431E+00 -0.49126694698E+00  0.49260436684E+01  0.51100000000E-03 0. -1.
        -11    1    3    3    0    0  0.12351195843E+02  0.39710312037E+01  0.21606351006E+02  0.25202292190E+02  0.51100000000E-03 0.  1.
        -12    1    3    3    0    0 -0.27773805236E+02  0.46983723765E+01  0.75918366908E+01  0.29173531576E+02  0.00000000000E+00 0.  1.
</event>
<event>
 7    1  0.5837204E-012  0.5930195E+02  0.7816164E-02  0.1266605E+00
        -11   -1    0    0    0    0  0.00000000000E+00  0.00000000000E+00  0.45593999997E+02  0.45594000000E+02  0.51100000000E-03 0.  1.
         11   -1    0    0    0    0 -0.00000000000E+00 -0.00000000000E+00 -0.45593999997E+02  0.45594000000E+02  0.51100000000E-03 0. -1.
    9900012    2    1    2    0    0  0.10381099094E+02 -0.27686596340E+02  0.11933382356E+02  0.59301945843E+02  0.50000003310E+02 0.  0.
         12    1    1    2    0    0 -0.10381099094E+02  0.27686596340E+02 -0.11933382356E+02  0.31886054157E+02  0.00000000000E+00 0. -1.
         11    1    3    3    0    0 -0.73376917500E+01 -0.17410923083E+02  0.29832406295E+01  0.19128034079E+02  0.51100000000E-03 0. -1.
        -11    1    3    3    0    0 -0.24774849058E+01 -0.12668781923E+02  0.14178939506E+02  0.19174939182E+02  0.51100000000E-03 0.  1.
         12    1    3    3    0    0  0.20196275750E+02  0.23931086661E+01 -0.52287977795E+01  0.20998972581E+02  0.00000000000E+00 0. -1.
</event>
<event>
 7    1  0.5837204E-012  0.5930194E+02  0.7816164E-02  0.1266605E+00
        -11   -1    0    0    0    0  0.00000000000E+00  0.00000000000E+00  0.45593999997E+02  0.45594000000E+02  0.51100000000E-03 0. -1.
         11   -1    0    0    0    0 -0.00000000000E+00 -0.00000000000E+00 -0.45593999997E+02  0.45594000000E+02  0.51100000000E-03 0.  1.
    9900012    2    1    2    0    0  0.26250287871E+02 -0.16926711845E+02 -0.64132450534E+01  0.59301938793E+02  0.49999990453E+02 0.  0.
         12    1    1    2    0    0 -0.26250287871E+02  0.16926711845E+02  0.64132450534E+01  0.31886061207E+02  0.00000000000E+00 0. -1.
         11    1    3    3    0    0 -0.20379196518E+01  0.28627087615E+01 -0.36157576795E+01  0.50420156503E+01  0.51100000000E-03 0. -1.
        -11    1    3    3    0    0  0.19120352408E+02  0.12292161414E+00 -0.19034612294E+02  0.26979982420E+02  0.51100000000E-03 0.  1.
         12    1    3    3    0    0  0.91678551146E+01 -0.19912342221E+02  0.16237124921E+02  0.27279940722E+02  0.00000000000E+00 0. -1.
</event>
<event>
 7    1  0.5837204E-012  0.5930195E+02  0.7816164E-02  0.1266605E+00
        -11   -1    0    0    0    0  0.00000000000E+00  0.00000000000E+00  0.45593999997E+02  0.45594000000E+02  0.51100000000E-03 0.  1.
         11   -1    0    0    0    0 -0.00000000000E+00 -0.00000000000E+00 -0.45593999997E+02  0.45594000000E+02  0.51100000000E-03 0. -1.
    9900012    2    1    2    0    0 -0.18338006527E+02 -0.19102477089E+02  0.17763246171E+02  0.59301952442E+02  0.50000015346E+02 0.  0.
         12    1    1    2    0    0  0.18338006527E+02  0.19102477089E+02 -0.17763246171E+02  0.31886047558E+02  0.00000000000E+00 0. -1.
         11    1    3    3    0    0 -0.10617340021E+02 -0.65572513626E+01 -0.26813228438E+01  0.12763813968E+02  0.51100000000E-03 0. -1.
        -11    1    3    3    0    0 -0.14476358529E+02  0.37690953032E+01 -0.48183895474E+01  0.15715849126E+02  0.51100000000E-03 0.  1.
        -12    1    3    3    0    0  0.67556920224E+01 -0.16314321030E+02  0.25262958562E+02  0.30822289348E+02  0.00000000000E+00 0.  1.
</event>
<event>
 7    1  0.5837204E-012  0.5930193E+02  0.7816164E-02  0.1266605E+00
        -11   -1    0    0    0    0  0.00000000000E+00  0.00000000000E+00  0.45593999997E+02  0.45594000000E+02  0.51100000000E-03 0.  1.
         11   -1    0    0    0    0 -0.00000000000E+00 -0.00000000000E+00 -0.45593999997E+02  0.45594000000E+02  0.51100000000E-03 0. -1.
    9900012    2    1    2    0    0 -0.37806925777E+01  0.18345452462E+02  0.25804495508E+02  0.59301933281E+02  0.49999980401E+02 0.  0.
         12    1    1    2    0    0  0.37806925777E+01 -0.18345452462E+02 -0.25804495508E+02  0.31886066719E+02  0.00000000000E+00 0. -1.
         11    1    3    3    0    0 -0.18509836707E+01  0.40200316877E+01  0.12627866152E+02  0.13380949112E+02  0.51100000000E-03 0. -1.
        -11    1    3    3    0    0 -0.18215331469E+02  0.18506181345E+02  0.26916819293E+01  0.26105980165E+02  0.51100000000E-03 0.  1.
         12    1    3    3    0    0  0.16285622562E+02 -0.41807605707E+01  0.10484947426E+02  0.19815004005E+02  0.00000000000E+00 0. -1.
</event>
<event>
 7    1  0.5837204E-012  0.5930196E+02  0.7816164E-02  0.1266605E+00
        -11   -1    0    0    0    0  0.00000000000E+00  0.00000000000E+00  0.45593999997E+02  0.45594000000E+02  0.51100000000E-03 0. -1.
         11   -1    0    0    0    0 -0.00000000000E+00 -0.00000000000E+00 -0.45593999997E+02  0.45594000000E+02  0.51100000000E-03 0.  1.
    9900012    2    1    2    0    0 -0.27502451253E+02  0.14653445479E+02  0.67536150464E+01  0.59301959080E+02  0.50000027452E+02 0.  0.
         12    1    1    2    0    0  0.27502451253E+02 -0.14653445479E+02 -0.67536150464E+01  0.31886040920E+02  0.00000000000E+00 0. -1.
         11    1    3    3    0    0 -0.15608401408E+02  0.22073530634E+02  0.45385812863E+01  0.27412801198E+02  0.51100000000E-03 0. -1.
        -11    1    3    3    0    0 -0.20797606585E+02 -0.89762416409E+01  0.28384855904E+01  0.22829155796E+02  0.51100000000E-03 0.  1.
         12    1    3    3    0    0  0.89035567395E+01  0.15561564855E+01 -0.62345183029E+00  0.90600020864E+01  0.00000000000E+00 0. -1.
</event>
<event>
 7    1  0.5837204E-012  0.5930194E+02  0.7816164E-02  0.1266605E+00
        -11   -1    0    0    0    0  0.00000000000E+00  0.00000000000E+00  0.45593999997E+02  0.45594000000E+02  0.51100000000E-03 0.  1.
         11   -1    0    0    0    0 -0.00000000000E+00 -0.00000000000E+00 -0.45593999997E+02  0.45594000000E+02  0.51100000000E-03 0. -1.
    9900012    2    1    2    0    0  0.23013544973E+01 -0.50879700600E+01  0.31393265966E+02  0.59301940039E+02  0.49999992725E+02 0.  0.
         12    1    1    2    0    0 -0.23013544973E+01  0.50879700600E+01 -0.31393265966E+02  0.31886059961E+02  0.00000000000E+00 0. -1.
         11    1    3    3    0    0  0.10645407327E+02  0.44092309766E+01 -0.42196480489E+01  0.12270755677E+02  0.51100000000E-03 0. -1.
        -11    1    3    3    0    0 -0.57483011224E+00 -0.52536110824E+01 -0.38812290151E+01  0.65570418629E+01  0.51100000000E-03 0.  1.
        -12    1    3    3    0    0 -0.77692227179E+01 -0.42435899541E+01  0.39494143030E+02  0.40474142499E+02  0.00000000000E+00 0.  1.
</event>
<event>
 7    1  0.5837204E-012  0.5930195E+02  0.7816164E-02  0.1266605E+00
        -11   -1    0    0    0    0  0.00000000000E+00  0.00000000000E+00  0.45593999997E+02  0.45594000000E+02  0.51100000000E-03 0. -1.
         11   -1    0    0    0    0 -0.00000000000E+00 -0.00000000000E+00 -0.45593999997E+02  0.45594000000E+02  0.51100000000E-03 0.  1.
    9900012    2    1    2    0    0 -0.23922662646E+02 -0.35073404487E+01 -0.20787615305E+02  0.59301950148E+02  0.50000011162E+02 0.  0.
         12    1    1    2    0    0  0.23922662646E+02  0.35073404487E+01  0.20787615305E+02  0.31886049852E+02  0.00000000000E+00 0. -1.
         11    1    3    3    0    0  0.78664013293E+01 -0.47874293560E+01 -0.56582643264E+01  0.10808131437E+02  0.51100000000E-03 0. -1.
        -11    1    3    3    0    0 -0.23572266264E+02 -0.97772074791E+01 -0.21450075037E+02  0.33336935106E+02  0.51100000000E-03 0.  1.
        -12    1    3    3    0    0 -0.82167977116E+01  0.11057296386E+02  0.63207240581E+01  0.15156883605E+02  0.00000000000E+00 0.  1.
</event>
<event>
 7    1  0.5837204E-012  0.5930195E+02  0.7816164E-02  0.1266605E+00
        -11   -1    0    0    0    0  0.00000000000E+00  0.00000000000E+00  0.45593999997E+02  0.45594000000E+02  0.51100000000E-03 0.  1.
         11   -1    0    0    0    0 -0.00000000000E+00 -0.00000000000E+00 -0.45593999997E+02  0.45594000000E+02  0.51100000000E-03 0. -1.
    9900012    2    1    2    0    0  0.17201597513E+02  0.16561841185E+02  0.21131270980E+02  0.59301950486E+02  0.50000011778E+02 0.  0.
         12    1    1    2    0    0 -0.17201597513E+02 -0.16561841185E+02 -0.21131270980E+02  0.31886049514E+02  0.00000000000E+00 0. -1.
         11    1    3    3    0    0 -0.68864366757E+01  0.20742565306E+02  0.16094650018E+02  0.27142490399E+02  0.51100000000E-03 0. -1.
        -11    1    3    3    0    0 -0.29178146554E+01 -0.36661508991E+01  0.13227215932E-01  0.46855607988E+01  0.51100000000E-03 0.  1.
         12    1    3    3    0    0  0.27005848844E+02 -0.51457322240E+00  0.50233937452E+01  0.27473899288E+02  0.00000000000E+00 0. -1.
</event>
<event>
 7    1  0.5837204E-012  0.5930196E+02  0.7816164E-02  0.1266605E+00
        -11   -1    0    0    0    0  0.00000000000E+00  0.00000000000E+00  0.45593999997E+02  0.45594000000E+02  0.51100000000E-03 0. -1.
         11   -1    0    0    0    0 -0.00000000000E+00 -0.00000000000E+00 -0.45593999997E+02  0.45594000000E+02  0.51100000000E-03 0.  1.
    9900012    2    1    2    0    0 -0.26854001552E+02  0.10163824480E+02 -0.13866453010E+02  0.59301964710E+02  0.50000037720E+02 0.  0.
         12    1    1    2    0    0  0.26854001552E+02 -0.10163824480E+02  0.13866453010E+02  0.31886035290E+02  0.00000000000E+00 0. -1.
         11    1    3    3    0    0  0.37484169275E+00  0.19226634685E+02 -0.34696053495E+00  0.19233418040E+02  0.51100000000E-03 0.  1.
        -11    1    3    3    0    0 -0.68066253901E+00 -0.50132201826E+01 -0.12169652698E+02  0.13179382578E+02  0.51100000000E-03 0. -1.
         12    1    3    3    0    0 -0.26548180706E+02 -0.40495900233E+01 -0.13498397773E+01  0.26889164092E+02  0.00000000000E+00 0. -1.
</event>
<event>
 7    1  0.5837204E-012  0.5930193E+02  0.7816164E-02  0.1266605E+00
        -11   -1    0    0    0    0  0.00000000000E+00  0.00000000000E+00  0.45593999997E+02  0.45594000000E+02  0.51100000000E-03 0.  1.
         11   -1    0    0    0    0 -0.00000000000E+00 -0.00000000000E+00 -0.45593999997E+02  0.45594000000E+02  0.51100000000E-03 0. -1.
    9900012    2    1    2    0    0  0.10448890873E+02  0.24077280117E+02 -0.18105983735E+02  0.59301931172E+02  0.49999976554E+02 0.  0.
         12    1    1    2    0    0 -0.10448890873E+02 -0.24077280117E+02  0.18105983735E+02  0.31886068828E+02  0.00000000000E+00 0. -1.
         11    1    3    3    0    0  0.13858664638E+02 -0.41901609670E+01 -0.66128299567E+00  0.14493354682E+02  0.51100000000E-03 0. -1.
        -11    1    3    3    0    0  0.11047692678E+02  0.11630831719E+02  0.99395582202E+00  0.16072202973E+02  0.51100000000E-03 0.  1.
         12    1    3    3    0    0 -0.14457466442E+02  0.16636609365E+02 -0.18438656561E+02  0.28736373516E+02  0.00000000000E+00 0. -1.
</event>
<event>
 7    1  0.5837204E-012  0.5930193E+02  0.7816164E-02  0.1266605E+00
        -11   -1    0    0    0    0  0.00000000000E+00  0.00000000000E+00  0.45593999997E+02  0.45594000000E+02  0.51100000000E-03 0. -1.
         11   -1    0    0    0    0 -0.00000000000E+00 -0.00000000000E+00 -0.45593999997E+02  0.45594000000E+02  0.51100000000E-03 0.  1.
    9900012    2    1    2    0    0  0.25035856154E+02  0.14455340631E+02 -0.13452517762E+02  0.59301934073E+02  0.49999981845E+02 0.  0.
         12    1    1    2    0    0 -0.25035856154E+02 -0.14455340631E+02  0.13452517762E+02  0.31886065927E+02  0.00000000000E+00 0. -1.
         11    1    3    3    0    0 -0.79051674238E+01 -0.75852876590E+01 -0.34734016393E+00  0.10961245655E+02  0.51100000000E-03 0. -1.
        -11    1    3    3    0    0 -0.15101866590E+01  0.98657951633E+01 -0.32345876220E+01  0.10491765118E+02  0.51100000000E-03 0.  1.
        -12    1    3    3    0    0  0.34451210237E+02  0.12174833127E+02 -0.98705899762E+01  0.37848923300E+02  0.00000000000E+00 0.  1.
</event>
<event>
 7    1  0.5837204E-012  0.5930188E+02  0.7816164E-02  0.1266605E+00
        -11   -1    0    0    0    0  0.00000000000E+00  0.00000000000E+00  0.45593999997E+02  0.45594000000E+02  0.51100000000E-03 0.  1.
         11   -1    0    0    0    0 -0.00000000000E+00 -0.00000000000E+00 -0.45593999997E+02  0.45594000000E+02  0.51100000000E-03 0. -1.
    9900012    2    1    2    0    0  0.15747687250E+02 -0.25834263282E+02  0.10066065989E+02  0.59301882369E+02  0.49999887550E+02 0.  0.
         12    1    1    2    0    0 -0.15747687250E+02  0.25834263282E+02 -0.10066065989E+02  0.31886117631E+02  0.00000000000E+00 0. -1.
         11    1    3    3    0    0  0.11228998322E+02 -0.45834660326E+01  0.57723533593E+01  0.13432000140E+02  0.51100000000E-03 0.  1.
        -11    1    3    3    0    0  0.18721092730E+02  0.36448865346E+00 -0.30785621557E+01  0.18976029885E+02  0.51100000000E-03 0. -1.
        -12    1    3    3    0    0 -0.14202403802E+02 -0.21615285903E+02  0.73722747857E+01  0.26893852345E+02  0.00000000000E+00 0.  1.
</event>
<event>
 7    1  0.5837204E-012  0.5930195E+02  0.7816164E-02  0.1266605E+00
        -11   -1    0    0    0    0  0.00000000000E+00  0.00000000000E+00  0.45593999997E+02  0.45594000000E+02  0.51100000000E-03 0.  1.
         11   -1    0    0    0    0 -0.00000000000E+00 -0.00000000000E+00 -0.45593999997E+02  0.45594000000E+02  0.51100000000E-03 0. -1.
    9900012    2    1    2    0    0 -0.77535342126E+01  0.27794254515E+02  0.13567692925E+02  0.59301950258E+02  0.50000011363E+02 0.  0.
         12    1    1    2    0    0  0.77535342126E+01 -0.27794254515E+02 -0.13567692925E+02  0.31886049742E+02  0.00000000000E+00 0. -1.
         11    1    3    3    0    0 -0.25568622541E+01  0.90865639491E+01 -0.15807440808E+01  0.95708902981E+01  0.51100000000E-03 0. -1.
        -11    1    3    3    0    0 -0.20379122923E+02  0.15023373833E+02  0.21154988173E+02  0.32993089235E+02  0.51100000000E-03 0.  1.
        -12    1    3    3    0    0  0.15182450965E+02  0.36843167324E+01 -0.60065511665E+01  0.16737970725E+02  0.00000000000E+00 0.  1.
</event>
<event>
 7    1  0.5837204E-012  0.5930194E+02  0.7816164E-02  0.1266605E+00
        -11   -1    0    0    0    0  0.00000000000E+00  0.00000000000E+00  0.45593999997E+02  0.45594000000E+02  0.51100000000E-03 0.  1.
         11   -1    0    0    0    0 -0.00000000000E+00 -0.00000000000E+00 -0.45593999997E+02  0.45594000000E+02  0.51100000000E-03 0. -1.
    9900012    2    1    2    0    0 -0.12706487141E+01  0.11727893503E+01  0.31839137158E+02  0.59301942891E+02  0.49999997927E+02 0.  0.
         12    1    1    2    0    0  0.12706487141E+01 -0.11727893503E+01 -0.31839137158E+02  0.31886057109E+02  0.00000000000E+00 0. -1.
         11    1    3    3    0    0 -0.77337859617E+01  0.49987021412E+01  0.10665964251E+02  0.14091176745E+02  0.51100000000E-03 0. -1.
        -11    1    3    3    0    0 -0.16283613949E+02 -0.53431970107E+01  0.96168468547E+01  0.19651706828E+02  0.51100000000E-03 0.  1.
         12    1    3    3    0    0  0.22746751197E+02  0.15172842198E+01  0.11556326051E+02  0.25559059318E+02  0.00000000000E+00 0. -1.
</event>
<event>
 7    1  0.5837204E-012  0.5930200E+02  0.7816164E-02  0.1266605E+00
        -11   -1    0    0    0    0  0.00000000000E+00  0.00000000000E+00  0.45593999997E+02  0.45594000000E+02  0.51100000000E-03 0. -1.
         11   -1    0    0    0    0 -0.00000000000E+00 -0.00000000000E+00 -0.45593999997E+02  0.45594000000E+02  0.51100000000E-03 0.  1.
    9900012    2    1    2    0    0  0.28409982387E+02  0.93850748332E+01 -0.11023175185E+02  0.59301998055E+02  0.50000098533E+02 0.  0.
         12    1    1    2    0    0 -0.28409982387E+02 -0.93850748332E+01  0.11023175185E+02  0.31886001945E+02  0.00000000000E+00 0. -1.
         11    1    3    3    0    0  0.11506827256E+02  0.10966034857E+02  0.87181266175E+01  0.18129167823E+02  0.51100000000E-03 0. -1.
        -11    1    3    3    0    0 -0.93120263354E+01 -0.31040617625E+01 -0.43623368614E+01  0.10741462519E+02  0.51100000000E-03 0.  1.
        -12    1    3    3    0    0  0.26215181467E+02  0.15231017387E+01 -0.15378964941E+02  0.30431367713E+02  0.00000000000E+00 0.  1.
</event>
<event>
 7    1  0.5837204E-012  0.5930195E+02  0.7816164E-02  0.1266605E+00
        -11   -1    0    0    0    0  0.00000000000E+00  0.00000000000E+00  0.45593999997E+02  0.45594000000E+02  0.51100000000E-03 0.  1.
         11   -1    0    0    0    0 -0.00000000000E+00 -0.00000000000E+00 -0.45593999997E+02  0.45594000000E+02  0.51100000000E-03 0. -1.
    9900012    2    1    2    0    0  0.94534356767E+01  0.30216148549E+02  0.37864595131E+01  0.59301947330E+02  0.50000006023E+02 0.  0.
         12    1    1    2    0    0 -0.94534356767E+01 -0.30216148549E+02 -0.37864595131E+01  0.31886052670E+02  0.00000000000E+00 0. -1.
         11    1    3    3    0    0  0.20342833082E+02  0.44777309818E+01  0.23884719260E+01  0.20966299887E+02  0.51100000000E-03 0. -1.
        -11    1    3    3    0    0 -0.19160120730E+01 -0.45573604757E+01 -0.39011622092E+01  0.62975950658E+01  0.51100000000E-03 0.  1.
        -12    1    3    3    0    0 -0.89733853325E+01  0.30295778043E+02  0.52991497963E+01  0.32038052377E+02  0.00000000000E+00 0.  1.
</event>
<event>
 7    1  0.5837204E-012  0.5930193E+02  0.7816164E-02  0.1266605E+00
        -11   -1    0    0    0    0  0.00000000000E+00  0.00000000000E+00  0.45593999997E+02  0.45594000000E+02  0.51100000000E-03 0.  1.
         11   -1    0    0    0    0 -0.00000000000E+00 -0.00000000000E+00 -0.45593999997E+02  0.45594000000E+02  0.51100000000E-03 0. -1.
    9900012    2    1    2    0    0 -0.24218153232E+02 -0.20308510588E+02  0.42150796481E+01  0.59301930241E+02  0.49999974856E+02 0.  0.
         12    1    1    2    0    0  0.24218153232E+02  0.20308510588E+02 -0.42150796481E+01  0.31886069759E+02  0.00000000000E+00 0. -1.
         11    1    3    3    0    0 -0.19181943378E+01  0.12043026358E+02 -0.54355917296E+00  0.12206941067E+02  0.51100000000E-03 0. -1.
        -11    1    3    3    0    0 -0.56153354205E+01 -0.33192434701E+01  0.11233133785E+02  0.12989713777E+02  0.51100000000E-03 0.  1.
        -12    1    3    3    0    0 -0.16684623473E+02 -0.29032293475E+02 -0.64744949641E+01  0.34105275397E+02  0.00000000000E+00 0.  1.
</event>
<event>
 7    1  0.5837204E-012  0.5930196E+02  0.7816164E-02  0.1266605E+00
        -11   -1    0    0    0    0  0.00000000000E+00  0.00000000000E+00  0.45593999997E+02  0.45594000000E+02  0.51100000000E-03 0. -1.
         11   -1    0    0    0    0 -0.00000000000E+00 -0.00000000000E+00 -0.45593999997E+02  0.45594000000E+02  0.51100000000E-03 0.  1.
    9900012    2    1    2    0    0 -0.19621534290E+01 -0.21122621735E+02 -0.23805549568E+02  0.59301962534E+02  0.50000033751E+02 0.  0.
         12    1    1    2    0    0  0.19621534290E+01  0.21122621735E+02  0.23805549568E+02  0.31886037466E+02  0.00000000000E+00 0. -1.
         11    1    3    3    0    0  0.68010225987E+01  0.43133800552E+01  0.32280084493E+01  0.86763583777E+01  0.51100000000E-03 0. -1.
        -11    1    3    3    0    0 -0.28230610983E+00 -0.97443380464E+01 -0.30877024554E+02  0.32379352469E+02  0.51100000000E-03 0.  1.
         12    1    3    3    0    0 -0.84808699178E+01 -0.15691663744E+02  0.38434665369E+01  0.18246251687E+02  0.00000000000E+00 0. -1.
</event>
<event>
 7    1  0.5837204E-012  0.5930201E+02  0.7816164E-02  0.1266605E+00
        -11   -1    0    0    0    0  0.00000000000E+00  0.00000000000E+00  0.45593999997E+02  0.45594000000E+02  0.51100000000E-03 0.  1.
         11   -1    0    0    0    0 -0.00000000000E+00 -0.00000000000E+00 -0.45593999997E+02  0.45594000000E+02  0.51100000000E-03 0. -1.
    9900012    2    1    2    0    0  0.17491425774E+02  0.24465318325E+02  0.10593127028E+02  0.59302013790E+02  0.50000127229E+02 0.  0.
         12    1    1    2    0    0 -0.17491425774E+02 -0.24465318325E+02 -0.10593127028E+02  0.31885986210E+02  0.00000000000E+00 0. -1.
         11    1    3    3    0    0 -0.12839434546E+02  0.14365234749E+02  0.72113040968E+00  0.19280328789E+02  0.51100000000E-03 0. -1.
        -11    1    3    3    0    0 -0.99725201864E+00  0.20929829165E+01  0.72140504929E+01  0.75774411151E+01  0.51100000000E-03 0.  1.
        -12    1    3    3    0    0  0.31328112339E+02  0.80071006593E+01  0.26579461252E+01  0.32444243886E+02  0.00000000000E+00 0.  1.
</event>
<event>
 7    1  0.5837204E-012  0.5930195E+02  0.7816164E-02  0.1266605E+00
        -11   -1    0    0    0    0  0.00000000000E+00  0.00000000000E+00  0.45593999997E+02  0.45594000000E+02  0.51100000000E-03 0. -1.
         11   -1    0    0    0    0 -0.00000000000E+00 -0.00000000000E+00 -0.45593999997E+02  0.45594000000E+02  0.51100000000E-03 0.  1.
    9900012    2    1    2    0    0  0.15720846260E+02 -0.26929401443E+02 -0.66620355737E+01  0.59301946823E+02  0.50000005098E+02 0.  0.
         12    1    1    2    0    0 -0.15720846260E+02  0.26929401443E+02  0.66620355737E+01  0.31886053177E+02  0.00000000000E+00 0. -1.
         11    1    3    3    0    0 -0.64873796892E+00 -0.59577755774E+01 -0.99264966233E+01  0.11595313116E+02  0.51100000000E-03 0. -1.
        -11    1    3    3    0    0 -0.12932904278E+02 -0.31999714338E+01  0.74951955337E+00  0.13343972799E+02  0.51100000000E-03 0.  1.
         12    1    3    3    0    0  0.29302488507E+02 -0.17771654432E+02  0.25149414963E+01  0.34362660908E+02  0.00000000000E+00 0. -1.
</event>
<event>
 7    1  0.5837204E-012  0.5930193E+02  0.7816164E-02  0.1266605E+00
        -11   -1    0    0    0    0  0.00000000000E+00  0.00000000000E+00  0.45593999997E+02  0.45594000000E+02  0.51100000000E-03 0. -1.
         11   -1    0    0    0    0 -0.00000000000E+00 -0.00000000000E+00 -0.45593999997E+02  0.45594000000E+02  0.51100000000E-03 0.  1.
    9900012    2    1    2    0    0 -0.12467252046E+02  0.18341152636E+02 -0.22910498692E+02  0.59301934016E+02  0.49999981742E+02 0.  0.
         12    1    1    2    0    0  0.12467252046E+02 -0.18341152636E+02  0.22910498692E+02  0.31886065984E+02  0.00000000000E+00 0. -1.
         11    1    3    3    0    0  0.27235526910E+01  0.47239015919E+00  0.37944811577E+01  0.46945691219E+01  0.51100000000E-03 0. -1.
        -11    1    3    3    0    0 -0.22219550276E+02 -0.42177882197E+01 -0.56906997454E+01  0.23321282465E+02  0.51100000000E-03 0.  1.
         12    1    3    3    0    0  0.70287455391E+01  0.22086550696E+02 -0.21014280104E+02  0.31286082430E+02  0.00000000000E+00 0. -1.
</event>
<event>
 7    1  0.5837204E-012  0.5930194E+02  0.7816164E-02  0.1266605E+00
        -11   -1    0    0    0    0  0.00000000000E+00  0.00000000000E+00  0.45593999997E+02  0.45594000000E+02  0.51100000000E-03 0. -1.
         11   -1    0    0    0    0 -0.00000000000E+00 -0.00000000000E+00 -0.45593999997E+02  0.45594000000E+02  0.51100000000E-03 0.  1.
    9900012    2    1    2    0    0  0.24325145107E+02 -0.19701778032E+02  0.60702663881E+01  0.59301939157E+02  0.49999991116E+02 0.  0.
         12    1    1    2    0    0 -0.24325145107E+02  0.19701778032E+02 -0.60702663881E+01  0.31886060843E+02  0.00000000000E+00 0. -1.
         11    1    3    3    0    0 -0.44603867486E+01 -0.12203196325E+01  0.14565604494E+02  0.15282050402E+02  0.51100000000E-03 0. -1.
        -11    1    3    3    0    0  0.14888126818E+02 -0.12224477112E+02  0.86179986885E+01  0.21103650453E+02  0.51100000000E-03 0.  1.
         12    1    3    3    0    0  0.13897405037E+02 -0.62569812878E+01 -0.17113336795E+02  0.22916238301E+02  0.00000000000E+00 0. -1.
</event>
<event>
 7    1  0.5837204E-012  0.5930192E+02  0.7816164E-02  0.1266605E+00
        -11   -1    0    0    0    0  0.00000000000E+00  0.00000000000E+00  0.45593999997E+02  0.45594000000E+02  0.51100000000E-03 0. -1.
         11   -1    0    0    0    0 -0.00000000000E+00 -0.00000000000E+00 -0.45593999997E+02  0.45594000000E+02  0.51100000000E-03 0.  1.
    9900012    2    1    2    0    0 -0.49492552036E+01  0.29222310028E+02 -0.11759394005E+02  0.59301923449E+02  0.49999962470E+02 0.  0.
         12    1    1    2    0    0  0.49492552036E+01 -0.29222310028E+02  0.11759394005E+02  0.31886076551E+02  0.00000000000E+00 0. -1.
         11    1    3    3    0    0  0.87829656233E+01  0.61753400241E+01 -0.47567971882E+01  0.11743186506E+02  0.51100000000E-03 0. -1.
        -11    1    3    3    0    0 -0.85450727138E+01 -0.20342858674E+01 -0.17733349602E+02  0.19789600174E+02  0.51100000000E-03 0.  1.
        -12    1    3    3    0    0 -0.51871481131E+01  0.25081255871E+02  0.10730752785E+02  0.27769136770E+02  0.00000000000E+00 0.  1.
</event>
<event>
 7    1  0.5837204E-012  0.5930198E+02  0.7816164E-02  0.1266605E+00
        -11   -1    0    0    0    0  0.00000000000E+00  0.00000000000E+00  0.45593999997E+02  0.45594000000E+02  0.51100000000E-03 0.  1.
         11   -1    0    0    0    0 -0.00000000000E+00 -0.00000000000E+00 -0.45593999997E+02  0.45594000000E+02  0.51100000000E-03 0. -1.
    9900012    2    1    2    0    0 -0.18552121730E+01  0.68612736236E+00  0.31824611685E+02  0.59301976543E+02  0.50000059301E+02 0.  0.
         12    1    1    2    0    0  0.18552121730E+01 -0.68612736236E+00 -0.31824611685E+02  0.31886023457E+02  0.00000000000E+00 0. -1.
         11    1    3    3    0    0  0.14992145732E+02  0.96441677764E+01  0.21394791295E+02  0.27848007120E+02  0.51100000000E-03 0. -1.
        -11    1    3    3    0    0  0.54911600776E+01 -0.37179868794E+01  0.12902916371E+01  0.67558210606E+01  0.51100000000E-03 0.  1.
        -12    1    3    3    0    0 -0.22338517983E+02 -0.52400535347E+01  0.91395287534E+01  0.24698148363E+02  0.00000000000E+00 0.  1.
</event>
<event>
 7    1  0.5837204E-012  0.5930194E+02  0.7816164E-02  0.1266605E+00
        -11   -1    0    0    0    0  0.00000000000E+00  0.00000000000E+00  0.45593999997E+02  0.45594000000E+02  0.51100000000E-03 0.  1.
         11   -1    0    0    0    0 -0.00000000000E+00 -0.00000000000E+00 -0.45593999997E+02  0.45594000000E+02  0.51100000000E-03 0. -1.
    9900012    2    1    2    0    0 -0.15956162239E+01 -0.15262280700E+02  0.27950628955E+02  0.59301939374E+02  0.49999991513E+02 0.  0.
         12    1    1    2    0    0  0.15956162239E+01  0.15262280700E+02 -0.27950628955E+02  0.31886060626E+02  0.00000000000E+00 0. -1.
         11    1    3    3    0    0 -0.17303736195E+02 -0.13976650529E+02  0.18800356254E+02  0.29124207146E+02  0.51100000000E-03 0. -1.
        -11    1    3    3    0    0  0.11168679067E+01 -0.11071135491E+02  0.25953444207E+01  0.11425990018E+02  0.51100000000E-03 0.  1.
         12    1    3    3    0    0  0.14591252065E+02  0.97855053196E+01  0.65549282796E+01  0.18751742210E+02  0.00000000000E+00 0. -1.
</event>
<event>
 7    1  0.5837204E-012  0.5930195E+02  0.7816164E-02  0.1266605E+00
        -11   -1    0    0    0    0  0.00000000000E+00  0.00000000000E+00  0.45593999997E+02  0.45594000000E+02  0.51100000000E-03 0.  1.
         11   -1    0    0    0    0 -0.00000000000E+00 -0.00000000000E+00 -0.45593999997E+02  0.45594000000E+02  0.51100000000E-03 0. -1.
    9900012    2    1    2    0    0  0.16141853300E+02  0.16941353437E+01  0.27446139493E+02  0.59301951396E+02  0.50000013438E+02 0.  0.
         12    1    1    2    0    0 -0.16141853300E+02 -0.16941353437E+01 -0.27446139493E+02  0.31886048604E+02  0.00000000000E+00 0. -1.
         11    1    3    3    0    0  0.41871984466E+01  0.87780050751E+01  0.20779650391E+02  0.22942970047E+02  0.51100000000E-03 0. -1.
        -11    1    3    3    0    0  0.16419121908E+02  0.41966885171E+01  0.14173164099E+02  0.22092495097E+02  0.51100000000E-03 0.  1.
         12    1    3    3    0    0 -0.44644670553E+01 -0.11280558248E+02 -0.75066749974E+01  0.14266486253E+02  0.00000000000E+00 0. -1.
</event>
<event>
 7    1  0.5837204E-012  0.5930196E+02  0.7816164E-02  0.1266605E+00
        -11   -1    0    0    0    0  0.00000000000E+00  0.00000000000E+00  0.45593999997E+02  0.45594000000E+02  0.51100000000E-03 0. -1.
         11   -1    0    0    0    0 -0.00000000000E+00 -0.00000000000E+00 -0.45593999997E+02  0.45594000000E+02  0.51100000000E-03 0.  1.
    9900012    2    1    2    0    0  0.69806146706E+01  0.19624720592E+02 -0.24142508798E+02  0.59301962765E+02  0.50000034172E+02 0.  0.
         12    1    1    2    0    0 -0.69806146706E+01 -0.19624720592E+02  0.24142508798E+02  0.31886037235E+02  0.00000000000E+00 0. -1.
         11    1    3    3    0    0  0.81275004434E+01  0.19656760301E+02 -0.73270639209E+01  0.22497341064E+02  0.51100000000E-03 0. -1.
        -11    1    3    3    0    0 -0.12261624545E+02  0.87653295130E+01 -0.16879396189E+02  0.22629459868E+02  0.51100000000E-03 0.  1.
        -12    1    3    3    0    0  0.11114738772E+02 -0.87973692224E+01  0.63951311838E-01  0.14175161832E+02  0.00000000000E+00 0.  1.
</event>
<event>
 7    1  0.5837204E-012  0.5930195E+02  0.7816164E-02  0.1266605E+00
        -11   -1    0    0    0    0  0.00000000000E+00  0.00000000000E+00  0.45593999997E+02  0.45594000000E+02  0.51100000000E-03 0. -1.
         11   -1    0    0    0    0 -0.00000000000E+00 -0.00000000000E+00 -0.45593999997E+02  0.45594000000E+02  0.51100000000E-03 0.  1.
    9900012    2    1    2    0    0  0.90977833822E+01  0.30323769181E+02 -0.37973121634E+01  0.59301949453E+02  0.50000009895E+02 0.  0.
         12    1    1    2    0    0 -0.90977833822E+01 -0.30323769181E+02  0.37973121634E+01  0.31886050547E+02  0.00000000000E+00 0. -1.
         11    1    3    3    0    0  0.20357687703E+02  0.12476675617E+02 -0.37731325785E+01  0.24173113428E+02  0.51100000000E-03 0. -1.
        -11    1    3    3    0    0  0.89168840953E+01  0.25174227581E+01 -0.26932559312E+01  0.96489308778E+01  0.51100000000E-03 0.  1.
        -12    1    3    3    0    0 -0.20176788416E+02  0.15329670805E+02  0.26690763463E+01  0.25479905148E+02  0.00000000000E+00 0.  1.
</event>
<event>
 7    1  0.5837204E-012  0.5930203E+02  0.7816164E-02  0.1266604E+00
        -11   -1    0    0    0    0  0.00000000000E+00  0.00000000000E+00  0.45593999997E+02  0.45594000000E+02  0.51100000000E-03 0.  1.
         11   -1    0    0    0    0 -0.00000000000E+00 -0.00000000000E+00 -0.45593999997E+02  0.45594000000E+02  0.51100000000E-03 0. -1.
    9900012    2    1    2    0    0 -0.93106951433E+01  0.29311838654E+01  0.30355134412E+02  0.59302030231E+02  0.50000157214E+02 0.  0.
         12    1    1    2    0    0  0.93106951433E+01 -0.29311838654E+01 -0.30355134412E+02  0.31885969769E+02  0.00000000000E+00 0. -1.
         11    1    3    3    0    0 -0.14209523994E+02 -0.48608045200E+01 -0.82186256026E+01  0.17119690411E+02  0.51100000000E-03 0. -1.
        -11    1    3    3    0    0 -0.26414362978E+01  0.69347120258E+01  0.90734125629E+01  0.11721528586E+02  0.51100000000E-03 0.  1.
        -12    1    3    3    0    0  0.75402651480E+01  0.85727635965E+00  0.29500347452E+02  0.30460811234E+02  0.00000000000E+00 0.  1.
</event>
<event>
 7    1  0.5837204E-012  0.5930193E+02  0.7816164E-02  0.1266605E+00
        -11   -1    0    0    0    0  0.00000000000E+00  0.00000000000E+00  0.45593999997E+02  0.45594000000E+02  0.51100000000E-03 0.  1.
         11   -1    0    0    0    0 -0.00000000000E+00 -0.00000000000E+00 -0.45593999997E+02  0.45594000000E+02  0.51100000000E-03 0. -1.
    9900012    2    1    2    0    0 -0.29170641540E+02 -0.12875905397E+02 -0.77234918671E-01  0.59301933562E+02  0.49999980913E+02 0.  0.
         12    1    1    2    0    0  0.29170641540E+02  0.12875905397E+02  0.77234918671E-01  0.31886066438E+02  0.00000000000E+00 0. -1.
         11    1    3    3    0    0 -0.22904130546E+02  0.11745328330E+01  0.17675300721E+02  0.28955051014E+02  0.51100000000E-03 0. -1.
        -11    1    3    3    0    0 -0.86839309185E+01 -0.19749887757E+01 -0.20361172102E+00  0.89080129577E+01  0.51100000000E-03 0.  1.
        -12    1    3    3    0    0  0.24174199235E+01 -0.12075449454E+02 -0.17548923918E+02  0.21438869590E+02  0.00000000000E+00 0.  1.
</event>
<event>
 7    1  0.5837204E-012  0.5930195E+02  0.7816164E-02  0.1266605E+00
        -11   -1    0    0    0    0  0.00000000000E+00  0.00000000000E+00  0.45593999997E+02  0.45594000000E+02  0.51100000000E-03 0.  1.
         11   -1    0    0    0    0 -0.00000000000E+00 -0.00000000000E+00 -0.45593999997E+02  0.45594000000E+02  0.51100000000E-03 0. -1.
    9900012    2    1    2    0    0 -0.28037429260E+01 -0.14855820841E+02  0.28074258596E+02  0.59301946890E+02  0.50000005219E+02 0.  0.
         12    1    1    2    0    0  0.28037429260E+01  0.14855820841E+02 -0.28074258596E+02  0.31886053110E+02  0.00000000000E+00 0. -1.
         11    1    3    3    0    0  0.42281308514E+01 -0.21836009756E+02  0.10057100940E+02  0.24409704876E+02  0.51100000000E-03 0. -1.
        -11    1    3    3    0    0  0.17731939954E+01  0.12595940478E+01 -0.72292269025E+01  0.75493387776E+01  0.51100000000E-03 0.  1.
        -12    1    3    3    0    0 -0.88050677728E+01  0.57205948670E+01  0.25246384558E+02  0.27342903236E+02  0.00000000000E+00 0.  1.
</event>
<event>
 7    1  0.5837204E-012  0.5930192E+02  0.7816164E-02  0.1266605E+00
        -11   -1    0    0    0    0  0.00000000000E+00  0.00000000000E+00  0.45593999997E+02  0.45594000000E+02  0.51100000000E-03 0.  1.
         11   -1    0    0    0    0 -0.00000000000E+00 -0.00000000000E+00 -0.45593999997E+02  0.45594000000E+02  0.51100000000E-03 0. -1.
    9900012    2    1    2    0    0 -0.21592510003E+02 -0.68167340200E+01  0.22450335468E+02  0.59301922888E+02  0.49999961446E+02 0.  0.
         12    1    1    2    0    0  0.21592510003E+02  0.68167340200E+01 -0.22450335468E+02  0.31886077112E+02  0.00000000000E+00 0. -1.
         11    1    3    3    0    0 -0.29501866995E+01  0.12585019251E+02  0.25751435400E+01  0.13180200136E+02  0.51100000000E-03 0. -1.
        -11    1    3    3    0    0  0.58870767932E+01 -0.13713334403E+02  0.13554264772E+02  0.20160141552E+02  0.51100000000E-03 0.  1.
        -12    1    3    3    0    0 -0.24529400097E+02 -0.56884188677E+01  0.63209271569E+01  0.25961581201E+02  0.00000000000E+00 0.  1.
</event>
<event>
 7    1  0.5837204E-012  0.5930193E+02  0.7816164E-02  0.1266605E+00
        -11   -1    0    0    0    0  0.00000000000E+00  0.00000000000E+00  0.45593999997E+02  0.45594000000E+02  0.51100000000E-03 0. -1.
         11   -1    0    0    0    0 -0.00000000000E+00 -0.00000000000E+00 -0.45593999997E+02  0.45594000000E+02  0.51100000000E-03 0.  1.
    9900012    2    1    2    0    0  0.92447329028E+01  0.29896179693E+02 -0.61216655411E+01  0.59301930382E+02  0.49999975114E+02 0.  0.
         12    1    1    2    0    0 -0.92447329028E+01 -0.29896179693E+02  0.61216655411E+01  0.31886069618E+02  0.00000000000E+00 0. -1.
         11    1    3    3    0    0  0.13608274161E+02  0.11321316937E+02 -0.17782713928E+02  0.25091477791E+02  0.51100000000E-03 0.  1.
        -11    1    3    3    0    0 -0.15084883240E+02  0.12415581374E+02  0.50046741946E+01  0.20167972810E+02  0.51100000000E-03 0. -1.
         12    1    3    3    0    0  0.10721341982E+02  0.61592813808E+01  0.66563741922E+01  0.14042479781E+02  0.00000000000E+00 0. -1.
</event>
<event>
 7    1  0.5837204E-012  0.5930195E+02  0.7816164E-02  0.1266605E+00
        -11   -1    0    0    0    0  0.00000000000E+00  0.00000000000E+00  0.45593999997E+02  0.45594000000E+02  0.51100000000E-03 0.  1.
         11   -1    0    0    0    0 -0.00000000000E+00 -0.00000000000E+00 -0.45593999997E+02  0.45594000000E+02  0.51100000000E-03 0. -1.
    9900012    2    1    2    0    0  0.92110861370E+01  0.19423993777E+02  0.23549617225E+02  0.59301951115E+02  0.50000012926E+02 0.  0.
         12    1    1    2    0    0 -0.92110861370E+01 -0.19423993777E+02 -0.23549617225E+02  0.31886048885E+02  0.00000000000E+00 0. -1.
         11    1    3    3    0    0  0.73073589535E+01 -0.44193530075E+01 -0.42188019589E+00  0.85502139763E+01  0.51100000000E-03 0. -1.
        -11    1    3    3    0    0 -0.10317190760E+02 -0.52577187412E+01  0.12823085180E+02  0.17277718175E+02  0.51100000000E-03 0.  1.
        -12    1    3    3    0    0  0.12220917944E+02  0.29101065525E+02  0.11148412241E+02  0.33474018964E+02  0.00000000000E+00 0.  1.
</event>
<event>
 7    1  0.5837204E-012  0.5930193E+02  0.7816164E-02  0.1266605E+00
        -11   -1    0    0    0    0  0.00000000000E+00  0.00000000000E+00  0.45593999997E+02  0.45594000000E+02  0.51100000000E-03 0.  1.
         11   -1    0    0    0    0 -0.00000000000E+00 -0.00000000000E+00 -0.45593999997E+02  0.45594000000E+02  0.51100000000E-03 0. -1.
    9900012    2    1    2    0    0  0.19396526091E+02 -0.88932400015E+01  0.23694015317E+02  0.59301932448E+02  0.49999978881E+02 0.  0.
         12    1    1    2    0    0 -0.19396526091E+02  0.88932400015E+01 -0.23694015317E+02  0.31886067552E+02  0.00000000000E+00 0. -1.
         11    1    3    3    0    0  0.12101938440E+02  0.75528450710E+01 -0.85736385296E+01  0.16643607199E+02  0.51100000000E-03 0. -1.
        -11    1    3    3    0    0  0.93621653912E+01  0.17956273289E+01  0.10468228825E+02  0.14158327349E+02  0.51100000000E-03 0.  1.
         12    1    3    3    0    0 -0.20675777410E+01 -0.18241712401E+02  0.21799425021E+02  0.28499997900E+02  0.00000000000E+00 0. -1.
</event>
<event>
 7    1  0.5837204E-012  0.5930202E+02  0.7816164E-02  0.1266604E+00
        -11   -1    0    0    0    0  0.00000000000E+00  0.00000000000E+00  0.45593999997E+02  0.45594000000E+02  0.51100000000E-03 0.  1.
         11   -1    0    0    0    0 -0.00000000000E+00 -0.00000000000E+00 -0.45593999997E+02  0.45594000000E+02  0.51100000000E-03 0. -1.
    9900012    2    1    2    0    0 -0.62242531926E+01 -0.10971047132E+02  0.29284985561E+02  0.59302022168E+02  0.50000142509E+02 0.  0.
         12    1    1    2    0    0  0.62242531926E+01  0.10971047132E+02 -0.29284985561E+02  0.31885977832E+02  0.00000000000E+00 0. -1.
         11    1    3    3    0    0  0.23501506568E+01 -0.16068380154E+02  0.11610730925E+02  0.19963093993E+02  0.51100000000E-03 0. -1.
        -11    1    3    3    0    0 -0.16075004809E+02 -0.92175678903E+01  0.62814779634E+01  0.19565947539E+02  0.51100000000E-03 0.  1.
        -12    1    3    3    0    0  0.75006009600E+01  0.14314900913E+02  0.11392776673E+02  0.19772980636E+02  0.00000000000E+00 0.  1.
</event>
<event>
 7    1  0.5837204E-012  0.5930196E+02  0.7816164E-02  0.1266605E+00
        -11   -1    0    0    0    0  0.00000000000E+00  0.00000000000E+00  0.45593999997E+02  0.45594000000E+02  0.51100000000E-03 0. -1.
         11   -1    0    0    0    0 -0.00000000000E+00 -0.00000000000E+00 -0.45593999997E+02  0.45594000000E+02  0.51100000000E-03 0.  1.
    9900012    2    1    2    0    0  0.24842743821E+02  0.14595109489E+02 -0.13657986225E+02  0.59301957140E+02  0.50000023913E+02 0.  0.
         12    1    1    2    0    0 -0.24842743821E+02 -0.14595109489E+02  0.13657986225E+02  0.31886042860E+02  0.00000000000E+00 0. -1.
         11    1    3    3    0    0 -0.29466672170E+01  0.89879467131E+01 -0.19935039396E+02  0.22065172326E+02  0.51100000000E-03 0. -1.
        -11    1    3    3    0    0 -0.33078414228E+01 -0.15271776765E+01 -0.21592329815E+01  0.42351356370E+01  0.51100000000E-03 0.  1.
        -12    1    3    3    0    0  0.31097252461E+02  0.71343404525E+01  0.84362861521E+01  0.33001649176E+02  0.00000000000E+00 0.  1.
</event>
<event>
 7    1  0.5837204E-012  0.5930196E+02  0.7816164E-02  0.1266605E+00
        -11   -1    0    0    0    0  0.00000000000E+00  0.00000000000E+00  0.45593999997E+02  0.45594000000E+02  0.51100000000E-03 0.  1.
         11   -1    0    0    0    0 -0.00000000000E+00 -0.00000000000E+00 -0.45593999997E+02  0.45594000000E+02  0.51100000000E-03 0. -1.
    9900012    2    1    2    0    0  0.12796514772E+02 -0.18234569017E+01  0.29148648842E+02  0.59301960505E+02  0.50000030050E+02 0.  0.
         12    1    1    2    0    0 -0.12796514772E+02  0.18234569017E+01 -0.29148648842E+02  0.31886039495E+02  0.00000000000E+00 0. -1.
         11    1    3    3    0    0  0.99851165107E+01 -0.81895495045E+01 -0.69383983013E+01  0.14659899183E+02  0.51100000000E-03 0. -1.
        -11    1    3    3    0    0  0.11326617461E+02  0.23280905986E+01  0.58272898526E+01  0.12948728749E+02  0.51100000000E-03 0.  1.
        -12    1    3    3    0    0 -0.85152191995E+01  0.40380020043E+01  0.30259757291E+02  0.31693332572E+02  0.00000000000E+00 0.  1.
</event>
<event>
 7    1  0.5837204E-012  0.5930194E+02  0.7816164E-02  0.1266605E+00
        -11   -1    0    0    0    0  0.00000000000E+00  0.00000000000E+00  0.45593999997E+02  0.45594000000E+02  0.51100000000E-03 0.  1.
         11   -1    0    0    0    0 -0.00000000000E+00 -0.00000000000E+00 -0.45593999997E+02  0.45594000000E+02  0.51100000000E-03 0. -1.
    9900012    2    1    2    0    0 -0.23716276148E+02  0.15626592017E+02  0.14493741464E+02  0.59301942325E+02  0.49999996895E+02 0.  0.
         12    1    1    2    0    0  0.23716276148E+02 -0.15626592017E+02 -0.14493741464E+02  0.31886057675E+02  0.00000000000E+00 0. -1.
         11    1    3    3    0    0 -0.73319383323E+00 -0.32924474662E+01  0.29949051018E+01  0.45107915430E+01  0.51100000000E-03 0. -1.
        -11    1    3    3    0    0 -0.27122447838E+02  0.89773935082E+01  0.24691704949E+02  0.37761105181E+02  0.51100000000E-03 0.  1.
         12    1    3    3    0    0  0.41393655236E+01  0.99416459748E+01 -0.13192868587E+02  0.17030045601E+02  0.00000000000E+00 0. -1.
</event>
<event>
 7    1  0.5837204E-012  0.5930194E+02  0.7816164E-02  0.1266605E+00
        -11   -1    0    0    0    0  0.00000000000E+00  0.00000000000E+00  0.45593999997E+02  0.45594000000E+02  0.51100000000E-03 0.  1.
         11   -1    0    0    0    0 -0.00000000000E+00 -0.00000000000E+00 -0.45593999997E+02  0.45594000000E+02  0.51100000000E-03 0. -1.
    9900012    2    1    2    0    0 -0.23171450735E+02 -0.19587575570E+02  0.98046579700E+01  0.59301944054E+02  0.50000000048E+02 0.  0.
         12    1    1    2    0    0  0.23171450735E+02  0.19587575570E+02 -0.98046579700E+01  0.31886055946E+02  0.00000000000E+00 0. -1.
         11    1    3    3    0    0 -0.13769849818E+01  0.76853216039E+01 -0.42089376695E+00  0.78190413492E+01  0.51100000000E-03 0. -1.
        -11    1    3    3    0    0 -0.28596037021E+02 -0.15640371653E+02  0.16598477271E+02  0.36576823355E+02  0.51100000000E-03 0.  1.
         12    1    3    3    0    0  0.68015712681E+01 -0.11632525522E+02 -0.63729255344E+01  0.14906079350E+02  0.00000000000E+00 0. -1.
</event>
<event>
 7    1  0.5837204E-012  0.5930195E+02  0.7816164E-02  0.1266605E+00
        -11   -1    0    0    0    0  0.00000000000E+00  0.00000000000E+00  0.45593999997E+02  0.45594000000E+02  0.51100000000E-03 0.  1.
         11   -1    0    0    0    0 -0.00000000000E+00 -0.00000000000E+00 -0.45593999997E+02  0.45594000000E+02  0.51100000000E-03 0. -1.
    9900012    2    1    2    0    0 -0.13301671729E+02  0.25262143629E+02  0.14198928777E+02  0.59301953680E+02  0.50000017603E+02 0.  0.
         12    1    1    2    0    0  0.13301671729E+02 -0.25262143629E+02 -0.14198928777E+02  0.31886046320E+02  0.00000000000E+00 0. -1.
         11    1    3    3    0    0  0.68056603300E+00 -0.59140803482E+01 -0.62811617797E+01  0.86540458778E+01  0.51100000000E-03 0. -1.
        -11    1    3    3    0    0 -0.48484077676E+01 -0.20176773528E+01  0.14865028646E+02  0.15765378419E+02  0.51100000000E-03 0.  1.
        -12    1    3    3    0    0 -0.91338299942E+01  0.33193901330E+02  0.56150619108E+01  0.34882529383E+02  0.00000000000E+00 0.  1.
</event>
<event>
 7    1  0.5837204E-012  0.5930196E+02  0.7816164E-02  0.1266605E+00
        -11   -1    0    0    0    0  0.00000000000E+00  0.00000000000E+00  0.45593999997E+02  0.45594000000E+02  0.51100000000E-03 0.  1.
         11   -1    0    0    0    0 -0.00000000000E+00 -0.00000000000E+00 -0.45593999997E+02  0.45594000000E+02  0.51100000000E-03 0. -1.
    9900012    2    1    2    0    0 -0.18541955616E+02 -0.22589480246E+02  0.12752677482E+02  0.59301960440E+02  0.50000029932E+02 0.  0.
         12    1    1    2    0    0  0.18541955616E+02  0.22589480246E+02 -0.12752677482E+02  0.31886039560E+02  0.00000000000E+00 0. -1.
         11    1    3    3    0    0 -0.46736924787E+01 -0.14531382422E+02  0.14868313888E+02  0.21308947290E+02  0.51100000000E-03 0.  1.
        -11    1    3    3    0    0 -0.91917423677E+01 -0.17366267632E+02 -0.12497101263E+02  0.23286324731E+02  0.51100000000E-03 0. -1.
         12    1    3    3    0    0 -0.46765207699E+01  0.93081698078E+01  0.10381464858E+02  0.14706688420E+02  0.00000000000E+00 0. -1.
</event>
<event>
 7    1  0.5837204E-012  0.5930194E+02  0.7816164E-02  0.1266605E+00
        -11   -1    0    0    0    0  0.00000000000E+00  0.00000000000E+00  0.45593999997E+02  0.45594000000E+02  0.51100000000E-03 0. -1.
         11   -1    0    0    0    0 -0.00000000000E+00 -0.00000000000E+00 -0.45593999997E+02  0.45594000000E+02  0.51100000000E-03 0.  1.
    9900012    2    1    2    0    0 -0.22287756648E+02 -0.18037777366E+02 -0.13950449178E+02  0.59301944412E+02  0.50000000700E+02 0.  0.
         12    1    1    2    0    0  0.22287756648E+02  0.18037777366E+02  0.13950449178E+02  0.31886055588E+02  0.00000000000E+00 0. -1.
         11    1    3    3    0    0  0.27018456335E+01 -0.35928027216E+01  0.58331705711E+01  0.73643791589E+01  0.51100000000E-03 0. -1.
        -11    1    3    3    0    0 -0.24646325131E+02  0.68779683291E+01 -0.52244059403E+01  0.26115937825E+02  0.51100000000E-03 0.  1.
        -12    1    3    3    0    0 -0.34327715051E+00 -0.21322942973E+02 -0.14559213809E+02  0.25821627427E+02  0.00000000000E+00 0.  1.
</event>
<event>
 7    1  0.5837204E-012  0.5930192E+02  0.7816164E-02  0.1266605E+00
        -11   -1    0    0    0    0  0.00000000000E+00  0.00000000000E+00  0.45593999997E+02  0.45594000000E+02  0.51100000000E-03 0.  1.
         11   -1    0    0    0    0 -0.00000000000E+00 -0.00000000000E+00 -0.45593999997E+02  0.45594000000E+02  0.51100000000E-03 0. -1.
    9900012    2    1    2    0    0 -0.23781743435E+02 -0.16826220263E+02  0.12962597412E+02  0.59301922461E+02  0.49999960667E+02 0.  0.
         12    1    1    2    0    0  0.23781743435E+02  0.16826220263E+02 -0.12962597412E+02  0.31886077539E+02  0.00000000000E+00 0. -1.
         11    1    3    3    0    0  0.69916547348E+00 -0.15356411884E+02  0.23240223859E+02  0.27864246331E+02  0.51100000000E-03 0. -1.
        -11    1    3    3    0    0 -0.40163510831E+01 -0.56077917067E+01  0.20440835077E+01  0.71942116661E+01  0.51100000000E-03 0.  1.
         12    1    3    3    0    0 -0.20464557826E+02  0.41379833277E+01 -0.12321709954E+02  0.24243464464E+02  0.00000000000E+00 0. -1.
</event>
<event>
 7    1  0.5837204E-012  0.5930193E+02  0.7816164E-02  0.1266605E+00
        -11   -1    0    0    0    0  0.00000000000E+00  0.00000000000E+00  0.45593999997E+02  0.45594000000E+02  0.51100000000E-03 0.  1.
         11   -1    0    0    0    0 -0.00000000000E+00 -0.00000000000E+00 -0.45593999997E+02  0.45594000000E+02  0.51100000000E-03 0. -1.
    9900012    2    1    2    0    0  0.58867948330E+01 -0.13570436094E+02  0.28247306601E+02  0.59301930637E+02  0.49999975578E+02 0.  0.
         12    1    1    2    0    0 -0.58867948330E+01  0.13570436094E+02 -0.28247306601E+02  0.31886069363E+02  0.00000000000E+00 0. -1.
         11    1    3    3    0    0  0.66359926991E+01  0.40905207436E+01 -0.20583109750E+01  0.80625928452E+01  0.51100000000E-03 0. -1.
        -11    1    3    3    0    0  0.89341816375E+01 -0.71313158558E+01 -0.54971892299E+01  0.12684413942E+02  0.51100000000E-03 0.  1.
        -12    1    3    3    0    0 -0.96833795037E+01 -0.10529640982E+02  0.35802806806E+02  0.38554923849E+02  0.00000000000E+00 0.  1.
</event>
<event>
 7    1  0.5837204E-012  0.5930195E+02  0.7816164E-02  0.1266605E+00
        -11   -1    0    0    0    0  0.00000000000E+00  0.00000000000E+00  0.45593999997E+02  0.45594000000E+02  0.51100000000E-03 0. -1.
         11   -1    0    0    0    0 -0.00000000000E+00 -0.00000000000E+00 -0.45593999997E+02  0.45594000000E+02  0.51100000000E-03 0.  1.
    9900012    2    1    2    0    0  0.30624724513E+02 -0.88770695117E+01  0.20929833832E+00  0.59301954143E+02  0.50000018448E+02 0.  0.
         12    1    1    2    0    0 -0.30624724513E+02  0.88770695117E+01 -0.20929833832E+00  0.31886045857E+02  0.00000000000E+00 0. -1.
         11    1    3    3    0    0 -0.13167408614E+01  0.11816978416E+02  0.63346890312E+01  0.13472307551E+02  0.51100000000E-03 0. -1.
        -11    1    3    3    0    0  0.32214767685E+01  0.20597846257E+01 -0.82851086387E+01  0.91248918180E+01  0.51100000000E-03 0.  1.
         12    1    3    3    0    0  0.28719988606E+02 -0.22753832553E+02  0.21597179458E+01  0.36704754773E+02  0.00000000000E+00 0. -1.
</event>
<event>
 7    1  0.5837204E-012  0.5930195E+02  0.7816164E-02  0.1266605E+00
        -11   -1    0    0    0    0  0.00000000000E+00  0.00000000000E+00  0.45593999997E+02  0.45594000000E+02  0.51100000000E-03 0.  1.
         11   -1    0    0    0    0 -0.00000000000E+00 -0.00000000000E+00 -0.45593999997E+02  0.45594000000E+02  0.51100000000E-03 0. -1.
    9900012    2    1    2    0    0 -0.19813403644E+02 -0.17655373224E+01  0.24920514514E+02  0.59301950862E+02  0.50000012464E+02 0.  0.
         12    1    1    2    0    0  0.19813403644E+02  0.17655373224E+01 -0.24920514514E+02  0.31886049138E+02  0.00000000000E+00 0. -1.
         11    1    3    3    0    0 -0.21396197018E+02  0.98031662002E+01  0.77766861189E+01  0.24786612548E+02  0.51100000000E-03 0. -1.
        -11    1    3    3    0    0 -0.12968026313E+02 -0.48271207177E+01  0.66669724388E+01  0.15359665447E+02  0.51100000000E-03 0.  1.
         12    1    3    3    0    0  0.14550819686E+02 -0.67415828050E+01  0.10476855956E+02  0.19155672867E+02  0.00000000000E+00 0. -1.
</event>
<event>
 7    1  0.5837204E-012  0.5930194E+02  0.7816164E-02  0.1266605E+00
        -11   -1    0    0    0    0  0.00000000000E+00  0.00000000000E+00  0.45593999997E+02  0.45594000000E+02  0.51100000000E-03 0.  1.
         11   -1    0    0    0    0 -0.00000000000E+00 -0.00000000000E+00 -0.45593999997E+02  0.45594000000E+02  0.51100000000E-03 0. -1.
    9900012    2    1    2    0    0 -0.10014445507E+02  0.22540149363E+02  0.20208254336E+02  0.59301937286E+02  0.49999987704E+02 0.  0.
         12    1    1    2    0    0  0.10014445507E+02 -0.22540149363E+02 -0.20208254336E+02  0.31886062714E+02  0.00000000000E+00 0. -1.
         11    1    3    3    0    0 -0.38250236923E+01  0.29029400719E+02 -0.67554198982E+00  0.29288107990E+02  0.51100000000E-03 0. -1.
        -11    1    3    3    0    0  0.55521399641E+01  0.14670132704E+01  0.13939121097E+01  0.59094312203E+01  0.51100000000E-03 0.  1.
         12    1    3    3    0    0 -0.11741561779E+02 -0.79562646269E+01  0.19489884216E+02  0.24104398076E+02  0.00000000000E+00 0. -1.
</event>
<event>
 7    1  0.5837204E-012  0.5930195E+02  0.7816164E-02  0.1266605E+00
        -11   -1    0    0    0    0  0.00000000000E+00  0.00000000000E+00  0.45593999997E+02  0.45594000000E+02  0.51100000000E-03 0. -1.
         11   -1    0    0    0    0 -0.00000000000E+00 -0.00000000000E+00 -0.45593999997E+02  0.45594000000E+02  0.51100000000E-03 0.  1.
    9900012    2    1    2    0    0  0.45425390575E+01 -0.34094221224E+01 -0.31376131341E+02  0.59301946023E+02  0.50000003639E+02 0.  0.
         12    1    1    2    0    0 -0.45425390575E+01  0.34094221224E+01  0.31376131341E+02  0.31886053977E+02  0.00000000000E+00 0. -1.
         11    1    3    3    0    0 -0.12597309295E+02 -0.55396781608E+01 -0.28579211836E+02  0.31719892576E+02  0.51100000000E-03 0. -1.
        -11    1    3    3    0    0 -0.23932368437E+00  0.68146146199E+01 -0.62553336947E+01  0.92534019764E+01  0.51100000000E-03 0.  1.
         12    1    3    3    0    0  0.17379172037E+02 -0.46843585815E+01  0.34584141900E+01  0.18328651471E+02  0.00000000000E+00 0. -1.
</event>
<event>
 7    1  0.5837204E-012  0.5930193E+02  0.7816164E-02  0.1266605E+00
        -11   -1    0    0    0    0  0.00000000000E+00  0.00000000000E+00  0.45593999997E+02  0.45594000000E+02  0.51100000000E-03 0.  1.
         11   -1    0    0    0    0 -0.00000000000E+00 -0.00000000000E+00 -0.45593999997E+02  0.45594000000E+02  0.51100000000E-03 0. -1.
    9900012    2    1    2    0    0 -0.74510595225E+01  0.94568944600E+01  0.29525761811E+02  0.59301925432E+02  0.49999966086E+02 0.  0.
         12    1    1    2    0    0  0.74510595225E+01 -0.94568944600E+01 -0.29525761811E+02  0.31886074568E+02  0.00000000000E+00 0. -1.
         11    1    3    3    0    0  0.89706959622E+01  0.67375429605E+01  0.81599119646E+01  0.13872708269E+02  0.51100000000E-03 0. -1.
        -11    1    3    3    0    0 -0.33924325052E+01  0.18803279403E+02  0.12964493055E+02  0.23090041036E+02  0.51100000000E-03 0.  1.
         12    1    3    3    0    0 -0.13029322980E+02 -0.16083927903E+02  0.84013567915E+01  0.22339176127E+02  0.00000000000E+00 0. -1.
</event>
<event>
 7    1  0.5837204E-012  0.5930197E+02  0.7816164E-02  0.1266605E+00
        -11   -1    0    0    0    0  0.00000000000E+00  0.00000000000E+00  0.45593999997E+02  0.45594000000E+02  0.51100000000E-03 0.  1.
         11   -1    0    0    0    0 -0.00000000000E+00 -0.00000000000E+00 -0.45593999997E+02  0.45594000000E+02  0.51100000000E-03 0. -1.
    9900012    2    1    2    0    0  0.29597496001E+02  0.11790840685E+02 -0.12974570374E+01  0.59301967190E+02  0.50000042242E+02 0.  0.
         12    1    1    2    0    0 -0.29597496001E+02 -0.11790840685E+02  0.12974570374E+01  0.31886032810E+02  0.00000000000E+00 0. -1.
         11    1    3    3    0    0  0.20437843652E+02  0.11325089768E+02 -0.64075456410E+01  0.24228490518E+02  0.51100000000E-03 0. -1.
        -11    1    3    3    0    0  0.72718796211E+01 -0.13159025570E+02  0.12416021799E+02  0.19498661101E+02  0.51100000000E-03 0.  1.
         12    1    3    3    0    0  0.18877727282E+01  0.13624776488E+02 -0.73059331951E+01  0.15574815571E+02  0.00000000000E+00 0. -1.
</event>
<event>
 7    1  0.5837204E-012  0.5930193E+02  0.7816164E-02  0.1266605E+00
        -11   -1    0    0    0    0  0.00000000000E+00  0.00000000000E+00  0.45593999997E+02  0.45594000000E+02  0.51100000000E-03 0. -1.
         11   -1    0    0    0    0 -0.00000000000E+00 -0.00000000000E+00 -0.45593999997E+02  0.45594000000E+02  0.51100000000E-03 0.  1.
    9900012    2    1    2    0    0 -0.21315323668E+02 -0.43748386387E+01 -0.23307495971E+02  0.59301927733E+02  0.49999970283E+02 0.  0.
         12    1    1    2    0    0  0.21315323668E+02  0.43748386387E+01  0.23307495971E+02  0.31886072267E+02  0.00000000000E+00 0. -1.
         11    1    3    3    0    0  0.12977900247E+01 -0.75090480947E+01 -0.85154371627E+01  0.11427280191E+02  0.51100000000E-03 0. -1.
        -11    1    3    3    0    0 -0.27444575161E+02 -0.61422412166E+01 -0.21542549462E+02  0.35426166467E+02  0.51100000000E-03 0.  1.
         12    1    3    3    0    0  0.48314614689E+01  0.92764506726E+01  0.67504906545E+01  0.12448481075E+02  0.00000000000E+00 0. -1.
</event>
<event>
 7    1  0.5837204E-012  0.5930196E+02  0.7816164E-02  0.1266605E+00
        -11   -1    0    0    0    0  0.00000000000E+00  0.00000000000E+00  0.45593999997E+02  0.45594000000E+02  0.51100000000E-03 0.  1.
         11   -1    0    0    0    0 -0.00000000000E+00 -0.00000000000E+00 -0.45593999997E+02  0.45594000000E+02  0.51100000000E-03 0. -1.
    9900012    2    1    2    0    0  0.16099792368E+02 -0.27502536251E+02 -0.10614887112E+01  0.59301959593E+02  0.50000028387E+02 0.  0.
         12    1    1    2    0    0 -0.16099792368E+02  0.27502536251E+02  0.10614887112E+01  0.31886040407E+02  0.00000000000E+00 0. -1.
         11    1    3    3    0    0 -0.99535211916E+01  0.69908385803E+01  0.27618998940E+01  0.12472870538E+02  0.51100000000E-03 0. -1.
        -11    1    3    3    0    0  0.13365938957E+02 -0.74781124109E+01 -0.69514864116E+01  0.16819442709E+02  0.51100000000E-03 0.  1.
        -12    1    3    3    0    0  0.12687374602E+02 -0.27015262421E+02  0.31280978064E+01  0.30009646347E+02  0.00000000000E+00 0.  1.
</event>
<event>
 7    1  0.5837204E-012  0.5930195E+02  0.7816164E-02  0.1266605E+00
        -11   -1    0    0    0    0  0.00000000000E+00  0.00000000000E+00  0.45593999997E+02  0.45594000000E+02  0.51100000000E-03 0. -1.
         11   -1    0    0    0    0 -0.00000000000E+00 -0.00000000000E+00 -0.45593999997E+02  0.45594000000E+02  0.51100000000E-03 0.  1.
    9900012    2    1    2    0    0 -0.19605489874E+02 -0.75327059922E+01 -0.23991735849E+02  0.59301948476E+02  0.50000008112E+02 0.  0.
         12    1    1    2    0    0  0.19605489874E+02  0.75327059922E+01  0.23991735849E+02  0.31886051524E+02  0.00000000000E+00 0. -1.
         11    1    3    3    0    0 -0.13444538989E+02  0.52824441450E+01 -0.36917073462E+01  0.14909344324E+02  0.51100000000E-03 0. -1.
        -11    1    3    3    0    0  0.64295622145E+01  0.99534964303E+01 -0.12515423914E+02  0.17235057222E+02  0.51100000000E-03 0.  1.
         12    1    3    3    0    0 -0.12590513099E+02 -0.22768646568E+02 -0.77846045891E+01  0.27157546929E+02  0.00000000000E+00 0. -1.
</event>
<event>
 7    1  0.5837204E-012  0.5930191E+02  0.7816164E-02  0.1266605E+00
        -11   -1    0    0    0    0  0.00000000000E+00  0.00000000000E+00  0.45593999997E+02  0.45594000000E+02  0.51100000000E-03 0.  1.
         11   -1    0    0    0    0 -0.00000000000E+00 -0.00000000000E+00 -0.45593999997E+02  0.45594000000E+02  0.51100000000E-03 0. -1.
    9900012    2    1    2    0    0 -0.40525069983E+01 -0.12964141228E+02  0.28848409353E+02  0.59301913803E+02  0.49999944878E+02 0.  0.
         12    1    1    2    0    0  0.40525069983E+01  0.12964141228E+02 -0.28848409353E+02  0.31886086197E+02  0.00000000000E+00 0. -1.
         11    1    3    3    0    0 -0.11109745404E+02  0.10054102873E+02 -0.45279389673E+01  0.15652912160E+02  0.51100000000E-03 0. -1.
        -11    1    3    3    0    0  0.73331973474E+01 -0.56377939881E+01  0.53958196819E+01  0.10708658865E+02  0.51100000000E-03 0.  1.
        -12    1    3    3    0    0 -0.27595894140E+00 -0.17380450113E+02  0.27980528638E+02  0.32940342778E+02  0.00000000000E+00 0.  1.
</event>
<event>
 7    1  0.5837204E-012  0.5930196E+02  0.7816164E-02  0.1266605E+00
        -11   -1    0    0    0    0  0.00000000000E+00  0.00000000000E+00  0.45593999997E+02  0.45594000000E+02  0.51100000000E-03 0. -1.
         11   -1    0    0    0    0 -0.00000000000E+00 -0.00000000000E+00 -0.45593999997E+02  0.45594000000E+02  0.51100000000E-03 0.  1.
    9900012    2    1    2    0    0  0.11708260260E+02  0.22000170421E+02 -0.19890424521E+02  0.59301955333E+02  0.50000020619E+02 0.  0.
         12    1    1    2    0    0 -0.11708260260E+02 -0.22000170421E+02  0.19890424521E+02  0.31886044667E+02  0.00000000000E+00 0. -1.
         11    1    3    3    0    0  0.18720207535E+02  0.51943093167E+01 -0.78845989386E+01  0.20966495180E+02  0.51100000000E-03 0. -1.
        -11    1    3    3    0    0  0.10519535817E+02  0.11372520696E+02 -0.12604322219E+02  0.19971574792E+02  0.51100000000E-03 0.  1.
        -12    1    3    3    0    0 -0.17531483091E+02  0.54333404077E+01  0.59849663741E+00  0.18363885362E+02  0.00000000000E+00 0.  1.
</event>
<event>
 7    1  0.5837204E-012  0.5930196E+02  0.7816164E-02  0.1266605E+00
        -11   -1    0    0    0    0  0.00000000000E+00  0.00000000000E+00  0.45593999997E+02  0.45594000000E+02  0.51100000000E-03 0.  1.
         11   -1    0    0    0    0 -0.00000000000E+00 -0.00000000000E+00 -0.45593999997E+02  0.45594000000E+02  0.51100000000E-03 0. -1.
    9900012    2    1    2    0    0  0.10817629146E+02  0.18770272429E+02  0.23396053642E+02  0.59301959898E+02  0.50000028943E+02 0.  0.
         12    1    1    2    0    0 -0.10817629146E+02 -0.18770272429E+02 -0.23396053642E+02  0.31886040102E+02  0.00000000000E+00 0. -1.
         11    1    3    3    0    0 -0.45817833582E+01 -0.50088831820E+00 -0.81549118837E+01  0.93672950173E+01  0.51100000000E-03 0. -1.
        -11    1    3    3    0    0  0.57860776809E+01 -0.51592860276E+01  0.19621932981E+02  0.21097800393E+02  0.51100000000E-03 0.  1.
        -12    1    3    3    0    0  0.96133348229E+01  0.24430446775E+02  0.11929032544E+02  0.28836864488E+02  0.00000000000E+00 0.  1.
</event>
<event>
 7    1  0.5837204E-012  0.5930195E+02  0.7816164E-02  0.1266605E+00
        -11   -1    0    0    0    0  0.00000000000E+00  0.00000000000E+00  0.45593999997E+02  0.45594000000E+02  0.51100000000E-03 0.  1.
         11   -1    0    0    0    0 -0.00000000000E+00 -0.00000000000E+00 -0.45593999997E+02  0.45594000000E+02  0.51100000000E-03 0. -1.
    9900012    2    1    2    0    0  0.16233352895E+02 -0.27411581146E+02  0.13430249281E+01  0.59301949083E+02  0.50000009219E+02 0.  0.
         12    1    1    2    0    0 -0.16233352895E+02  0.27411581146E+02 -0.13430249281E+01  0.31886050917E+02  0.00000000000E+00 0. -1.
         11    1    3    3    0    0 -0.31105448795E+01  0.96867517255E+00  0.98303813103E+01  0.10356168114E+02  0.51100000000E-03 0. -1.
        -11    1    3    3    0    0  0.15878015857E+02  0.19160361611E+01  0.31614424544E+01  0.16302677718E+02  0.51100000000E-03 0.  1.
         12    1    3    3    0    0  0.34658819175E+01 -0.30296292480E+02 -0.11648798837E+02  0.32643103251E+02  0.00000000000E+00 0. -1.
</event>
<event>
 7    1  0.5837204E-012  0.5930195E+02  0.7816164E-02  0.1266605E+00
        -11   -1    0    0    0    0  0.00000000000E+00  0.00000000000E+00  0.45593999997E+02  0.45594000000E+02  0.51100000000E-03 0.  1.
         11   -1    0    0    0    0 -0.00000000000E+00 -0.00000000000E+00 -0.45593999997E+02  0.45594000000E+02  0.51100000000E-03 0. -1.
    9900012    2    1    2    0    0  0.19861310122E+02 -0.15486037271E+02  0.19555856161E+02  0.59301945050E+02  0.50000001864E+02 0.  0.
         12    1    1    2    0    0 -0.19861310122E+02  0.15486037271E+02 -0.19555856161E+02  0.31886054950E+02  0.00000000000E+00 0. -1.
         11    1    3    3    0    0  0.86462916350E+01  0.55159250034E+01  0.74534656523E+01  0.12678246652E+02  0.51100000000E-03 0.  1.
        -11    1    3    3    0    0 -0.89069490078E+01 -0.56947472076E+01 -0.88503537213E+01  0.13787409026E+02  0.51100000000E-03 0. -1.
         12    1    3    3    0    0  0.20121967494E+02 -0.15307215067E+02  0.20952744230E+02  0.32836289372E+02  0.00000000000E+00 0. -1.
</event>
<event>
 7    1  0.5837204E-012  0.5930193E+02  0.7816164E-02  0.1266605E+00
        -11   -1    0    0    0    0  0.00000000000E+00  0.00000000000E+00  0.45593999997E+02  0.45594000000E+02  0.51100000000E-03 0. -1.
         11   -1    0    0    0    0 -0.00000000000E+00 -0.00000000000E+00 -0.45593999997E+02  0.45594000000E+02  0.51100000000E-03 0.  1.
    9900012    2    1    2    0    0  0.24292073187E+02  0.12004666718E+02 -0.16807870975E+02  0.59301931421E+02  0.49999977008E+02 0.  0.
         12    1    1    2    0    0 -0.24292073187E+02 -0.12004666718E+02  0.16807870975E+02  0.31886068579E+02  0.00000000000E+00 0. -1.
         11    1    3    3    0    0  0.75401733128E+01  0.46329188306E+01  0.45414557412E+01  0.99470081426E+01  0.51100000000E-03 0. -1.
        -11    1    3    3    0    0  0.29688171558E+02  0.41394220741E+00 -0.15959853373E+02  0.33708690253E+02  0.51100000000E-03 0.  1.
        -12    1    3    3    0    0 -0.12936271684E+02  0.69578056799E+01 -0.53894733431E+01  0.15646233025E+02  0.00000000000E+00 0.  1.
</event>
<event>
 7    1  0.5837204E-012  0.5930195E+02  0.7816164E-02  0.1266605E+00
        -11   -1    0    0    0    0  0.00000000000E+00  0.00000000000E+00  0.45593999997E+02  0.45594000000E+02  0.51100000000E-03 0. -1.
         11   -1    0    0    0    0 -0.00000000000E+00 -0.00000000000E+00 -0.45593999997E+02  0.45594000000E+02  0.51100000000E-03 0.  1.
    9900012    2    1    2    0    0  0.30271468575E+02 -0.64691832812E+01 -0.76490453161E+01  0.59301952326E+02  0.50000015134E+02 0.  0.
         12    1    1    2    0    0 -0.30271468575E+02  0.64691832812E+01  0.76490453161E+01  0.31886047674E+02  0.00000000000E+00 0. -1.
         11    1    3    3    0    0 -0.61515207033E+01 -0.51215371151E+01  0.89502828909E-01  0.80049584885E+01  0.51100000000E-03 0. -1.
        -11    1    3    3    0    0  0.17392746059E+02 -0.17916347224E+02 -0.22984921271E+00  0.24971102183E+02  0.51100000000E-03 0.  1.
         12    1    3    3    0    0  0.19030243219E+02  0.16568701058E+02 -0.75086989323E+01  0.26325891654E+02  0.00000000000E+00 0. -1.
</event>
<event>
 7    1  0.5837204E-012  0.5930186E+02  0.7816164E-02  0.1266605E+00
        -11   -1    0    0    0    0  0.00000000000E+00  0.00000000000E+00  0.45593999997E+02  0.45594000000E+02  0.51100000000E-03 0.  1.
         11   -1    0    0    0    0 -0.00000000000E+00 -0.00000000000E+00 -0.45593999997E+02  0.45594000000E+02  0.51100000000E-03 0. -1.
    9900012    2    1    2    0    0 -0.56721376731E+00  0.14762330622E+02  0.28257352400E+02  0.59301857218E+02  0.49999841680E+02 0.  0.
         12    1    1    2    0    0  0.56721376731E+00 -0.14762330622E+02 -0.28257352400E+02  0.31886142782E+02  0.00000000000E+00 0. -1.
         11    1    3    3    0    0 -0.15438461859E+02  0.21597632172E+01  0.44306020479E+01  0.16206199940E+02  0.51100000000E-03 0. -1.
        -11    1    3    3    0    0  0.94104291352E+01  0.14779888574E+02  0.29892091080E+02  0.34648786302E+02  0.51100000000E-03 0.  1.
         12    1    3    3    0    0  0.54608189565E+01 -0.21773211688E+01 -0.60653407286E+01  0.84468709769E+01  0.00000000000E+00 0. -1.
</event>
<event>
 7    1  0.5837204E-012  0.5930195E+02  0.7816164E-02  0.1266605E+00
        -11   -1    0    0    0    0  0.00000000000E+00  0.00000000000E+00  0.45593999997E+02  0.45594000000E+02  0.51100000000E-03 0.  1.
         11   -1    0    0    0    0 -0.00000000000E+00 -0.00000000000E+00 -0.45593999997E+02  0.45594000000E+02  0.51100000000E-03 0. -1.
    9900012    2    1    2    0    0  0.29662941654E+01  0.26026333338E+02 -0.18181063790E+02  0.59301952759E+02  0.50000015924E+02 0.  0.
         12    1    1    2    0    0 -0.29662941654E+01 -0.26026333338E+02  0.18181063790E+02  0.31886047241E+02  0.00000000000E+00 0. -1.
         11    1    3    3    0    0 -0.39251455394E+01 -0.49936789651E+01 -0.11855123521E+02  0.13449444266E+02  0.51100000000E-03 0. -1.
        -11    1    3    3    0    0 -0.12570119675E+02  0.74148914710E+01  0.86273721483E-01  0.14594381370E+02  0.51100000000E-03 0.  1.
        -12    1    3    3    0    0  0.19461559380E+02  0.23605120832E+02 -0.64122139911E+01  0.31258127123E+02  0.00000000000E+00 0.  1.
</event>
<event>
 7    1  0.5837204E-012  0.5930200E+02  0.7816164E-02  0.1266605E+00
        -11   -1    0    0    0    0  0.00000000000E+00  0.00000000000E+00  0.45593999997E+02  0.45594000000E+02  0.51100000000E-03 0.  1.
         11   -1    0    0    0    0 -0.00000000000E+00 -0.00000000000E+00 -0.45593999997E+02  0.45594000000E+02  0.51100000000E-03 0. -1.
    9900012    2    1    2    0    0 -0.11078562318E+02  0.22870915830E+02  0.19258856414E+02  0.59302001751E+02  0.50000105274E+02 0.  0.
         12    1    1    2    0    0  0.11078562318E+02 -0.22870915830E+02 -0.19258856414E+02  0.31885998249E+02  0.00000000000E+00 0. -1.
         11    1    3    3    0    0  0.33276212626E+01  0.92039640524E+01  0.26386829624E+01  0.10136501644E+02  0.51100000000E-03 0. -1.
        -11    1    3    3    0    0  0.23603274999E+01  0.13908908455E+02  0.26270254314E+02  0.29818704571E+02  0.51100000000E-03 0.  1.
         12    1    3    3    0    0 -0.16766511081E+02 -0.24195667761E+00 -0.96500808626E+01  0.19346795536E+02  0.00000000000E+00 0. -1.
</event>
<event>
 7    1  0.5837204E-012  0.5930194E+02  0.7816164E-02  0.1266605E+00
        -11   -1    0    0    0    0  0.00000000000E+00  0.00000000000E+00  0.45593999997E+02  0.45594000000E+02  0.51100000000E-03 0.  1.
         11   -1    0    0    0    0 -0.00000000000E+00 -0.00000000000E+00 -0.45593999997E+02  0.45594000000E+02  0.51100000000E-03 0. -1.
    9900012    2    1    2    0    0 -0.45632334245E+01  0.13921360087E+02  0.28321259835E+02  0.59301935260E+02  0.49999984010E+02 0.  0.
         12    1    1    2    0    0  0.45632334245E+01 -0.13921360087E+02 -0.28321259835E+02  0.31886064740E+02  0.00000000000E+00 0. -1.
         11    1    3    3    0    0  0.12843341484E+02  0.56303205813E+01  0.20766898547E+02  0.25058252250E+02  0.51100000000E-03 0.  1.
        -11    1    3    3    0    0  0.72143331223E+01  0.44214022897E+01  0.14630337239E+01  0.85869592142E+01  0.51100000000E-03 0. -1.
        -12    1    3    3    0    0 -0.24620908031E+02  0.38696372163E+01  0.60913275637E+01  0.25656723796E+02  0.00000000000E+00 0.  1.
</event>
<event>
 7    1  0.5837204E-012  0.5930194E+02  0.7816164E-02  0.1266605E+00
        -11   -1    0    0    0    0  0.00000000000E+00  0.00000000000E+00  0.45593999997E+02  0.45594000000E+02  0.51100000000E-03 0. -1.
         11   -1    0    0    0    0 -0.00000000000E+00 -0.00000000000E+00 -0.45593999997E+02  0.45594000000E+02  0.51100000000E-03 0.  1.
    9900012    2    1    2    0    0  0.19174708136E+02  0.24433905004E+02 -0.72135548860E+01  0.59301944741E+02  0.50000001302E+02 0.  0.
         12    1    1    2    0    0 -0.19174708136E+02 -0.24433905004E+02  0.72135548860E+01  0.31886055259E+02  0.00000000000E+00 0. -1.
         11    1    3    3    0    0 -0.13627894892E+01  0.45635582412E+01 -0.36800364233E+01  0.60187978327E+01  0.51100000000E-03 0. -1.
        -11    1    3    3    0    0  0.74423454409E+01 -0.26710003595E+01 -0.20639880836E+02  0.22102656623E+02  0.51100000000E-03 0.  1.
         12    1    3    3    0    0  0.13095152184E+02  0.22541347123E+02  0.17106362374E+02  0.31180490286E+02  0.00000000000E+00 0. -1.
</event>
<event>
 7    1  0.5837204E-012  0.5930196E+02  0.7816164E-02  0.1266605E+00
        -11   -1    0    0    0    0  0.00000000000E+00  0.00000000000E+00  0.45593999997E+02  0.45594000000E+02  0.51100000000E-03 0.  1.
         11   -1    0    0    0    0 -0.00000000000E+00 -0.00000000000E+00 -0.45593999997E+02  0.45594000000E+02  0.51100000000E-03 0. -1.
    9900012    2    1    2    0    0  0.14675290216E+02  0.28306103071E+02 -0.34651646454E+00  0.59301957793E+02  0.50000025104E+02 0.  0.
         12    1    1    2    0    0 -0.14675290216E+02 -0.28306103071E+02  0.34651646454E+00  0.31886042207E+02  0.00000000000E+00 0. -1.
         11    1    3    3    0    0  0.37054790129E+01 -0.30881766544E+01 -0.14191155943E+02  0.14988539523E+02  0.51100000000E-03 0. -1.
        -11    1    3    3    0    0  0.95194671292E+01  0.54810364986E+01  0.14693672404E+02  0.18345735867E+02  0.51100000000E-03 0.  1.
        -12    1    3    3    0    0  0.14503440743E+01  0.25913243227E+02 -0.84903292532E+00  0.25967682403E+02  0.00000000000E+00 0.  1.
</event>
<event>
 7    1  0.5837204E-012  0.5930196E+02  0.7816164E-02  0.1266605E+00
        -11   -1    0    0    0    0  0.00000000000E+00  0.00000000000E+00  0.45593999997E+02  0.45594000000E+02  0.51100000000E-03 0. -1.
         11   -1    0    0    0    0 -0.00000000000E+00 -0.00000000000E+00 -0.45593999997E+02  0.45594000000E+02  0.51100000000E-03 0.  1.
    9900012    2    1    2    0    0  0.21356513261E+02 -0.16093065759E+02 -0.17367564181E+02  0.59301957446E+02  0.50000024471E+02 0.  0.
         12    1    1    2    0    0 -0.21356513261E+02  0.16093065759E+02  0.17367564181E+02  0.31886042554E+02  0.00000000000E+00 0. -1.
         11    1    3    3    0    0 -0.26658278380E+00  0.33069438034E+01  0.24656328604E+01  0.41335565029E+01  0.51100000000E-03 0. -1.
        -11    1    3    3    0    0  0.18577584007E+02  0.95181599404E+01 -0.14968602784E+02  0.25686203802E+02  0.51100000000E-03 0.  1.
         12    1    3    3    0    0  0.30455120380E+01 -0.28918169503E+02 -0.48645942571E+01  0.29482197141E+02  0.00000000000E+00 0. -1.
</event>
<event>
 7    1  0.5837204E-012  0.5930195E+02  0.7816164E-02  0.1266605E+00
        -11   -1    0    0    0    0  0.00000000000E+00  0.00000000000E+00  0.45593999997E+02  0.45594000000E+02  0.51100000000E-03 0.  1.
         11   -1    0    0    0    0 -0.00000000000E+00 -0.00000000000E+00 -0.45593999997E+02  0.45594000000E+02  0.51100000000E-03 0. -1.
    9900012    2    1    2    0    0  0.81934341134E+01 -0.28246549544E+02  0.12317487293E+02  0.59301946357E+02  0.50000004248E+02 0.  0.
         12    1    1    2    0    0 -0.81934341134E+01  0.28246549544E+02 -0.12317487293E+02  0.31886053643E+02  0.00000000000E+00 0. -1.
         11    1    3    3    0    0  0.60295893443E+01 -0.14514362299E+01 -0.73322324706E+01  0.96033456698E+01  0.51100000000E-03 0. -1.
        -11    1    3    3    0    0  0.98166729124E+01  0.57935950793E+01  0.91451206054E+01  0.14613898938E+02  0.51100000000E-03 0.  1.
         12    1    3    3    0    0 -0.76528281433E+01 -0.32588708394E+02  0.10504599158E+02  0.35084701749E+02  0.00000000000E+00 0. -1.
</event>
<event>
 7    1  0.5837204E-012  0.5930195E+02  0.7816164E-02  0.1266605E+00
        -11   -1    0    0    0    0  0.00000000000E+00  0.00000000000E+00  0.45593999997E+02  0.45594000000E+02  0.51100000000E-03 0. -1.
         11   -1    0    0    0    0 -0.00000000000E+00 -0.00000000000E+00 -0.45593999997E+02  0.45594000000E+02  0.51100000000E-03 0.  1.
    9900012    2    1    2    0    0 -0.20481578610E+02 -0.15956614447E+02 -0.18509775844E+02  0.59301946485E+02  0.50000004481E+02 0.  0.
         12    1    1    2    0    0  0.20481578610E+02  0.15956614447E+02  0.18509775844E+02  0.31886053515E+02  0.00000000000E+00 0. -1.
         11    1    3    3    0    0 -0.14035651357E+01 -0.70049950803E+01  0.26704423918E+01  0.76270055720E+01  0.51100000000E-03 0. -1.
        -11    1    3    3    0    0 -0.23359903086E+02 -0.33153512054E+00  0.49041489560E+01  0.23871440362E+02  0.51100000000E-03 0.  1.
        -12    1    3    3    0    0  0.42818896115E+01 -0.86200842465E+01 -0.26084367192E+02  0.27803500551E+02  0.00000000000E+00 0.  1.
</event>
<event>
 7    1  0.5837204E-012  0.5930195E+02  0.7816164E-02  0.1266605E+00
        -11   -1    0    0    0    0  0.00000000000E+00  0.00000000000E+00  0.45593999997E+02  0.45594000000E+02  0.51100000000E-03 0.  1.
         11   -1    0    0    0    0 -0.00000000000E+00 -0.00000000000E+00 -0.45593999997E+02  0.45594000000E+02  0.51100000000E-03 0. -1.
    9900012    2    1    2    0    0 -0.30054109296E+02  0.96671571288E+01 -0.44739804830E+01  0.59301954245E+02  0.50000018635E+02 0.  0.
         12    1    1    2    0    0  0.30054109296E+02 -0.96671571288E+01  0.44739804830E+01  0.31886045755E+02  0.00000000000E+00 0. -1.
         11    1    3    3    0    0  0.19269992806E+01  0.32383945830E+00 -0.30309870455E+01  0.36062558081E+01  0.51100000000E-03 0. -1.
        -11    1    3    3    0    0 -0.14438876967E+02  0.26315000429E+02  0.50514913454E+01  0.30438100806E+02  0.51100000000E-03 0.  1.
         12    1    3    3    0    0 -0.17542231609E+02 -0.16971682758E+02 -0.64944847828E+01  0.25257597631E+02  0.00000000000E+00 0. -1.
</event>
<event>
 7    1  0.5837204E-012  0.5930195E+02  0.7816164E-02  0.1266605E+00
        -11   -1    0    0    0    0  0.00000000000E+00  0.00000000000E+00  0.45593999997E+02  0.45594000000E+02  0.51100000000E-03 0.  1.
         11   -1    0    0    0    0 -0.00000000000E+00 -0.00000000000E+00 -0.45593999997E+02  0.45594000000E+02  0.51100000000E-03 0. -1.
    9900012    2    1    2    0    0 -0.53479099935E+01 -0.42641740737E+01  0.31143814240E+02  0.59301945255E+02  0.50000002237E+02 0.  0.
         12    1    1    2    0    0  0.53479099935E+01  0.42641740737E+01 -0.31143814240E+02  0.31886054745E+02  0.00000000000E+00 0. -1.
         11    1    3    3    0    0 -0.19217980239E+02 -0.54720276987E+01  0.19522401979E+02  0.27935605075E+02  0.51100000000E-03 0. -1.
        -11    1    3    3    0    0  0.77875105370E+00  0.71807380108E+01 -0.54434977724E+01  0.90443971520E+01  0.51100000000E-03 0.  1.
        -12    1    3    3    0    0  0.13091319192E+02 -0.59728843859E+01  0.17064910033E+02  0.22321943027E+02  0.00000000000E+00 0.  1.
</event>
<event>
 7    1  0.5837204E-012  0.5930192E+02  0.7816164E-02  0.1266605E+00
        -11   -1    0    0    0    0  0.00000000000E+00  0.00000000000E+00  0.45593999997E+02  0.45594000000E+02  0.51100000000E-03 0. -1.
         11   -1    0    0    0    0 -0.00000000000E+00 -0.00000000000E+00 -0.45593999997E+02  0.45594000000E+02  0.51100000000E-03 0.  1.
    9900012    2    1    2    0    0  0.27050568168E+02  0.10454261860E+01 -0.16849205511E+02  0.59301923408E+02  0.49999962394E+02 0.  0.
         12    1    1    2    0    0 -0.27050568168E+02 -0.10454261860E+01  0.16849205511E+02  0.31886076592E+02  0.00000000000E+00 0. -1.
         11    1    3    3    0    0 -0.91819793361E+01 -0.76381647258E+00 -0.10480533982E+02  0.13954703613E+02  0.51100000000E-03 0. -1.
        -11    1    3    3    0    0  0.43060749778E+01 -0.93730321644E+01  0.19821821278E+01  0.10503573674E+02  0.51100000000E-03 0.  1.
         12    1    3    3    0    0  0.31926472526E+02  0.11182274823E+02 -0.83508536568E+01  0.34843646121E+02  0.00000000000E+00 0. -1.
</event>
<event>
 7    1  0.5837204E-012  0.5930195E+02  0.7816164E-02  0.1266605E+00
        -11   -1    0    0    0    0  0.00000000000E+00  0.00000000000E+00  0.45593999997E+02  0.45594000000E+02  0.51100000000E-03 0.  1.
         11   -1    0    0    0    0 -0.00000000000E+00 -0.00000000000E+00 -0.45593999997E+02  0.45594000000E+02  0.51100000000E-03 0. -1.
    9900012    2    1    2    0    0  0.16059407061E+02 -0.18918069634E+02  0.20023042390E+02  0.59301950694E+02  0.50000012157E+02 0.  0.
         12    1    1    2    0    0 -0.16059407061E+02  0.18918069634E+02 -0.20023042390E+02  0.31886049306E+02  0.00000000000E+00 0. -1.
         11    1    3    3    0    0  0.79460125296E+01 -0.29527831798E+02  0.13865163054E+02  0.33574911952E+02  0.51100000000E-03 0. -1.
        -11    1    3    3    0    0  0.61281283096E+01  0.17487348650E+01  0.12919295273E+02  0.14405562149E+02  0.51100000000E-03 0.  1.
        -12    1    3    3    0    0  0.19852662213E+01  0.88610272991E+01 -0.67614159374E+01  0.11321476593E+02  0.00000000000E+00 0.  1.
</event>
<event>
 7    1  0.5837204E-012  0.5930230E+02  0.7816164E-02  0.1266604E+00
        -11   -1    0    0    0    0  0.00000000000E+00  0.00000000000E+00  0.45593999997E+02  0.45594000000E+02  0.51100000000E-03 0.  1.
         11   -1    0    0    0    0 -0.00000000000E+00 -0.00000000000E+00 -0.45593999997E+02  0.45594000000E+02  0.51100000000E-03 0. -1.
    9900012    2    1    2    0    0  0.13932089931E+02  0.14922292693E+02 -0.24493263649E+02  0.59302299236E+02  0.50000647810E+02 0.  0.
         12    1    1    2    0    0 -0.13932089931E+02 -0.14922292693E+02  0.24493263649E+02  0.31885700764E+02  0.00000000000E+00 0. -1.
         11    1    3    3    0    0 -0.11738368072E+01  0.15977566986E+02 -0.11902536794E+02  0.19958229431E+02  0.51100000000E-03 0. -1.
        -11    1    3    3    0    0 -0.30482736399E+01  0.78693331663E+01  0.71634671088E+01  0.11069491314E+02  0.51100000000E-03 0.  1.
         12    1    3    3    0    0  0.18154200378E+02 -0.89246074598E+01 -0.19754193964E+02  0.28274578491E+02  0.00000000000E+00 0. -1.
</event>
<event>
 7    1  0.5837204E-012  0.5930196E+02  0.7816164E-02  0.1266605E+00
        -11   -1    0    0    0    0  0.00000000000E+00  0.00000000000E+00  0.45593999997E+02  0.45594000000E+02  0.51100000000E-03 0.  1.
         11   -1    0    0    0    0 -0.00000000000E+00 -0.00000000000E+00 -0.45593999997E+02  0.45594000000E+02  0.51100000000E-03 0. -1.
    9900012    2    1    2    0    0 -0.13149829483E+02 -0.26876879929E+02  0.11019739895E+02  0.59301962969E+02  0.50000034545E+02 0.  0.
         12    1    1    2    0    0  0.13149829483E+02  0.26876879929E+02 -0.11019739895E+02  0.31886037031E+02  0.00000000000E+00 0. -1.
         11    1    3    3    0    0 -0.10637433901E+02 -0.12139533223E+02 -0.90682591534E+01  0.18513686591E+02  0.51100000000E-03 0. -1.
        -11    1    3    3    0    0 -0.27442546876E+01 -0.24909727431E+02  0.16474906707E+02  0.29990798685E+02  0.51100000000E-03 0.  1.
         12    1    3    3    0    0  0.23185910554E+00  0.10172380725E+02  0.36130923407E+01  0.10797477693E+02  0.00000000000E+00 0. -1.
</event>
<event>
 7    1  0.5837204E-012  0.5930199E+02  0.7816164E-02  0.1266605E+00
        -11   -1    0    0    0    0  0.00000000000E+00  0.00000000000E+00  0.45593999997E+02  0.45594000000E+02  0.51100000000E-03 0.  1.
         11   -1    0    0    0    0 -0.00000000000E+00 -0.00000000000E+00 -0.45593999997E+02  0.45594000000E+02  0.51100000000E-03 0. -1.
    9900012    2    1    2    0    0  0.60717998528E+01  0.23789706611E+02  0.20344554537E+02  0.59301987496E+02  0.50000079276E+02 0.  0.
         12    1    1    2    0    0 -0.60717998528E+01 -0.23789706611E+02 -0.20344554537E+02  0.31886012504E+02  0.00000000000E+00 0. -1.
         11    1    3    3    0    0  0.94954879128E+01  0.12814150949E+02 -0.11977290795E+01  0.15993789747E+02  0.51100000000E-03 0. -1.
        -11    1    3    3    0    0 -0.78672638005E+00  0.23637380430E+02  0.90384835211E+01  0.25318745558E+02  0.51100000000E-03 0.  1.
        -12    1    3    3    0    0 -0.26369616799E+01 -0.12661824768E+02  0.12503800095E+02  0.17989452192E+02  0.00000000000E+00 0.  1.
</event>
<event>
 7    1  0.5837204E-012  0.5930194E+02  0.7816164E-02  0.1266605E+00
        -11   -1    0    0    0    0  0.00000000000E+00  0.00000000000E+00  0.45593999997E+02  0.45594000000E+02  0.51100000000E-03 0. -1.
         11   -1    0    0    0    0 -0.00000000000E+00 -0.00000000000E+00 -0.45593999997E+02  0.45594000000E+02  0.51100000000E-03 0.  1.
    9900012    2    1    2    0    0 -0.40617608387E+01  0.29559721489E+02 -0.11244810139E+02  0.59301940497E+02  0.49999993560E+02 0.  0.
         12    1    1    2    0    0  0.40617608387E+01 -0.29559721489E+02  0.11244810139E+02  0.31886059503E+02  0.00000000000E+00 0. -1.
         11    1    3    3    0    0 -0.13264142344E+01 -0.74763844079E+00  0.25172112375E+01  0.29418855577E+01  0.51100000000E-03 0. -1.
        -11    1    3    3    0    0 -0.17306703054E+01 -0.91358815699E+01 -0.14114991145E+02  0.16902441452E+02  0.51100000000E-03 0.  1.
        -12    1    3    3    0    0 -0.10046762989E+01  0.39443241499E+02  0.35296976822E+00  0.39457613487E+02  0.00000000000E+00 0.  1.
</event>
<event>
 7    1  0.5837204E-012  0.5930192E+02  0.7816164E-02  0.1266605E+00
        -11   -1    0    0    0    0  0.00000000000E+00  0.00000000000E+00  0.45593999997E+02  0.45594000000E+02  0.51100000000E-03 0. -1.
         11   -1    0    0    0    0 -0.00000000000E+00 -0.00000000000E+00 -0.45593999997E+02  0.45594000000E+02  0.51100000000E-03 0.  1.
    9900012    2    1    2    0    0  0.30008987662E+02  0.98494473294E+01  0.43785166232E+01  0.59301915872E+02  0.49999948650E+02 0.  0.
         12    1    1    2    0    0 -0.30008987662E+02 -0.98494473294E+01 -0.43785166232E+01  0.31886084128E+02  0.00000000000E+00 0. -1.
         11    1    3    3    0    0  0.31732302310E+01 -0.68430765514E+01 -0.66389001120E+01  0.10048486540E+02  0.51100000000E-03 0. -1.
        -11    1    3    3    0    0  0.32309692076E+02  0.15033570582E+02 -0.13138250143E+01  0.35660210080E+02  0.51100000000E-03 0.  1.
        -12    1    3    3    0    0 -0.54739346449E+01  0.16589532991E+01  0.12331241750E+02  0.13593219252E+02  0.00000000000E+00 0.  1.
</event>
<event>
 7    1  0.5837204E-012  0.5930197E+02  0.7816164E-02  0.1266605E+00
        -11   -1    0    0    0    0  0.00000000000E+00  0.00000000000E+00  0.45593999997E+02  0.45594000000E+02  0.51100000000E-03 0.  1.
         11   -1    0    0    0    0 -0.00000000000E+00 -0.00000000000E+00 -0.45593999997E+02  0.45594000000E+02  0.51100000000E-03 0. -1.
    9900012    2    1    2    0    0  0.12991734311E+02 -0.23489288302E+02  0.17210085125E+02  0.59301970844E+02  0.50000048906E+02 0.  0.
         12    1    1    2    0    0 -0.12991734311E+02  0.23489288302E+02 -0.17210085125E+02  0.31886029156E+02  0.00000000000E+00 0. -1.
         11    1    3    3    0    0  0.26788122086E+01  0.18367193754E+01  0.16290634328E+00  0.32520934259E+01  0.51100000000E-03 0. -1.
        -11    1    3    3    0    0  0.28312000619E+02 -0.19653989664E+02  0.12256702879E+02  0.36579713701E+02  0.51100000000E-03 0.  1.
         12    1    3    3    0    0 -0.17999078516E+02 -0.56720180125E+01  0.47904759034E+01  0.19470163717E+02  0.00000000000E+00 0. -1.
</event>
<event>
 7    1  0.5837204E-012  0.5930229E+02  0.7816164E-02  0.1266604E+00
        -11   -1    0    0    0    0  0.00000000000E+00  0.00000000000E+00  0.45593999997E+02  0.45594000000E+02  0.51100000000E-03 0. -1.
         11   -1    0    0    0    0 -0.00000000000E+00 -0.00000000000E+00 -0.45593999997E+02  0.45594000000E+02  0.51100000000E-03 0.  1.
    9900012    2    1    2    0    0  0.13261211450E+02 -0.22200280072E+02 -0.18654387612E+02  0.59302292519E+02  0.50000635560E+02 0.  0.
         12    1    1    2    0    0 -0.13261211450E+02  0.22200280072E+02  0.18654387612E+02  0.31885707481E+02  0.00000000000E+00 0. -1.
         11    1    3    3    0    0 -0.54954087581E+01  0.79354185707E+01 -0.12983824215E+02  0.16178692061E+02  0.51100000000E-03 0. -1.
        -11    1    3    3    0    0  0.15018654240E+02 -0.22552411495E+02 -0.14639911970E+02  0.30797698975E+02  0.51100000000E-03 0.  1.
        -12    1    3    3    0    0  0.37379659685E+01 -0.75832871473E+01  0.89693485723E+01  0.12325901482E+02  0.00000000000E+00 0.  1.
</event>
<event>
 7    1  0.5837204E-012  0.5930197E+02  0.7816164E-02  0.1266605E+00
        -11   -1    0    0    0    0  0.00000000000E+00  0.00000000000E+00  0.45593999997E+02  0.45594000000E+02  0.51100000000E-03 0.  1.
         11   -1    0    0    0    0 -0.00000000000E+00 -0.00000000000E+00 -0.45593999997E+02  0.45594000000E+02  0.51100000000E-03 0. -1.
    9900012    2    1    2    0    0 -0.85933136410E+01 -0.30229747662E+02 -0.53884980352E+01  0.59301974941E+02  0.50000056378E+02 0.  0.
         12    1    1    2    0    0  0.85933136410E+01  0.30229747662E+02  0.53884980352E+01  0.31886025059E+02  0.00000000000E+00 0. -1.
         11    1    3    3    0    0 -0.29790560257E+01 -0.18220657977E+01  0.12362187799E+02  0.12845948234E+02  0.51100000000E-03 0.  1.
        -11    1    3    3    0    0 -0.18868917271E+02 -0.18014658546E+02 -0.10770180833E+02  0.28223407961E+02  0.51100000000E-03 0. -1.
         12    1    3    3    0    0  0.13254659655E+02 -0.10393023318E+02 -0.69805050016E+01  0.18232618746E+02  0.00000000000E+00 0. -1.
</event>
<event>
 7    1  0.5837204E-012  0.5930193E+02  0.7816164E-02  0.1266605E+00
        -11   -1    0    0    0    0  0.00000000000E+00  0.00000000000E+00  0.45593999997E+02  0.45594000000E+02  0.51100000000E-03 0.  1.
         11   -1    0    0    0    0 -0.00000000000E+00 -0.00000000000E+00 -0.45593999997E+02  0.45594000000E+02  0.51100000000E-03 0. -1.
    9900012    2    1    2    0    0  0.20229102606E+01  0.21792661144E+00  0.31821090223E+02  0.59301930300E+02  0.49999974964E+02 0.  0.
         12    1    1    2    0    0 -0.20229102606E+01 -0.21792661144E+00 -0.31821090223E+02  0.31886069700E+02  0.00000000000E+00 0. -1.
         11    1    3    3    0    0  0.21865006375E+01  0.81343311233E+00 -0.30168416267E+01  0.38136324060E+01  0.51100000000E-03 0. -1.
        -11    1    3    3    0    0 -0.10584273914E+02  0.17034885394E+02  0.76834479695E+01  0.21476721063E+02  0.51100000000E-03 0.  1.
         12    1    3    3    0    0  0.10420683537E+02 -0.17630391894E+02  0.27154483880E+02  0.34011576831E+02  0.00000000000E+00 0. -1.
</event>
<event>
 7    1  0.5837204E-012  0.5930194E+02  0.7816164E-02  0.1266605E+00
        -11   -1    0    0    0    0  0.00000000000E+00  0.00000000000E+00  0.45593999997E+02  0.45594000000E+02  0.51100000000E-03 0. -1.
         11   -1    0    0    0    0 -0.00000000000E+00 -0.00000000000E+00 -0.45593999997E+02  0.45594000000E+02  0.51100000000E-03 0.  1.
    9900012    2    1    2    0    0 -0.85121992810E+01 -0.30726226566E+02  0.40287627923E+00  0.59301939646E+02  0.49999992009E+02 0.  0.
         12    1    1    2    0    0  0.85121992810E+01  0.30726226566E+02 -0.40287627923E+00  0.31886060354E+02  0.00000000000E+00 0. -1.
         11    1    3    3    0    0 -0.93615029408E+01 -0.25271874233E+01 -0.80666114374E+01  0.12613272134E+02  0.51100000000E-03 0. -1.
        -11    1    3    3    0    0  0.13464765593E+02 -0.42357387971E+00 -0.34994522502E+01  0.13918530584E+02  0.51100000000E-03 0.  1.
         12    1    3    3    0    0 -0.12615461933E+02 -0.27775465263E+02  0.11968939967E+02  0.32770136928E+02  0.00000000000E+00 0. -1.
</event>
<event>
 7    1  0.5837204E-012  0.5930193E+02  0.7816164E-02  0.1266605E+00
        -11   -1    0    0    0    0  0.00000000000E+00  0.00000000000E+00  0.45593999997E+02  0.45594000000E+02  0.51100000000E-03 0.  1.
         11   -1    0    0    0    0 -0.00000000000E+00 -0.00000000000E+00 -0.45593999997E+02  0.45594000000E+02  0.51100000000E-03 0. -1.
    9900012    2    1    2    0    0  0.25475025142E+02 -0.18464930061E+02  0.51759661126E+01  0.59301934496E+02  0.49999982616E+02 0.  0.
         12    1    1    2    0    0 -0.25475025142E+02  0.18464930061E+02 -0.51759661126E+01  0.31886065504E+02  0.00000000000E+00 0. -1.
         11    1    3    3    0    0  0.11981806303E+02  0.10917942065E+02  0.55618635319E+01  0.17137662251E+02  0.51100000000E-03 0. -1.
        -11    1    3    3    0    0  0.65257677436E+01 -0.12466189543E+02  0.13264656133E+02  0.19337596256E+02  0.51100000000E-03 0.  1.
        -12    1    3    3    0    0  0.69674510956E+01 -0.16916682583E+02 -0.13650553553E+02  0.22826675988E+02  0.00000000000E+00 0.  1.
</event>
<event>
 7    1  0.5837204E-012  0.5930222E+02  0.7816164E-02  0.1266604E+00
        -11   -1    0    0    0    0  0.00000000000E+00  0.00000000000E+00  0.45593999997E+02  0.45594000000E+02  0.51100000000E-03 0.  1.
         11   -1    0    0    0    0 -0.00000000000E+00 -0.00000000000E+00 -0.45593999997E+02  0.45594000000E+02  0.51100000000E-03 0. -1.
    9900012    2    1    2    0    0 -0.10339085697E+02 -0.29385939158E+02  0.68024376273E+01  0.59302215222E+02  0.50000494591E+02 0.  0.
         12    1    1    2    0    0  0.10339085697E+02  0.29385939158E+02 -0.68024376273E+01  0.31885784778E+02  0.00000000000E+00 0. -1.
         11    1    3    3    0    0  0.24475498890E+01  0.69571522630E+01 -0.12156235248E+02  0.14218527481E+02  0.51100000000E-03 0. -1.
        -11    1    3    3    0    0 -0.44841947722E+01 -0.88142196538E+01 -0.12082357841E+01  0.99628462214E+01  0.51100000000E-03 0.  1.
        -12    1    3    3    0    0 -0.83024408138E+01 -0.27528871767E+02  0.20166908659E+02  0.35120841520E+02  0.00000000000E+00 0.  1.
</event>
<event>
 7    1  0.5837204E-012  0.5930195E+02  0.7816164E-02  0.1266605E+00
        -11   -1    0    0    0    0  0.00000000000E+00  0.00000000000E+00  0.45593999997E+02  0.45594000000E+02  0.51100000000E-03 0.  1.
         11   -1    0    0    0    0 -0.00000000000E+00 -0.00000000000E+00 -0.45593999997E+02  0.45594000000E+02  0.51100000000E-03 0. -1.
    9900012    2    1    2    0    0 -0.72080700221E+01  0.30601856639E+02  0.53188570182E+01  0.59301950649E+02  0.50000012076E+02 0.  0.
         12    1    1    2    0    0  0.72080700221E+01 -0.30601856639E+02 -0.53188570182E+01  0.31886049351E+02  0.00000000000E+00 0. -1.
         11    1    3    3    0    0 -0.22426005846E+01  0.26196303395E+02 -0.12174287222E+02  0.28973933778E+02  0.51100000000E-03 0. -1.
        -11    1    3    3    0    0  0.67861543258E+00  0.73442978267E+01 -0.36633682513E+01  0.82352593571E+01  0.51100000000E-03 0.  1.
        -12    1    3    3    0    0 -0.56440848700E+01 -0.29387445829E+01  0.21156512492E+02  0.22092757514E+02  0.00000000000E+00 0.  1.
</event>
<event>
 7    1  0.5837204E-012  0.5930194E+02  0.7816164E-02  0.1266605E+00
        -11   -1    0    0    0    0  0.00000000000E+00  0.00000000000E+00  0.45593999997E+02  0.45594000000E+02  0.51100000000E-03 0.  1.
         11   -1    0    0    0    0 -0.00000000000E+00 -0.00000000000E+00 -0.45593999997E+02  0.45594000000E+02  0.51100000000E-03 0. -1.
    9900012    2    1    2    0    0 -0.30472321496E+02 -0.41460877918E+01  0.84242794046E+01  0.59301938706E+02  0.49999990295E+02 0.  0.
         12    1    1    2    0    0  0.30472321496E+02  0.41460877918E+01 -0.84242794046E+01  0.31886061294E+02  0.00000000000E+00 0. -1.
         11    1    3    3    0    0 -0.25308671999E+02 -0.14209961751E+02  0.14933792295E+02  0.32641538627E+02  0.51100000000E-03 0. -1.
        -11    1    3    3    0    0 -0.43883854369E+01 -0.71883335839E+01 -0.74843606790E+00  0.84551891324E+01  0.51100000000E-03 0.  1.
        -12    1    3    3    0    0 -0.77526405971E+00  0.17252207543E+02 -0.57610768223E+01  0.18205210947E+02  0.00000000000E+00 0.  1.
</event>
<event>
 7    1  0.5837204E-012  0.5930198E+02  0.7816164E-02  0.1266605E+00
        -11   -1    0    0    0    0  0.00000000000E+00  0.00000000000E+00  0.45593999997E+02  0.45594000000E+02  0.51100000000E-03 0. -1.
         11   -1    0    0    0    0 -0.00000000000E+00 -0.00000000000E+00 -0.45593999997E+02  0.45594000000E+02  0.51100000000E-03 0.  1.
    9900012    2    1    2    0    0 -0.25117297231E+02 -0.12889644498E+02  0.14822166855E+02  0.59301981344E+02  0.50000068056E+02 0.  0.
         12    1    1    2    0    0  0.25117297231E+02  0.12889644498E+02 -0.14822166855E+02  0.31886018656E+02  0.00000000000E+00 0. -1.
         11    1    3    3    0    0 -0.29029483469E+02 -0.19490885001E+02  0.13117624910E+02  0.37345382474E+02  0.51100000000E-03 0. -1.
        -11    1    3    3    0    0 -0.65232669537E+01  0.89031606598E+01 -0.48680977872E+00  0.11047907743E+02  0.51100000000E-03 0.  1.
        -12    1    3    3    0    0  0.10435453192E+02 -0.23019201569E+01  0.21913517236E+01  0.10908691127E+02  0.00000000000E+00 0.  1.
</event>
<event>
 7    1  0.5837204E-012  0.5930195E+02  0.7816164E-02  0.1266605E+00
        -11   -1    0    0    0    0  0.00000000000E+00  0.00000000000E+00  0.45593999997E+02  0.45594000000E+02  0.51100000000E-03 0.  1.
         11   -1    0    0    0    0 -0.00000000000E+00 -0.00000000000E+00 -0.45593999997E+02  0.45594000000E+02  0.51100000000E-03 0. -1.
    9900012    2    1    2    0    0 -0.17825633113E+02  0.26165529359E+02 -0.37857659590E+01  0.59301950599E+02  0.50000011984E+02 0.  0.
         12    1    1    2    0    0  0.17825633113E+02 -0.26165529359E+02  0.37857659590E+01  0.31886049401E+02  0.00000000000E+00 0. -1.
         11    1    3    3    0    0  0.12405199449E+02  0.11716708018E+02  0.12341390859E+02  0.21058968368E+02  0.51100000000E-03 0. -1.
        -11    1    3    3    0    0 -0.11162073470E+00 -0.72282937409E+00  0.22213386232E+00  0.76438550900E+00  0.51100000000E-03 0.  1.
        -12    1    3    3    0    0 -0.30119211827E+02  0.15171650715E+02 -0.16349290680E+02  0.37478596722E+02  0.00000000000E+00 0.  1.
</event>
<event>
 7    1  0.5837204E-012  0.5930194E+02  0.7816164E-02  0.1266605E+00
        -11   -1    0    0    0    0  0.00000000000E+00  0.00000000000E+00  0.45593999997E+02  0.45594000000E+02  0.51100000000E-03 0.  1.
         11   -1    0    0    0    0 -0.00000000000E+00 -0.00000000000E+00 -0.45593999997E+02  0.45594000000E+02  0.51100000000E-03 0. -1.
    9900012    2    1    2    0    0 -0.74669496039E+01  0.20497752255E+02  0.23255272713E+02  0.59301938894E+02  0.49999990637E+02 0.  0.
         12    1    1    2    0    0  0.74669496039E+01 -0.20497752255E+02 -0.23255272713E+02  0.31886061106E+02  0.00000000000E+00 0. -1.
         11    1    3    3    0    0  0.39429153670E+01  0.16521373481E+02  0.32132832627E+01  0.17286629309E+02  0.51100000000E-03 0. -1.
        -11    1    3    3    0    0  0.10789511401E+02 -0.31771609767E+01 -0.24562185228E-01  0.11247600264E+02  0.51100000000E-03 0.  1.
         12    1    3    3    0    0 -0.22199376372E+02  0.71535397508E+01  0.20066551636E+02  0.30767709320E+02  0.00000000000E+00 0. -1.
</event>
<event>
 7    1  0.5837204E-012  0.5930193E+02  0.7816164E-02  0.1266605E+00
        -11   -1    0    0    0    0  0.00000000000E+00  0.00000000000E+00  0.45593999997E+02  0.45594000000E+02  0.51100000000E-03 0. -1.
         11   -1    0    0    0    0 -0.00000000000E+00 -0.00000000000E+00 -0.45593999997E+02  0.45594000000E+02  0.51100000000E-03 0.  1.
    9900012    2    1    2    0    0 -0.75475801789E+01  0.84888757073E+01 -0.29794207474E+02  0.59301925040E+02  0.49999965371E+02 0.  0.
         12    1    1    2    0    0  0.75475801789E+01 -0.84888757073E+01  0.29794207474E+02  0.31886074960E+02  0.00000000000E+00 0. -1.
         11    1    3    3    0    0  0.37085784596E+01  0.93319390126E+01 -0.20405309019E+01  0.10247068193E+02  0.51100000000E-03 0. -1.
        -11    1    3    3    0    0 -0.10224795519E+02  0.17998537991E+02 -0.94108327107E+01  0.22738900277E+02  0.51100000000E-03 0.  1.
         12    1    3    3    0    0 -0.10313631194E+01 -0.18841601296E+02 -0.18342843862E+02  0.26315956571E+02  0.00000000000E+00 0. -1.
</event>
<event>
 7    1  0.5837204E-012  0.5930194E+02  0.7816164E-02  0.1266605E+00
        -11   -1    0    0    0    0  0.00000000000E+00  0.00000000000E+00  0.45593999997E+02  0.45594000000E+02  0.51100000000E-03 0.  1.
         11   -1    0    0    0    0 -0.00000000000E+00 -0.00000000000E+00 -0.45593999997E+02  0.45594000000E+02  0.51100000000E-03 0. -1.
    9900012    2    1    2    0    0  0.18705142749E+02 -0.25484661693E+02  0.41678003213E+01  0.59301938682E+02  0.49999990251E+02 0.  0.
         12    1    1    2    0    0 -0.18705142749E+02  0.25484661693E+02 -0.41678003213E+01  0.31886061318E+02  0.00000000000E+00 0. -1.
         11    1    3    3    0    0 -0.11919183133E+01 -0.23092973617E+02 -0.49432572299E+01  0.23646181342E+02  0.51100000000E-03 0. -1.
        -11    1    3    3    0    0 -0.45521251744E+01 -0.64736718446E+01  0.73583326957E+01  0.10806263511E+02  0.51100000000E-03 0.  1.
         12    1    3    3    0    0  0.24449186237E+02  0.40819837691E+01  0.17527248555E+01  0.24849493829E+02  0.00000000000E+00 0. -1.
</event>
<event>
 7    1  0.5837204E-012  0.5930191E+02  0.7816164E-02  0.1266605E+00
        -11   -1    0    0    0    0  0.00000000000E+00  0.00000000000E+00  0.45593999997E+02  0.45594000000E+02  0.51100000000E-03 0. -1.
         11   -1    0    0    0    0 -0.00000000000E+00 -0.00000000000E+00 -0.45593999997E+02  0.45594000000E+02  0.51100000000E-03 0.  1.
    9900012    2    1    2    0    0  0.29641445699E+02 -0.25864206134E+01 -0.11463773151E+02  0.59301906329E+02  0.49999931246E+02 0.  0.
         12    1    1    2    0    0 -0.29641445699E+02  0.25864206134E+01  0.11463773151E+02  0.31886093671E+02  0.00000000000E+00 0. -1.
         11    1    3    3    0    0  0.34749248169E+01 -0.32233786441E+01  0.11747607295E+02  0.12667736569E+02  0.51100000000E-03 0. -1.
        -11    1    3    3    0    0  0.37685447512E+01  0.13723446350E+02 -0.56708664948E+01  0.15319713976E+02  0.51100000000E-03 0.  1.
        -12    1    3    3    0    0  0.22397976131E+02 -0.13086488319E+02 -0.17540513952E+02  0.31314455783E+02  0.00000000000E+00 0.  1.
</event>
<event>
 7    1  0.5837204E-012  0.5930194E+02  0.7816164E-02  0.1266605E+00
        -11   -1    0    0    0    0  0.00000000000E+00  0.00000000000E+00  0.45593999997E+02  0.45594000000E+02  0.51100000000E-03 0.  1.
         11   -1    0    0    0    0 -0.00000000000E+00 -0.00000000000E+00 -0.45593999997E+02  0.45594000000E+02  0.51100000000E-03 0. -1.
    9900012    2    1    2    0    0  0.20583713761E+02  0.18730366644E+02  0.15562931786E+02  0.59301941094E+02  0.49999994649E+02 0.  0.
         12    1    1    2    0    0 -0.20583713761E+02 -0.18730366644E+02 -0.15562931786E+02  0.31886058906E+02  0.00000000000E+00 0. -1.
         11    1    3    3    0    0  0.13574127579E+02  0.79268966562E+00  0.72105248839E+01  0.15390807835E+02  0.51100000000E-03 0.  1.
        -11    1    3    3    0    0  0.67305187354E+01  0.28987970193E+02  0.12261973796E+02  0.32186306094E+02  0.51100000000E-03 0. -1.
         12    1    3    3    0    0  0.27906744594E+00 -0.11050293214E+02 -0.39095668934E+01  0.11724827165E+02  0.00000000000E+00 0. -1.
</event>
<event>
 7    1  0.5837204E-012  0.5930193E+02  0.7816164E-02  0.1266605E+00
        -11   -1    0    0    0    0  0.00000000000E+00  0.00000000000E+00  0.45593999997E+02  0.45594000000E+02  0.51100000000E-03 0.  1.
         11   -1    0    0    0    0 -0.00000000000E+00 -0.00000000000E+00 -0.45593999997E+02  0.45594000000E+02  0.51100000000E-03 0. -1.
    9900012    2    1    2    0    0  0.26152298983E+02 -0.28654223778E+01  0.18015766169E+02  0.59301933793E+02  0.49999981334E+02 0.  0.
         12    1    1    2    0    0 -0.26152298983E+02  0.28654223778E+01 -0.18015766169E+02  0.31886066207E+02  0.00000000000E+00 0. -1.
         11    1    3    3    0    0  0.58505524790E+01 -0.12652890490E+02 -0.10220125685E+02  0.17285125725E+02  0.51100000000E-03 0. -1.
        -11    1    3    3    0    0  0.20796025439E+01 -0.62301437942E+01  0.85001044567E+01  0.10742030277E+02  0.51100000000E-03 0.  1.
        -12    1    3    3    0    0  0.18222143961E+02  0.16017611906E+02  0.19735787397E+02  0.31274777791E+02  0.00000000000E+00 0.  1.
</event>
<event>
 7    1  0.5837204E-012  0.5930194E+02  0.7816164E-02  0.1266605E+00
        -11   -1    0    0    0    0  0.00000000000E+00  0.00000000000E+00  0.45593999997E+02  0.45594000000E+02  0.51100000000E-03 0. -1.
         11   -1    0    0    0    0 -0.00000000000E+00 -0.00000000000E+00 -0.45593999997E+02  0.45594000000E+02  0.51100000000E-03 0.  1.
    9900012    2    1    2    0    0  0.79276170927E+01 -0.30378638638E+02  0.55688714253E+01  0.59301935219E+02  0.49999983936E+02 0.  0.
         12    1    1    2    0    0 -0.79276170927E+01  0.30378638638E+02 -0.55688714253E+01  0.31886064781E+02  0.00000000000E+00 0. -1.
         11    1    3    3    0    0 -0.86112073750E+01  0.55720851849E+01 -0.19656178261E+01  0.10443403634E+02  0.51100000000E-03 0. -1.
        -11    1    3    3    0    0 -0.32493917023E+01 -0.17408889787E+02 -0.58059877103E+01  0.18636992344E+02  0.51100000000E-03 0.  1.
        -12    1    3    3    0    0  0.19788216170E+02 -0.18541834035E+02  0.13340476962E+02  0.30221539242E+02  0.00000000000E+00 0.  1.
</event>
<event>
 7    1  0.5837204E-012  0.5930193E+02  0.7816164E-02  0.1266605E+00
        -11   -1    0    0    0    0  0.00000000000E+00  0.00000000000E+00  0.45593999997E+02  0.45594000000E+02  0.51100000000E-03 0. -1.
         11   -1    0    0    0    0 -0.00000000000E+00 -0.00000000000E+00 -0.45593999997E+02  0.45594000000E+02  0.51100000000E-03 0.  1.
    9900012    2    1    2    0    0  0.61434543851E+01  0.30489724422E+02 -0.70253934071E+01  0.59301929693E+02  0.49999973857E+02 0.  0.
         12    1    1    2    0    0 -0.61434543851E+01 -0.30489724422E+02  0.70253934071E+01  0.31886070307E+02  0.00000000000E+00 0. -1.
         11    1    3    3    0    0 -0.86162139647E+01  0.13192883810E+02 -0.21241030069E+02  0.26447545916E+02  0.51100000000E-03 0. -1.
        -11    1    3    3    0    0  0.14431446271E+01  0.11164494750E+02 -0.15060919636E+01  0.11357681220E+02  0.51100000000E-03 0.  1.
         12    1    3    3    0    0  0.13316523723E+02  0.61323458621E+01  0.15721728626E+02  0.21496702557E+02  0.00000000000E+00 0. -1.
</event>
<event>
 7    1  0.5837204E-012  0.5930192E+02  0.7816164E-02  0.1266605E+00
        -11   -1    0    0    0    0  0.00000000000E+00  0.00000000000E+00  0.45593999997E+02  0.45594000000E+02  0.51100000000E-03 0. -1.
         11   -1    0    0    0    0 -0.00000000000E+00 -0.00000000000E+00 -0.45593999997E+02  0.45594000000E+02  0.51100000000E-03 0.  1.
    9900012    2    1    2    0    0  0.11564052717E+02  0.29185860639E+02  0.55839329233E+01  0.59301920226E+02  0.49999956591E+02 0.  0.
         12    1    1    2    0    0 -0.11564052717E+02 -0.29185860639E+02 -0.55839329233E+01  0.31886079774E+02  0.00000000000E+00 0. -1.
         11    1    3    3    0    0  0.10792513100E+02 -0.39961948835E+01  0.18871038631E+01  0.11662292820E+02  0.51100000000E-03 0. -1.
        -11    1    3    3    0    0  0.10628525876E+02  0.25269058287E+02  0.14499880051E+02  0.31011891119E+02  0.51100000000E-03 0.  1.
         12    1    3    3    0    0 -0.98569862582E+01  0.79129972352E+01 -0.10803050991E+02  0.16627736288E+02  0.00000000000E+00 0. -1.
</event>
<event>
 7    1  0.5837204E-012  0.5930194E+02  0.7816164E-02  0.1266605E+00
        -11   -1    0    0    0    0  0.00000000000E+00  0.00000000000E+00  0.45593999997E+02  0.45594000000E+02  0.51100000000E-03 0.  1.
         11   -1    0    0    0    0 -0.00000000000E+00 -0.00000000000E+00 -0.45593999997E+02  0.45594000000E+02  0.51100000000E-03 0. -1.
    9900012    2    1    2    0    0 -0.15534959374E+02 -0.27519541629E+02 -0.42497588851E+01  0.59301943724E+02  0.49999999447E+02 0.  0.
         12    1    1    2    0    0  0.15534959374E+02  0.27519541629E+02  0.42497588851E+01  0.31886056276E+02  0.00000000000E+00 0. -1.
         11    1    3    3    0    0 -0.21452120181E+02 -0.12835068274E+02 -0.82532810393E+01  0.26325825457E+02  0.51100000000E-03 0. -1.
        -11    1    3    3    0    0  0.48798025895E+00 -0.92224620665E+01  0.16144048899E+02  0.18598985091E+02  0.51100000000E-03 0.  1.
         12    1    3    3    0    0  0.54291805471E+01 -0.54620112885E+01 -0.12140526745E+02  0.14377133176E+02  0.00000000000E+00 0. -1.
</event>
<event>
 7    1  0.5837204E-012  0.5930194E+02  0.7816164E-02  0.1266605E+00
        -11   -1    0    0    0    0  0.00000000000E+00  0.00000000000E+00  0.45593999997E+02  0.45594000000E+02  0.51100000000E-03 0. -1.
         11   -1    0    0    0    0 -0.00000000000E+00 -0.00000000000E+00 -0.45593999997E+02  0.45594000000E+02  0.51100000000E-03 0.  1.
    9900012    2    1    2    0    0 -0.17345440333E+02 -0.21141070187E+02 -0.16398522618E+02  0.59301942027E+02  0.49999996352E+02 0.  0.
         12    1    1    2    0    0  0.17345440333E+02  0.21141070187E+02  0.16398522618E+02  0.31886057973E+02  0.00000000000E+00 0. -1.
         11    1    3    3    0    0  0.32915144684E+01  0.12442224737E+02 -0.17402433015E+01  0.12987358119E+02  0.51100000000E-03 0. -1.
        -11    1    3    3    0    0  0.35713787074E+01 -0.27447271462E+01 -0.30025553260E+01  0.54132810499E+01  0.51100000000E-03 0.  1.
         12    1    3    3    0    0 -0.24208333509E+02 -0.30838567777E+02 -0.11655723990E+02  0.40901302859E+02  0.00000000000E+00 0. -1.
</event>
<event>
 7    1  0.5837204E-012  0.5930193E+02  0.7816164E-02  0.1266605E+00
        -11   -1    0    0    0    0  0.00000000000E+00  0.00000000000E+00  0.45593999997E+02  0.45594000000E+02  0.51100000000E-03 0.  1.
         11   -1    0    0    0    0 -0.00000000000E+00 -0.00000000000E+00 -0.45593999997E+02  0.45594000000E+02  0.51100000000E-03 0. -1.
    9900012    2    1    2    0    0  0.30407663224E+01  0.20651573925E+02  0.24103690085E+02  0.59301927160E+02  0.49999969238E+02 0.  0.
         12    1    1    2    0    0 -0.30407663224E+01 -0.20651573925E+02 -0.24103690085E+02  0.31886072840E+02  0.00000000000E+00 0. -1.
         11    1    3    3    0    0 -0.56568378141E+01  0.33955429923E+01 -0.97197373256E+01  0.11747460160E+02  0.51100000000E-03 0. -1.
        -11    1    3    3    0    0 -0.17805691584E+01 -0.67509471922E+01  0.48815752478E+01  0.85191250537E+01  0.51100000000E-03 0.  1.
        -12    1    3    3    0    0  0.10478173295E+02  0.24006978125E+02  0.28941852163E+02  0.39035341947E+02  0.00000000000E+00 0.  1.
</event>
<event>
 7    1  0.5837204E-012  0.5930199E+02  0.7816164E-02  0.1266605E+00
        -11   -1    0    0    0    0  0.00000000000E+00  0.00000000000E+00  0.45593999997E+02  0.45594000000E+02  0.51100000000E-03 0. -1.
         11   -1    0    0    0    0 -0.00000000000E+00 -0.00000000000E+00 -0.45593999997E+02  0.45594000000E+02  0.51100000000E-03 0.  1.
    9900012    2    1    2    0    0  0.10935024418E+02  0.16825978294E+02 -0.24779615917E+02  0.59301989438E+02  0.50000082818E+02 0.  0.
         12    1    1    2    0    0 -0.10935024418E+02 -0.16825978294E+02  0.24779615917E+02  0.31886010562E+02  0.00000000000E+00 0. -1.
         11    1    3    3    0    0  0.34843205381E+01 -0.12236532577E+01 -0.45932164854E+01  0.58936792287E+01  0.51100000000E-03 0. -1.
        -11    1    3    3    0    0 -0.66108330265E+01 -0.10808554968E+02  0.39206173782E+01  0.13262700128E+02  0.51100000000E-03 0.  1.
        -12    1    3    3    0    0  0.14061536906E+02  0.28858186520E+02 -0.24107016809E+02  0.40145610082E+02  0.00000000000E+00 0.  1.
</event>
<event>
 7    1  0.5837204E-012  0.5930195E+02  0.7816164E-02  0.1266605E+00
        -11   -1    0    0    0    0  0.00000000000E+00  0.00000000000E+00  0.45593999997E+02  0.45594000000E+02  0.51100000000E-03 0. -1.
         11   -1    0    0    0    0 -0.00000000000E+00 -0.00000000000E+00 -0.45593999997E+02  0.45594000000E+02  0.51100000000E-03 0.  1.
    9900012    2    1    2    0    0 -0.12468624954E+02 -0.29042010529E+02  0.42207898839E+01  0.59301952094E+02  0.50000014711E+02 0.  0.
         12    1    1    2    0    0  0.12468624954E+02  0.29042010529E+02 -0.42207898839E+01  0.31886047906E+02  0.00000000000E+00 0. -1.
         11    1    3    3    0    0  0.79159449575E+01 -0.23770843226E+00 -0.33296887315E+01  0.85910137457E+01  0.51100000000E-03 0. -1.
        -11    1    3    3    0    0  0.51424848956E+01 -0.21685686565E+02 -0.23725838493E+01  0.22413016466E+02  0.51100000000E-03 0.  1.
        -12    1    3    3    0    0 -0.25527054807E+02 -0.71186155315E+01  0.99230624647E+01  0.28297921883E+02  0.00000000000E+00 0.  1.
</event>
<event>
 7    1  0.5837204E-012  0.5930189E+02  0.7816164E-02  0.1266605E+00
        -11   -1    0    0    0    0  0.00000000000E+00  0.00000000000E+00  0.45593999997E+02  0.45594000000E+02  0.51100000000E-03 0.  1.
         11   -1    0    0    0    0 -0.00000000000E+00 -0.00000000000E+00 -0.45593999997E+02  0.45594000000E+02  0.51100000000E-03 0. -1.
    9900012    2    1    2    0    0 -0.16551792802E+02  0.76043579072E+01  0.26171275237E+02  0.59301894066E+02  0.49999908881E+02 0.  0.
         12    1    1    2    0    0  0.16551792802E+02 -0.76043579072E+01 -0.26171275237E+02  0.31886105934E+02  0.00000000000E+00 0. -1.
         11    1    3    3    0    0  0.97010145064E+01  0.33152551822E+01 -0.55398868075E+01  0.11652937204E+02  0.51100000000E-03 0. -1.
        -11    1    3    3    0    0 -0.19673063035E+02 -0.54467106683E+01  0.29208480890E+02  0.35634694084E+02  0.51100000000E-03 0.  1.
         12    1    3    3    0    0 -0.65797442740E+01  0.97358133933E+01  0.25026811538E+01  0.12014262778E+02  0.00000000000E+00 0. -1.
</event>
<event>
 7    1  0.5837204E-012  0.5930189E+02  0.7816164E-02  0.1266605E+00
        -11   -1    0    0    0    0  0.00000000000E+00  0.00000000000E+00  0.45593999997E+02  0.45594000000E+02  0.51100000000E-03 0.  1.
         11   -1    0    0    0    0 -0.00000000000E+00 -0.00000000000E+00 -0.45593999997E+02  0.45594000000E+02  0.51100000000E-03 0. -1.
    9900012    2    1    2    0    0  0.84570614840E+01  0.75382881553E+01  0.29805643858E+02  0.59301888869E+02  0.49999899403E+02 0.  0.
         12    1    1    2    0    0 -0.84570614840E+01 -0.75382881553E+01 -0.29805643858E+02  0.31886111131E+02  0.00000000000E+00 0. -1.
         11    1    3    3    0    0  0.14320545609E+02  0.30493375603E+00  0.17011549219E+01  0.14424456297E+02  0.51100000000E-03 0. -1.
        -11    1    3    3    0    0  0.75141180845E-01  0.20273890631E+02  0.19682238722E+02  0.28256447209E+02  0.51100000000E-03 0.  1.
        -12    1    3    3    0    0 -0.59386253058E+01 -0.13040536232E+02  0.84222502148E+01  0.16620985363E+02  0.00000000000E+00 0.  1.
</event>
<event>
 7    1  0.5837204E-012  0.5930196E+02  0.7816164E-02  0.1266605E+00
        -11   -1    0    0    0    0  0.00000000000E+00  0.00000000000E+00  0.45593999997E+02  0.45594000000E+02  0.51100000000E-03 0. -1.
         11   -1    0    0    0    0 -0.00000000000E+00 -0.00000000000E+00 -0.45593999997E+02  0.45594000000E+02  0.51100000000E-03 0.  1.
    9900012    2    1    2    0    0 -0.26816772168E+02  0.15859965434E+01 -0.17177461540E+02  0.59301955412E+02  0.50000020762E+02 0.  0.
         12    1    1    2    0    0  0.26816772168E+02 -0.15859965434E+01  0.17177461540E+02  0.31886044588E+02  0.00000000000E+00 0. -1.
         11    1    3    3    0    0  0.92537487067E+01 -0.73301939567E+00 -0.18072969280E+01  0.94570346837E+01  0.51100000000E-03 0. -1.
        -11    1    3    3    0    0 -0.75216437923E+01 -0.92805933555E+01  0.49521733140E+01  0.12931688179E+02  0.51100000000E-03 0.  1.
        -12    1    3    3    0    0 -0.28548877082E+02  0.11599609295E+02 -0.20322337926E+02  0.36913232549E+02  0.00000000000E+00 0.  1.
</event>
<event>
 7    1  0.5837204E-012  0.5930194E+02  0.7816164E-02  0.1266605E+00
        -11   -1    0    0    0    0  0.00000000000E+00  0.00000000000E+00  0.45593999997E+02  0.45594000000E+02  0.51100000000E-03 0. -1.
         11   -1    0    0    0    0 -0.00000000000E+00 -0.00000000000E+00 -0.45593999997E+02  0.45594000000E+02  0.51100000000E-03 0.  1.
    9900012    2    1    2    0    0 -0.40911187649E+01  0.51788726563E+01 -0.31195562502E+02  0.59301935731E+02  0.49999984869E+02 0.  0.
         12    1    1    2    0    0  0.40911187649E+01 -0.51788726563E+01  0.31195562502E+02  0.31886064269E+02  0.00000000000E+00 0. -1.
         11    1    3    3    0    0 -0.27796172402E+01 -0.18762601255E+01  0.13251680164E+01  0.36059249290E+01  0.51100000000E-03 0. -1.
        -11    1    3    3    0    0  0.12479376755E+02 -0.12644521606E+02 -0.24667364024E+02  0.30398973979E+02  0.51100000000E-03 0.  1.
         12    1    3    3    0    0 -0.13790878280E+02  0.19699654388E+02 -0.78533664950E+01  0.25297036823E+02  0.00000000000E+00 0. -1.
</event>
<event>
 7    1  0.5837204E-012  0.5930192E+02  0.7816164E-02  0.1266605E+00
        -11   -1    0    0    0    0  0.00000000000E+00  0.00000000000E+00  0.45593999997E+02  0.45594000000E+02  0.51100000000E-03 0.  1.
         11   -1    0    0    0    0 -0.00000000000E+00 -0.00000000000E+00 -0.45593999997E+02  0.45594000000E+02  0.51100000000E-03 0. -1.
    9900012    2    1    2    0    0 -0.18397904261E+02 -0.11149181139E+01  0.26019148218E+02  0.59301921571E+02  0.49999959045E+02 0.  0.
         12    1    1    2    0    0  0.18397904261E+02  0.11149181139E+01 -0.26019148218E+02  0.31886078429E+02  0.00000000000E+00 0. -1.
         11    1    3    3    0    0 -0.14231596462E+01 -0.21160164515E+02  0.15658678602E+02  0.26362324660E+02  0.51100000000E-03 0. -1.
        -11    1    3    3    0    0 -0.14510567181E+02  0.70819497929E+01 -0.26396827565E-01  0.16146555975E+02  0.51100000000E-03 0.  1.
        -12    1    3    3    0    0 -0.24641774332E+01  0.12963296608E+02  0.10386866444E+02  0.16793040936E+02  0.00000000000E+00 0.  1.
</event>
<event>
 7    1  0.5837204E-012  0.5930212E+02  0.7816164E-02  0.1266604E+00
        -11   -1    0    0    0    0  0.00000000000E+00  0.00000000000E+00  0.45593999997E+02  0.45594000000E+02  0.51100000000E-03 0.  1.
         11   -1    0    0    0    0 -0.00000000000E+00 -0.00000000000E+00 -0.45593999997E+02  0.45594000000E+02  0.51100000000E-03 0. -1.
    9900012    2    1    2    0    0  0.90666117028E+01  0.12407051995E+02  0.27938697463E+02  0.59302122203E+02  0.50000324948E+02 0.  0.
         12    1    1    2    0    0 -0.90666117028E+01 -0.12407051995E+02 -0.27938697463E+02  0.31885877797E+02  0.00000000000E+00 0. -1.
         11    1    3    3    0    0  0.58553489824E+01  0.50087321550E+01 -0.12278739635E+02  0.14496204910E+02  0.51100000000E-03 0. -1.
        -11    1    3    3    0    0 -0.32281982930E+01 -0.25173551883E+01  0.15599901591E+01  0.43808573271E+01  0.51100000000E-03 0.  1.
        -12    1    3    3    0    0  0.64394610134E+01  0.99156750280E+01  0.38657446939E+02  0.40425059966E+02  0.00000000000E+00 0.  1.
</event>
<event>
 7    1  0.5837204E-012  0.5930195E+02  0.7816164E-02  0.1266605E+00
        -11   -1    0    0    0    0  0.00000000000E+00  0.00000000000E+00  0.45593999997E+02  0.45594000000E+02  0.51100000000E-03 0.  1.
         11   -1    0    0    0    0 -0.00000000000E+00 -0.00000000000E+00 -0.45593999997E+02  0.45594000000E+02  0.51100000000E-03 0. -1.
    9900012    2    1    2    0    0  0.29599370054E+02 -0.11739880697E+02 -0.16652189867E+01  0.59301945672E+02  0.50000002998E+02 0.  0.
         12    1    1    2    0    0 -0.29599370054E+02  0.11739880697E+02  0.16652189867E+01  0.31886054328E+02  0.00000000000E+00 0. -1.
         11    1    3    3    0    0 -0.81882934202E+01 -0.77091424153E+01 -0.23167184713E+01  0.11482430520E+02  0.51100000000E-03 0. -1.
        -11    1    3    3    0    0 -0.98420139906E+00  0.56032216110E+01 -0.48701815182E+01  0.74888859717E+01  0.51100000000E-03 0.  1.
        -12    1    3    3    0    0  0.38771864873E+02 -0.96339598924E+01  0.55216810027E+01  0.40330629180E+02  0.00000000000E+00 0.  1.
</event>
<event>
 7    1  0.5837204E-012  0.5930194E+02  0.7816164E-02  0.1266605E+00
        -11   -1    0    0    0    0  0.00000000000E+00  0.00000000000E+00  0.45593999997E+02  0.45594000000E+02  0.51100000000E-03 0. -1.
         11   -1    0    0    0    0 -0.00000000000E+00 -0.00000000000E+00 -0.45593999997E+02  0.45594000000E+02  0.51100000000E-03 0.  1.
    9900012    2    1    2    0    0 -0.22335398084E+02  0.19615102807E+02 -0.11536837215E+02  0.59301939118E+02  0.49999991045E+02 0.  0.
         12    1    1    2    0    0  0.22335398084E+02 -0.19615102807E+02  0.11536837215E+02  0.31886060882E+02  0.00000000000E+00 0. -1.
         11    1    3    3    0    0  0.53580127654E+00  0.86721026698E+00 -0.66022994669E+01  0.66805310543E+01  0.51100000000E-03 0. -1.
        -11    1    3    3    0    0 -0.22288010932E+02  0.12405951576E+02 -0.22452288587E+02  0.33981882362E+02  0.51100000000E-03 0.  1.
         12    1    3    3    0    0 -0.58318842809E+00  0.63419409635E+01  0.17517750839E+02  0.18639525701E+02  0.00000000000E+00 0. -1.
</event>
<event>
 7    1  0.5837204E-012  0.5930193E+02  0.7816164E-02  0.1266605E+00
        -11   -1    0    0    0    0  0.00000000000E+00  0.00000000000E+00  0.45593999997E+02  0.45594000000E+02  0.51100000000E-03 0. -1.
         11   -1    0    0    0    0 -0.00000000000E+00 -0.00000000000E+00 -0.45593999997E+02  0.45594000000E+02  0.51100000000E-03 0.  1.
    9900012    2    1    2    0    0 -0.33048470078E+01 -0.31307858744E+02  0.50613363020E+01  0.59301934736E+02  0.49999983054E+02 0.  0.
         12    1    1    2    0    0  0.33048470078E+01  0.31307858744E+02 -0.50613363020E+01  0.31886065264E+02  0.00000000000E+00 0. -1.
         11    1    3    3    0    0 -0.43157707193E+01  0.11621998553E+02 -0.14620045465E+01  0.12483356312E+02  0.51100000000E-03 0.  1.
        -11    1    3    3    0    0  0.40761130760E+01 -0.21296725472E+02  0.11303335005E+02  0.24452619413E+02  0.51100000000E-03 0. -1.
        -12    1    3    3    0    0 -0.30651893645E+01 -0.21633131824E+02 -0.47799941565E+01  0.22365959011E+02  0.00000000000E+00 0.  1.
</event>
<event>
 7    1  0.5837204E-012  0.5930193E+02  0.7816164E-02  0.1266605E+00
        -11   -1    0    0    0    0  0.00000000000E+00  0.00000000000E+00  0.45593999997E+02  0.45594000000E+02  0.51100000000E-03 0. -1.
         11   -1    0    0    0    0 -0.00000000000E+00 -0.00000000000E+00 -0.45593999997E+02  0.45594000000E+02  0.51100000000E-03 0.  1.
    9900012    2    1    2    0    0 -0.42850920052E+01  0.28627538209E+02 -0.13372488582E+02  0.59301930812E+02  0.49999975897E+02 0.  0.
         12    1    1    2    0    0  0.42850920052E+01 -0.28627538209E+02  0.13372488582E+02  0.31886069188E+02  0.00000000000E+00 0. -1.
         11    1    3    3    0    0 -0.16769536756E+02  0.16598040040E+02 -0.29015416309E+01  0.23772489147E+02  0.51100000000E-03 0. -1.
        -11    1    3    3    0    0  0.64591126658E+01  0.20927445902E+02 -0.11494691378E+02  0.24734713634E+02  0.51100000000E-03 0.  1.
        -12    1    3    3    0    0  0.60253320849E+01 -0.88979477329E+01  0.10237444272E+01  0.10794728030E+02  0.00000000000E+00 0.  1.
</event>
<event>
 7    1  0.5837204E-012  0.5930188E+02  0.7816164E-02  0.1266605E+00
        -11   -1    0    0    0    0  0.00000000000E+00  0.00000000000E+00  0.45593999997E+02  0.45594000000E+02  0.51100000000E-03 0. -1.
         11   -1    0    0    0    0 -0.00000000000E+00 -0.00000000000E+00 -0.45593999997E+02  0.45594000000E+02  0.51100000000E-03 0.  1.
    9900012    2    1    2    0    0  0.13417609187E+02 -0.28447972025E+02  0.52350082913E+01  0.59301879815E+02  0.49999882892E+02 0.  0.
         12    1    1    2    0    0 -0.13417609187E+02  0.28447972025E+02 -0.52350082913E+01  0.31886120185E+02  0.00000000000E+00 0. -1.
         11    1    3    3    0    0 -0.55956807226E+01  0.10775364055E+02 -0.64556748403E+01  0.13751212717E+02  0.51100000000E-03 0. -1.
        -11    1    3    3    0    0  0.38717225079E+01 -0.34797853748E+01  0.14715174840E+01  0.54096677717E+01  0.51100000000E-03 0.  1.
        -12    1    3    3    0    0  0.15141567402E+02 -0.35743550705E+02  0.10219165648E+02  0.40140999327E+02  0.00000000000E+00 0.  1.
</event>
<event>
 7    1  0.5837204E-012  0.5930196E+02  0.7816164E-02  0.1266605E+00
        -11   -1    0    0    0    0  0.00000000000E+00  0.00000000000E+00  0.45593999997E+02  0.45594000000E+02  0.51100000000E-03 0.  1.
         11   -1    0    0    0    0 -0.00000000000E+00 -0.00000000000E+00 -0.45593999997E+02  0.45594000000E+02  0.51100000000E-03 0. -1.
    9900012    2    1    2    0    0  0.34518855920E+01  0.35503984493E+01  0.31499182102E+02  0.59301963614E+02  0.50000035721E+02 0.  0.
         12    1    1    2    0    0 -0.34518855920E+01 -0.35503984493E+01 -0.31499182102E+02  0.31886036386E+02  0.00000000000E+00 0. -1.
         11    1    3    3    0    0 -0.30938140396E+01  0.75886897058E+01  0.20772541635E+02  0.22330660156E+02  0.51100000000E-03 0. -1.
        -11    1    3    3    0    0  0.56130265649E+00  0.13908570243E+02 -0.21522703575E+01  0.14085299245E+02  0.51100000000E-03 0.  1.
         12    1    3    3    0    0  0.59843969751E+01 -0.17946861499E+02  0.12878910825E+02  0.22886004214E+02  0.00000000000E+00 0. -1.
</event>
<event>
 7    1  0.5837204E-012  0.5930194E+02  0.7816164E-02  0.1266605E+00
        -11   -1    0    0    0    0  0.00000000000E+00  0.00000000000E+00  0.45593999997E+02  0.45594000000E+02  0.51100000000E-03 0.  1.
         11   -1    0    0    0    0 -0.00000000000E+00 -0.00000000000E+00 -0.45593999997E+02  0.45594000000E+02  0.51100000000E-03 0. -1.
    9900012    2    1    2    0    0  0.18777607397E+02  0.24359197324E+02 -0.84114114157E+01  0.59301939161E+02  0.49999991124E+02 0.  0.
         12    1    1    2    0    0 -0.18777607397E+02 -0.24359197324E+02  0.84114114157E+01  0.31886060839E+02  0.00000000000E+00 0. -1.
         11    1    3    3    0    0  0.10399562556E+02 -0.96401932459E+00 -0.23201774796E+02  0.25444107148E+02  0.51100000000E-03 0. -1.
        -11    1    3    3    0    0  0.70470329617E+01  0.10947721780E+02  0.14403285925E+02  0.19415662014E+02  0.51100000000E-03 0.  1.
        -12    1    3    3    0    0  0.13310118794E+01  0.14375494869E+02  0.38707745531E+00  0.14442170000E+02  0.00000000000E+00 0.  1.
</event>
<event>
 7    1  0.5837204E-012  0.5930193E+02  0.7816164E-02  0.1266605E+00
        -11   -1    0    0    0    0  0.00000000000E+00  0.00000000000E+00  0.45593999997E+02  0.45594000000E+02  0.51100000000E-03 0.  1.
         11   -1    0    0    0    0 -0.00000000000E+00 -0.00000000000E+00 -0.45593999997E+02  0.45594000000E+02  0.51100000000E-03 0. -1.
    9900012    2    1    2    0    0 -0.52461891643E+01 -0.23199832641E+01  0.31365853882E+02  0.59301927604E+02  0.49999970047E+02 0.  0.
         12    1    1    2    0    0  0.52461891643E+01  0.23199832641E+01 -0.31365853882E+02  0.31886072396E+02  0.00000000000E+00 0. -1.
         11    1    3    3    0    0  0.12064667215E+02  0.54324818143E+01  0.50181558181E+01  0.14150969640E+02  0.51100000000E-03 0. -1.
        -11    1    3    3    0    0 -0.93361708795E+00  0.11049855338E+02  0.43911150476E+01  0.11926979310E+02  0.51100000000E-03 0.  1.
         12    1    3    3    0    0 -0.16377239291E+02 -0.18802320416E+02  0.21956583017E+02  0.33223978654E+02  0.00000000000E+00 0. -1.
</event>
<event>
 7    1  0.5837204E-012  0.5930191E+02  0.7816164E-02  0.1266605E+00
        -11   -1    0    0    0    0  0.00000000000E+00  0.00000000000E+00  0.45593999997E+02  0.45594000000E+02  0.51100000000E-03 0.  1.
         11   -1    0    0    0    0 -0.00000000000E+00 -0.00000000000E+00 -0.45593999997E+02  0.45594000000E+02  0.51100000000E-03 0. -1.
    9900012    2    1    2    0    0  0.10767308365E+02 -0.14313568298E+02  0.26380092079E+02  0.59301914869E+02  0.49999946822E+02 0.  0.
         12    1    1    2    0    0 -0.10767308365E+02  0.14313568298E+02 -0.26380092079E+02  0.31886085131E+02  0.00000000000E+00 0. -1.
         11    1    3    3    0    0  0.61845712436E+01 -0.71490554896E+01 -0.40392285390E+01  0.10279751131E+02  0.51100000000E-03 0. -1.
        -11    1    3    3    0    0  0.18732054023E+02 -0.11511796922E+02  0.24916848329E+02  0.33230417500E+02  0.51100000000E-03 0.  1.
         12    1    3    3    0    0 -0.14149316902E+02  0.43472841128E+01  0.55024722890E+01  0.15791746238E+02  0.00000000000E+00 0. -1.
</event>
<event>
 7    1  0.5837204E-012  0.5930197E+02  0.7816164E-02  0.1266605E+00
        -11   -1    0    0    0    0  0.00000000000E+00  0.00000000000E+00  0.45593999997E+02  0.45594000000E+02  0.51100000000E-03 0. -1.
         11   -1    0    0    0    0 -0.00000000000E+00 -0.00000000000E+00 -0.45593999997E+02  0.45594000000E+02  0.51100000000E-03 0.  1.
    9900012    2    1    2    0    0 -0.11754098766E+02  0.10448059099E+02 -0.27738023092E+02  0.59301973252E+02  0.50000053298E+02 0.  0.
         12    1    1    2    0    0  0.11754098766E+02 -0.10448059099E+02  0.27738023092E+02  0.31886026748E+02  0.00000000000E+00 0. -1.
         11    1    3    3    0    0  0.74611807283E+01 -0.11279996237E+02 -0.43097720543E+01  0.14194423848E+02  0.51100000000E-03 0. -1.
        -11    1    3    3    0    0 -0.15279274872E+02 -0.81893566602E+00 -0.12432469681E+02  0.19715303672E+02  0.51100000000E-03 0.  1.
        -12    1    3    3    0    0 -0.39360046222E+01  0.22546991002E+02 -0.10995781356E+02  0.25392245731E+02  0.00000000000E+00 0.  1.
</event>
<event>
 7    1 -0.7535089E-012  0.5930196E+02  0.7816164E-02  0.1266605E+00
        -11   -1    0    0    0    0  0.00000000000E+00  0.00000000000E+00  0.45593999997E+02  0.45594000000E+02  0.51100000000E-03 0. -1.
         11   -1    0    0    0    0 -0.00000000000E+00 -0.00000000000E+00 -0.45593999997E+02  0.45594000000E+02  0.51100000000E-03 0.  1.
    9900012    2    1    2    0    0  0.57141199934E+01  0.27204829366E+02 -0.15619396662E+02  0.59301961359E+02  0.50000031608E+02 0.  0.
         12    1    1    2    0    0 -0.57141199934E+01 -0.27204829366E+02  0.15619396662E+02  0.31886038641E+02  0.00000000000E+00 0. -1.
         11    1    3    3    0    0 -0.50346850284E+00  0.12142235898E+02 -0.69416099101E+01  0.13995475038E+02  0.51100000000E-03 0. -1.
        -11    1    3    3    0    0  0.11952892164E+02  0.27560713854E+02 -0.95639606894E+01  0.31526717615E+02  0.51100000000E-03 0.  1.
         12    1    3    3    0    0 -0.57353036677E+01 -0.12498120386E+02  0.88617393751E+00  0.13779768706E+02  0.00000000000E+00 0. -1.
</event>
<event>
 7    1  0.5837204E-012  0.5930196E+02  0.7816164E-02  0.1266605E+00
        -11   -1    0    0    0    0  0.00000000000E+00  0.00000000000E+00  0.45593999997E+02  0.45594000000E+02  0.51100000000E-03 0.  1.
         11   -1    0    0    0    0 -0.00000000000E+00 -0.00000000000E+00 -0.45593999997E+02  0.45594000000E+02  0.51100000000E-03 0. -1.
    9900012    2    1    2    0    0 -0.28201715310E+02  0.82752711932E+01  0.12365390084E+02  0.59301957102E+02  0.50000023845E+02 0.  0.
         12    1    1    2    0    0  0.28201715310E+02 -0.82752711932E+01 -0.12365390084E+02  0.31886042898E+02  0.00000000000E+00 0. -1.
         11    1    3    3    0    0  0.85814839624E+01 -0.50179222850E+01  0.15104426461E+01  0.10054991213E+02  0.51100000000E-03 0. -1.
        -11    1    3    3    0    0 -0.97300590029E+01  0.15985028550E+02  0.11659086661E+02  0.22048344336E+02  0.51100000000E-03 0.  1.
         12    1    3    3    0    0 -0.27053140269E+02 -0.26918350715E+01 -0.80413922316E+00  0.27198621553E+02  0.00000000000E+00 0. -1.
</event>
<event>
 7    1  0.5837204E-012  0.5930194E+02  0.7816164E-02  0.1266605E+00
        -11   -1    0    0    0    0  0.00000000000E+00  0.00000000000E+00  0.45593999997E+02  0.45594000000E+02  0.51100000000E-03 0.  1.
         11   -1    0    0    0    0 -0.00000000000E+00 -0.00000000000E+00 -0.45593999997E+02  0.45594000000E+02  0.51100000000E-03 0. -1.
    9900012    2    1    2    0    0 -0.77173388909E+00 -0.26172157466E+02 -0.18197349239E+02  0.59301938485E+02  0.49999989892E+02 0.  0.
         12    1    1    2    0    0  0.77173388909E+00  0.26172157466E+02  0.18197349239E+02  0.31886061515E+02  0.00000000000E+00 0. -1.
         11    1    3    3    0    0 -0.60737500443E+01 -0.23513241991E+01  0.24105626049E+01  0.69447805886E+01  0.51100000000E-03 0. -1.
        -11    1    3    3    0    0  0.23146526071E+02 -0.15002395800E+02 -0.16136541501E+02  0.31956556773E+02  0.51100000000E-03 0.  1.
         12    1    3    3    0    0 -0.17844509916E+02 -0.88184374663E+01 -0.44713703428E+01  0.20400601124E+02  0.00000000000E+00 0. -1.
</event>
<event>
 7    1  0.5837204E-012  0.5930195E+02  0.7816164E-02  0.1266605E+00
        -11   -1    0    0    0    0  0.00000000000E+00  0.00000000000E+00  0.45593999997E+02  0.45594000000E+02  0.51100000000E-03 0.  1.
         11   -1    0    0    0    0 -0.00000000000E+00 -0.00000000000E+00 -0.45593999997E+02  0.45594000000E+02  0.51100000000E-03 0. -1.
    9900012    2    1    2    0    0  0.12016512993E+02 -0.18327984937E+02  0.23160502489E+02  0.59301945181E+02  0.50000002103E+02 0.  0.
         12    1    1    2    0    0 -0.12016512993E+02  0.18327984937E+02 -0.23160502489E+02  0.31886054819E+02  0.00000000000E+00 0. -1.
         11    1    3    3    0    0 -0.10728045016E+01 -0.19430291140E+02  0.48214536926E+01  0.20048280207E+02  0.51100000000E-03 0. -1.
        -11    1    3    3    0    0  0.21091429816E+02 -0.79607943409E+01  0.13133129601E+02  0.26090261624E+02  0.51100000000E-03 0.  1.
         12    1    3    3    0    0 -0.80021123213E+01  0.90631005441E+01  0.52059191960E+01  0.13163403350E+02  0.00000000000E+00 0. -1.
</event>
<event>
 7    1  0.5837204E-012  0.5930192E+02  0.7816164E-02  0.1266605E+00
        -11   -1    0    0    0    0  0.00000000000E+00  0.00000000000E+00  0.45593999997E+02  0.45594000000E+02  0.51100000000E-03 0. -1.
         11   -1    0    0    0    0 -0.00000000000E+00 -0.00000000000E+00 -0.45593999997E+02  0.45594000000E+02  0.51100000000E-03 0.  1.
    9900012    2    1    2    0    0  0.17693714690E+02 -0.53924591333E+01 -0.25972598519E+02  0.59301921081E+02  0.49999958150E+02 0.  0.
         12    1    1    2    0    0 -0.17693714690E+02  0.53924591333E+01  0.25972598519E+02  0.31886078919E+02  0.00000000000E+00 0. -1.
         11    1    3    3    0    0 -0.43423651511E+01 -0.27166707556E+01 -0.23717480926E+00  0.51276395399E+01  0.51100000000E-03 0. -1.
        -11    1    3    3    0    0  0.20967663922E+02 -0.20787917234E+02 -0.15722404219E+02  0.33451075139E+02  0.51100000000E-03 0.  1.
         12    1    3    3    0    0  0.10684159191E+01  0.18112128856E+02 -0.10013019491E+02  0.20723206402E+02  0.00000000000E+00 0. -1.
</event>
<event>
 7    1  0.5837204E-012  0.5930196E+02  0.7816164E-02  0.1266605E+00
        -11   -1    0    0    0    0  0.00000000000E+00  0.00000000000E+00  0.45593999997E+02  0.45594000000E+02  0.51100000000E-03 0. -1.
         11   -1    0    0    0    0 -0.00000000000E+00 -0.00000000000E+00 -0.45593999997E+02  0.45594000000E+02  0.51100000000E-03 0.  1.
    9900012    2    1    2    0    0  0.90198128176E+01 -0.29389038192E+02 -0.84644676174E+01  0.59301956012E+02  0.50000021857E+02 0.  0.
         12    1    1    2    0    0 -0.90198128176E+01  0.29389038192E+02  0.84644676174E+01  0.31886043988E+02  0.00000000000E+00 0. -1.
         11    1    3    3    0    0  0.13807007610E+01 -0.25200771643E+02  0.66877760868E+00  0.25247425408E+02  0.51100000000E-03 0. -1.
        -11    1    3    3    0    0 -0.93840926300E+01 -0.44306970327E+01 -0.12961995090E+02  0.16604384592E+02  0.51100000000E-03 0.  1.
         12    1    3    3    0    0  0.17023204687E+02  0.24243048356E+00  0.38287498641E+01  0.17450146013E+02  0.00000000000E+00 0. -1.
</event>
<event>
 7    1  0.5837204E-012  0.5930196E+02  0.7816164E-02  0.1266605E+00
        -11   -1    0    0    0    0  0.00000000000E+00  0.00000000000E+00  0.45593999997E+02  0.45594000000E+02  0.51100000000E-03 0. -1.
         11   -1    0    0    0    0 -0.00000000000E+00 -0.00000000000E+00 -0.45593999997E+02  0.45594000000E+02  0.51100000000E-03 0.  1.
    9900012    2    1    2    0    0  0.27069895373E+02 -0.36709017556E+00  0.16846527525E+02  0.59301961043E+02  0.50000031032E+02 0.  0.
         12    1    1    2    0    0 -0.27069895373E+02  0.36709017556E+00 -0.16846527525E+02  0.31886038957E+02  0.00000000000E+00 0. -1.
         11    1    3    3    0    0  0.36231241596E+00 -0.13695007427E+01  0.13658689468E+02  0.13731955462E+02  0.51100000000E-03 0. -1.
        -11    1    3    3    0    0  0.11309090019E+01  0.15212074931E+02 -0.32848935930E+01  0.15603740098E+02  0.51100000000E-03 0.  1.
        -12    1    3    3    0    0  0.25576673955E+02 -0.14209664364E+02  0.64727316502E+01  0.29966265483E+02  0.00000000000E+00 0.  1.
</event>
<event>
 7    1  0.5837204E-012  0.5930195E+02  0.7816164E-02  0.1266605E+00
        -11   -1    0    0    0    0  0.00000000000E+00  0.00000000000E+00  0.45593999997E+02  0.45594000000E+02  0.51100000000E-03 0. -1.
         11   -1    0    0    0    0 -0.00000000000E+00 -0.00000000000E+00 -0.45593999997E+02  0.45594000000E+02  0.51100000000E-03 0.  1.
    9900012    2    1    2    0    0  0.22194279368E+02  0.22217553708E+02  0.55239661016E+01  0.59301953978E+02  0.50000018146E+02 0.  0.
         12    1    1    2    0    0 -0.22194279368E+02 -0.22217553708E+02 -0.55239661016E+01  0.31886046022E+02  0.00000000000E+00 0. -1.
         11    1    3    3    0    0 -0.71352392483E+01 -0.31173754255E+01  0.52494681285E+01  0.93907712445E+01  0.51100000000E-03 0. -1.
        -11    1    3    3    0    0  0.21247536846E+01 -0.19673265637E+00 -0.10787685186E+02  0.10996701046E+02  0.51100000000E-03 0.  1.
         12    1    3    3    0    0  0.27204764932E+02  0.25531661790E+02  0.11062183159E+02  0.38914481687E+02  0.00000000000E+00 0. -1.
</event>
<event>
 7    1  0.5837204E-012  0.5930197E+02  0.7816164E-02  0.1266605E+00
        -11   -1    0    0    0    0  0.00000000000E+00  0.00000000000E+00  0.45593999997E+02  0.45594000000E+02  0.51100000000E-03 0.  1.
         11   -1    0    0    0    0 -0.00000000000E+00 -0.00000000000E+00 -0.45593999997E+02  0.45594000000E+02  0.51100000000E-03 0. -1.
    9900012    2    1    2    0    0 -0.25543854395E+02 -0.17319615440E+02  0.80163012744E+01  0.59301973868E+02  0.50000054422E+02 0.  0.
         12    1    1    2    0    0  0.25543854395E+02  0.17319615440E+02 -0.80163012744E+01  0.31886026132E+02  0.00000000000E+00 0. -1.
         11    1    3    3    0    0 -0.13952614664E+01 -0.82974557767E+01 -0.83478135894E+01  0.11852447802E+02  0.51100000000E-03 0. -1.
        -11    1    3    3    0    0 -0.14442935818E+02 -0.23213031988E+02  0.10442929863E+02  0.29265987656E+02  0.51100000000E-03 0.  1.
         12    1    3    3    0    0 -0.97056571108E+01  0.14190872324E+02  0.59211850013E+01  0.18183538410E+02  0.00000000000E+00 0. -1.
</event>
<event>
 7    1  0.5837204E-012  0.5930195E+02  0.7816164E-02  0.1266605E+00
        -11   -1    0    0    0    0  0.00000000000E+00  0.00000000000E+00  0.45593999997E+02  0.45594000000E+02  0.51100000000E-03 0.  1.
         11   -1    0    0    0    0 -0.00000000000E+00 -0.00000000000E+00 -0.45593999997E+02  0.45594000000E+02  0.51100000000E-03 0. -1.
    9900012    2    1    2    0    0 -0.78749709262E+01  0.30346462395E+02  0.58135609274E+01  0.59301946032E+02  0.50000003655E+02 0.  0.
         12    1    1    2    0    0  0.78749709262E+01 -0.30346462395E+02 -0.58135609274E+01  0.31886053968E+02  0.00000000000E+00 0. -1.
         11    1    3    3    0    0  0.11288835888E+02 -0.22036833673E+01  0.10011381775E+01  0.11545402288E+02  0.51100000000E-03 0. -1.
        -11    1    3    3    0    0  0.22446507852E+01 -0.14827288494E+01  0.69913900405E+01  0.74910931745E+01  0.51100000000E-03 0.  1.
         12    1    3    3    0    0 -0.21408457599E+02  0.34032874612E+02 -0.21789672906E+01  0.40265450570E+02  0.00000000000E+00 0. -1.
</event>
<event>
 7    1  0.5837204E-012  0.5930194E+02  0.7816164E-02  0.1266605E+00
        -11   -1    0    0    0    0  0.00000000000E+00  0.00000000000E+00  0.45593999997E+02  0.45594000000E+02  0.51100000000E-03 0. -1.
         11   -1    0    0    0    0 -0.00000000000E+00 -0.00000000000E+00 -0.45593999997E+02  0.45594000000E+02  0.51100000000E-03 0.  1.
    9900012    2    1    2    0    0  0.25324038150E+02 -0.13621551880E+02 -0.13779222344E+02  0.59301944235E+02  0.50000000378E+02 0.  0.
         12    1    1    2    0    0 -0.25324038150E+02  0.13621551880E+02  0.13779222344E+02  0.31886055765E+02  0.00000000000E+00 0. -1.
         11    1    3    3    0    0  0.29338462091E+02 -0.10331350853E+02 -0.83970220341E+01  0.32217885524E+02  0.51100000000E-03 0. -1.
        -11    1    3    3    0    0  0.56999238847E+01  0.84432200378E+01 -0.60288859964E+01  0.11837422165E+02  0.51100000000E-03 0.  1.
        -12    1    3    3    0    0 -0.97143478265E+01 -0.11733421066E+02  0.64668568648E+00  0.15246636546E+02  0.00000000000E+00 0.  1.
</event>
<event>
 7    1  0.5837204E-012  0.5930193E+02  0.7816164E-02  0.1266605E+00
        -11   -1    0    0    0    0  0.00000000000E+00  0.00000000000E+00  0.45593999997E+02  0.45594000000E+02  0.51100000000E-03 0. -1.
         11   -1    0    0    0    0 -0.00000000000E+00 -0.00000000000E+00 -0.45593999997E+02  0.45594000000E+02  0.51100000000E-03 0.  1.
    9900012    2    1    2    0    0 -0.18238641302E+02 -0.22253436889E+02  0.13742558309E+02  0.59301930960E+02  0.49999976168E+02 0.  0.
         12    1    1    2    0    0  0.18238641302E+02  0.22253436889E+02 -0.13742558309E+02  0.31886069040E+02  0.00000000000E+00 0. -1.
         11    1    3    3    0    0 -0.15505231041E+02 -0.98255114479E+01  0.22369898600E+01  0.18492079081E+02  0.51100000000E-03 0. -1.
        -11    1    3    3    0    0 -0.37818452001E+01 -0.85451454769E+01 -0.12981313149E+02  0.15994885297E+02  0.51100000000E-03 0.  1.
         12    1    3    3    0    0  0.10484349385E+01 -0.38827799640E+01  0.24486881598E+02  0.24814966582E+02  0.00000000000E+00 0. -1.
</event>
<event>
 7    1  0.5837204E-012  0.5930196E+02  0.7816164E-02  0.1266605E+00
        -11   -1    0    0    0    0  0.00000000000E+00  0.00000000000E+00  0.45593999997E+02  0.45594000000E+02  0.51100000000E-03 0.  1.
         11   -1    0    0    0    0 -0.00000000000E+00 -0.00000000000E+00 -0.45593999997E+02  0.45594000000E+02  0.51100000000E-03 0. -1.
    9900012    2    1    2    0    0  0.16593403854E+02 -0.22582164826E+02  0.15212640223E+02  0.59301958505E+02  0.50000026403E+02 0.  0.
         12    1    1    2    0    0 -0.16593403854E+02  0.22582164826E+02 -0.15212640223E+02  0.31886041495E+02  0.00000000000E+00 0. -1.
         11    1    3    3    0    0  0.41118904151E+01  0.14869648645E+01 -0.12589268395E+02  0.13326979638E+02  0.51100000000E-03 0. -1.
        -11    1    3    3    0    0  0.89466990893E+01 -0.93481594886E+01 -0.14669969686E+01  0.13022426455E+02  0.51100000000E-03 0.  1.
        -12    1    3    3    0    0  0.35348143491E+01 -0.14720970202E+02  0.29268905587E+02  0.32952552411E+02  0.00000000000E+00 0.  1.
</event>
<event>
 7    1  0.5837204E-012  0.5930195E+02  0.7816164E-02  0.1266605E+00
        -11   -1    0    0    0    0  0.00000000000E+00  0.00000000000E+00  0.45593999997E+02  0.45594000000E+02  0.51100000000E-03 0.  1.
         11   -1    0    0    0    0 -0.00000000000E+00 -0.00000000000E+00 -0.45593999997E+02  0.45594000000E+02  0.51100000000E-03 0. -1.
    9900012    2    1    2    0    0  0.72700447117E+01  0.20252316054E+02  0.23531052633E+02  0.59301948290E+02  0.50000007773E+02 0.  0.
         12    1    1    2    0    0 -0.72700447117E+01 -0.20252316054E+02 -0.23531052633E+02  0.31886051710E+02  0.00000000000E+00 0. -1.
         11    1    3    3    0    0  0.56301796872E+01  0.17829537883E+02 -0.10722019245E+01  0.18728079497E+02  0.51100000000E-03 0. -1.
        -11    1    3    3    0    0 -0.11448657894E+02  0.11462156153E+02  0.14407385888E+02  0.21680072870E+02  0.51100000000E-03 0.  1.
        -12    1    3    3    0    0  0.13088522918E+02 -0.90393779817E+01  0.10195868669E+02  0.18893795923E+02  0.00000000000E+00 0.  1.
</event>
<event>
 7    1  0.5837204E-012  0.5930195E+02  0.7816164E-02  0.1266605E+00
        -11   -1    0    0    0    0  0.00000000000E+00  0.00000000000E+00  0.45593999997E+02  0.45594000000E+02  0.51100000000E-03 0.  1.
         11   -1    0    0    0    0 -0.00000000000E+00 -0.00000000000E+00 -0.45593999997E+02  0.45594000000E+02  0.51100000000E-03 0. -1.
    9900012    2    1    2    0    0 -0.16353760403E+02 -0.59408422335E+01 -0.26720430079E+02  0.59301945535E+02  0.50000002748E+02 0.  0.
         12    1    1    2    0    0  0.16353760403E+02  0.59408422335E+01  0.26720430079E+02  0.31886054465E+02  0.00000000000E+00 0. -1.
         11    1    3    3    0    0  0.11359149789E+02  0.99976775429E+00 -0.11751693067E+02  0.16374739988E+02  0.51100000000E-03 0. -1.
        -11    1    3    3    0    0  0.15459466238E+01 -0.38655398636E+01  0.56377716433E+01  0.70083392301E+01  0.51100000000E-03 0.  1.
        -12    1    3    3    0    0 -0.29258856816E+02 -0.30750701242E+01 -0.20606508656E+02  0.35918866316E+02  0.00000000000E+00 0.  1.
</event>
<event>
 7    1  0.5837204E-012  0.5930193E+02  0.7816164E-02  0.1266605E+00
        -11   -1    0    0    0    0  0.00000000000E+00  0.00000000000E+00  0.45593999997E+02  0.45594000000E+02  0.51100000000E-03 0.  1.
         11   -1    0    0    0    0 -0.00000000000E+00 -0.00000000000E+00 -0.45593999997E+02  0.45594000000E+02  0.51100000000E-03 0. -1.
    9900012    2    1    2    0    0 -0.24724700408E+01  0.29679197965E+02  0.11390937390E+02  0.59301931654E+02  0.49999977434E+02 0.  0.
         12    1    1    2    0    0  0.24724700408E+01 -0.29679197965E+02 -0.11390937390E+02  0.31886068346E+02  0.00000000000E+00 0. -1.
         11    1    3    3    0    0  0.36945731163E+01 -0.38977311502E+01 -0.38788296094E+01  0.66247639981E+01  0.51100000000E-03 0. -1.
        -11    1    3    3    0    0 -0.67194881085E+01  0.27349687704E+01 -0.10308200753E+02  0.12605180587E+02  0.51100000000E-03 0.  1.
        -12    1    3    3    0    0  0.55244495138E+00  0.30841960344E+02  0.25577967752E+02  0.40071987069E+02  0.00000000000E+00 0.  1.
</event>
<event>
 7    1  0.5837204E-012  0.5930194E+02  0.7816164E-02  0.1266605E+00
        -11   -1    0    0    0    0  0.00000000000E+00  0.00000000000E+00  0.45593999997E+02  0.45594000000E+02  0.51100000000E-03 0. -1.
         11   -1    0    0    0    0 -0.00000000000E+00 -0.00000000000E+00 -0.45593999997E+02  0.45594000000E+02  0.51100000000E-03 0.  1.
    9900012    2    1    2    0    0 -0.18510202451E+02 -0.23515050005E+02 -0.11006157248E+02  0.59301942406E+02  0.49999997043E+02 0.  0.
         12    1    1    2    0    0  0.18510202451E+02  0.23515050005E+02  0.11006157248E+02  0.31886057594E+02  0.00000000000E+00 0. -1.
         11    1    3    3    0    0 -0.59869172328E+01  0.92950159335E+01  0.15718773869E+01  0.11167421275E+02  0.51100000000E-03 0. -1.
        -11    1    3    3    0    0 -0.87074245288E+01  0.25376930063E+01 -0.83549898107E+01  0.12331463121E+02  0.51100000000E-03 0.  1.
         12    1    3    3    0    0 -0.38158606889E+01 -0.35347758945E+02 -0.42230448242E+01  0.35803058009E+02  0.00000000000E+00 0. -1.
</event>
<event>
 7    1  0.5837204E-012  0.5930188E+02  0.7816164E-02  0.1266605E+00
        -11   -1    0    0    0    0  0.00000000000E+00  0.00000000000E+00  0.45593999997E+02  0.45594000000E+02  0.51100000000E-03 0.  1.
         11   -1    0    0    0    0 -0.00000000000E+00 -0.00000000000E+00 -0.45593999997E+02  0.45594000000E+02  0.51100000000E-03 0. -1.
    9900012    2    1    2    0    0  0.10516019474E+02  0.10162598057E+02  0.28334781959E+02  0.59301875533E+02  0.49999875082E+02 0.  0.
         12    1    1    2    0    0 -0.10516019474E+02 -0.10162598057E+02 -0.28334781959E+02  0.31886124467E+02  0.00000000000E+00 0. -1.
         11    1    3    3    0    0 -0.55730859114E+01  0.72500784177E+01 -0.61204040965E+01  0.11003738919E+02  0.51100000000E-03 0. -1.
        -11    1    3    3    0    0 -0.85814730851E+01  0.13114834110E+01  0.57424073610E+01  0.10408501891E+02  0.51100000000E-03 0.  1.
         12    1    3    3    0    0  0.24670578471E+02  0.16010362280E+01  0.28712778695E+02  0.37889634723E+02  0.00000000000E+00 0. -1.
</event>
<event>
 7    1  0.5837204E-012  0.5930192E+02  0.7816164E-02  0.1266605E+00
        -11   -1    0    0    0    0  0.00000000000E+00  0.00000000000E+00  0.45593999997E+02  0.45594000000E+02  0.51100000000E-03 0. -1.
         11   -1    0    0    0    0 -0.00000000000E+00 -0.00000000000E+00 -0.45593999997E+02  0.45594000000E+02  0.51100000000E-03 0.  1.
    9900012    2    1    2    0    0 -0.48071090246E+01  0.19446427779E+02 -0.24808268676E+02  0.59301920823E+02  0.49999957680E+02 0.  0.
         12    1    1    2    0    0  0.48071090246E+01 -0.19446427779E+02  0.24808268676E+02  0.31886079177E+02  0.00000000000E+00 0. -1.
         11    1    3    3    0    0  0.52913207598E+01  0.60920055445E+01  0.29252386862E+01  0.85829848287E+01  0.51100000000E-03 0. -1.
        -11    1    3    3    0    0 -0.14521581939E+01  0.23848732761E+02 -0.52802362165E+01  0.24469403599E+02  0.51100000000E-03 0.  1.
         12    1    3    3    0    0 -0.86462715905E+01 -0.10494310526E+02 -0.22453271146E+02  0.26249532396E+02  0.00000000000E+00 0. -1.
</event>
<event>
 7    1  0.5837204E-012  0.5930194E+02  0.7816164E-02  0.1266605E+00
        -11   -1    0    0    0    0  0.00000000000E+00  0.00000000000E+00  0.45593999997E+02  0.45594000000E+02  0.51100000000E-03 0.  1.
         11   -1    0    0    0    0 -0.00000000000E+00 -0.00000000000E+00 -0.45593999997E+02  0.45594000000E+02  0.51100000000E-03 0. -1.
    9900012    2    1    2    0    0  0.18719288690E+02 -0.81691005621E+01  0.24486217166E+02  0.59301940285E+02  0.49999993175E+02 0.  0.
         12    1    1    2    0    0 -0.18719288690E+02  0.81691005621E+01 -0.24486217166E+02  0.31886059715E+02  0.00000000000E+00 0. -1.
         11    1    3    3    0    0  0.21324679753E+01  0.12932250494E+02  0.25350156293E+02  0.28538061371E+02  0.51100000000E-03 0. -1.
        -11    1    3    3    0    0  0.12688784672E+01  0.18869086135E+01 -0.21230843663E+01  0.31109426494E+01  0.51100000000E-03 0.  1.
        -12    1    3    3    0    0  0.15317942247E+02 -0.22988259669E+02  0.12591452391E+01  0.27652936264E+02  0.00000000000E+00 0.  1.
</event>
<event>
 7    1  0.5837204E-012  0.5930193E+02  0.7816164E-02  0.1266605E+00
        -11   -1    0    0    0    0  0.00000000000E+00  0.00000000000E+00  0.45593999997E+02  0.45594000000E+02  0.51100000000E-03 0. -1.
         11   -1    0    0    0    0 -0.00000000000E+00 -0.00000000000E+00 -0.45593999997E+02  0.45594000000E+02  0.51100000000E-03 0.  1.
    9900012    2    1    2    0    0  0.23014204480E+02  0.21750508012E+02 -0.37394397779E+01  0.59301927547E+02  0.49999969943E+02 0.  0.
         12    1    1    2    0    0 -0.23014204480E+02 -0.21750508012E+02  0.37394397779E+01  0.31886072453E+02  0.00000000000E+00 0. -1.
         11    1    3    3    0    0 -0.76370808464E+01  0.30453591521E+01  0.91191650918E+01  0.12278370757E+02  0.51100000000E-03 0. -1.
        -11    1    3    3    0    0  0.20039976575E+01 -0.66669160489E+01 -0.18152774432E+01  0.71943734037E+01  0.51100000000E-03 0.  1.
         12    1    3    3    0    0  0.28647287669E+02  0.25372064909E+02 -0.11043327427E+02  0.39829183386E+02  0.00000000000E+00 0. -1.
</event>
<event>
 7    1  0.5837204E-012  0.5930196E+02  0.7816164E-02  0.1266605E+00
        -11   -1    0    0    0    0  0.00000000000E+00  0.00000000000E+00  0.45593999997E+02  0.45594000000E+02  0.51100000000E-03 0.  1.
         11   -1    0    0    0    0 -0.00000000000E+00 -0.00000000000E+00 -0.45593999997E+02  0.45594000000E+02  0.51100000000E-03 0. -1.
    9900012    2    1    2    0    0 -0.13793922755E+02  0.24646398269E+02  0.14798717876E+02  0.59301963818E+02  0.50000036093E+02 0.  0.
         12    1    1    2    0    0  0.13793922755E+02 -0.24646398269E+02 -0.14798717876E+02  0.31886036182E+02  0.00000000000E+00 0. -1.
         11    1    3    3    0    0 -0.50163096229E+01  0.25684927190E+01 -0.86779505730E+01  0.10347335091E+02  0.51100000000E-03 0. -1.
        -11    1    3    3    0    0 -0.19566286214E+02  0.15937051810E+02  0.35591563433E+01  0.25485226519E+02  0.51100000000E-03 0.  1.
         12    1    3    3    0    0  0.10788673082E+02  0.61408537403E+01  0.19917512106E+02  0.23469402208E+02  0.00000000000E+00 0. -1.
</event>
<event>
 7    1  0.5837204E-012  0.5930208E+02  0.7816164E-02  0.1266604E+00
        -11   -1    0    0    0    0  0.00000000000E+00  0.00000000000E+00  0.45593999997E+02  0.45594000000E+02  0.51100000000E-03 0.  1.
         11   -1    0    0    0    0 -0.00000000000E+00 -0.00000000000E+00 -0.45593999997E+02  0.45594000000E+02  0.51100000000E-03 0. -1.
    9900012    2    1    2    0    0 -0.30550554770E+02  0.85720335654E+00  0.90906991656E+01  0.59302078253E+02  0.50000244795E+02 0.  0.
         12    1    1    2    0    0  0.30550554770E+02 -0.85720335654E+00 -0.90906991656E+01  0.31885921747E+02  0.00000000000E+00 0. -1.
         11    1    3    3    0    0 -0.67076572696E+01  0.45723779519E+01 -0.12246800558E+02  0.14692972142E+02  0.51100000000E-03 0. -1.
        -11    1    3    3    0    0 -0.29245176159E+02 -0.85205701162E+01  0.11859934535E+02  0.32688507019E+02  0.51100000000E-03 0.  1.
         12    1    3    3    0    0  0.54022786592E+01  0.48053955208E+01  0.94775651888E+01  0.11920599093E+02  0.00000000000E+00 0. -1.
</event>
<event>
 7    1  0.5837204E-012  0.5930192E+02  0.7816164E-02  0.1266605E+00
        -11   -1    0    0    0    0  0.00000000000E+00  0.00000000000E+00  0.45593999997E+02  0.45594000000E+02  0.51100000000E-03 0. -1.
         11   -1    0    0    0    0 -0.00000000000E+00 -0.00000000000E+00 -0.45593999997E+02  0.45594000000E+02  0.51100000000E-03 0.  1.
    9900012    2    1    2    0    0 -0.79572316982E+00 -0.21682599834E+02 -0.23365647310E+02  0.59301924902E+02  0.49999965120E+02 0.  0.
         12    1    1    2    0    0  0.79572316982E+00  0.21682599834E+02  0.23365647310E+02  0.31886075098E+02  0.00000000000E+00 0. -1.
         11    1    3    3    0    0 -0.24198547905E+01 -0.32279361014E+01 -0.14791088066E+02  0.15331391167E+02  0.51100000000E-03 0. -1.
        -11    1    3    3    0    0  0.12788655682E+02 -0.14925342636E+02 -0.19693317764E+02  0.27823413374E+02  0.51100000000E-03 0.  1.
         12    1    3    3    0    0 -0.11164524062E+02 -0.35293210966E+01  0.11118758520E+02  0.16147120361E+02  0.00000000000E+00 0. -1.
</event>
<event>
 7    1  0.5837204E-012  0.5930195E+02  0.7816164E-02  0.1266605E+00
        -11   -1    0    0    0    0  0.00000000000E+00  0.00000000000E+00  0.45593999997E+02  0.45594000000E+02  0.51100000000E-03 0.  1.
         11   -1    0    0    0    0 -0.00000000000E+00 -0.00000000000E+00 -0.45593999997E+02  0.45594000000E+02  0.51100000000E-03 0. -1.
    9900012    2    1    2    0    0 -0.94298257310E+00  0.16205213059E+02  0.27444888007E+02  0.59301952516E+02  0.50000015481E+02 0.  0.
         12    1    1    2    0    0  0.94298257310E+00 -0.16205213059E+02 -0.27444888007E+02  0.31886047484E+02  0.00000000000E+00 0. -1.
         11    1    3    3    0    0  0.72461568938E+01 -0.16402334776E+01  0.18527908980E+02  0.19961978034E+02  0.51100000000E-03 0. -1.
        -11    1    3    3    0    0 -0.75740726295E+01  0.21448392955E+02  0.18348849281E+02  0.29224654091E+02  0.51100000000E-03 0.  1.
         12    1    3    3    0    0 -0.61506683739E+00 -0.36029464183E+01 -0.94318702549E+01  0.10115320391E+02  0.00000000000E+00 0. -1.
</event>
<event>
 7    1  0.5837204E-012  0.5930194E+02  0.7816164E-02  0.1266605E+00
        -11   -1    0    0    0    0  0.00000000000E+00  0.00000000000E+00  0.45593999997E+02  0.45594000000E+02  0.51100000000E-03 0. -1.
         11   -1    0    0    0    0 -0.00000000000E+00 -0.00000000000E+00 -0.45593999997E+02  0.45594000000E+02  0.51100000000E-03 0.  1.
    9900012    2    1    2    0    0 -0.74432288305E+01  0.29050316408E+02 -0.10835044830E+02  0.59301941365E+02  0.49999995144E+02 0.  0.
         12    1    1    2    0    0  0.74432288305E+01 -0.29050316408E+02  0.10835044830E+02  0.31886058635E+02  0.00000000000E+00 0. -1.
         11    1    3    3    0    0  0.44094070042E+01 -0.87285796588E+01  0.62852328279E+00  0.97992864417E+01  0.51100000000E-03 0. -1.
        -11    1    3    3    0    0  0.10025149849E+01  0.27652172697E+02  0.27770207419E+01  0.27809342596E+02  0.51100000000E-03 0.  1.
         12    1    3    3    0    0 -0.12855150820E+02  0.10126723370E+02 -0.14240588854E+02  0.21693312327E+02  0.00000000000E+00 0. -1.
</event>
<event>
 7    1  0.5837204E-012  0.5930198E+02  0.7816164E-02  0.1266605E+00
        -11   -1    0    0    0    0  0.00000000000E+00  0.00000000000E+00  0.45593999997E+02  0.45594000000E+02  0.51100000000E-03 0. -1.
         11   -1    0    0    0    0 -0.00000000000E+00 -0.00000000000E+00 -0.45593999997E+02  0.45594000000E+02  0.51100000000E-03 0.  1.
    9900012    2    1    2    0    0  0.22505272867E+02  0.22053858978E+02  0.48845059248E+01  0.59301977972E+02  0.50000061906E+02 0.  0.
         12    1    1    2    0    0 -0.22505272867E+02 -0.22053858978E+02 -0.48845059248E+01  0.31886022028E+02  0.00000000000E+00 0. -1.
         11    1    3    3    0    0  0.27927788023E+01  0.39136280726E+01  0.59751619168E+01  0.76693323257E+01  0.51100000000E-03 0. -1.
        -11    1    3    3    0    0  0.18940905773E+02  0.18980585356E+02 -0.19520635273E+02  0.33167389612E+02  0.51100000000E-03 0.  1.
         12    1    3    3    0    0  0.77158829163E+00 -0.84035445074E+00  0.18429979281E+02  0.18465256034E+02  0.00000000000E+00 0. -1.
</event>
<event>
 7    1  0.5837204E-012  0.5930168E+02  0.7816164E-02  0.1266606E+00
        -11   -1    0    0    0    0  0.00000000000E+00  0.00000000000E+00  0.45593999997E+02  0.45594000000E+02  0.51100000000E-03 0.  1.
         11   -1    0    0    0    0 -0.00000000000E+00 -0.00000000000E+00 -0.45593999997E+02  0.45594000000E+02  0.51100000000E-03 0. -1.
    9900012    2    1    2    0    0 -0.93197004383E+01  0.23696814829E+02  0.19192219320E+02  0.59301684256E+02  0.49999526237E+02 0.  0.
         12    1    1    2    0    0  0.93197004383E+01 -0.23696814829E+02 -0.19192219320E+02  0.31886315744E+02  0.00000000000E+00 0. -1.
         11    1    3    3    0    0  0.99360149163E+01  0.43334599147E+01  0.88101180347E+01  0.13968587878E+02  0.51100000000E-03 0. -1.
        -11    1    3    3    0    0 -0.45225928620E+01  0.14350721168E+02  0.21475097812E+02  0.26221687027E+02  0.51100000000E-03 0.  1.
         12    1    3    3    0    0 -0.14733122493E+02  0.50126337465E+01 -0.11092996527E+02  0.19111409352E+02  0.00000000000E+00 0. -1.
</event>
<event>
 7    1  0.5837204E-012  0.5930222E+02  0.7816164E-02  0.1266604E+00
        -11   -1    0    0    0    0  0.00000000000E+00  0.00000000000E+00  0.45593999997E+02  0.45594000000E+02  0.51100000000E-03 0.  1.
         11   -1    0    0    0    0 -0.00000000000E+00 -0.00000000000E+00 -0.45593999997E+02  0.45594000000E+02  0.51100000000E-03 0. -1.
    9900012    2    1    2    0    0  0.46816570490E+01  0.30163897672E+02  0.92154505457E+01  0.59302216894E+02  0.50000497640E+02 0.  0.
         12    1    1    2    0    0 -0.46816570490E+01 -0.30163897672E+02 -0.92154505457E+01  0.31885783106E+02  0.00000000000E+00 0. -1.
         11    1    3    3    0    0 -0.45674985149E+01 -0.45933100807E+01  0.89204682789E+01  0.11024304729E+02  0.51100000000E-03 0. -1.
        -11    1    3    3    0    0 -0.59882178976E+01  0.22518087684E+02  0.11248321059E+02  0.25873688439E+02  0.51100000000E-03 0.  1.
         12    1    3    3    0    0  0.15237373462E+02  0.12239120069E+02 -0.10953338792E+02  0.22404223726E+02  0.00000000000E+00 0. -1.
</event>
<event>
 7    1  0.5837204E-012  0.5930196E+02  0.7816164E-02  0.1266605E+00
        -11   -1    0    0    0    0  0.00000000000E+00  0.00000000000E+00  0.45593999997E+02  0.45594000000E+02  0.51100000000E-03 0.  1.
         11   -1    0    0    0    0 -0.00000000000E+00 -0.00000000000E+00 -0.45593999997E+02  0.45594000000E+02  0.51100000000E-03 0. -1.
    9900012    2    1    2    0    0 -0.31201332395E+02  0.44114838620E+01  0.48718693637E+01  0.59301961611E+02  0.50000032067E+02 0.  0.
         12    1    1    2    0    0  0.31201332395E+02 -0.44114838620E+01 -0.48718693637E+01  0.31886038389E+02  0.00000000000E+00 0. -1.
         11    1    3    3    0    0  0.15949190627E+01 -0.33498430433E+01  0.30150190511E+01  0.47807484112E+01  0.51100000000E-03 0. -1.
        -11    1    3    3    0    0 -0.11916278277E+02  0.80141861317E+01  0.21498482755E+02  0.25853619251E+02  0.51100000000E-03 0.  1.
         12    1    3    3    0    0 -0.20879973181E+02 -0.25285922643E+00 -0.19641632443E+02  0.28667593949E+02  0.00000000000E+00 0. -1.
</event>
<event>
 7    1  0.5837204E-012  0.5930200E+02  0.7816164E-02  0.1266605E+00
        -11   -1    0    0    0    0  0.00000000000E+00  0.00000000000E+00  0.45593999997E+02  0.45594000000E+02  0.51100000000E-03 0. -1.
         11   -1    0    0    0    0 -0.00000000000E+00 -0.00000000000E+00 -0.45593999997E+02  0.45594000000E+02  0.51100000000E-03 0.  1.
    9900012    2    1    2    0    0 -0.26974512482E+02  0.72108671628E+01 -0.15397923490E+02  0.59302000303E+02  0.50000102632E+02 0.  0.
         12    1    1    2    0    0  0.26974512482E+02 -0.72108671628E+01  0.15397923490E+02  0.31885999697E+02  0.00000000000E+00 0. -1.
         11    1    3    3    0    0  0.11975125559E+02  0.24949856439E+00  0.18352167540E+01  0.12117503971E+02  0.51100000000E-03 0. -1.
        -11    1    3    3    0    0 -0.24620621014E+02 -0.43293460137E+01 -0.58241732147E+01  0.25667863369E+02  0.51100000000E-03 0.  1.
        -12    1    3    3    0    0 -0.14329017026E+02  0.11290714612E+02 -0.11408967030E+02  0.21516632963E+02  0.00000000000E+00 0.  1.
</event>
<event>
 7    1  0.5837204E-012  0.5930194E+02  0.7816164E-02  0.1266605E+00
        -11   -1    0    0    0    0  0.00000000000E+00  0.00000000000E+00  0.45593999997E+02  0.45594000000E+02  0.51100000000E-03 0.  1.
         11   -1    0    0    0    0 -0.00000000000E+00 -0.00000000000E+00 -0.45593999997E+02  0.45594000000E+02  0.51100000000E-03 0. -1.
    9900012    2    1    2    0    0 -0.98683476728E+01 -0.29466605939E+02  0.71453286614E+01  0.59301939205E+02  0.49999991204E+02 0.  0.
         12    1    1    2    0    0  0.98683476728E+01  0.29466605939E+02 -0.71453286614E+01  0.31886060795E+02  0.00000000000E+00 0. -1.
         11    1    3    3    0    0 -0.46686680369E+01 -0.17416939566E+02 -0.21098804500E+01  0.18154829684E+02  0.51100000000E-03 0. -1.
        -11    1    3    3    0    0  0.27529161900E+01 -0.73779389246E+01  0.23159577924E+02  0.24461777944E+02  0.51100000000E-03 0.  1.
         12    1    3    3    0    0 -0.79525958259E+01 -0.46717274486E+01 -0.13904368813E+02  0.16685331576E+02  0.00000000000E+00 0. -1.
</event>
<event>
 7    1  0.5837204E-012  0.5930195E+02  0.7816164E-02  0.1266605E+00
        -11   -1    0    0    0    0  0.00000000000E+00  0.00000000000E+00  0.45593999997E+02  0.45594000000E+02  0.51100000000E-03 0.  1.
         11   -1    0    0    0    0 -0.00000000000E+00 -0.00000000000E+00 -0.45593999997E+02  0.45594000000E+02  0.51100000000E-03 0. -1.
    9900012    2    1    2    0    0 -0.25436098919E+02  0.12894560828E+02  0.14263784203E+02  0.59301947141E+02  0.50000005678E+02 0.  0.
         12    1    1    2    0    0  0.25436098919E+02 -0.12894560828E+02 -0.14263784203E+02  0.31886052859E+02  0.00000000000E+00 0. -1.
         11    1    3    3    0    0  0.86037216480E+01 -0.80682473837E+01  0.15410453080E+01  0.11895186545E+02  0.51100000000E-03 0. -1.
        -11    1    3    3    0    0 -0.25495421833E+02  0.18217387020E+02 -0.60269912390E+00  0.31340915283E+02  0.51100000000E-03 0.  1.
         12    1    3    3    0    0 -0.85443987339E+01  0.27454211913E+01  0.13325438019E+02  0.16065845313E+02  0.00000000000E+00 0. -1.
</event>
<event>
 7    1  0.5837204E-012  0.5930195E+02  0.7816164E-02  0.1266605E+00
        -11   -1    0    0    0    0  0.00000000000E+00  0.00000000000E+00  0.45593999997E+02  0.45594000000E+02  0.51100000000E-03 0.  1.
         11   -1    0    0    0    0 -0.00000000000E+00 -0.00000000000E+00 -0.45593999997E+02  0.45594000000E+02  0.51100000000E-03 0. -1.
    9900012    2    1    2    0    0 -0.99363337749E+01 -0.13484686404E+01  0.30268322444E+02  0.59301945993E+02  0.50000003584E+02 0.  0.
         12    1    1    2    0    0  0.99363337749E+01  0.13484686404E+01 -0.30268322444E+02  0.31886054007E+02  0.00000000000E+00 0. -1.
         11    1    3    3    0    0 -0.13037690836E+01  0.52950354423E+01 -0.91632018551E+01  0.10663089733E+02  0.51100000000E-03 0. -1.
        -11    1    3    3    0    0 -0.47006281319E+01 -0.12300186002E+02  0.59389341513E+01  0.14445117501E+02  0.51100000000E-03 0.  1.
         12    1    3    3    0    0 -0.39319365594E+01  0.56566819189E+01  0.33492590148E+02  0.34193738758E+02  0.00000000000E+00 0. -1.
</event>
<event>
 7    1  0.5837204E-012  0.5930193E+02  0.7816164E-02  0.1266605E+00
        -11   -1    0    0    0    0  0.00000000000E+00  0.00000000000E+00  0.45593999997E+02  0.45594000000E+02  0.51100000000E-03 0.  1.
         11   -1    0    0    0    0 -0.00000000000E+00 -0.00000000000E+00 -0.45593999997E+02  0.45594000000E+02  0.51100000000E-03 0. -1.
    9900012    2    1    2    0    0 -0.21369415937E+01 -0.39026136586E+00  0.31811992431E+02  0.59301926461E+02  0.49999967962E+02 0.  0.
         12    1    1    2    0    0  0.21369415937E+01  0.39026136586E+00 -0.31811992431E+02  0.31886073539E+02  0.00000000000E+00 0. -1.
         11    1    3    3    0    0 -0.13777439774E+02 -0.13900462872E+02  0.14850649387E+02  0.24567916116E+02  0.51100000000E-03 0. -1.
        -11    1    3    3    0    0  0.10138189834E+01 -0.29834215743E+01  0.14641585871E+02  0.14976804409E+02  0.51100000000E-03 0.  1.
         12    1    3    3    0    0  0.10626679197E+02  0.16493623080E+02  0.23197571727E+01  0.19757205936E+02  0.00000000000E+00 0. -1.
</event>
<event>
 7    1  0.5837204E-012  0.5930205E+02  0.7816164E-02  0.1266604E+00
        -11   -1    0    0    0    0  0.00000000000E+00  0.00000000000E+00  0.45593999997E+02  0.45594000000E+02  0.51100000000E-03 0. -1.
         11   -1    0    0    0    0 -0.00000000000E+00 -0.00000000000E+00 -0.45593999997E+02  0.45594000000E+02  0.51100000000E-03 0.  1.
    9900012    2    1    2    0    0 -0.72409519772E+01 -0.22005502269E+02 -0.21909826014E+02  0.59302047112E+02  0.50000188000E+02 0.  0.
         12    1    1    2    0    0  0.72409519772E+01  0.22005502269E+02  0.21909826014E+02  0.31885952888E+02  0.00000000000E+00 0. -1.
         11    1    3    3    0    0  0.16957328438E+02 -0.87730578825E+01 -0.76289307765E+01  0.20560109859E+02  0.51100000000E-03 0.  1.
        -11    1    3    3    0    0 -0.82089862435E+01 -0.93092906346E+01  0.50065546343E+01  0.13383420222E+02  0.51100000000E-03 0. -1.
        -12    1    3    3    0    0 -0.15989294171E+02 -0.39231537515E+01 -0.19287449872E+02  0.25358517031E+02  0.00000000000E+00 0.  1.
</event>
<event>
 7    1  0.5837204E-012  0.5930190E+02  0.7816164E-02  0.1266605E+00
        -11   -1    0    0    0    0  0.00000000000E+00  0.00000000000E+00  0.45593999997E+02  0.45594000000E+02  0.51100000000E-03 0.  1.
         11   -1    0    0    0    0 -0.00000000000E+00 -0.00000000000E+00 -0.45593999997E+02  0.45594000000E+02  0.51100000000E-03 0. -1.
    9900012    2    1    2    0    0  0.83156932482E+01 -0.21855402973E+02  0.21677496362E+02  0.59301902060E+02  0.49999923461E+02 0.  0.
         12    1    1    2    0    0 -0.83156932482E+01  0.21855402973E+02 -0.21677496362E+02  0.31886097940E+02  0.00000000000E+00 0. -1.
         11    1    3    3    0    0  0.15894506376E+02 -0.15762211162E+02  0.21122017477E+02  0.30776976074E+02  0.51100000000E-03 0. -1.
        -11    1    3    3    0    0 -0.45147457535E+00 -0.16091782878E+02 -0.10965339730E+01  0.16135417333E+02  0.51100000000E-03 0.  1.
         12    1    3    3    0    0 -0.71273385527E+01  0.99985910679E+01  0.16520128573E+01  0.12389508653E+02  0.00000000000E+00 0. -1.
</event>
<event>
 7    1  0.5837204E-012  0.5930194E+02  0.7816164E-02  0.1266605E+00
        -11   -1    0    0    0    0  0.00000000000E+00  0.00000000000E+00  0.45593999997E+02  0.45594000000E+02  0.51100000000E-03 0.  1.
         11   -1    0    0    0    0 -0.00000000000E+00 -0.00000000000E+00 -0.45593999997E+02  0.45594000000E+02  0.51100000000E-03 0. -1.
    9900012    2    1    2    0    0  0.20699290422E+02 -0.17861251285E+02 -0.16408409667E+02  0.59301939891E+02  0.49999992456E+02 0.  0.
         12    1    1    2    0    0 -0.20699290422E+02  0.17861251285E+02  0.16408409667E+02  0.31886060109E+02  0.00000000000E+00 0. -1.
         11    1    3    3    0    0  0.13663737934E+02  0.31982407961E+01  0.93933843698E+01  0.16886744763E+02  0.51100000000E-03 0.  1.
        -11    1    3    3    0    0 -0.60263795554E+01  0.25090204496E+01 -0.33275126466E+01  0.73269894798E+01  0.51100000000E-03 0. -1.
         12    1    3    3    0    0  0.13061932044E+02 -0.23568512530E+02 -0.22474281390E+02  0.35088205648E+02  0.00000000000E+00 0. -1.
</event>
<event>
 7    1  0.5837204E-012  0.5930199E+02  0.7816164E-02  0.1266605E+00
        -11   -1    0    0    0    0  0.00000000000E+00  0.00000000000E+00  0.45593999997E+02  0.45594000000E+02  0.51100000000E-03 0. -1.
         11   -1    0    0    0    0 -0.00000000000E+00 -0.00000000000E+00 -0.45593999997E+02  0.45594000000E+02  0.51100000000E-03 0.  1.
    9900012    2    1    2    0    0  0.98717211315E+01 -0.27040006445E+02 -0.13715140109E+02  0.59301985905E+02  0.50000076374E+02 0.  0.
         12    1    1    2    0    0 -0.98717211315E+01  0.27040006445E+02  0.13715140109E+02  0.31886014095E+02  0.00000000000E+00 0. -1.
         11    1    3    3    0    0 -0.43898305773E+01 -0.59798674772E+01  0.24680147458E+01  0.78179616646E+01  0.51100000000E-03 0.  1.
        -11    1    3    3    0    0 -0.73424954789E+01 -0.18536475425E+02  0.55913104184E+01  0.20706904972E+02  0.51100000000E-03 0. -1.
        -12    1    3    3    0    0  0.21604047188E+02 -0.25236635426E+01 -0.21774465273E+02  0.30777119269E+02  0.00000000000E+00 0.  1.
</event>
<event>
 7    1  0.5837204E-012  0.5930197E+02  0.7816164E-02  0.1266605E+00
        -11   -1    0    0    0    0  0.00000000000E+00  0.00000000000E+00  0.45593999997E+02  0.45594000000E+02  0.51100000000E-03 0.  1.
         11   -1    0    0    0    0 -0.00000000000E+00 -0.00000000000E+00 -0.45593999997E+02  0.45594000000E+02  0.51100000000E-03 0. -1.
    9900012    2    1    2    0    0 -0.20655794970E+02  0.74601722469E+01  0.23117161974E+02  0.59301965227E+02  0.50000038662E+02 0.  0.
         12    1    1    2    0    0  0.20655794970E+02 -0.74601722469E+01 -0.23117161974E+02  0.31886034773E+02  0.00000000000E+00 0. -1.
         11    1    3    3    0    0 -0.14804565706E+02 -0.35910159182E+01  0.93317394038E+01  0.17864823582E+02  0.51100000000E-03 0. -1.
        -11    1    3    3    0    0 -0.10854631817E+02  0.14003945598E+02  0.23912816115E+02  0.29761658204E+02  0.51100000000E-03 0.  1.
         12    1    3    3    0    0  0.50034025529E+01 -0.29527574330E+01 -0.10127393545E+02  0.11675483441E+02  0.00000000000E+00 0. -1.
</event>
<event>
 7    1  0.5837204E-012  0.5930212E+02  0.7816164E-02  0.1266604E+00
        -11   -1    0    0    0    0  0.00000000000E+00  0.00000000000E+00  0.45593999997E+02  0.45594000000E+02  0.51100000000E-03 0.  1.
         11   -1    0    0    0    0 -0.00000000000E+00 -0.00000000000E+00 -0.45593999997E+02  0.45594000000E+02  0.51100000000E-03 0. -1.
    9900012    2    1    2    0    0 -0.30335677799E+02  0.57055698337E+01  0.79939123322E+01  0.59302117402E+02  0.50000316193E+02 0.  0.
         12    1    1    2    0    0  0.30335677799E+02 -0.57055698337E+01 -0.79939123322E+01  0.31885882598E+02  0.00000000000E+00 0. -1.
         11    1    3    3    0    0  0.77200546024E-01 -0.71764936404E+00 -0.16432947625E+01  0.17948254711E+01  0.51100000000E-03 0. -1.
        -11    1    3    3    0    0 -0.12004635088E+01  0.18370437088E+02  0.17044733946E+02  0.25088583599E+02  0.51100000000E-03 0.  1.
         12    1    3    3    0    0 -0.29212414836E+02 -0.11947217891E+02 -0.74075268509E+01  0.32418708332E+02  0.00000000000E+00 0. -1.
</event>
<event>
 7    1  0.5837204E-012  0.5930195E+02  0.7816164E-02  0.1266605E+00
        -11   -1    0    0    0    0  0.00000000000E+00  0.00000000000E+00  0.45593999997E+02  0.45594000000E+02  0.51100000000E-03 0.  1.
         11   -1    0    0    0    0 -0.00000000000E+00 -0.00000000000E+00 -0.45593999997E+02  0.45594000000E+02  0.51100000000E-03 0. -1.
    9900012    2    1    2    0    0  0.18838016917E+01 -0.10024199642E+01  0.31814566447E+02  0.59301949871E+02  0.50000010657E+02 0.  0.
         12    1    1    2    0    0 -0.18838016917E+01  0.10024199642E+01 -0.31814566447E+02  0.31886050129E+02  0.00000000000E+00 0. -1.
         11    1    3    3    0    0  0.45125041531E+01  0.79439088512E+01  0.13950235315E+02  0.16675654325E+02  0.51100000000E-03 0.  1.
        -11    1    3    3    0    0  0.13082519050E+02 -0.16661646912E+02  0.10369434876E+02  0.23585757618E+02  0.51100000000E-03 0. -1.
         12    1    3    3    0    0 -0.15711221511E+02  0.77153180963E+01  0.74948962555E+01  0.19040537928E+02  0.00000000000E+00 0. -1.
</event>
<event>
 7    1  0.5837204E-012  0.5930195E+02  0.7816164E-02  0.1266605E+00
        -11   -1    0    0    0    0  0.00000000000E+00  0.00000000000E+00  0.45593999997E+02  0.45594000000E+02  0.51100000000E-03 0.  1.
         11   -1    0    0    0    0 -0.00000000000E+00 -0.00000000000E+00 -0.45593999997E+02  0.45594000000E+02  0.51100000000E-03 0. -1.
    9900012    2    1    2    0    0  0.23286184327E+02 -0.21292963345E+02  0.45917047291E+01  0.59301946296E+02  0.50000004136E+02 0.  0.
         12    1    1    2    0    0 -0.23286184327E+02  0.21292963345E+02 -0.45917047291E+01  0.31886053704E+02  0.00000000000E+00 0. -1.
         11    1    3    3    0    0  0.12263372271E+02  0.94055642666E+01  0.56086144221E+01  0.16441152473E+02  0.51100000000E-03 0. -1.
        -11    1    3    3    0    0 -0.58076768006E+00  0.47831242778E+01 -0.26411354348E+01  0.54946488150E+01  0.51100000000E-03 0.  1.
        -12    1    3    3    0    0  0.11603579736E+02 -0.35481651889E+02  0.16242257418E+01  0.37366145008E+02  0.00000000000E+00 0.  1.
</event>
<event>
 7    1  0.5837204E-012  0.5930191E+02  0.7816164E-02  0.1266605E+00
        -11   -1    0    0    0    0  0.00000000000E+00  0.00000000000E+00  0.45593999997E+02  0.45594000000E+02  0.51100000000E-03 0.  1.
         11   -1    0    0    0    0 -0.00000000000E+00 -0.00000000000E+00 -0.45593999997E+02  0.45594000000E+02  0.51100000000E-03 0. -1.
    9900012    2    1    2    0    0  0.23350493293E+02  0.14702722584E+02  0.15978335169E+02  0.59301909252E+02  0.49999936577E+02 0.  0.
         12    1    1    2    0    0 -0.23350493293E+02 -0.14702722584E+02 -0.15978335169E+02  0.31886090748E+02  0.00000000000E+00 0. -1.
         11    1    3    3    0    0  0.76886592572E+01  0.84078889881E+01 -0.14177277037E+01  0.11481203356E+02  0.51100000000E-03 0. -1.
        -11    1    3    3    0    0 -0.25886142937E+01 -0.15390049342E+02  0.99776145236E+01  0.18523156712E+02  0.51100000000E-03 0.  1.
         12    1    3    3    0    0  0.18250448330E+02  0.21684882938E+02  0.74184483491E+01  0.29297549184E+02  0.00000000000E+00 0. -1.
</event>
<event>
 7    1  0.5837204E-012  0.5930195E+02  0.7816164E-02  0.1266605E+00
        -11   -1    0    0    0    0  0.00000000000E+00  0.00000000000E+00  0.45593999997E+02  0.45594000000E+02  0.51100000000E-03 0.  1.
         11   -1    0    0    0    0 -0.00000000000E+00 -0.00000000000E+00 -0.45593999997E+02  0.45594000000E+02  0.51100000000E-03 0. -1.
    9900012    2    1    2    0    0 -0.18796044769E+02  0.22720593187E+02 -0.12132754129E+02  0.59301946991E+02  0.50000005404E+02 0.  0.
         12    1    1    2    0    0  0.18796044769E+02 -0.22720593187E+02  0.12132754129E+02  0.31886053009E+02  0.00000000000E+00 0. -1.
         11    1    3    3    0    0  0.55454117934E+01  0.13701474030E+02 -0.12046903142E+02  0.19068556792E+02  0.51100000000E-03 0. -1.
        -11    1    3    3    0    0 -0.78295734017E+01  0.18867076209E+02 -0.34476503633E+01  0.20716058448E+02  0.51100000000E-03 0.  1.
         12    1    3    3    0    0 -0.16511883161E+02 -0.98479570526E+01  0.33617993755E+01  0.19517331751E+02  0.00000000000E+00 0. -1.
</event>
<event>
 7    1  0.5837204E-012  0.5930197E+02  0.7816164E-02  0.1266605E+00
        -11   -1    0    0    0    0  0.00000000000E+00  0.00000000000E+00  0.45593999997E+02  0.45594000000E+02  0.51100000000E-03 0. -1.
         11   -1    0    0    0    0 -0.00000000000E+00 -0.00000000000E+00 -0.45593999997E+02  0.45594000000E+02  0.51100000000E-03 0.  1.
    9900012    2    1    2    0    0 -0.59194283839E+01 -0.14355415245E+02 -0.27849615793E+02  0.59301973608E+02  0.50000053948E+02 0.  0.
         12    1    1    2    0    0  0.59194283839E+01  0.14355415245E+02  0.27849615793E+02  0.31886026392E+02  0.00000000000E+00 0. -1.
         11    1    3    3    0    0 -0.83261716464E+01  0.51466888843E+00 -0.25822247412E+02  0.27136294515E+02  0.51100000000E-03 0. -1.
        -11    1    3    3    0    0 -0.52736487074E+00 -0.16666612893E+02 -0.12694663111E+02  0.20957303520E+02  0.51100000000E-03 0.  1.
         12    1    3    3    0    0  0.29341081333E+01  0.17965287595E+01  0.10667294731E+02  0.11208375573E+02  0.00000000000E+00 0. -1.
</event>
<event>
 7    1  0.5837204E-012  0.5930195E+02  0.7816164E-02  0.1266605E+00
        -11   -1    0    0    0    0  0.00000000000E+00  0.00000000000E+00  0.45593999997E+02  0.45594000000E+02  0.51100000000E-03 0. -1.
         11   -1    0    0    0    0 -0.00000000000E+00 -0.00000000000E+00 -0.45593999997E+02  0.45594000000E+02  0.51100000000E-03 0.  1.
    9900012    2    1    2    0    0 -0.10601076751E+02 -0.16350181396E+02 -0.25239040416E+02  0.59301946292E+02  0.50000004129E+02 0.  0.
         12    1    1    2    0    0  0.10601076751E+02  0.16350181396E+02  0.25239040416E+02  0.31886053708E+02  0.00000000000E+00 0. -1.
         11    1    3    3    0    0 -0.55244690563E+01 -0.52142331125E+01  0.37800224979E+01  0.84850784116E+01  0.51100000000E-03 0. -1.
        -11    1    3    3    0    0  0.82859029303E+01 -0.20916251179E+02 -0.76075803594E+01  0.23749126930E+02  0.51100000000E-03 0.  1.
        -12    1    3    3    0    0 -0.13362510625E+02  0.97803028964E+01 -0.21411482554E+02  0.27067740950E+02  0.00000000000E+00 0.  1.
</event>
<event>
 7    1  0.5837204E-012  0.5930189E+02  0.7816164E-02  0.1266605E+00
        -11   -1    0    0    0    0  0.00000000000E+00  0.00000000000E+00  0.45593999997E+02  0.45594000000E+02  0.51100000000E-03 0. -1.
         11   -1    0    0    0    0 -0.00000000000E+00 -0.00000000000E+00 -0.45593999997E+02  0.45594000000E+02  0.51100000000E-03 0.  1.
    9900012    2    1    2    0    0 -0.24812549523E+02  0.71690245783E+01 -0.18699369405E+02  0.59301891059E+02  0.49999903398E+02 0.  0.
         12    1    1    2    0    0  0.24812549523E+02 -0.71690245783E+01  0.18699369405E+02  0.31886108941E+02  0.00000000000E+00 0. -1.
         11    1    3    3    0    0 -0.37982935016E+01 -0.19359218807E+01  0.11805221912E+02  0.12551417916E+02  0.51100000000E-03 0. -1.
        -11    1    3    3    0    0  0.92259935620E+00  0.12383648709E+02 -0.15978865699E+02  0.20236849908E+02  0.51100000000E-03 0.  1.
         12    1    3    3    0    0 -0.21936855378E+02 -0.32787022497E+01 -0.14525725618E+02  0.26513623235E+02  0.00000000000E+00 0. -1.
</event>
<event>
 7    1  0.5837204E-012  0.5930196E+02  0.7816164E-02  0.1266605E+00
        -11   -1    0    0    0    0  0.00000000000E+00  0.00000000000E+00  0.45593999997E+02  0.45594000000E+02  0.51100000000E-03 0. -1.
         11   -1    0    0    0    0 -0.00000000000E+00 -0.00000000000E+00 -0.45593999997E+02  0.45594000000E+02  0.51100000000E-03 0.  1.
    9900012    2    1    2    0    0  0.22002867959E+02 -0.13665740711E+02 -0.18596793329E+02  0.59301962464E+02  0.50000033624E+02 0.  0.
         12    1    1    2    0    0 -0.22002867959E+02  0.13665740711E+02  0.18596793329E+02  0.31886037536E+02  0.00000000000E+00 0. -1.
         11    1    3    3    0    0  0.16865534596E+02 -0.93876451194E+01 -0.86096247134E+01  0.21135273267E+02  0.51100000000E-03 0. -1.
        -11    1    3    3    0    0 -0.15281266456E+01  0.10998699088E+02 -0.16818378216E+02  0.20153520753E+02  0.51100000000E-03 0.  1.
        -12    1    3    3    0    0  0.66654600089E+01 -0.15276794679E+02  0.68312096006E+01  0.18013168444E+02  0.00000000000E+00 0.  1.
</event>
<event>
 7    1  0.5837204E-012  0.5930194E+02  0.7816164E-02  0.1266605E+00
        -11   -1    0    0    0    0  0.00000000000E+00  0.00000000000E+00  0.45593999997E+02  0.45594000000E+02  0.51100000000E-03 0.  1.
         11   -1    0    0    0    0 -0.00000000000E+00 -0.00000000000E+00 -0.45593999997E+02  0.45594000000E+02  0.51100000000E-03 0. -1.
    9900012    2    1    2    0    0 -0.27285698834E+02  0.15865807513E+02  0.45263484714E+01  0.59301936596E+02  0.49999986447E+02 0.  0.
         12    1    1    2    0    0  0.27285698834E+02 -0.15865807513E+02 -0.45263484714E+01  0.31886063404E+02  0.00000000000E+00 0. -1.
         11    1    3    3    0    0 -0.89857701062E+00 -0.75833679826E+01  0.69754826499E+01  0.10342739921E+02  0.51100000000E-03 0. -1.
        -11    1    3    3    0    0 -0.21864731863E+02 -0.16317711890E+01 -0.71131905653E+01  0.23050524006E+02  0.51100000000E-03 0.  1.
        -12    1    3    3    0    0 -0.45223899607E+01  0.25080946684E+02  0.46640563867E+01  0.25908672670E+02  0.00000000000E+00 0.  1.
</event>
<event>
 7    1  0.5837204E-012  0.5930194E+02  0.7816164E-02  0.1266605E+00
        -11   -1    0    0    0    0  0.00000000000E+00  0.00000000000E+00  0.45593999997E+02  0.45594000000E+02  0.51100000000E-03 0. -1.
         11   -1    0    0    0    0 -0.00000000000E+00 -0.00000000000E+00 -0.45593999997E+02  0.45594000000E+02  0.51100000000E-03 0.  1.
    9900012    2    1    2    0    0  0.20409229468E+02 -0.22660033557E+02 -0.93116529457E+01  0.59301942720E+02  0.49999997615E+02 0.  0.
         12    1    1    2    0    0 -0.20409229468E+02  0.22660033557E+02  0.93116529457E+01  0.31886057280E+02  0.00000000000E+00 0. -1.
         11    1    3    3    0    0  0.86587689165E+01  0.59743280206E+01  0.20094317836E+01  0.10710027582E+02  0.51100000000E-03 0. -1.
        -11    1    3    3    0    0  0.10779999131E+02  0.20145268498E+01 -0.14030832542E+02  0.17808171208E+02  0.51100000000E-03 0.  1.
         12    1    3    3    0    0  0.97046142066E+00 -0.30648888427E+02  0.27097478125E+01  0.30783743931E+02  0.00000000000E+00 0. -1.
</event>
<event>
 7    1  0.5837204E-012  0.5930194E+02  0.7816164E-02  0.1266605E+00
        -11   -1    0    0    0    0  0.00000000000E+00  0.00000000000E+00  0.45593999997E+02  0.45594000000E+02  0.51100000000E-03 0.  1.
         11   -1    0    0    0    0 -0.00000000000E+00 -0.00000000000E+00 -0.45593999997E+02  0.45594000000E+02  0.51100000000E-03 0. -1.
    9900012    2    1    2    0    0  0.80719854719E+01  0.87402720562E+01  0.29583302694E+02  0.59301935593E+02  0.49999984617E+02 0.  0.
         12    1    1    2    0    0 -0.80719854719E+01 -0.87402720562E+01 -0.29583302694E+02  0.31886064407E+02  0.00000000000E+00 0. -1.
         11    1    3    3    0    0  0.68334475782E+01  0.12422674657E+02  0.13048620758E+02  0.19268766317E+02  0.51100000000E-03 0. -1.
        -11    1    3    3    0    0  0.17166154944E+01 -0.63096033618E+01  0.27747084915E+02  0.28507167255E+02  0.51100000000E-03 0.  1.
         12    1    3    3    0    0 -0.47807760078E+00  0.26272007612E+01 -0.11212402979E+02  0.11526002021E+02  0.00000000000E+00 0. -1.
</event>
<event>
 7    1  0.5837204E-012  0.5930195E+02  0.7816164E-02  0.1266605E+00
        -11   -1    0    0    0    0  0.00000000000E+00  0.00000000000E+00  0.45593999997E+02  0.45594000000E+02  0.51100000000E-03 0. -1.
         11   -1    0    0    0    0 -0.00000000000E+00 -0.00000000000E+00 -0.45593999997E+02  0.45594000000E+02  0.51100000000E-03 0.  1.
    9900012    2    1    2    0    0 -0.13468654108E+02  0.74869379752E+01 -0.27915256159E+02  0.59301946463E+02  0.50000004441E+02 0.  0.
         12    1    1    2    0    0  0.13468654108E+02 -0.74869379752E+01  0.27915256159E+02  0.31886053537E+02  0.00000000000E+00 0. -1.
         11    1    3    3    0    0 -0.36639624035E+00 -0.74617129929E+01  0.47263122332E+00  0.74856387522E+01  0.51100000000E-03 0. -1.
        -11    1    3    3    0    0 -0.23025776895E+02  0.79089042894E+01 -0.41518346532E+01  0.24697669929E+02  0.51100000000E-03 0.  1.
        -12    1    3    3    0    0  0.99235190282E+01  0.70397466788E+01 -0.24236052730E+02  0.27118637781E+02  0.00000000000E+00 0.  1.
</event>
<event>
 7    1  0.5837204E-012  0.5930195E+02  0.7816164E-02  0.1266605E+00
        -11   -1    0    0    0    0  0.00000000000E+00  0.00000000000E+00  0.45593999997E+02  0.45594000000E+02  0.51100000000E-03 0.  1.
         11   -1    0    0    0    0 -0.00000000000E+00 -0.00000000000E+00 -0.45593999997E+02  0.45594000000E+02  0.51100000000E-03 0. -1.
    9900012    2    1    2    0    0  0.13017534258E+02 -0.95249997161E+01  0.27505244126E+02  0.59301948627E+02  0.50000008387E+02 0.  0.
         12    1    1    2    0    0 -0.13017534258E+02  0.95249997161E+01 -0.27505244126E+02  0.31886051373E+02  0.00000000000E+00 0. -1.
         11    1    3    3    0    0  0.75071195651E+01  0.26736098399E+01  0.26187207181E+01  0.83882496507E+01  0.51100000000E-03 0. -1.
        -11    1    3    3    0    0  0.62623689536E+01  0.90156609897E+01  0.27419796806E+02  0.29535481461E+02  0.51100000000E-03 0.  1.
        -12    1    3    3    0    0 -0.75195426053E+00 -0.21214270546E+02 -0.25332733983E+01  0.21378217515E+02  0.00000000000E+00 0.  1.
</event>
<event>
 7    1  0.5837204E-012  0.5930195E+02  0.7816164E-02  0.1266605E+00
        -11   -1    0    0    0    0  0.00000000000E+00  0.00000000000E+00  0.45593999997E+02  0.45594000000E+02  0.51100000000E-03 0. -1.
         11   -1    0    0    0    0 -0.00000000000E+00 -0.00000000000E+00 -0.45593999997E+02  0.45594000000E+02  0.51100000000E-03 0.  1.
    9900012    2    1    2    0    0  0.18696128670E+02 -0.20547204456E+02 -0.15652077050E+02  0.59301947341E+02  0.50000006042E+02 0.  0.
         12    1    1    2    0    0 -0.18696128670E+02  0.20547204456E+02  0.15652077050E+02  0.31886052659E+02  0.00000000000E+00 0. -1.
         11    1    3    3    0    0 -0.18380891552E+01  0.58567077800E+01 -0.12700616991E+02  0.14106213879E+02  0.51100000000E-03 0. -1.
        -11    1    3    3    0    0 -0.53145226941E+01 -0.10668443935E+02 -0.82205689988E+01  0.14478867441E+02  0.51100000000E-03 0.  1.
         12    1    3    3    0    0  0.25848740520E+02 -0.15735468301E+02  0.52691089403E+01  0.30716866021E+02  0.00000000000E+00 0. -1.
</event>
<event>
 7    1  0.5837204E-012  0.5930193E+02  0.7816164E-02  0.1266605E+00
        -11   -1    0    0    0    0  0.00000000000E+00  0.00000000000E+00  0.45593999997E+02  0.45594000000E+02  0.51100000000E-03 0.  1.
         11   -1    0    0    0    0 -0.00000000000E+00 -0.00000000000E+00 -0.45593999997E+02  0.45594000000E+02  0.51100000000E-03 0. -1.
    9900012    2    1    2    0    0  0.11101126762E+02 -0.66273275335E+01  0.29147296362E+02  0.59301931399E+02  0.49999976968E+02 0.  0.
         12    1    1    2    0    0 -0.11101126762E+02  0.66273275335E+01 -0.29147296362E+02  0.31886068601E+02  0.00000000000E+00 0. -1.
         11    1    3    3    0    0  0.24479482837E+01 -0.12236187891E+02  0.84927740155E+01  0.15094500841E+02  0.51100000000E-03 0. -1.
        -11    1    3    3    0    0  0.15376190458E+02  0.15951669352E+01 -0.58819206054E+01  0.16539914777E+02  0.51100000000E-03 0.  1.
        -12    1    3    3    0    0 -0.67230119797E+01  0.40136934227E+01  0.26536442952E+02  0.27667515781E+02  0.00000000000E+00 0.  1.
</event>
<event>
 7    1  0.5837204E-012  0.5930192E+02  0.7816164E-02  0.1266605E+00
        -11   -1    0    0    0    0  0.00000000000E+00  0.00000000000E+00  0.45593999997E+02  0.45594000000E+02  0.51100000000E-03 0. -1.
         11   -1    0    0    0    0 -0.00000000000E+00 -0.00000000000E+00 -0.45593999997E+02  0.45594000000E+02  0.51100000000E-03 0.  1.
    9900012    2    1    2    0    0 -0.23354368490E+02  0.14959703191E+02 -0.15732222471E+02  0.59301920420E+02  0.49999956945E+02 0.  0.
         12    1    1    2    0    0  0.23354368490E+02 -0.14959703191E+02  0.15732222471E+02  0.31886079580E+02  0.00000000000E+00 0. -1.
         11    1    3    3    0    0 -0.26677583105E+01  0.55667700959E+00 -0.89077859295E+01  0.93153354273E+01  0.51100000000E-03 0. -1.
        -11    1    3    3    0    0 -0.93216392802E+01  0.19327171572E+02 -0.21775654282E+02  0.30571418670E+02  0.51100000000E-03 0.  1.
         12    1    3    3    0    0 -0.11364970899E+02 -0.49241453903E+01  0.14951217741E+02  0.19415166322E+02  0.00000000000E+00 0. -1.
</event>
<event>
 7    1  0.5837204E-012  0.5930195E+02  0.7816164E-02  0.1266605E+00
        -11   -1    0    0    0    0  0.00000000000E+00  0.00000000000E+00  0.45593999997E+02  0.45594000000E+02  0.51100000000E-03 0.  1.
         11   -1    0    0    0    0 -0.00000000000E+00 -0.00000000000E+00 -0.45593999997E+02  0.45594000000E+02  0.51100000000E-03 0. -1.
    9900012    2    1    2    0    0  0.16411632289E+02  0.24356016380E+02  0.12416245696E+02  0.59301947165E+02  0.50000005721E+02 0.  0.
         12    1    1    2    0    0 -0.16411632289E+02 -0.24356016380E+02 -0.12416245696E+02  0.31886052835E+02  0.00000000000E+00 0. -1.
         11    1    3    3    0    0 -0.93813629286E+01  0.13595115993E+02  0.10951795113E+02  0.19818651966E+02  0.51100000000E-03 0. -1.
        -11    1    3    3    0    0  0.65275611600E+01  0.15372042545E+02  0.81406085835E+01  0.18578973467E+02  0.51100000000E-03 0.  1.
         12    1    3    3    0    0  0.19265434057E+02 -0.46111421593E+01 -0.66761580010E+01  0.20904321732E+02  0.00000000000E+00 0. -1.
</event>
<event>
 7    1  0.5837204E-012  0.5930177E+02  0.7816164E-02  0.1266605E+00
        -11   -1    0    0    0    0  0.00000000000E+00  0.00000000000E+00  0.45593999997E+02  0.45594000000E+02  0.51100000000E-03 0.  1.
         11   -1    0    0    0    0 -0.00000000000E+00 -0.00000000000E+00 -0.45593999997E+02  0.45594000000E+02  0.51100000000E-03 0. -1.
    9900012    2    1    2    0    0  0.84391800506E+01  0.23626196157E+02  0.19680306060E+02  0.59301774896E+02  0.49999691544E+02 0.  0.
         12    1    1    2    0    0 -0.84391800506E+01 -0.23626196157E+02 -0.19680306060E+02  0.31886225104E+02  0.00000000000E+00 0. -1.
         11    1    3    3    0    0  0.11879354238E+02  0.13882092210E+02  0.12407447649E+02  0.22085658212E+02  0.51100000000E-03 0. -1.
        -11    1    3    3    0    0  0.10302576775E+02  0.85633680162E+01  0.16019743514E+02  0.20883164092E+02  0.51100000000E-03 0.  1.
         12    1    3    3    0    0 -0.13742750962E+02  0.11807359301E+01 -0.87468851038E+01  0.16332952592E+02  0.00000000000E+00 0. -1.
</event>
<event>
 7    1  0.5837204E-012  0.5930192E+02  0.7816164E-02  0.1266605E+00
        -11   -1    0    0    0    0  0.00000000000E+00  0.00000000000E+00  0.45593999997E+02  0.45594000000E+02  0.51100000000E-03 0.  1.
         11   -1    0    0    0    0 -0.00000000000E+00 -0.00000000000E+00 -0.45593999997E+02  0.45594000000E+02  0.51100000000E-03 0. -1.
    9900012    2    1    2    0    0  0.47558203338E+01 -0.30307373726E+02  0.86929644510E+01  0.59301915886E+02  0.49999948676E+02 0.  0.
         12    1    1    2    0    0 -0.47558203338E+01  0.30307373726E+02 -0.86929644510E+01  0.31886084114E+02  0.00000000000E+00 0. -1.
         11    1    3    3    0    0  0.21677040094E+01 -0.16966227245E+02  0.85001882861E+01  0.19099869338E+02  0.51100000000E-03 0. -1.
        -11    1    3    3    0    0  0.78939014877E+01 -0.40325057628E+01  0.17631714952E+02  0.19734542199E+02  0.51100000000E-03 0.  1.
         12    1    3    3    0    0 -0.53057851634E+01 -0.93086407183E+01 -0.17438938787E+02  0.20467504348E+02  0.00000000000E+00 0. -1.
</event>
<event>
 7    1  0.5837204E-012  0.5930194E+02  0.7816164E-02  0.1266605E+00
        -11   -1    0    0    0    0  0.00000000000E+00  0.00000000000E+00  0.45593999997E+02  0.45594000000E+02  0.51100000000E-03 0. -1.
         11   -1    0    0    0    0 -0.00000000000E+00 -0.00000000000E+00 -0.45593999997E+02  0.45594000000E+02  0.51100000000E-03 0.  1.
    9900012    2    1    2    0    0  0.21772050553E+02  0.10530658410E+01 -0.23272078987E+02  0.59301940455E+02  0.49999993484E+02 0.  0.
         12    1    1    2    0    0 -0.21772050553E+02 -0.10530658410E+01  0.23272078987E+02  0.31886059545E+02  0.00000000000E+00 0. -1.
         11    1    3    3    0    0 -0.55622823325E+01 -0.61345963703E+01  0.76836765066E+00  0.83164082680E+01  0.51100000000E-03 0. -1.
        -11    1    3    3    0    0  0.22367449225E+02 -0.11055032195E+02 -0.80302812523E+01  0.26210721832E+02  0.51100000000E-03 0.  1.
         12    1    3    3    0    0  0.49668836604E+01  0.18242694406E+02 -0.16010165385E+02  0.24774810355E+02  0.00000000000E+00 0. -1.
</event>
<event>
 7    1  0.5837204E-012  0.5930195E+02  0.7816164E-02  0.1266605E+00
        -11   -1    0    0    0    0  0.00000000000E+00  0.00000000000E+00  0.45593999997E+02  0.45594000000E+02  0.51100000000E-03 0.  1.
         11   -1    0    0    0    0 -0.00000000000E+00 -0.00000000000E+00 -0.45593999997E+02  0.45594000000E+02  0.51100000000E-03 0. -1.
    9900012    2    1    2    0    0 -0.30679875003E+02  0.76468714228E+01  0.41219724626E+01  0.59301952428E+02  0.50000015321E+02 0.  0.
         12    1    1    2    0    0  0.30679875003E+02 -0.76468714228E+01 -0.41219724626E+01  0.31886047572E+02  0.00000000000E+00 0. -1.
         11    1    3    3    0    0 -0.46367627125E+01 -0.63785203541E+01  0.12872835903E+01  0.79901307663E+01  0.51100000000E-03 0. -1.
        -11    1    3    3    0    0 -0.23884560401E+02 -0.82834296406E+01 -0.78656282762E+01  0.26475564972E+02  0.51100000000E-03 0.  1.
         12    1    3    3    0    0 -0.21585518900E+01  0.22308821417E+02  0.10700317148E+02  0.24836256690E+02  0.00000000000E+00 0. -1.
</event>
<event>
 7    1  0.5837204E-012  0.5930193E+02  0.7816164E-02  0.1266605E+00
        -11   -1    0    0    0    0  0.00000000000E+00  0.00000000000E+00  0.45593999997E+02  0.45594000000E+02  0.51100000000E-03 0. -1.
         11   -1    0    0    0    0 -0.00000000000E+00 -0.00000000000E+00 -0.45593999997E+02  0.45594000000E+02  0.51100000000E-03 0.  1.
    9900012    2    1    2    0    0 -0.88852439370E+01  0.23165258748E+02  0.20028590499E+02  0.59301933920E+02  0.49999981566E+02 0.  0.
         12    1    1    2    0    0  0.88852439370E+01 -0.23165258748E+02 -0.20028590499E+02  0.31886066080E+02  0.00000000000E+00 0. -1.
         11    1    3    3    0    0  0.61307359073E+01  0.32057679203E+01 -0.74068160767E+01  0.10135274805E+02  0.51100000000E-03 0. -1.
        -11    1    3    3    0    0  0.41389280928E+01  0.20499077037E+02  0.96862511593E+01  0.23047046381E+02  0.51100000000E-03 0.  1.
         12    1    3    3    0    0 -0.19154907937E+02 -0.53958620938E+00  0.17749155416E+02  0.26119612733E+02  0.00000000000E+00 0. -1.
</event>
<event>
 7    1  0.5837204E-012  0.5930195E+02  0.7816164E-02  0.1266605E+00
        -11   -1    0    0    0    0  0.00000000000E+00  0.00000000000E+00  0.45593999997E+02  0.45594000000E+02  0.51100000000E-03 0.  1.
         11   -1    0    0    0    0 -0.00000000000E+00 -0.00000000000E+00 -0.45593999997E+02  0.45594000000E+02  0.51100000000E-03 0. -1.
    9900012    2    1    2    0    0  0.15490968645E+02 -0.19023549943E+02  0.20367977505E+02  0.59301951803E+02  0.50000014180E+02 0.  0.
         12    1    1    2    0    0 -0.15490968645E+02  0.19023549943E+02 -0.20367977505E+02  0.31886048197E+02  0.00000000000E+00 0. -1.
         11    1    3    3    0    0 -0.96927727568E+01  0.84295135026E-01  0.78946149242E+00  0.97252351691E+01  0.51100000000E-03 0. -1.
        -11    1    3    3    0    0 -0.55134382696E+01 -0.18452142638E+01  0.12313482854E+02  0.13617073015E+02  0.51100000000E-03 0.  1.
         12    1    3    3    0    0  0.30697179671E+02 -0.17262630814E+02  0.72650331580E+01  0.35959643619E+02  0.00000000000E+00 0. -1.
</event>
<event>
 7    1  0.5837204E-012  0.5930190E+02  0.7816164E-02  0.1266605E+00
        -11   -1    0    0    0    0  0.00000000000E+00  0.00000000000E+00  0.45593999997E+02  0.45594000000E+02  0.51100000000E-03 0.  1.
         11   -1    0    0    0    0 -0.00000000000E+00 -0.00000000000E+00 -0.45593999997E+02  0.45594000000E+02  0.51100000000E-03 0. -1.
    9900012    2    1    2    0    0  0.25123430369E+02  0.19635008926E+02 -0.52351372388E-01  0.59301904759E+02  0.49999928383E+02 0.  0.
         12    1    1    2    0    0 -0.25123430369E+02 -0.19635008926E+02  0.52351372388E-01  0.31886095241E+02  0.00000000000E+00 0. -1.
         11    1    3    3    0    0  0.24108066087E+02  0.10932580902E+02  0.55641592854E+00  0.26476966869E+02  0.51100000000E-03 0. -1.
        -11    1    3    3    0    0 -0.58844853333E+01 -0.73129643921E+01  0.89234509887E+01  0.12951239078E+02  0.51100000000E-03 0.  1.
         12    1    3    3    0    0  0.68998496158E+01  0.16015392416E+02 -0.95322182896E+01  0.19873698812E+02  0.00000000000E+00 0. -1.
</event>
<event>
 7    1  0.5837204E-012  0.5930201E+02  0.7816164E-02  0.1266605E+00
        -11   -1    0    0    0    0  0.00000000000E+00  0.00000000000E+00  0.45593999997E+02  0.45594000000E+02  0.51100000000E-03 0. -1.
         11   -1    0    0    0    0 -0.00000000000E+00 -0.00000000000E+00 -0.45593999997E+02  0.45594000000E+02  0.51100000000E-03 0.  1.
    9900012    2    1    2    0    0 -0.10574861480E+00  0.31248911421E+02  0.63411777523E+01  0.59302012748E+02  0.50000125329E+02 0.  0.
         12    1    1    2    0    0  0.10574861480E+00 -0.31248911421E+02 -0.63411777523E+01  0.31885987252E+02  0.00000000000E+00 0. -1.
         11    1    3    3    0    0  0.66540865340E+01 -0.41773224654E+01  0.10185734534E+02  0.12863750575E+02  0.51100000000E-03 0. -1.
        -11    1    3    3    0    0  0.99425519446E+01  0.16907320869E+02 -0.79505314857E+01  0.21164186479E+02  0.51100000000E-03 0.  1.
        -12    1    3    3    0    0 -0.16702387093E+02  0.18518913017E+02  0.41059747037E+01  0.25274075695E+02  0.00000000000E+00 0.  1.
</event>
<event>
 7    1  0.5837204E-012  0.5930202E+02  0.7816164E-02  0.1266605E+00
        -11   -1    0    0    0    0  0.00000000000E+00  0.00000000000E+00  0.45593999997E+02  0.45594000000E+02  0.51100000000E-03 0. -1.
         11   -1    0    0    0    0 -0.00000000000E+00 -0.00000000000E+00 -0.45593999997E+02  0.45594000000E+02  0.51100000000E-03 0.  1.
    9900012    2    1    2    0    0 -0.90420792526E+01  0.21069176609E+02 -0.22159571755E+02  0.59302015295E+02  0.50000129975E+02 0.  0.
         12    1    1    2    0    0  0.90420792526E+01 -0.21069176609E+02  0.22159571755E+02  0.31885984705E+02  0.00000000000E+00 0. -1.
         11    1    3    3    0    0 -0.44675708872E+01  0.21424711015E+01  0.49616039517E+01  0.70119103023E+01  0.51100000000E-03 0. -1.
        -11    1    3    3    0    0 -0.10528775440E+02 -0.46663083336E+01 -0.25409115551E+02  0.27897180845E+02  0.51100000000E-03 0.  1.
         12    1    3    3    0    0  0.59542670747E+01  0.23593013842E+02 -0.17120601553E+01  0.24392924148E+02  0.00000000000E+00 0. -1.
</event>
<event>
 7    1  0.5837204E-012  0.5930195E+02  0.7816164E-02  0.1266605E+00
        -11   -1    0    0    0    0  0.00000000000E+00  0.00000000000E+00  0.45593999997E+02  0.45594000000E+02  0.51100000000E-03 0. -1.
         11   -1    0    0    0    0 -0.00000000000E+00 -0.00000000000E+00 -0.45593999997E+02  0.45594000000E+02  0.51100000000E-03 0.  1.
    9900012    2    1    2    0    0  0.10267950950E+02 -0.13076463875E+02 -0.27208371266E+02  0.59301949898E+02  0.50000010706E+02 0.  0.
         12    1    1    2    0    0 -0.10267950950E+02  0.13076463875E+02  0.27208371266E+02  0.31886050102E+02  0.00000000000E+00 0. -1.
         11    1    3    3    0    0  0.48241339045E+01 -0.14534313206E+02 -0.13676196468E+02  0.20531850341E+02  0.51100000000E-03 0. -1.
        -11    1    3    3    0    0 -0.11182828475E+01 -0.16823017198E+02 -0.52884332472E+01  0.17670087454E+02  0.51100000000E-03 0.  1.
         12    1    3    3    0    0  0.65620998926E+01  0.18280866528E+02 -0.82437415498E+01  0.21100012104E+02  0.00000000000E+00 0. -1.
</event>
<event>
 7    1  0.5837204E-012  0.5930192E+02  0.7816164E-02  0.1266605E+00
        -11   -1    0    0    0    0  0.00000000000E+00  0.00000000000E+00  0.45593999997E+02  0.45594000000E+02  0.51100000000E-03 0.  1.
         11   -1    0    0    0    0 -0.00000000000E+00 -0.00000000000E+00 -0.45593999997E+02  0.45594000000E+02  0.51100000000E-03 0. -1.
    9900012    2    1    2    0    0 -0.30034084895E+02 -0.46635905866E+01  0.96398477439E+01  0.59301921578E+02  0.49999959057E+02 0.  0.
         12    1    1    2    0    0  0.30034084895E+02  0.46635905866E+01 -0.96398477439E+01  0.31886078422E+02  0.00000000000E+00 0. -1.
         11    1    3    3    0    0  0.64915638761E+01 -0.34353710706E-01 -0.49435674965E+01  0.81596839147E+01  0.51100000000E-03 0. -1.
        -11    1    3    3    0    0 -0.36757423587E+01 -0.39700192586E+01 -0.91365532440E+01  0.10618320971E+02  0.51100000000E-03 0.  1.
        -12    1    3    3    0    0 -0.32849906412E+02 -0.65921761721E+00  0.23719968484E+02  0.40523916692E+02  0.00000000000E+00 0.  1.
</event>
<event>
 7    1  0.5837204E-012  0.5930195E+02  0.7816164E-02  0.1266605E+00
        -11   -1    0    0    0    0  0.00000000000E+00  0.00000000000E+00  0.45593999997E+02  0.45594000000E+02  0.51100000000E-03 0. -1.
         11   -1    0    0    0    0 -0.00000000000E+00 -0.00000000000E+00 -0.45593999997E+02  0.45594000000E+02  0.51100000000E-03 0.  1.
    9900012    2    1    2    0    0  0.22727912566E+02 -0.20417881335E+02  0.91253818873E+01  0.59301945330E+02  0.50000002375E+02 0.  0.
         12    1    1    2    0    0 -0.22727912566E+02  0.20417881335E+02 -0.91253818873E+01  0.31886054670E+02  0.00000000000E+00 0. -1.
         11    1    3    3    0    0  0.29977215674E+02 -0.26091280991E+02  0.21443236187E+01  0.39799328227E+02  0.51100000000E-03 0. -1.
        -11    1    3    3    0    0  0.44807488694E+01  0.46074603336E+01  0.26836336269E+01  0.69647462883E+01  0.51100000000E-03 0.  1.
        -12    1    3    3    0    0 -0.11730051977E+02  0.10659393221E+01  0.42974246417E+01  0.12537870815E+02  0.00000000000E+00 0.  1.
</event>
<event>
 7    1  0.8493482E-012  0.5930193E+02  0.7816164E-02  0.1266605E+00
        -11   -1    0    0    0    0  0.00000000000E+00  0.00000000000E+00  0.45593999997E+02  0.45594000000E+02  0.51100000000E-03 0. -1.
         11   -1    0    0    0    0 -0.00000000000E+00 -0.00000000000E+00 -0.45593999997E+02  0.45594000000E+02  0.51100000000E-03 0.  1.
    9900012    2    1    2    0    0  0.22017905871E+02 -0.18806656785E+02 -0.13350767898E+02  0.59301929031E+02  0.49999972650E+02 0.  0.
         12    1    1    2    0    0 -0.22017905871E+02  0.18806656785E+02  0.13350767898E+02  0.31886070969E+02  0.00000000000E+00 0. -1.
         11    1    3    3    0    0  0.14086456505E+02  0.11223782735E+01  0.12471996368E+02  0.18847776620E+02  0.51100000000E-03 0.  1.
        -11    1    3    3    0    0 -0.50055145573E+01 -0.73484775104E+01  0.72395354168E-01  0.88915993529E+01  0.51100000000E-03 0. -1.
        -12    1    3    3    0    0  0.12936963923E+02 -0.12580557548E+02 -0.25895159621E+02  0.31562553058E+02  0.00000000000E+00 0.  1.
</event>
<event>
 7    1  0.5837204E-012  0.5930194E+02  0.7816164E-02  0.1266605E+00
        -11   -1    0    0    0    0  0.00000000000E+00  0.00000000000E+00  0.45593999997E+02  0.45594000000E+02  0.51100000000E-03 0. -1.
         11   -1    0    0    0    0 -0.00000000000E+00 -0.00000000000E+00 -0.45593999997E+02  0.45594000000E+02  0.51100000000E-03 0.  1.
    9900012    2    1    2    0    0 -0.28798096005E+02  0.10914612207E+02 -0.82620512398E+01  0.59301943740E+02  0.49999999476E+02 0.  0.
         12    1    1    2    0    0  0.28798096005E+02 -0.10914612207E+02  0.82620512398E+01  0.31886056260E+02  0.00000000000E+00 0. -1.
         11    1    3    3    0    0  0.65032736806E+01  0.77232258089E+01 -0.13791303705E+02  0.17092128118E+02  0.51100000000E-03 0. -1.
        -11    1    3    3    0    0 -0.18992894777E+02  0.62340237734E+00 -0.82393821101E+01  0.20712462440E+02  0.51100000000E-03 0.  1.
        -12    1    3    3    0    0 -0.16308474909E+02  0.25679840203E+01  0.13768634575E+02  0.21497353182E+02  0.00000000000E+00 0.  1.
</event>
<event>
 7    1  0.5837204E-012  0.5930194E+02  0.7816164E-02  0.1266605E+00
        -11   -1    0    0    0    0  0.00000000000E+00  0.00000000000E+00  0.45593999997E+02  0.45594000000E+02  0.51100000000E-03 0. -1.
         11   -1    0    0    0    0 -0.00000000000E+00 -0.00000000000E+00 -0.45593999997E+02  0.45594000000E+02  0.51100000000E-03 0.  1.
    9900012    2    1    2    0    0  0.27633718657E+02  0.15790103338E+02 -0.19419337888E+01  0.59301939141E+02  0.49999991088E+02 0.  0.
         12    1    1    2    0    0 -0.27633718657E+02 -0.15790103338E+02  0.19419337888E+01  0.31886060859E+02  0.00000000000E+00 0. -1.
         11    1    3    3    0    0  0.17104594348E+02 -0.83795387741E+01 -0.87327874157E+01  0.20953410085E+02  0.51100000000E-03 0. -1.
        -11    1    3    3    0    0  0.18463440805E+02  0.20968950527E+02  0.88617171572E+00  0.27953190035E+02  0.51100000000E-03 0.  1.
         12    1    3    3    0    0 -0.79343164963E+01  0.32006915847E+01  0.59046819112E+01  0.10395339021E+02  0.00000000000E+00 0. -1.
</event>
<event>
 7    1  0.5837204E-012  0.5930195E+02  0.7816164E-02  0.1266605E+00
        -11   -1    0    0    0    0  0.00000000000E+00  0.00000000000E+00  0.45593999997E+02  0.45594000000E+02  0.51100000000E-03 0.  1.
         11   -1    0    0    0    0 -0.00000000000E+00 -0.00000000000E+00 -0.45593999997E+02  0.45594000000E+02  0.51100000000E-03 0. -1.
    9900012    2    1    2    0    0  0.17054286571E+02  0.11310870713E+02  0.24452722694E+02  0.59301950795E+02  0.50000012342E+02 0.  0.
         12    1    1    2    0    0 -0.17054286571E+02 -0.11310870713E+02 -0.24452722694E+02  0.31886049205E+02  0.00000000000E+00 0. -1.
         11    1    3    3    0    0  0.20563693604E+01 -0.11056578938E+02  0.11261352287E+01  0.11302423350E+02  0.51100000000E-03 0. -1.
        -11    1    3    3    0    0  0.15484840095E+02 -0.40839694616E+00  0.13520721297E+00  0.15490814765E+02  0.51100000000E-03 0.  1.
         12    1    3    3    0    0 -0.48692288431E+00  0.22775846597E+02  0.23191380253E+02  0.32508712680E+02  0.00000000000E+00 0. -1.
</event>
<event>
 7    1  0.5837204E-012  0.5930193E+02  0.7816164E-02  0.1266605E+00
        -11   -1    0    0    0    0  0.00000000000E+00  0.00000000000E+00  0.45593999997E+02  0.45594000000E+02  0.51100000000E-03 0. -1.
         11   -1    0    0    0    0 -0.00000000000E+00 -0.00000000000E+00 -0.45593999997E+02  0.45594000000E+02  0.51100000000E-03 0.  1.
    9900012    2    1    2    0    0  0.59241423450E+01  0.12774819237E+02 -0.28608218594E+02  0.59301927175E+02  0.49999969265E+02 0.  0.
         12    1    1    2    0    0 -0.59241423450E+01 -0.12774819237E+02  0.28608218594E+02  0.31886072825E+02  0.00000000000E+00 0. -1.
         11    1    3    3    0    0  0.23335118123E+01  0.41773364252E+00 -0.40695867129E+01  0.47097043484E+01  0.51100000000E-03 0. -1.
        -11    1    3    3    0    0 -0.19625884496E+01 -0.17266822120E+02 -0.15063867071E+02  0.22998151903E+02  0.51100000000E-03 0.  1.
         12    1    3    3    0    0  0.55532189822E+01  0.29623907715E+02 -0.94747648103E+01  0.31594070924E+02  0.00000000000E+00 0. -1.
</event>
<event>
 7    1  0.5837204E-012  0.5930193E+02  0.7816164E-02  0.1266605E+00
        -11   -1    0    0    0    0  0.00000000000E+00  0.00000000000E+00  0.45593999997E+02  0.45594000000E+02  0.51100000000E-03 0.  1.
         11   -1    0    0    0    0 -0.00000000000E+00 -0.00000000000E+00 -0.45593999997E+02  0.45594000000E+02  0.51100000000E-03 0. -1.
    9900012    2    1    2    0    0 -0.23133948878E+01  0.12775482546E+02  0.29123126114E+02  0.59301933688E+02  0.49999981144E+02 0.  0.
         12    1    1    2    0    0  0.23133948878E+01 -0.12775482546E+02 -0.29123126114E+02  0.31886066312E+02  0.00000000000E+00 0. -1.
         11    1    3    3    0    0  0.63900434775E+01 -0.70812465295E+00 -0.44694230212E+00  0.64446763961E+01  0.51100000000E-03 0. -1.
        -11    1    3    3    0    0 -0.13833079847E+02  0.19882015121E+02  0.22410032092E+01  0.24324282496E+02  0.51100000000E-03 0.  1.
         12    1    3    3    0    0  0.51296414815E+01 -0.63984079215E+01  0.27329065206E+02  0.28532974796E+02  0.00000000000E+00 0. -1.
</event>
<event>
 7    1  0.5837204E-012  0.5930194E+02  0.7816164E-02  0.1266605E+00
        -11   -1    0    0    0    0  0.00000000000E+00  0.00000000000E+00  0.45593999997E+02  0.45594000000E+02  0.51100000000E-03 0. -1.
         11   -1    0    0    0    0 -0.00000000000E+00 -0.00000000000E+00 -0.45593999997E+02  0.45594000000E+02  0.51100000000E-03 0.  1.
    9900012    2    1    2    0    0 -0.20122785281E+02 -0.50787776593E+01  0.24207448240E+02  0.59301936896E+02  0.49999986994E+02 0.  0.
         12    1    1    2    0    0  0.20122785281E+02  0.50787776593E+01 -0.24207448240E+02  0.31886063104E+02  0.00000000000E+00 0. -1.
         11    1    3    3    0    0 -0.90710213026E+01  0.45974272120E+01  0.29152089053E+02  0.30874974669E+02  0.51100000000E-03 0. -1.
        -11    1    3    3    0    0 -0.63655596738E+01  0.30293582048E+01  0.73155009087E+01  0.10159424930E+02  0.51100000000E-03 0.  1.
        -12    1    3    3    0    0 -0.46862043048E+01 -0.12705563076E+02 -0.12260141722E+02  0.18267537297E+02  0.00000000000E+00 0.  1.
</event>
<event>
 7    1  0.5837204E-012  0.5930204E+02  0.7816164E-02  0.1266604E+00
        -11   -1    0    0    0    0  0.00000000000E+00  0.00000000000E+00  0.45593999997E+02  0.45594000000E+02  0.51100000000E-03 0. -1.
         11   -1    0    0    0    0 -0.00000000000E+00 -0.00000000000E+00 -0.45593999997E+02  0.45594000000E+02  0.51100000000E-03 0.  1.
    9900012    2    1    2    0    0 -0.27102607023E+02 -0.14436252976E+02 -0.85882160644E+01  0.59302044430E+02  0.50000183110E+02 0.  0.
         12    1    1    2    0    0  0.27102607023E+02  0.14436252976E+02  0.85882160644E+01  0.31885955570E+02  0.00000000000E+00 0. -1.
         11    1    3    3    0    0  0.66197707209E+01 -0.65160350651E+01  0.48569445823E+01  0.10481888585E+02  0.51100000000E-03 0. -1.
        -11    1    3    3    0    0 -0.76784670238E+01 -0.40541771880E+00 -0.19573493148E+02  0.21029618485E+02  0.51100000000E-03 0.  1.
        -12    1    3    3    0    0 -0.26043910720E+02 -0.75148001918E+01  0.61283325013E+01  0.27790537360E+02  0.00000000000E+00 0.  1.
</event>
<event>
 7    1  0.5837204E-012  0.5930194E+02  0.7816164E-02  0.1266605E+00
        -11   -1    0    0    0    0  0.00000000000E+00  0.00000000000E+00  0.45593999997E+02  0.45594000000E+02  0.51100000000E-03 0. -1.
         11   -1    0    0    0    0 -0.00000000000E+00 -0.00000000000E+00 -0.45593999997E+02  0.45594000000E+02  0.51100000000E-03 0.  1.
    9900012    2    1    2    0    0 -0.29564298032E+02  0.89905448853E+01  0.78640349909E+01  0.59301942517E+02  0.49999997244E+02 0.  0.
         12    1    1    2    0    0  0.29564298032E+02 -0.89905448853E+01 -0.78640349909E+01  0.31886057483E+02  0.00000000000E+00 0. -1.
         11    1    3    3    0    0  0.11230294435E+02  0.18142950077E+01  0.48512934709E+00  0.11386243024E+02  0.51100000000E-03 0. -1.
        -11    1    3    3    0    0 -0.71947238854E+01 -0.74988753659E+01 -0.53714923038E+00  0.10406042144E+02  0.51100000000E-03 0.  1.
        -12    1    3    3    0    0 -0.33599868582E+02  0.14675125243E+02  0.79160548742E+01  0.37509657348E+02  0.00000000000E+00 0.  1.
</event>
<event>
 7    1  0.5837204E-012  0.5930188E+02  0.7816164E-02  0.1266605E+00
        -11   -1    0    0    0    0  0.00000000000E+00  0.00000000000E+00  0.45593999997E+02  0.45594000000E+02  0.51100000000E-03 0. -1.
         11   -1    0    0    0    0 -0.00000000000E+00 -0.00000000000E+00 -0.45593999997E+02  0.45594000000E+02  0.51100000000E-03 0.  1.
    9900012    2    1    2    0    0 -0.23974453373E+02  0.19154637065E+02  0.86631409568E+01  0.59301881596E+02  0.49999886139E+02 0.  0.
         12    1    1    2    0    0  0.23974453373E+02 -0.19154637065E+02 -0.86631409568E+01  0.31886118404E+02  0.00000000000E+00 0. -1.
         11    1    3    3    0    0  0.61979879060E+01 -0.29245300482E+01  0.83304209798E+01  0.10787207426E+02  0.51100000000E-03 0. -1.
        -11    1    3    3    0    0 -0.34394648045E+01  0.10794657138E+02 -0.12426862813E+02  0.16816107175E+02  0.51100000000E-03 0.  1.
        -12    1    3    3    0    0 -0.26732976475E+02  0.11284509975E+02  0.12759582790E+02  0.31698566995E+02  0.00000000000E+00 0.  1.
</event>
<event>
 7    1  0.5837204E-012  0.5930193E+02  0.7816164E-02  0.1266605E+00
        -11   -1    0    0    0    0  0.00000000000E+00  0.00000000000E+00  0.45593999997E+02  0.45594000000E+02  0.51100000000E-03 0. -1.
         11   -1    0    0    0    0 -0.00000000000E+00 -0.00000000000E+00 -0.45593999997E+02  0.45594000000E+02  0.51100000000E-03 0.  1.
    9900012    2    1    2    0    0  0.30920810605E+02 -0.71521325266E+01  0.30776339212E+01  0.59301931589E+02  0.49999977315E+02 0.  0.
         12    1    1    2    0    0 -0.30920810605E+02  0.71521325266E+01 -0.30776339212E+01  0.31886068411E+02  0.00000000000E+00 0. -1.
         11    1    3    3    0    0  0.80932206580E+01 -0.89339417224E+01 -0.10311359383E+02  0.15863154412E+02  0.51100000000E-03 0. -1.
        -11    1    3    3    0    0  0.99474641947E+01 -0.37626099371E+01 -0.11003295691E+02  0.15302999502E+02  0.51100000000E-03 0.  1.
         12    1    3    3    0    0  0.12880125752E+02  0.55444191329E+01  0.24392288995E+02  0.28135777674E+02  0.00000000000E+00 0. -1.
</event>
<event>
 7    1  0.5837204E-012  0.5930192E+02  0.7816164E-02  0.1266605E+00
        -11   -1    0    0    0    0  0.00000000000E+00  0.00000000000E+00  0.45593999997E+02  0.45594000000E+02  0.51100000000E-03 0. -1.
         11   -1    0    0    0    0 -0.00000000000E+00 -0.00000000000E+00 -0.45593999997E+02  0.45594000000E+02  0.51100000000E-03 0.  1.
    9900012    2    1    2    0    0 -0.73284162229E+01  0.11891599837E+02 -0.28663672126E+02  0.59301922619E+02  0.49999960956E+02 0.  0.
         12    1    1    2    0    0  0.73284162229E+01 -0.11891599837E+02  0.28663672126E+02  0.31886077381E+02  0.00000000000E+00 0. -1.
         11    1    3    3    0    0 -0.10663372320E+02  0.12682074125E+00 -0.12647575464E+02  0.16543420387E+02  0.51100000000E-03 0. -1.
        -11    1    3    3    0    0 -0.15102175349E+02  0.14121735552E+02 -0.11383956373E+02  0.23602829878E+02  0.51100000000E-03 0.  1.
         12    1    3    3    0    0  0.18437131446E+02 -0.23569564565E+01 -0.46321402888E+01  0.19155672354E+02  0.00000000000E+00 0. -1.
</event>
<event>
 7    1  0.5837204E-012  0.5930183E+02  0.7816164E-02  0.1266605E+00
        -11   -1    0    0    0    0  0.00000000000E+00  0.00000000000E+00  0.45593999997E+02  0.45594000000E+02  0.51100000000E-03 0.  1.
         11   -1    0    0    0    0 -0.00000000000E+00 -0.00000000000E+00 -0.45593999997E+02  0.45594000000E+02  0.51100000000E-03 0. -1.
    9900012    2    1    2    0    0  0.38973657297E+01 -0.82558956185E+01  0.30551240061E+02  0.59301834640E+02  0.49999800503E+02 0.  0.
         12    1    1    2    0    0 -0.38973657297E+01  0.82558956185E+01 -0.30551240061E+02  0.31886165360E+02  0.00000000000E+00 0. -1.
         11    1    3    3    0    0  0.85321380767E+01  0.56149374776E+01  0.23371099808E+02  0.25505552524E+02  0.51100000000E-03 0. -1.
        -11    1    3    3    0    0 -0.13217407929E+02 -0.47148918459E+01  0.13736484798E+02  0.19637237391E+02  0.51100000000E-03 0.  1.
         12    1    3    3    0    0  0.85826355824E+01 -0.91559412502E+01 -0.65563445458E+01  0.14159044725E+02  0.00000000000E+00 0. -1.
</event>
<event>
 7    1  0.5837204E-012  0.5930195E+02  0.7816164E-02  0.1266605E+00
        -11   -1    0    0    0    0  0.00000000000E+00  0.00000000000E+00  0.45593999997E+02  0.45594000000E+02  0.51100000000E-03 0. -1.
         11   -1    0    0    0    0 -0.00000000000E+00 -0.00000000000E+00 -0.45593999997E+02  0.45594000000E+02  0.51100000000E-03 0.  1.
    9900012    2    1    2    0    0 -0.10062431747E+02 -0.23464985874E+02 -0.19101361980E+02  0.59301950947E+02  0.50000012620E+02 0.  0.
         12    1    1    2    0    0  0.10062431747E+02  0.23464985874E+02  0.19101361980E+02  0.31886049053E+02  0.00000000000E+00 0. -1.
         11    1    3    3    0    0 -0.94445117674E+01 -0.20439559862E+02 -0.90522823055E+01  0.24267637402E+02  0.51100000000E-03 0. -1.
        -11    1    3    3    0    0 -0.90491258572E+01 -0.78536890243E+01 -0.18577525440E+02  0.22106369259E+02  0.51100000000E-03 0.  1.
         12    1    3    3    0    0  0.84312058775E+01  0.48282630132E+01  0.85284457660E+01  0.12927944286E+02  0.00000000000E+00 0. -1.
</event>
<event>
 7    1  0.5837204E-012  0.5930195E+02  0.7816164E-02  0.1266605E+00
        -11   -1    0    0    0    0  0.00000000000E+00  0.00000000000E+00  0.45593999997E+02  0.45594000000E+02  0.51100000000E-03 0. -1.
         11   -1    0    0    0    0 -0.00000000000E+00 -0.00000000000E+00 -0.45593999997E+02  0.45594000000E+02  0.51100000000E-03 0.  1.
    9900012    2    1    2    0    0 -0.12487213655E+02  0.25366658725E+02  0.14741851382E+02  0.59301951924E+02  0.50000014400E+02 0.  0.
         12    1    1    2    0    0  0.12487213655E+02 -0.25366658725E+02 -0.14741851382E+02  0.31886048076E+02  0.00000000000E+00 0. -1.
         11    1    3    3    0    0 -0.79817406938E+01  0.13396603053E+01  0.17034761135E+02  0.18859638422E+02  0.51100000000E-03 0. -1.
        -11    1    3    3    0    0  0.74956896529E+01  0.14155568063E+02  0.11456731339E+02  0.19693200954E+02  0.51100000000E-03 0.  1.
        -12    1    3    3    0    0 -0.12001162615E+02  0.98714303568E+01 -0.13749641092E+02  0.20749112548E+02  0.00000000000E+00 0.  1.
</event>
<event>
 7    1  0.5837204E-012  0.5930192E+02  0.7816164E-02  0.1266605E+00
        -11   -1    0    0    0    0  0.00000000000E+00  0.00000000000E+00  0.45593999997E+02  0.45594000000E+02  0.51100000000E-03 0.  1.
         11   -1    0    0    0    0 -0.00000000000E+00 -0.00000000000E+00 -0.45593999997E+02  0.45594000000E+02  0.51100000000E-03 0. -1.
    9900012    2    1    2    0    0 -0.23169746589E+01  0.68452371973E+01  0.31056341262E+02  0.59301921903E+02  0.49999959649E+02 0.  0.
         12    1    1    2    0    0  0.23169746589E+01 -0.68452371973E+01 -0.31056341262E+02  0.31886078097E+02  0.00000000000E+00 0. -1.
         11    1    3    3    0    0  0.73311834398E+00 -0.10506453648E+02  0.12229775766E+02  0.16139716426E+02  0.51100000000E-03 0. -1.
        -11    1    3    3    0    0 -0.45048864225E+01  0.15924424830E+02  0.28673456117E+02  0.33106621601E+02  0.51100000000E-03 0.  1.
         12    1    3    3    0    0  0.14547934196E+01  0.14272660153E+01 -0.98468906218E+01  0.10055583876E+02  0.00000000000E+00 0. -1.
</event>
<event>
 7    1  0.5837204E-012  0.5930195E+02  0.7816164E-02  0.1266605E+00
        -11   -1    0    0    0    0  0.00000000000E+00  0.00000000000E+00  0.45593999997E+02  0.45594000000E+02  0.51100000000E-03 0.  1.
         11   -1    0    0    0    0 -0.00000000000E+00 -0.00000000000E+00 -0.45593999997E+02  0.45594000000E+02  0.51100000000E-03 0. -1.
    9900012    2    1    2    0    0 -0.14461884793E+02  0.28081192910E+02  0.43612944567E+01  0.59301946680E+02  0.50000004836E+02 0.  0.
         12    1    1    2    0    0  0.14461884793E+02 -0.28081192910E+02 -0.43612944567E+01  0.31886053320E+02  0.00000000000E+00 0. -1.
         11    1    3    3    0    0 -0.93738137690E+01  0.10532575010E+02  0.17180730617E+01  0.14204059146E+02  0.51100000000E-03 0.  1.
        -11    1    3    3    0    0 -0.20101662394E+02  0.18747910448E+01 -0.69723646770E+01  0.21358968653E+02  0.51100000000E-03 0. -1.
        -12    1    3    3    0    0  0.15013591370E+02  0.15673826855E+02  0.96155860721E+01  0.23738918881E+02  0.00000000000E+00 0.  1.
</event>
<event>
 7    1  0.5837204E-012  0.5930193E+02  0.7816164E-02  0.1266605E+00
        -11   -1    0    0    0    0  0.00000000000E+00  0.00000000000E+00  0.45593999997E+02  0.45594000000E+02  0.51100000000E-03 0. -1.
         11   -1    0    0    0    0 -0.00000000000E+00 -0.00000000000E+00 -0.45593999997E+02  0.45594000000E+02  0.51100000000E-03 0.  1.
    9900012    2    1    2    0    0 -0.66164668336E+01 -0.18528274386E+02 -0.25092768306E+02  0.59301927706E+02  0.49999970234E+02 0.  0.
         12    1    1    2    0    0  0.66164668336E+01  0.18528274386E+02  0.25092768306E+02  0.31886072294E+02  0.00000000000E+00 0. -1.
         11    1    3    3    0    0 -0.66683344111E+01 -0.12041881833E+02 -0.14571285648E+02  0.20044848904E+02  0.51100000000E-03 0. -1.
        -11    1    3    3    0    0 -0.14412184839E+02 -0.94411958986E+01 -0.15997884942E+02  0.23511264847E+02  0.51100000000E-03 0.  1.
         12    1    3    3    0    0  0.14464052417E+02  0.29548033453E+01  0.54764022842E+01  0.15745813955E+02  0.00000000000E+00 0. -1.
</event>
<event>
 7    1  0.5837204E-012  0.5930195E+02  0.7816164E-02  0.1266605E+00
        -11   -1    0    0    0    0  0.00000000000E+00  0.00000000000E+00  0.45593999997E+02  0.45594000000E+02  0.51100000000E-03 0.  1.
         11   -1    0    0    0    0 -0.00000000000E+00 -0.00000000000E+00 -0.45593999997E+02  0.45594000000E+02  0.51100000000E-03 0. -1.
    9900012    2    1    2    0    0  0.58614156432E+01 -0.20946783309E+02  0.23315153886E+02  0.59301947798E+02  0.50000006876E+02 0.  0.
         12    1    1    2    0    0 -0.58614156432E+01  0.20946783309E+02 -0.23315153886E+02  0.31886052202E+02  0.00000000000E+00 0. -1.
         11    1    3    3    0    0  0.18907912419E+02 -0.19815911678E+02  0.11786601831E+01  0.27414754198E+02  0.51100000000E-03 0. -1.
        -11    1    3    3    0    0  0.19038576052E+00 -0.79487038887E+01  0.62458961500E+01  0.10110853536E+02  0.51100000000E-03 0.  1.
        -12    1    3    3    0    0 -0.13236882536E+02  0.68178322575E+01  0.15890597553E+02  0.21776340063E+02  0.00000000000E+00 0.  1.
</event>
<event>
 7    1  0.5837204E-012  0.5930198E+02  0.7816164E-02  0.1266605E+00
        -11   -1    0    0    0    0  0.00000000000E+00  0.00000000000E+00  0.45593999997E+02  0.45594000000E+02  0.51100000000E-03 0.  1.
         11   -1    0    0    0    0 -0.00000000000E+00 -0.00000000000E+00 -0.45593999997E+02  0.45594000000E+02  0.51100000000E-03 0. -1.
    9900012    2    1    2    0    0  0.31740782739E+02 -0.10394726460E+01 -0.28566315290E+01  0.59301982124E+02  0.50000069478E+02 0.  0.
         12    1    1    2    0    0 -0.31740782739E+02  0.10394726460E+01  0.28566315290E+01  0.31886017876E+02  0.00000000000E+00 0. -1.
         11    1    3    3    0    0  0.11732721727E+02 -0.24162491747E+01 -0.20727085463E+01  0.12156937944E+02  0.51100000000E-03 0. -1.
        -11    1    3    3    0    0  0.26471111035E+02 -0.14018536856E+02 -0.37465253169E+01  0.30187340844E+02  0.51100000000E-03 0.  1.
         12    1    3    3    0    0 -0.64630500232E+01  0.15395313385E+02  0.29626023343E+01  0.16957703335E+02  0.00000000000E+00 0. -1.
</event>
<event>
 7    1  0.5837204E-012  0.5930195E+02  0.7816164E-02  0.1266605E+00
        -11   -1    0    0    0    0  0.00000000000E+00  0.00000000000E+00  0.45593999997E+02  0.45594000000E+02  0.51100000000E-03 0.  1.
         11   -1    0    0    0    0 -0.00000000000E+00 -0.00000000000E+00 -0.45593999997E+02  0.45594000000E+02  0.51100000000E-03 0. -1.
    9900012    2    1    2    0    0  0.15112986778E+02  0.27782537758E+02  0.40556429726E+01  0.59301952682E+02  0.50000015784E+02 0.  0.
         12    1    1    2    0    0 -0.15112986778E+02 -0.27782537758E+02 -0.40556429726E+01  0.31886047318E+02  0.00000000000E+00 0. -1.
         11    1    3    3    0    0  0.43055227469E+01  0.18236057421E+01 -0.14417360740E+02  0.15156627428E+02  0.51100000000E-03 0. -1.
        -11    1    3    3    0    0  0.19300729004E+02  0.12775225978E+02  0.54948103775E+01  0.23789020161E+02  0.51100000000E-03 0.  1.
         12    1    3    3    0    0 -0.84932649724E+01  0.13183706038E+02  0.12978193335E+02  0.20356305093E+02  0.00000000000E+00 0. -1.
</event>
<event>
 7    1  0.5837204E-012  0.5930193E+02  0.7816164E-02  0.1266605E+00
        -11   -1    0    0    0    0  0.00000000000E+00  0.00000000000E+00  0.45593999997E+02  0.45594000000E+02  0.51100000000E-03 0.  1.
         11   -1    0    0    0    0 -0.00000000000E+00 -0.00000000000E+00 -0.45593999997E+02  0.45594000000E+02  0.51100000000E-03 0. -1.
    9900012    2    1    2    0    0 -0.87379125768E+01  0.29613777880E+02 -0.79620594980E+01  0.59301931757E+02  0.49999977622E+02 0.  0.
         12    1    1    2    0    0  0.87379125768E+01 -0.29613777880E+02  0.79620594980E+01  0.31886068243E+02  0.00000000000E+00 0. -1.
         11    1    3    3    0    0  0.11725211460E+02 -0.58989081434E+01 -0.41467847742E+01  0.13764938260E+02  0.51100000000E-03 0. -1.
        -11    1    3    3    0    0  0.34637095151E+01  0.68350470638E+01  0.15128209407E+01  0.78104916253E+01  0.51100000000E-03 0.  1.
        -12    1    3    3    0    0 -0.23926833552E+02  0.28677638960E+02 -0.53280956645E+01  0.37726501872E+02  0.00000000000E+00 0.  1.
</event>
<event>
 7    1  0.5837204E-012  0.5930197E+02  0.7816164E-02  0.1266605E+00
        -11   -1    0    0    0    0  0.00000000000E+00  0.00000000000E+00  0.45593999997E+02  0.45594000000E+02  0.51100000000E-03 0.  1.
         11   -1    0    0    0    0 -0.00000000000E+00 -0.00000000000E+00 -0.45593999997E+02  0.45594000000E+02  0.51100000000E-03 0. -1.
    9900012    2    1    2    0    0  0.70463236608E+01  0.16618431103E+02  0.26284899873E+02  0.59301970288E+02  0.50000047892E+02 0.  0.
         12    1    1    2    0    0 -0.70463236608E+01 -0.16618431103E+02 -0.26284899873E+02  0.31886029712E+02  0.00000000000E+00 0. -1.
         11    1    3    3    0    0 -0.10715351118E+02  0.17040601107E+02  0.19511749635E+02  0.28034072301E+02  0.51100000000E-03 0. -1.
        -11    1    3    3    0    0 -0.58473815938E+01 -0.13056387100E+01 -0.16018471439E+01  0.62018125155E+01  0.51100000000E-03 0.  1.
        -12    1    3    3    0    0  0.23609056372E+02  0.88346870560E+00  0.83749973820E+01  0.25066085472E+02  0.00000000000E+00 0.  1.
</event>
<event>
 7    1  0.5837204E-012  0.5930196E+02  0.7816164E-02  0.1266605E+00
        -11   -1    0    0    0    0  0.00000000000E+00  0.00000000000E+00  0.45593999997E+02  0.45594000000E+02  0.51100000000E-03 0.  1.
         11   -1    0    0    0    0 -0.00000000000E+00 -0.00000000000E+00 -0.45593999997E+02  0.45594000000E+02  0.51100000000E-03 0. -1.
    9900012    2    1    2    0    0  0.17473349672E+02 -0.12146998120E+02  0.23745572353E+02  0.59301957309E+02  0.50000024223E+02 0.  0.
         12    1    1    2    0    0 -0.17473349672E+02  0.12146998120E+02 -0.23745572353E+02  0.31886042691E+02  0.00000000000E+00 0. -1.
         11    1    3    3    0    0  0.92971309292E+01 -0.10560377841E+02  0.33391280572E+02  0.36234456559E+02  0.51100000000E-03 0. -1.
        -11    1    3    3    0    0 -0.16249286061E+01 -0.44236220044E+01  0.38942300609E+01  0.61134157916E+01  0.51100000000E-03 0.  1.
         12    1    3    3    0    0  0.98011473493E+01  0.28370017258E+01 -0.13539938280E+02  0.16954084958E+02  0.00000000000E+00 0. -1.
</event>
<event>
 7    1  0.5837204E-012  0.5930195E+02  0.7816164E-02  0.1266605E+00
        -11   -1    0    0    0    0  0.00000000000E+00  0.00000000000E+00  0.45593999997E+02  0.45594000000E+02  0.51100000000E-03 0.  1.
         11   -1    0    0    0    0 -0.00000000000E+00 -0.00000000000E+00 -0.45593999997E+02  0.45594000000E+02  0.51100000000E-03 0. -1.
    9900012    2    1    2    0    0  0.37448042802E+01  0.22822501007E+02  0.21950628682E+02  0.59301949588E+02  0.50000010141E+02 0.  0.
         12    1    1    2    0    0 -0.37448042802E+01 -0.22822501007E+02 -0.21950628682E+02  0.31886050412E+02  0.00000000000E+00 0. -1.
         11    1    3    3    0    0  0.16714696595E+02 -0.23177748695E+01 -0.51257065218E+01  0.17635930092E+02  0.51100000000E-03 0. -1.
        -11    1    3    3    0    0 -0.32627171304E+01 -0.62516378841E+00  0.42954928160E+00  0.33497262100E+01  0.51100000000E-03 0.  1.
        -12    1    3    3    0    0 -0.97071751844E+01  0.25765439665E+02  0.26646785922E+02  0.38316293286E+02  0.00000000000E+00 0.  1.
</event>
<event>
 7    1  0.5837204E-012  0.5930195E+02  0.7816164E-02  0.1266605E+00
        -11   -1    0    0    0    0  0.00000000000E+00  0.00000000000E+00  0.45593999997E+02  0.45594000000E+02  0.51100000000E-03 0.  1.
         11   -1    0    0    0    0 -0.00000000000E+00 -0.00000000000E+00 -0.45593999997E+02  0.45594000000E+02  0.51100000000E-03 0. -1.
    9900012    2    1    2    0    0 -0.23418721152E+02  0.12805032491E+02  0.17444627321E+02  0.59301946938E+02  0.50000005308E+02 0.  0.
         12    1    1    2    0    0  0.23418721152E+02 -0.12805032491E+02 -0.17444627321E+02  0.31886053062E+02  0.00000000000E+00 0. -1.
         11    1    3    3    0    0  0.12263346008E+02  0.94381795913E+01  0.79055497236E+01  0.17377186366E+02  0.51100000000E-03 0. -1.
        -11    1    3    3    0    0 -0.53344577133E+01  0.21113262949E+01  0.10021348995E+02  0.11547362199E+02  0.51100000000E-03 0.  1.
         12    1    3    3    0    0 -0.30347609447E+02  0.12555266051E+01 -0.48227139833E+00  0.30377398373E+02  0.00000000000E+00 0. -1.
</event>
<event>
 7    1  0.5837204E-012  0.5930194E+02  0.7816164E-02  0.1266605E+00
        -11   -1    0    0    0    0  0.00000000000E+00  0.00000000000E+00  0.45593999997E+02  0.45594000000E+02  0.51100000000E-03 0.  1.
         11   -1    0    0    0    0 -0.00000000000E+00 -0.00000000000E+00 -0.45593999997E+02  0.45594000000E+02  0.51100000000E-03 0. -1.
    9900012    2    1    2    0    0 -0.14713898439E+02 -0.18866070518E+02  0.21078269571E+02  0.59301939218E+02  0.49999991229E+02 0.  0.
         12    1    1    2    0    0  0.14713898439E+02  0.18866070518E+02 -0.21078269571E+02  0.31886060782E+02  0.00000000000E+00 0. -1.
         11    1    3    3    0    0 -0.34741423567E+01 -0.50024546377E+00 -0.28027037788E+01  0.44916655454E+01  0.51100000000E-03 0. -1.
        -11    1    3    3    0    0 -0.30618525815E+01 -0.31781545436E+02  0.90070663636E+01  0.33174822023E+02  0.51100000000E-03 0.  1.
         12    1    3    3    0    0 -0.81779035004E+01  0.13415720382E+02  0.14873906987E+02  0.21635451649E+02  0.00000000000E+00 0. -1.
</event>
<event>
 7    1  0.5837204E-012  0.5930194E+02  0.7816164E-02  0.1266605E+00
        -11   -1    0    0    0    0  0.00000000000E+00  0.00000000000E+00  0.45593999997E+02  0.45594000000E+02  0.51100000000E-03 0.  1.
         11   -1    0    0    0    0 -0.00000000000E+00 -0.00000000000E+00 -0.45593999997E+02  0.45594000000E+02  0.51100000000E-03 0. -1.
    9900012    2    1    2    0    0  0.14630227435E+02 -0.15854595407E+02  0.23479968588E+02  0.59301942307E+02  0.49999996862E+02 0.  0.
         12    1    1    2    0    0 -0.14630227435E+02  0.15854595407E+02 -0.23479968588E+02  0.31886057693E+02  0.00000000000E+00 0. -1.
         11    1    3    3    0    0 -0.46770485406E+01 -0.25404594859E+01 -0.99546112786E+01  0.11288179810E+02  0.51100000000E-03 0. -1.
        -11    1    3    3    0    0 -0.40462458140E+01 -0.99037867311E+01  0.12627568105E+02  0.16550304327E+02  0.51100000000E-03 0.  1.
        -12    1    3    3    0    0  0.23353521790E+02 -0.34103491904E+01  0.20807011761E+02  0.31463458170E+02  0.00000000000E+00 0.  1.
</event>
<event>
 7    1  0.5837204E-012  0.5930194E+02  0.7816164E-02  0.1266605E+00
        -11   -1    0    0    0    0  0.00000000000E+00  0.00000000000E+00  0.45593999997E+02  0.45594000000E+02  0.51100000000E-03 0.  1.
         11   -1    0    0    0    0 -0.00000000000E+00 -0.00000000000E+00 -0.45593999997E+02  0.45594000000E+02  0.51100000000E-03 0. -1.
    9900012    2    1    2    0    0  0.46806943845E+01  0.10823532061E+02  0.29625383738E+02  0.59301935523E+02  0.49999984490E+02 0.  0.
         12    1    1    2    0    0 -0.46806943845E+01 -0.10823532061E+02 -0.29625383738E+02  0.31886064477E+02  0.00000000000E+00 0. -1.
         11    1    3    3    0    0 -0.52064093051E+01 -0.12433350661E+02 -0.99919814856E+00  0.13516408684E+02  0.51100000000E-03 0. -1.
        -11    1    3    3    0    0 -0.45904180936E+01  0.12599592548E+02  0.46427764725E+01  0.14190737975E+02  0.51100000000E-03 0.  1.
        -12    1    3    3    0    0  0.14477521783E+02  0.10657290174E+02  0.25981805414E+02  0.31594788865E+02  0.00000000000E+00 0.  1.
</event>
<event>
 7    1  0.5837204E-012  0.5930196E+02  0.7816164E-02  0.1266605E+00
        -11   -1    0    0    0    0  0.00000000000E+00  0.00000000000E+00  0.45593999997E+02  0.45594000000E+02  0.51100000000E-03 0. -1.
         11   -1    0    0    0    0 -0.00000000000E+00 -0.00000000000E+00 -0.45593999997E+02  0.45594000000E+02  0.51100000000E-03 0.  1.
    9900012    2    1    2    0    0  0.31355111750E+02  0.40684134079E+01 -0.41261066604E+01  0.59301956397E+02  0.50000022558E+02 0.  0.
         12    1    1    2    0    0 -0.31355111750E+02 -0.40684134079E+01  0.41261066604E+01  0.31886043603E+02  0.00000000000E+00 0. -1.
         11    1    3    3    0    0 -0.40981301105E+01 -0.67091534300E-01 -0.68772186722E+00  0.41559756140E+01  0.51100000000E-03 0. -1.
        -11    1    3    3    0    0  0.27945188799E+02 -0.13260193687E+02 -0.13435400344E+02  0.33723527341E+02  0.51100000000E-03 0.  1.
         12    1    3    3    0    0  0.75080530613E+01  0.17395698629E+02  0.99970155509E+01  0.21422453442E+02  0.00000000000E+00 0. -1.
</event>
<event>
 7    1  0.5837204E-012  0.5930196E+02  0.7816164E-02  0.1266605E+00
        -11   -1    0    0    0    0  0.00000000000E+00  0.00000000000E+00  0.45593999997E+02  0.45594000000E+02  0.51100000000E-03 0.  1.
         11   -1    0    0    0    0 -0.00000000000E+00 -0.00000000000E+00 -0.45593999997E+02  0.45594000000E+02  0.51100000000E-03 0. -1.
    9900012    2    1    2    0    0  0.27574004275E+01 -0.14927060881E+02  0.28041031508E+02  0.59301955220E+02  0.50000020413E+02 0.  0.
         12    1    1    2    0    0 -0.27574004275E+01  0.14927060881E+02 -0.28041031508E+02  0.31886044780E+02  0.00000000000E+00 0. -1.
         11    1    3    3    0    0  0.13074986322E+02 -0.24646369913E+01  0.73691199477E+01  0.15209655877E+02  0.51100000000E-03 0. -1.
        -11    1    3    3    0    0  0.94904486620E+01 -0.44238600792E+01  0.20150846044E+02  0.22708935474E+02  0.51100000000E-03 0.  1.
         12    1    3    3    0    0 -0.19808034557E+02 -0.80385638106E+01  0.52106551651E+00  0.21383363870E+02  0.00000000000E+00 0. -1.
</event>
<event>
 7    1  0.5837204E-012  0.5930189E+02  0.7816164E-02  0.1266605E+00
        -11   -1    0    0    0    0  0.00000000000E+00  0.00000000000E+00  0.45593999997E+02  0.45594000000E+02  0.51100000000E-03 0. -1.
         11   -1    0    0    0    0 -0.00000000000E+00 -0.00000000000E+00 -0.45593999997E+02  0.45594000000E+02  0.51100000000E-03 0.  1.
    9900012    2    1    2    0    0  0.23639495863E+02  0.20296609684E+02 -0.67783363886E+01  0.59301890587E+02  0.49999902537E+02 0.  0.
         12    1    1    2    0    0 -0.23639495863E+02 -0.20296609684E+02  0.67783363886E+01  0.31886109413E+02  0.00000000000E+00 0. -1.
         11    1    3    3    0    0  0.38385825423E+01 -0.53513427021E+01  0.96115430724E+01  0.11651323751E+02  0.51100000000E-03 0. -1.
        -11    1    3    3    0    0  0.90149723146E+01 -0.63166224910E+01 -0.39815305730E+01  0.11705641012E+02  0.51100000000E-03 0.  1.
         12    1    3    3    0    0  0.10785941006E+02  0.31964574877E+02 -0.12408348888E+02  0.35944925825E+02  0.00000000000E+00 0. -1.
</event>
<event>
 7    1  0.5837204E-012  0.5930196E+02  0.7816164E-02  0.1266605E+00
        -11   -1    0    0    0    0  0.00000000000E+00  0.00000000000E+00  0.45593999997E+02  0.45594000000E+02  0.51100000000E-03 0. -1.
         11   -1    0    0    0    0 -0.00000000000E+00 -0.00000000000E+00 -0.45593999997E+02  0.45594000000E+02  0.51100000000E-03 0.  1.
    9900012    2    1    2    0    0 -0.15564508408E+02 -0.50917141799E+01 -0.27359462246E+02  0.59301958388E+02  0.50000026190E+02 0.  0.
         12    1    1    2    0    0  0.15564508408E+02  0.50917141799E+01  0.27359462246E+02  0.31886041612E+02  0.00000000000E+00 0. -1.
         11    1    3    3    0    0  0.62380101745E+01  0.17901679429E+01 -0.19405471199E+01  0.67737135743E+01  0.51100000000E-03 0. -1.
        -11    1    3    3    0    0  0.24591072566E+01  0.13827929967E+02 -0.85723034559E+01  0.16454277331E+02  0.51100000000E-03 0.  1.
        -12    1    3    3    0    0 -0.24261625839E+02 -0.20709812090E+02 -0.16846611670E+02  0.36073967483E+02  0.00000000000E+00 0.  1.
</event>
<event>
 7    1  0.5837204E-012  0.5930194E+02  0.7816164E-02  0.1266605E+00
        -11   -1    0    0    0    0  0.00000000000E+00  0.00000000000E+00  0.45593999997E+02  0.45594000000E+02  0.51100000000E-03 0.  1.
         11   -1    0    0    0    0 -0.00000000000E+00 -0.00000000000E+00 -0.45593999997E+02  0.45594000000E+02  0.51100000000E-03 0. -1.
    9900012    2    1    2    0    0 -0.13526223303E+02 -0.23247006116E+02 -0.17127141141E+02  0.59301937623E+02  0.49999988320E+02 0.  0.
         12    1    1    2    0    0  0.13526223303E+02  0.23247006116E+02  0.17127141141E+02  0.31886062377E+02  0.00000000000E+00 0. -1.
         11    1    3    3    0    0  0.14325059983E+02 -0.57850944140E+01 -0.77193916387E+01  0.17270311764E+02  0.51100000000E-03 0. -1.
        -11    1    3    3    0    0 -0.11032191032E+02  0.54937559261E+01 -0.10352827702E+01  0.12367797048E+02  0.51100000000E-03 0.  1.
        -12    1    3    3    0    0 -0.16819092255E+02 -0.22955667628E+02 -0.83724667323E+01  0.29663828811E+02  0.00000000000E+00 0.  1.
</event>
<event>
 7    1  0.5837204E-012  0.5930197E+02  0.7816164E-02  0.1266605E+00
        -11   -1    0    0    0    0  0.00000000000E+00  0.00000000000E+00  0.45593999997E+02  0.45594000000E+02  0.51100000000E-03 0.  1.
         11   -1    0    0    0    0 -0.00000000000E+00 -0.00000000000E+00 -0.45593999997E+02  0.45594000000E+02  0.51100000000E-03 0. -1.
    9900012    2    1    2    0    0  0.13072302778E+02 -0.15305874706E+02  0.24729824911E+02  0.59301966372E+02  0.50000040750E+02 0.  0.
         12    1    1    2    0    0 -0.13072302778E+02  0.15305874706E+02 -0.24729824911E+02  0.31886033628E+02  0.00000000000E+00 0. -1.
         11    1    3    3    0    0  0.12035435962E+02 -0.93308377842E+01 -0.10907239387E+02  0.18731901234E+02  0.51100000000E-03 0. -1.
        -11    1    3    3    0    0  0.58450980779E+01  0.21245706896E+01  0.36197159803E+01  0.71959235818E+01  0.51100000000E-03 0.  1.
        -12    1    3    3    0    0 -0.48082312618E+01 -0.80996076113E+01  0.32017348317E+02  0.33374141556E+02  0.00000000000E+00 0.  1.
</event>
<event>
 7    1  0.5837204E-012  0.5930193E+02  0.7816164E-02  0.1266605E+00
        -11   -1    0    0    0    0  0.00000000000E+00  0.00000000000E+00  0.45593999997E+02  0.45594000000E+02  0.51100000000E-03 0.  1.
         11   -1    0    0    0    0 -0.00000000000E+00 -0.00000000000E+00 -0.45593999997E+02  0.45594000000E+02  0.51100000000E-03 0. -1.
    9900012    2    1    2    0    0  0.24593558362E+02 -0.17882127540E+02 -0.95972803959E+01  0.59301931110E+02  0.49999976442E+02 0.  0.
         12    1    1    2    0    0 -0.24593558362E+02  0.17882127540E+02  0.95972803959E+01  0.31886068890E+02  0.00000000000E+00 0. -1.
         11    1    3    3    0    0 -0.25569145834E+01 -0.12795891144E+01  0.19008311053E+01  0.34334122445E+01  0.51100000000E-03 0. -1.
        -11    1    3    3    0    0  0.22329529416E+02 -0.10402349441E+02  0.14585695529E+02  0.28627945650E+02  0.51100000000E-03 0.  1.
        -12    1    3    3    0    0  0.48209435293E+01 -0.62001889849E+01 -0.26083807030E+02  0.27240573216E+02  0.00000000000E+00 0.  1.
</event>
<event>
 7    1  0.5837204E-012  0.5930193E+02  0.7816164E-02  0.1266605E+00
        -11   -1    0    0    0    0  0.00000000000E+00  0.00000000000E+00  0.45593999997E+02  0.45594000000E+02  0.51100000000E-03 0. -1.
         11   -1    0    0    0    0 -0.00000000000E+00 -0.00000000000E+00 -0.45593999997E+02  0.45594000000E+02  0.51100000000E-03 0.  1.
    9900012    2    1    2    0    0  0.23103706811E+02  0.19369652426E+02 -0.10380607993E+02  0.59301925832E+02  0.49999966816E+02 0.  0.
         12    1    1    2    0    0 -0.23103706811E+02 -0.19369652426E+02  0.10380607993E+02  0.31886074168E+02  0.00000000000E+00 0. -1.
         11    1    3    3    0    0 -0.75231989385E+01  0.57857407037E+01  0.12773917132E+02  0.15913713486E+02  0.51100000000E-03 0. -1.
        -11    1    3    3    0    0 -0.15575026380E+01  0.94056400026E+00 -0.25614895655E+01  0.31419268231E+01  0.51100000000E-03 0.  1.
         12    1    3    3    0    0  0.32184408388E+02  0.12643347722E+02 -0.20593035559E+02  0.40246285523E+02  0.00000000000E+00 0. -1.
</event>
<event>
 7    1  0.5837204E-012  0.5930195E+02  0.7816164E-02  0.1266605E+00
        -11   -1    0    0    0    0  0.00000000000E+00  0.00000000000E+00  0.45593999997E+02  0.45594000000E+02  0.51100000000E-03 0.  1.
         11   -1    0    0    0    0 -0.00000000000E+00 -0.00000000000E+00 -0.45593999997E+02  0.45594000000E+02  0.51100000000E-03 0. -1.
    9900012    2    1    2    0    0 -0.25078710999E+00 -0.75180956578E+01  0.30986056678E+02  0.59301947172E+02  0.50000005735E+02 0.  0.
         12    1    1    2    0    0  0.25078710999E+00  0.75180956578E+01 -0.30986056678E+02  0.31886052828E+02  0.00000000000E+00 0. -1.
         11    1    3    3    0    0  0.24161524057E+01 -0.10487072054E+02  0.23283009536E+02  0.25649853919E+02  0.51100000000E-03 0. -1.
        -11    1    3    3    0    0 -0.18720264749E+01  0.70274117547E+01  0.19680273237E+02  0.20980995068E+02  0.51100000000E-03 0.  1.
         12    1    3    3    0    0 -0.79491304074E+00 -0.40584353586E+01 -0.11977226096E+02  0.12671098186E+02  0.00000000000E+00 0. -1.
</event>
<event>
 7    1  0.5837204E-012  0.5930195E+02  0.7816164E-02  0.1266605E+00
        -11   -1    0    0    0    0  0.00000000000E+00  0.00000000000E+00  0.45593999997E+02  0.45594000000E+02  0.51100000000E-03 0. -1.
         11   -1    0    0    0    0 -0.00000000000E+00 -0.00000000000E+00 -0.45593999997E+02  0.45594000000E+02  0.51100000000E-03 0.  1.
    9900012    2    1    2    0    0 -0.10226066853E+02  0.28238574683E+02 -0.10711244871E+02  0.59301948032E+02  0.50000007303E+02 0.  0.
         12    1    1    2    0    0  0.10226066853E+02 -0.28238574683E+02  0.10711244871E+02  0.31886051968E+02  0.00000000000E+00 0. -1.
         11    1    3    3    0    0  0.57726863541E+01 -0.12486630343E+01  0.10444190417E+02  0.11998507442E+02  0.51100000000E-03 0. -1.
        -11    1    3    3    0    0 -0.11154989118E+02 -0.72731130199E+00 -0.90988160784E+01  0.14413577566E+02  0.51100000000E-03 0.  1.
        -12    1    3    3    0    0 -0.48437640894E+01  0.30214549019E+02 -0.12056619210E+02  0.32889863024E+02  0.00000000000E+00 0.  1.
</event>
<event>
 7    1  0.5837204E-012  0.5930198E+02  0.7816164E-02  0.1266605E+00
        -11   -1    0    0    0    0  0.00000000000E+00  0.00000000000E+00  0.45593999997E+02  0.45594000000E+02  0.51100000000E-03 0.  1.
         11   -1    0    0    0    0 -0.00000000000E+00 -0.00000000000E+00 -0.45593999997E+02  0.45594000000E+02  0.51100000000E-03 0. -1.
    9900012    2    1    2    0    0  0.23800931846E+02  0.15004992163E+02 -0.15002793981E+02  0.59301984667E+02  0.50000074116E+02 0.  0.
         12    1    1    2    0    0 -0.23800931846E+02 -0.15004992163E+02  0.15002793981E+02  0.31886015333E+02  0.00000000000E+00 0. -1.
         11    1    3    3    0    0  0.56050385720E+01 -0.89433308698E+00 -0.11111612901E+02  0.12477348700E+02  0.51100000000E-03 0. -1.
        -11    1    3    3    0    0 -0.56686278313E+01 -0.77706755061E+01  0.65395602713E+01  0.11631104338E+02  0.51100000000E-03 0.  1.
        -12    1    3    3    0    0  0.23864521106E+02  0.23670000756E+02 -0.10430741352E+02  0.35193531629E+02  0.00000000000E+00 0.  1.
</event>
<event>
 7    1  0.5837204E-012  0.5930186E+02  0.7816164E-02  0.1266605E+00
        -11   -1    0    0    0    0  0.00000000000E+00  0.00000000000E+00  0.45593999997E+02  0.45594000000E+02  0.51100000000E-03 0.  1.
         11   -1    0    0    0    0 -0.00000000000E+00 -0.00000000000E+00 -0.45593999997E+02  0.45594000000E+02  0.51100000000E-03 0. -1.
    9900012    2    1    2    0    0 -0.50483401770E+01  0.16510535964E+02  0.26807510687E+02  0.59301856213E+02  0.49999839846E+02 0.  0.
         12    1    1    2    0    0  0.50483401770E+01 -0.16510535964E+02 -0.26807510687E+02  0.31886143787E+02  0.00000000000E+00 0. -1.
         11    1    3    3    0    0 -0.12349054494E+02  0.28345659117E+01  0.26121268073E+02  0.29031957509E+02  0.51100000000E-03 0.  1.
        -11    1    3    3    0    0  0.78943912491E+01  0.69048176671E+01  0.12697422872E+02  0.16468833233E+02  0.51100000000E-03 0. -1.
        -12    1    3    3    0    0 -0.59367693194E+00  0.67711523852E+01 -0.12011180258E+02  0.13801065470E+02  0.00000000000E+00 0.  1.
</event>
<event>
 7    1  0.5837204E-012  0.5930194E+02  0.7816164E-02  0.1266605E+00
        -11   -1    0    0    0    0  0.00000000000E+00  0.00000000000E+00  0.45593999997E+02  0.45594000000E+02  0.51100000000E-03 0.  1.
         11   -1    0    0    0    0 -0.00000000000E+00 -0.00000000000E+00 -0.45593999997E+02  0.45594000000E+02  0.51100000000E-03 0. -1.
    9900012    2    1    2    0    0 -0.21862885835E+02  0.23210277886E+02  0.13322147899E+00  0.59301944670E+02  0.50000001171E+02 0.  0.
         12    1    1    2    0    0  0.21862885835E+02 -0.23210277886E+02 -0.13322147899E+00  0.31886055330E+02  0.00000000000E+00 0. -1.
         11    1    3    3    0    0 -0.32633024622E+02  0.24387842692E+02 -0.84867008668E+01  0.41613762856E+02  0.51100000000E-03 0. -1.
        -11    1    3    3    0    0  0.84245700461E+00 -0.31811133288E+01 -0.12748619825E+01  0.35290918309E+01  0.51100000000E-03 0.  1.
        -12    1    3    3    0    0  0.99276817824E+01  0.20035485225E+01  0.98947843282E+01  0.14159089983E+02  0.00000000000E+00 0.  1.
</event>
<event>
 7    1  0.5837204E-012  0.5930195E+02  0.7816164E-02  0.1266605E+00
        -11   -1    0    0    0    0  0.00000000000E+00  0.00000000000E+00  0.45593999997E+02  0.45594000000E+02  0.51100000000E-03 0.  1.
         11   -1    0    0    0    0 -0.00000000000E+00 -0.00000000000E+00 -0.45593999997E+02  0.45594000000E+02  0.51100000000E-03 0. -1.
    9900012    2    1    2    0    0  0.12980407034E+02 -0.14695729752E+02  0.25144881272E+02  0.59301945150E+02  0.50000002046E+02 0.  0.
         12    1    1    2    0    0 -0.12980407034E+02  0.14695729752E+02 -0.25144881272E+02  0.31886054850E+02  0.00000000000E+00 0. -1.
         11    1    3    3    0    0  0.22547890977E+02 -0.15850768473E+01  0.69334194154E+01  0.23643015061E+02  0.51100000000E-03 0. -1.
        -11    1    3    3    0    0  0.80594300842E+00 -0.18821384942E+01  0.20146352233E+02  0.20250123407E+02  0.51100000000E-03 0.  1.
         12    1    3    3    0    0 -0.10373426951E+02 -0.11228514410E+02 -0.19348903765E+01  0.15408806681E+02  0.00000000000E+00 0. -1.
</event>
<event>
 7    1  0.5837204E-012  0.5930164E+02  0.7816164E-02  0.1266606E+00
        -11   -1    0    0    0    0  0.00000000000E+00  0.00000000000E+00  0.45593999997E+02  0.45594000000E+02  0.51100000000E-03 0. -1.
         11   -1    0    0    0    0 -0.00000000000E+00 -0.00000000000E+00 -0.45593999997E+02  0.45594000000E+02  0.51100000000E-03 0.  1.
    9900012    2    1    2    0    0  0.22615108401E+02  0.19962383285E+02  0.10334416238E+02  0.59301638755E+02  0.49999443254E+02 0.  0.
         12    1    1    2    0    0 -0.22615108401E+02 -0.19962383285E+02 -0.10334416238E+02  0.31886361245E+02  0.00000000000E+00 0. -1.
         11    1    3    3    0    0 -0.84413522903E+01 -0.49977092004E+01  0.81357951476E+01  0.12744594489E+02  0.51100000000E-03 0. -1.
        -11    1    3    3    0    0  0.13683996269E+02 -0.25650438657E+01  0.14724041915E+01  0.13999970653E+02  0.51100000000E-03 0.  1.
         12    1    3    3    0    0  0.17372464422E+02  0.27525136351E+02  0.72621689922E+00  0.32557073613E+02  0.00000000000E+00 0. -1.
</event>
<event>
 7    1  0.5837204E-012  0.5930196E+02  0.7816164E-02  0.1266605E+00
        -11   -1    0    0    0    0  0.00000000000E+00  0.00000000000E+00  0.45593999997E+02  0.45594000000E+02  0.51100000000E-03 0.  1.
         11   -1    0    0    0    0 -0.00000000000E+00 -0.00000000000E+00 -0.45593999997E+02  0.45594000000E+02  0.51100000000E-03 0. -1.
    9900012    2    1    2    0    0 -0.15996333951E+02  0.18298385516E+02  0.20639914672E+02  0.59301957756E+02  0.50000025036E+02 0.  0.
         12    1    1    2    0    0  0.15996333951E+02 -0.18298385516E+02 -0.20639914672E+02  0.31886042244E+02  0.00000000000E+00 0. -1.
         11    1    3    3    0    0 -0.22132482192E+02  0.23790506683E+01 -0.46264961890E+01  0.22735679389E+02  0.51100000000E-03 0. -1.
        -11    1    3    3    0    0 -0.58583399438E+01  0.12212732527E+02  0.10207075439E+02  0.16960406008E+02  0.51100000000E-03 0.  1.
         12    1    3    3    0    0  0.11994488185E+02  0.37066023209E+01  0.15059335422E+02  0.19605872358E+02  0.00000000000E+00 0. -1.
</event>
<event>
 7    1  0.5837204E-012  0.5930200E+02  0.7816164E-02  0.1266605E+00
        -11   -1    0    0    0    0  0.00000000000E+00  0.00000000000E+00  0.45593999997E+02  0.45594000000E+02  0.51100000000E-03 0. -1.
         11   -1    0    0    0    0 -0.00000000000E+00 -0.00000000000E+00 -0.45593999997E+02  0.45594000000E+02  0.51100000000E-03 0.  1.
    9900012    2    1    2    0    0 -0.19378835725E+02  0.11218155567E+02 -0.22700894297E+02  0.59302001658E+02  0.50000105104E+02 0.  0.
         12    1    1    2    0    0  0.19378835725E+02 -0.11218155567E+02  0.22700894297E+02  0.31885998342E+02  0.00000000000E+00 0. -1.
         11    1    3    3    0    0 -0.36818704284E+01 -0.44653309625E+01  0.28032313357E+01  0.64306653341E+01  0.51100000000E-03 0. -1.
        -11    1    3    3    0    0 -0.25907963939E+02  0.13253136311E+02 -0.45760123049E+01  0.29458582899E+02  0.51100000000E-03 0.  1.
        -12    1    3    3    0    0  0.10210998643E+02  0.24303502188E+01 -0.20928113328E+02  0.23412753425E+02  0.00000000000E+00 0.  1.
</event>
<event>
 7    1  0.5837204E-012  0.5930195E+02  0.7816164E-02  0.1266605E+00
        -11   -1    0    0    0    0  0.00000000000E+00  0.00000000000E+00  0.45593999997E+02  0.45594000000E+02  0.51100000000E-03 0.  1.
         11   -1    0    0    0    0 -0.00000000000E+00 -0.00000000000E+00 -0.45593999997E+02  0.45594000000E+02  0.51100000000E-03 0. -1.
    9900012    2    1    2    0    0 -0.27663200871E+02 -0.30665110116E+01  0.15558412702E+02  0.59301946967E+02  0.50000005361E+02 0.  0.
         12    1    1    2    0    0  0.27663200871E+02  0.30665110116E+01 -0.15558412702E+02  0.31886053033E+02  0.00000000000E+00 0. -1.
         11    1    3    3    0    0 -0.90149711312E+01 -0.99671164328E+01  0.86652277794E+00  0.13467144332E+02  0.51100000000E-03 0. -1.
        -11    1    3    3    0    0 -0.23021027996E+02  0.10170168529E+02  0.24171638570E+02  0.34895102369E+02  0.51100000000E-03 0.  1.
         12    1    3    3    0    0  0.43727982567E+01 -0.32695631074E+01 -0.94797486462E+01  0.10939700266E+02  0.00000000000E+00 0. -1.
</event>
<event>
 7    1  0.5837204E-012  0.5930195E+02  0.7816164E-02  0.1266605E+00
        -11   -1    0    0    0    0  0.00000000000E+00  0.00000000000E+00  0.45593999997E+02  0.45594000000E+02  0.51100000000E-03 0.  1.
         11   -1    0    0    0    0 -0.00000000000E+00 -0.00000000000E+00 -0.45593999997E+02  0.45594000000E+02  0.51100000000E-03 0. -1.
    9900012    2    1    2    0    0  0.21612002077E+02  0.21306666118E+02  0.97809835025E+01  0.59301948298E+02  0.50000007788E+02 0.  0.
         12    1    1    2    0    0 -0.21612002077E+02 -0.21306666118E+02 -0.97809835025E+01  0.31886051702E+02  0.00000000000E+00 0. -1.
         11    1    3    3    0    0  0.66903130602E+01  0.12046583717E+02  0.30349527711E+01  0.14109975431E+02  0.51100000000E-03 0. -1.
        -11    1    3    3    0    0 -0.28563535418E+00  0.16792379089E+02  0.18163503727E+02  0.24738198215E+02  0.51100000000E-03 0.  1.
         12    1    3    3    0    0  0.15207324371E+02 -0.75322966871E+01 -0.11417472996E+02  0.20453774652E+02  0.00000000000E+00 0. -1.
</event>
<event>
 7    1  0.5837204E-012  0.5930196E+02  0.7816164E-02  0.1266605E+00
        -11   -1    0    0    0    0  0.00000000000E+00  0.00000000000E+00  0.45593999997E+02  0.45594000000E+02  0.51100000000E-03 0. -1.
         11   -1    0    0    0    0 -0.00000000000E+00 -0.00000000000E+00 -0.45593999997E+02  0.45594000000E+02  0.51100000000E-03 0.  1.
    9900012    2    1    2    0    0 -0.31158983651E+02  0.51757781568E+00 -0.67505339292E+01  0.59301955133E+02  0.50000020253E+02 0.  0.
         12    1    1    2    0    0  0.31158983651E+02 -0.51757781568E+00  0.67505339292E+01  0.31886044867E+02  0.00000000000E+00 0. -1.
         11    1    3    3    0    0 -0.32281643167E+02 -0.33662836085E+01  0.23556257030E+01  0.32542054693E+02  0.51100000000E-03 0. -1.
        -11    1    3    3    0    0 -0.68736611460E+01 -0.76882267462E+01 -0.71717226672E+01  0.12561435202E+02  0.51100000000E-03 0.  1.
         12    1    3    3    0    0  0.79963206622E+01  0.11572088170E+02 -0.19344369650E+01  0.14198465238E+02  0.00000000000E+00 0. -1.
</event>
<event>
 7    1  0.5837204E-012  0.5930180E+02  0.7816164E-02  0.1266605E+00
        -11   -1    0    0    0    0  0.00000000000E+00  0.00000000000E+00  0.45593999997E+02  0.45594000000E+02  0.51100000000E-03 0. -1.
         11   -1    0    0    0    0 -0.00000000000E+00 -0.00000000000E+00 -0.45593999997E+02  0.45594000000E+02  0.51100000000E-03 0.  1.
    9900012    2    1    2    0    0 -0.10508751785E+02 -0.18426174355E+02 -0.23806977501E+02  0.59301796978E+02  0.49999731816E+02 0.  0.
         12    1    1    2    0    0  0.10508751785E+02  0.18426174355E+02  0.23806977501E+02  0.31886203022E+02  0.00000000000E+00 0. -1.
         11    1    3    3    0    0  0.71137090111E+01 -0.11663196934E+02 -0.19611223606E+02  0.23900525312E+02  0.51100000000E-03 0. -1.
        -11    1    3    3    0    0  0.11787186294E+01  0.54728584802E+01 -0.10673486355E+02  0.12052587638E+02  0.51100000000E-03 0.  1.
        -12    1    3    3    0    0 -0.18801179426E+02 -0.12235835901E+02  0.64777324597E+01  0.23348684027E+02  0.00000000000E+00 0.  1.
</event>
<event>
 7    1  0.5837204E-012  0.5930193E+02  0.7816164E-02  0.1266605E+00
        -11   -1    0    0    0    0  0.00000000000E+00  0.00000000000E+00  0.45593999997E+02  0.45594000000E+02  0.51100000000E-03 0.  1.
         11   -1    0    0    0    0 -0.00000000000E+00 -0.00000000000E+00 -0.45593999997E+02  0.45594000000E+02  0.51100000000E-03 0. -1.
    9900012    2    1    2    0    0 -0.27939935775E+02  0.14526347952E+02  0.50066763181E+01  0.59301927748E+02  0.49999970309E+02 0.  0.
         12    1    1    2    0    0  0.27939935775E+02 -0.14526347952E+02 -0.50066763181E+01  0.31886072252E+02  0.00000000000E+00 0. -1.
         11    1    3    3    0    0 -0.16492880909E+00 -0.92040408487E+01  0.14923341648E+01  0.93256973454E+01  0.51100000000E-03 0. -1.
        -11    1    3    3    0    0 -0.23326895484E+02  0.15671081097E+02  0.17593302517E+02  0.33154956332E+02  0.51100000000E-03 0.  1.
         12    1    3    3    0    0 -0.44481114821E+01  0.80593077041E+01 -0.14078960364E+02  0.16821274070E+02  0.00000000000E+00 0. -1.
</event>
<event>
 7    1  0.5837204E-012  0.5930198E+02  0.7816164E-02  0.1266605E+00
        -11   -1    0    0    0    0  0.00000000000E+00  0.00000000000E+00  0.45593999997E+02  0.45594000000E+02  0.51100000000E-03 0.  1.
         11   -1    0    0    0    0 -0.00000000000E+00 -0.00000000000E+00 -0.45593999997E+02  0.45594000000E+02  0.51100000000E-03 0. -1.
    9900012    2    1    2    0    0 -0.24808364063E+02  0.42097272293E+01  0.19584223690E+02  0.59301975657E+02  0.50000057685E+02 0.  0.
         12    1    1    2    0    0  0.24808364063E+02 -0.42097272293E+01 -0.19584223690E+02  0.31886024343E+02  0.00000000000E+00 0. -1.
         11    1    3    3    0    0 -0.26053427542E+02 -0.47014977967E+01  0.74220484998E+01  0.27494944488E+02  0.51100000000E-03 0. -1.
        -11    1    3    3    0    0  0.84954044271E+01 -0.69836357530E+01  0.92829584333E+00  0.11036521107E+02  0.51100000000E-03 0.  1.
         12    1    3    3    0    0 -0.72503409481E+01  0.15894860779E+02  0.11233879347E+02  0.20770510062E+02  0.00000000000E+00 0. -1.
</event>
<event>
 7    1  0.5837204E-012  0.5930195E+02  0.7816164E-02  0.1266605E+00
        -11   -1    0    0    0    0  0.00000000000E+00  0.00000000000E+00  0.45593999997E+02  0.45594000000E+02  0.51100000000E-03 0. -1.
         11   -1    0    0    0    0 -0.00000000000E+00 -0.00000000000E+00 -0.45593999997E+02  0.45594000000E+02  0.51100000000E-03 0.  1.
    9900012    2    1    2    0    0 -0.23618780172E+02 -0.77705809363E+00  0.21407231883E+02  0.59301950182E+02  0.50000011224E+02 0.  0.
         12    1    1    2    0    0  0.23618780172E+02  0.77705809363E+00 -0.21407231883E+02  0.31886049818E+02  0.00000000000E+00 0. -1.
         11    1    3    3    0    0 -0.21861257954E+01 -0.68209807247E+00  0.10849584933E+02  0.11088638205E+02  0.51100000000E-03 0. -1.
        -11    1    3    3    0    0 -0.30201745388E+02  0.37463107027E+01  0.18636851202E+02  0.35686306777E+02  0.51100000000E-03 0.  1.
        -12    1    3    3    0    0  0.87690910114E+01 -0.38412707238E+01 -0.80792042515E+01  0.12527005200E+02  0.00000000000E+00 0.  1.
</event>
<event>
 7    1  0.5837204E-012  0.5930218E+02  0.7816164E-02  0.1266604E+00
        -11   -1    0    0    0    0  0.00000000000E+00  0.00000000000E+00  0.45593999997E+02  0.45594000000E+02  0.51100000000E-03 0. -1.
         11   -1    0    0    0    0 -0.00000000000E+00 -0.00000000000E+00 -0.45593999997E+02  0.45594000000E+02  0.51100000000E-03 0.  1.
    9900012    2    1    2    0    0  0.16144721183E+02  0.68108134819E+01 -0.26639559717E+02  0.59302182709E+02  0.50000435296E+02 0.  0.
         12    1    1    2    0    0 -0.16144721183E+02 -0.68108134819E+01  0.26639559717E+02  0.31885817291E+02  0.00000000000E+00 0. -1.
         11    1    3    3    0    0  0.24484763236E+01  0.63260066545E+01  0.69286051575E+01  0.96963377721E+01  0.51100000000E-03 0. -1.
        -11    1    3    3    0    0 -0.98653608218E+01 -0.56556254875E+01 -0.15785622941E+02  0.19455007985E+02  0.51100000000E-03 0.  1.
         12    1    3    3    0    0  0.23561605681E+02  0.61404323149E+01 -0.17782541934E+02  0.30150836953E+02  0.00000000000E+00 0. -1.
</event>
<event>
 7    1  0.5837204E-012  0.5930192E+02  0.7816164E-02  0.1266605E+00
        -11   -1    0    0    0    0  0.00000000000E+00  0.00000000000E+00  0.45593999997E+02  0.45594000000E+02  0.51100000000E-03 0.  1.
         11   -1    0    0    0    0 -0.00000000000E+00 -0.00000000000E+00 -0.45593999997E+02  0.45594000000E+02  0.51100000000E-03 0. -1.
    9900012    2    1    2    0    0 -0.31126778037E+02 -0.64860238293E+01 -0.24035579180E+01  0.59301922995E+02  0.49999961642E+02 0.  0.
         12    1    1    2    0    0  0.31126778037E+02  0.64860238293E+01  0.24035579180E+01  0.31886077005E+02  0.00000000000E+00 0. -1.
         11    1    3    3    0    0  0.36415089423E+01 -0.60777322831E+01 -0.28354286061E+01  0.76314528579E+01  0.51100000000E-03 0. -1.
        -11    1    3    3    0    0 -0.19356422191E+02 -0.18877023426E+02  0.40717244387E+01  0.27342129281E+02  0.51100000000E-03 0.  1.
        -12    1    3    3    0    0 -0.15411864788E+02  0.18468731880E+02 -0.36398537507E+01  0.24328340856E+02  0.00000000000E+00 0.  1.
</event>
<event>
 7    1  0.5837204E-012  0.5930186E+02  0.7816164E-02  0.1266605E+00
        -11   -1    0    0    0    0  0.00000000000E+00  0.00000000000E+00  0.45593999997E+02  0.45594000000E+02  0.51100000000E-03 0. -1.
         11   -1    0    0    0    0 -0.00000000000E+00 -0.00000000000E+00 -0.45593999997E+02  0.45594000000E+02  0.51100000000E-03 0.  1.
    9900012    2    1    2    0    0 -0.49953667181E+00  0.28792914594E+02 -0.13691037950E+02  0.59301859000E+02  0.49999844929E+02 0.  0.
         12    1    1    2    0    0  0.49953667181E+00 -0.28792914594E+02  0.13691037950E+02  0.31886141000E+02  0.00000000000E+00 0. -1.
         11    1    3    3    0    0  0.26123491542E+01  0.38956098531E+01  0.15499066256E+01  0.49398739903E+01  0.51100000000E-03 0. -1.
        -11    1    3    3    0    0  0.17360023918E+02  0.82758730161E+01 -0.19798138122E+02  0.27601209719E+02  0.51100000000E-03 0.  1.
         12    1    3    3    0    0 -0.20471909744E+02  0.16621431725E+02  0.45571935456E+01  0.26760775291E+02  0.00000000000E+00 0. -1.
</event>
<event>
 7    1  0.5837204E-012  0.5930200E+02  0.7816164E-02  0.1266605E+00
        -11   -1    0    0    0    0  0.00000000000E+00  0.00000000000E+00  0.45593999997E+02  0.45594000000E+02  0.51100000000E-03 0.  1.
         11   -1    0    0    0    0 -0.00000000000E+00 -0.00000000000E+00 -0.45593999997E+02  0.45594000000E+02  0.51100000000E-03 0. -1.
    9900012    2    1    2    0    0 -0.83645799631E+01 -0.46061776050E+01  0.30422588906E+02  0.59302000159E+02  0.50000102371E+02 0.  0.
         12    1    1    2    0    0  0.83645799631E+01  0.46061776050E+01 -0.30422588906E+02  0.31885999841E+02  0.00000000000E+00 0. -1.
         11    1    3    3    0    0 -0.28835428393E+01  0.10305906609E+02 -0.34793960893E+01  0.11253120800E+02  0.51100000000E-03 0. -1.
        -11    1    3    3    0    0  0.82059840163E+01 -0.10355328365E+02  0.24380102698E+01  0.13435583112E+02  0.51100000000E-03 0.  1.
        -12    1    3    3    0    0 -0.13687021140E+02 -0.45567558485E+01  0.31463974726E+02  0.34613296247E+02  0.00000000000E+00 0.  1.
</event>
<event>
 7    1  0.5837204E-012  0.5930201E+02  0.7816164E-02  0.1266605E+00
        -11   -1    0    0    0    0  0.00000000000E+00  0.00000000000E+00  0.45593999997E+02  0.45594000000E+02  0.51100000000E-03 0.  1.
         11   -1    0    0    0    0 -0.00000000000E+00 -0.00000000000E+00 -0.45593999997E+02  0.45594000000E+02  0.51100000000E-03 0. -1.
    9900012    2    1    2    0    0 -0.29402066407E+02 -0.96604723942E+01  0.76752736338E+01  0.59302014658E+02  0.50000128812E+02 0.  0.
         12    1    1    2    0    0  0.29402066407E+02  0.96604723942E+01 -0.76752736338E+01  0.31885985342E+02  0.00000000000E+00 0. -1.
         11    1    3    3    0    0 -0.13415440050E+01  0.11751084936E+02 -0.56021183594E+01  0.13087072548E+02  0.51100000000E-03 0. -1.
        -11    1    3    3    0    0 -0.17954997992E+02  0.16349662903E+01  0.10584286987E+02  0.20906510922E+02  0.51100000000E-03 0.  1.
         12    1    3    3    0    0 -0.10105524410E+02 -0.23046523621E+02  0.26931050065E+01  0.25308431188E+02  0.00000000000E+00 0. -1.
</event>
<event>
 7    1  0.5837204E-012  0.5930193E+02  0.7816164E-02  0.1266605E+00
        -11   -1    0    0    0    0  0.00000000000E+00  0.00000000000E+00  0.45593999997E+02  0.45594000000E+02  0.51100000000E-03 0.  1.
         11   -1    0    0    0    0 -0.00000000000E+00 -0.00000000000E+00 -0.45593999997E+02  0.45594000000E+02  0.51100000000E-03 0. -1.
    9900012    2    1    2    0    0 -0.22611108928E+02  0.17111817547E+02  0.14582339016E+02  0.59301934738E+02  0.49999983058E+02 0.  0.
         12    1    1    2    0    0  0.22611108928E+02 -0.17111817547E+02 -0.14582339016E+02  0.31886065262E+02  0.00000000000E+00 0. -1.
         11    1    3    3    0    0 -0.53630217047E+00  0.21756763196E+00  0.16789198424E+02  0.16799170803E+02  0.51100000000E-03 0. -1.
        -11    1    3    3    0    0 -0.25125316194E+02  0.11028408349E+02  0.95173015434E+01  0.29042836182E+02  0.51100000000E-03 0.  1.
         12    1    3    3    0    0  0.30505094369E+01  0.58658415656E+01 -0.11724160951E+02  0.13459927753E+02  0.00000000000E+00 0. -1.
</event>
<event>
 7    1  0.5837204E-012  0.5930195E+02  0.7816164E-02  0.1266605E+00
        -11   -1    0    0    0    0  0.00000000000E+00  0.00000000000E+00  0.45593999997E+02  0.45594000000E+02  0.51100000000E-03 0.  1.
         11   -1    0    0    0    0 -0.00000000000E+00 -0.00000000000E+00 -0.45593999997E+02  0.45594000000E+02  0.51100000000E-03 0. -1.
    9900012    2    1    2    0    0 -0.23130494570E+02  0.26473119815E+01  0.21787435671E+02  0.59301946734E+02  0.50000004935E+02 0.  0.
         12    1    1    2    0    0  0.23130494570E+02 -0.26473119815E+01 -0.21787435671E+02  0.31886053266E+02  0.00000000000E+00 0. -1.
         11    1    3    3    0    0 -0.31034044541E+02  0.36002065050E+01  0.12105867676E+02  0.33505603112E+02  0.51100000000E-03 0. -1.
        -11    1    3    3    0    0 -0.58448437685E+01 -0.57701847221E+01  0.73915197889E+01  0.11049515621E+02  0.51100000000E-03 0.  1.
         12    1    3    3    0    0  0.13748393740E+02  0.48172901986E+01  0.22900482062E+01  0.14746828000E+02  0.00000000000E+00 0. -1.
</event>
<event>
 7    1  0.5837204E-012  0.5930197E+02  0.7816164E-02  0.1266605E+00
        -11   -1    0    0    0    0  0.00000000000E+00  0.00000000000E+00  0.45593999997E+02  0.45594000000E+02  0.51100000000E-03 0.  1.
         11   -1    0    0    0    0 -0.00000000000E+00 -0.00000000000E+00 -0.45593999997E+02  0.45594000000E+02  0.51100000000E-03 0. -1.
    9900012    2    1    2    0    0 -0.10381697290E+02 -0.13932974650E+02  0.26735957082E+02  0.59301971361E+02  0.50000049850E+02 0.  0.
         12    1    1    2    0    0  0.10381697290E+02  0.13932974650E+02 -0.26735957082E+02  0.31886028639E+02  0.00000000000E+00 0. -1.
         11    1    3    3    0    0  0.15693495458E+01  0.62617173162E+00  0.20004937510E+02  0.20076166817E+02  0.51100000000E-03 0. -1.
        -11    1    3    3    0    0  0.11275571240E+02 -0.90256170929E+00 -0.51874609754E+00  0.11323525167E+02  0.51100000000E-03 0.  1.
         12    1    3    3    0    0 -0.23226618076E+02 -0.13656584673E+02  0.72497656703E+01  0.27902279377E+02  0.00000000000E+00 0. -1.
</event>
<event>
 7    1  0.5837204E-012  0.5930194E+02  0.7816164E-02  0.1266605E+00
        -11   -1    0    0    0    0  0.00000000000E+00  0.00000000000E+00  0.45593999997E+02  0.45594000000E+02  0.51100000000E-03 0.  1.
         11   -1    0    0    0    0 -0.00000000000E+00 -0.00000000000E+00 -0.45593999997E+02  0.45594000000E+02  0.51100000000E-03 0. -1.
    9900012    2    1    2    0    0  0.14677892203E+01  0.25010244679E+02  0.19724455752E+02  0.59301938801E+02  0.49999990467E+02 0.  0.
         12    1    1    2    0    0 -0.14677892203E+01 -0.25010244679E+02 -0.19724455752E+02  0.31886061199E+02  0.00000000000E+00 0. -1.
         11    1    3    3    0    0  0.35186355005E+01  0.21334833174E+02 -0.96691782503E+01  0.23686471047E+02  0.51100000000E-03 0. -1.
        -11    1    3    3    0    0  0.42770508663E+01 -0.41832996915E+01  0.18194343447E+01  0.62532793011E+01  0.51100000000E-03 0.  1.
        -12    1    3    3    0    0 -0.63278971465E+01  0.78587111965E+01  0.27574199658E+02  0.29362188452E+02  0.00000000000E+00 0.  1.
</event>
<event>
 7    1  0.5837204E-012  0.5930194E+02  0.7816164E-02  0.1266605E+00
        -11   -1    0    0    0    0  0.00000000000E+00  0.00000000000E+00  0.45593999997E+02  0.45594000000E+02  0.51100000000E-03 0. -1.
         11   -1    0    0    0    0 -0.00000000000E+00 -0.00000000000E+00 -0.45593999997E+02  0.45594000000E+02  0.51100000000E-03 0.  1.
    9900012    2    1    2    0    0 -0.30024661724E+02  0.65061627462E+01  0.85387459772E+01  0.59301942730E+02  0.49999997634E+02 0.  0.
         12    1    1    2    0    0  0.30024661724E+02 -0.65061627462E+01 -0.85387459772E+01  0.31886057270E+02  0.00000000000E+00 0. -1.
         11    1    3    3    0    0 -0.10060285624E+02 -0.10645761611E+02  0.80286499777E+01  0.16703317271E+02  0.51100000000E-03 0. -1.
        -11    1    3    3    0    0  0.39206451667E+01 -0.70921613624E+01  0.25741364848E+01  0.85027283984E+01  0.51100000000E-03 0.  1.
        -12    1    3    3    0    0 -0.23885021267E+02  0.24244085720E+02 -0.20640404853E+01  0.34095897061E+02  0.00000000000E+00 0.  1.
</event>
<event>
 7    1  0.5837204E-012  0.5930211E+02  0.7816164E-02  0.1266604E+00
        -11   -1    0    0    0    0  0.00000000000E+00  0.00000000000E+00  0.45593999997E+02  0.45594000000E+02  0.51100000000E-03 0.  1.
         11   -1    0    0    0    0 -0.00000000000E+00 -0.00000000000E+00 -0.45593999997E+02  0.45594000000E+02  0.51100000000E-03 0. -1.
    9900012    2    1    2    0    0 -0.76345934277E+01 -0.25630170029E+02  0.17364261478E+02  0.59302106423E+02  0.50000296169E+02 0.  0.
         12    1    1    2    0    0  0.76345934277E+01  0.25630170029E+02 -0.17364261478E+02  0.31885893577E+02  0.00000000000E+00 0. -1.
         11    1    3    3    0    0  0.12119009381E+02  0.56551112923E+00 -0.10275912718E+01  0.12175636956E+02  0.51100000000E-03 0. -1.
        -11    1    3    3    0    0 -0.23075144710E+00 -0.39904567709E+00  0.14539252160E+02  0.14546557576E+02  0.51100000000E-03 0.  1.
         12    1    3    3    0    0 -0.19522851362E+02 -0.25796635481E+02  0.38526005899E+01  0.32579911890E+02  0.00000000000E+00 0. -1.
</event>
<event>
 7    1  0.5837204E-012  0.5930198E+02  0.7816164E-02  0.1266605E+00
        -11   -1    0    0    0    0  0.00000000000E+00  0.00000000000E+00  0.45593999997E+02  0.45594000000E+02  0.51100000000E-03 0.  1.
         11   -1    0    0    0    0 -0.00000000000E+00 -0.00000000000E+00 -0.45593999997E+02  0.45594000000E+02  0.51100000000E-03 0. -1.
    9900012    2    1    2    0    0  0.36889560213E+01  0.29715882263E+02  0.10957925224E+02  0.59301981427E+02  0.50000068207E+02 0.  0.
         12    1    1    2    0    0 -0.36889560213E+01 -0.29715882263E+02 -0.10957925224E+02  0.31886018573E+02  0.00000000000E+00 0. -1.
         11    1    3    3    0    0 -0.71685433601E+01  0.10805351310E+02  0.13221010593E+02  0.18518605569E+02  0.51100000000E-03 0. -1.
        -11    1    3    3    0    0  0.96956998711E+01  0.50953687410E+01  0.15043482098E+02  0.18608485497E+02  0.51100000000E-03 0.  1.
         12    1    3    3    0    0  0.11617995103E+01  0.13815162212E+02 -0.17306567467E+02  0.22174890361E+02  0.00000000000E+00 0. -1.
</event>
<event>
 7    1  0.5837204E-012  0.5930195E+02  0.7816164E-02  0.1266605E+00
        -11   -1    0    0    0    0  0.00000000000E+00  0.00000000000E+00  0.45593999997E+02  0.45594000000E+02  0.51100000000E-03 0. -1.
         11   -1    0    0    0    0 -0.00000000000E+00 -0.00000000000E+00 -0.45593999997E+02  0.45594000000E+02  0.51100000000E-03 0.  1.
    9900012    2    1    2    0    0 -0.26375284351E+02  0.10110259473E+02 -0.14793487129E+02  0.59301949247E+02  0.50000009519E+02 0.  0.
         12    1    1    2    0    0  0.26375284351E+02 -0.10110259473E+02  0.14793487129E+02  0.31886050753E+02  0.00000000000E+00 0. -1.
         11    1    3    3    0    0 -0.32145521116E+02 -0.35576982003E+00  0.49015139347E+01  0.32519008888E+02  0.51100000000E-03 0. -1.
        -11    1    3    3    0    0 -0.11986758934E+01 -0.13784701940E+01  0.89012554487E+00  0.20320747329E+01  0.51100000000E-03 0.  1.
        -12    1    3    3    0    0  0.69689126587E+01  0.11844499487E+02 -0.20585126609E+02  0.24750865626E+02  0.00000000000E+00 0.  1.
</event>
<event>
 7    1  0.5837204E-012  0.5930194E+02  0.7816164E-02  0.1266605E+00
        -11   -1    0    0    0    0  0.00000000000E+00  0.00000000000E+00  0.45593999997E+02  0.45594000000E+02  0.51100000000E-03 0.  1.
         11   -1    0    0    0    0 -0.00000000000E+00 -0.00000000000E+00 -0.45593999997E+02  0.45594000000E+02  0.51100000000E-03 0. -1.
    9900012    2    1    2    0    0 -0.99441135754E+01 -0.28864398721E+02  0.92022764589E+01  0.59301940344E+02  0.49999993283E+02 0.  0.
         12    1    1    2    0    0  0.99441135754E+01  0.28864398721E+02 -0.92022764589E+01  0.31886059656E+02  0.00000000000E+00 0. -1.
         11    1    3    3    0    0 -0.36266780646E+00 -0.10669973484E+02 -0.15604760518E+00  0.10677275552E+02  0.51100000000E-03 0. -1.
        -11    1    3    3    0    0 -0.16186527669E+02 -0.12766687710E+02 -0.13214573394E+02  0.24487077067E+02  0.51100000000E-03 0.  1.
        -12    1    3    3    0    0  0.66050818998E+01 -0.54277375263E+01  0.22572897458E+02  0.24137587725E+02  0.00000000000E+00 0.  1.
</event>
<event>
 7    1  0.5837204E-012  0.5930213E+02  0.7816164E-02  0.1266604E+00
        -11   -1    0    0    0    0  0.00000000000E+00  0.00000000000E+00  0.45593999997E+02  0.45594000000E+02  0.51100000000E-03 0.  1.
         11   -1    0    0    0    0 -0.00000000000E+00 -0.00000000000E+00 -0.45593999997E+02  0.45594000000E+02  0.51100000000E-03 0. -1.
    9900012    2    1    2    0    0 -0.30074363839E+02  0.82104015755E+01 -0.66955776213E+01  0.59302128300E+02  0.50000336068E+02 0.  0.
         12    1    1    2    0    0  0.30074363839E+02 -0.82104015755E+01  0.66955776213E+01  0.31885871700E+02  0.00000000000E+00 0. -1.
         11    1    3    3    0    0  0.60082307629E+00 -0.13378625889E+02  0.64878529221E+01  0.14880888913E+02  0.51100000000E-03 0.  1.
        -11    1    3    3    0    0 -0.18174476846E+01  0.41520003873E+01  0.44672452656E+01  0.63638434791E+01  0.51100000000E-03 0. -1.
         12    1    3    3    0    0 -0.28857739231E+02  0.17437027077E+02 -0.17650675809E+02  0.38057395908E+02  0.00000000000E+00 0. -1.
</event>
<event>
 7    1  0.5837204E-012  0.5930196E+02  0.7816164E-02  0.1266605E+00
        -11   -1    0    0    0    0  0.00000000000E+00  0.00000000000E+00  0.45593999997E+02  0.45594000000E+02  0.51100000000E-03 0. -1.
         11   -1    0    0    0    0 -0.00000000000E+00 -0.00000000000E+00 -0.45593999997E+02  0.45594000000E+02  0.51100000000E-03 0.  1.
    9900012    2    1    2    0    0  0.31668556584E+02  0.33464709314E+01 -0.16196026696E+01  0.59301961416E+02  0.50000031712E+02 0.  0.
         12    1    1    2    0    0 -0.31668556584E+02 -0.33464709314E+01  0.16196026696E+01  0.31886038584E+02  0.00000000000E+00 0. -1.
         11    1    3    3    0    0 -0.15230706482E+01 -0.15955420166E+02 -0.63030253407E+01  0.17222755459E+02  0.51100000000E-03 0. -1.
        -11    1    3    3    0    0  0.45241477148E+01 -0.30360008479E+01  0.10849049237E+00  0.54494939344E+01  0.51100000000E-03 0.  1.
        -12    1    3    3    0    0  0.28667479517E+02  0.22337891946E+02  0.45749321788E+01  0.36629712023E+02  0.00000000000E+00 0.  1.
</event>
<event>
 7    1  0.5837204E-012  0.5930194E+02  0.7816164E-02  0.1266605E+00
        -11   -1    0    0    0    0  0.00000000000E+00  0.00000000000E+00  0.45593999997E+02  0.45594000000E+02  0.51100000000E-03 0. -1.
         11   -1    0    0    0    0 -0.00000000000E+00 -0.00000000000E+00 -0.45593999997E+02  0.45594000000E+02  0.51100000000E-03 0.  1.
    9900012    2    1    2    0    0  0.98965292757E+01 -0.15736072573E+02 -0.25906665796E+02  0.59301943417E+02  0.49999998887E+02 0.  0.
         12    1    1    2    0    0 -0.98965292757E+01  0.15736072573E+02  0.25906665796E+02  0.31886056583E+02  0.00000000000E+00 0. -1.
         11    1    3    3    0    0  0.63680595280E+00  0.48071987048E+01 -0.29781245274E+01  0.56906860018E+01  0.51100000000E-03 0. -1.
        -11    1    3    3    0    0  0.99968989162E+01  0.27838580656E+01 -0.27883818995E+02  0.29752230432E+02  0.51100000000E-03 0.  1.
         12    1    3    3    0    0 -0.73717559338E+00 -0.23327129343E+02  0.49552777264E+01  0.23859026984E+02  0.00000000000E+00 0. -1.
</event>
<event>
 7    1  0.5837204E-012  0.5930193E+02  0.7816164E-02  0.1266605E+00
        -11   -1    0    0    0    0  0.00000000000E+00  0.00000000000E+00  0.45593999997E+02  0.45594000000E+02  0.51100000000E-03 0.  1.
         11   -1    0    0    0    0 -0.00000000000E+00 -0.00000000000E+00 -0.45593999997E+02  0.45594000000E+02  0.51100000000E-03 0. -1.
    9900012    2    1    2    0    0  0.44682357843E-01  0.86969556340E+01  0.30677064933E+02  0.59301931777E+02  0.49999977657E+02 0.  0.
         12    1    1    2    0    0 -0.44682357843E-01 -0.86969556340E+01 -0.30677064933E+02  0.31886068223E+02  0.00000000000E+00 0. -1.
         11    1    3    3    0    0 -0.14424621543E+02 -0.77386410017E+00  0.11576534004E+02  0.18511745248E+02  0.51100000000E-03 0. -1.
        -11    1    3    3    0    0  0.10059036217E+02 -0.69695193961E+01  0.20324823008E+02  0.23724604123E+02  0.51100000000E-03 0.  1.
        -12    1    3    3    0    0  0.44102676839E+01  0.16440339130E+02 -0.12242920790E+01  0.17065582406E+02  0.00000000000E+00 0.  1.
</event>
<event>
 7    1  0.5837204E-012  0.5930194E+02  0.7816164E-02  0.1266605E+00
        -11   -1    0    0    0    0  0.00000000000E+00  0.00000000000E+00  0.45593999997E+02  0.45594000000E+02  0.51100000000E-03 0. -1.
         11   -1    0    0    0    0 -0.00000000000E+00 -0.00000000000E+00 -0.45593999997E+02  0.45594000000E+02  0.51100000000E-03 0.  1.
    9900012    2    1    2    0    0  0.29714869155E+02  0.10780226698E+02 -0.41873918939E+01  0.59301937411E+02  0.49999987933E+02 0.  0.
         12    1    1    2    0    0 -0.29714869155E+02 -0.10780226698E+02  0.41873918939E+01  0.31886062589E+02  0.00000000000E+00 0. -1.
         11    1    3    3    0    0  0.30844576845E+01  0.11274825406E+02  0.19516293980E+02  0.22749094447E+02  0.51100000000E-03 0. -1.
        -11    1    3    3    0    0  0.12124155089E+02  0.35736502715E+01 -0.91374902753E+01  0.15596789467E+02  0.51100000000E-03 0.  1.
        -12    1    3    3    0    0  0.14506256381E+02 -0.40682489793E+01 -0.14566195599E+02  0.20956053497E+02  0.00000000000E+00 0.  1.
</event>
<event>
 7    1  0.5837204E-012  0.5930190E+02  0.7816164E-02  0.1266605E+00
        -11   -1    0    0    0    0  0.00000000000E+00  0.00000000000E+00  0.45593999997E+02  0.45594000000E+02  0.51100000000E-03 0.  1.
         11   -1    0    0    0    0 -0.00000000000E+00 -0.00000000000E+00 -0.45593999997E+02  0.45594000000E+02  0.51100000000E-03 0. -1.
    9900012    2    1    2    0    0 -0.27233260366E+02 -0.16582088316E+02  0.32704089209E+00  0.59301904616E+02  0.49999928123E+02 0.  0.
         12    1    1    2    0    0  0.27233260366E+02  0.16582088316E+02 -0.32704089209E+00  0.31886095384E+02  0.00000000000E+00 0. -1.
         11    1    3    3    0    0 -0.12494083731E+02 -0.11530980018E+02  0.77199795412E+01  0.18672539004E+02  0.51100000000E-03 0. -1.
        -11    1    3    3    0    0  0.79196257203E+01 -0.13535372055E+02 -0.41170611666E+01  0.16213480845E+02  0.51100000000E-03 0.  1.
         12    1    3    3    0    0 -0.22658802355E+02  0.84842637572E+01 -0.32758774825E+01  0.24415884767E+02  0.00000000000E+00 0. -1.
</event>
<event>
 7    1  0.5837204E-012  0.5930206E+02  0.7816164E-02  0.1266604E+00
        -11   -1    0    0    0    0  0.00000000000E+00  0.00000000000E+00  0.45593999997E+02  0.45594000000E+02  0.51100000000E-03 0.  1.
         11   -1    0    0    0    0 -0.00000000000E+00 -0.00000000000E+00 -0.45593999997E+02  0.45594000000E+02  0.51100000000E-03 0. -1.
    9900012    2    1    2    0    0 -0.14542989683E+02 -0.12312401958E+02  0.25565986619E+02  0.59302055405E+02  0.50000203126E+02 0.  0.
         12    1    1    2    0    0  0.14542989683E+02  0.12312401958E+02 -0.25565986619E+02  0.31885944595E+02  0.00000000000E+00 0. -1.
         11    1    3    3    0    0 -0.66243542133E+00  0.30366174186E+01 -0.24919455975E+01  0.39836740776E+01  0.51100000000E-03 0. -1.
        -11    1    3    3    0    0  0.15541228698E+02 -0.66293276022E+01  0.11621750653E+02  0.20507141741E+02  0.51100000000E-03 0.  1.
        -12    1    3    3    0    0 -0.29421782959E+02 -0.87196917742E+01  0.16436181564E+02  0.34811239586E+02  0.00000000000E+00 0.  1.
</event>
<event>
 7    1  0.5837204E-012  0.5930194E+02  0.7816164E-02  0.1266605E+00
        -11   -1    0    0    0    0  0.00000000000E+00  0.00000000000E+00  0.45593999997E+02  0.45594000000E+02  0.51100000000E-03 0. -1.
         11   -1    0    0    0    0 -0.00000000000E+00 -0.00000000000E+00 -0.45593999997E+02  0.45594000000E+02  0.51100000000E-03 0.  1.
    9900012    2    1    2    0    0 -0.22101374882E+02 -0.22481417397E+02 -0.47786755497E+01  0.59301942861E+02  0.49999997871E+02 0.  0.
         12    1    1    2    0    0  0.22101374882E+02  0.22481417397E+02  0.47786755497E+01  0.31886057139E+02  0.00000000000E+00 0. -1.
         11    1    3    3    0    0  0.16491437981E+01 -0.21214471397E+02  0.68228266232E+01  0.22345568584E+02  0.51100000000E-03 0. -1.
        -11    1    3    3    0    0  0.35857982897E+01  0.27992251322E+01 -0.78404440585E+01  0.90645559191E+01  0.51100000000E-03 0.  1.
         12    1    3    3    0    0 -0.27336316970E+02 -0.40661711322E+01 -0.37610581143E+01  0.27891818358E+02  0.00000000000E+00 0. -1.
</event>
<event>
 7    1  0.5837204E-012  0.5930191E+02  0.7816164E-02  0.1266605E+00
        -11   -1    0    0    0    0  0.00000000000E+00  0.00000000000E+00  0.45593999997E+02  0.45594000000E+02  0.51100000000E-03 0.  1.
         11   -1    0    0    0    0 -0.00000000000E+00 -0.00000000000E+00 -0.45593999997E+02  0.45594000000E+02  0.51100000000E-03 0. -1.
    9900012    2    1    2    0    0 -0.24666697758E+02 -0.19533024462E+02  0.51708414909E+01  0.59301911738E+02  0.49999941111E+02 0.  0.
         12    1    1    2    0    0  0.24666697758E+02  0.19533024462E+02 -0.51708414909E+01  0.31886088262E+02  0.00000000000E+00 0. -1.
         11    1    3    3    0    0 -0.23939433209E+02 -0.80029202260E+01 -0.10607689164E+02  0.27380034042E+02  0.51100000000E-03 0. -1.
        -11    1    3    3    0    0  0.83564639008E+01  0.33551322387E+01  0.99321338073E+00  0.90594632482E+01  0.51100000000E-03 0.  1.
        -12    1    3    3    0    0 -0.90837284500E+01 -0.14885236475E+02  0.14785317274E+02  0.22862414447E+02  0.00000000000E+00 0.  1.
</event>
<event>
 7    1  0.5837204E-012  0.5930194E+02  0.7816164E-02  0.1266605E+00
        -11   -1    0    0    0    0  0.00000000000E+00  0.00000000000E+00  0.45593999997E+02  0.45594000000E+02  0.51100000000E-03 0. -1.
         11   -1    0    0    0    0 -0.00000000000E+00 -0.00000000000E+00 -0.45593999997E+02  0.45594000000E+02  0.51100000000E-03 0.  1.
    9900012    2    1    2    0    0  0.36519301506E-01 -0.30228121113E+02 -0.10147917789E+02  0.59301939172E+02  0.49999991145E+02 0.  0.
         12    1    1    2    0    0 -0.36519301506E-01  0.30228121113E+02  0.10147917789E+02  0.31886060828E+02  0.00000000000E+00 0. -1.
         11    1    3    3    0    0  0.17725392581E+02 -0.26937536079E+01 -0.49006441047E+01  0.18586612482E+02  0.51100000000E-03 0. -1.
        -11    1    3    3    0    0  0.34900397649E+01 -0.15401336500E+02 -0.39203170370E+01  0.16271153293E+02  0.51100000000E-03 0.  1.
         12    1    3    3    0    0 -0.21178913045E+02 -0.12133031004E+02 -0.13269566473E+01  0.24444173397E+02  0.00000000000E+00 0. -1.
</event>
<event>
 7    1  0.5837204E-012  0.5930193E+02  0.7816164E-02  0.1266605E+00
        -11   -1    0    0    0    0  0.00000000000E+00  0.00000000000E+00  0.45593999997E+02  0.45594000000E+02  0.51100000000E-03 0. -1.
         11   -1    0    0    0    0 -0.00000000000E+00 -0.00000000000E+00 -0.45593999997E+02  0.45594000000E+02  0.51100000000E-03 0.  1.
    9900012    2    1    2    0    0 -0.17352511400E+02  0.26448111104E+02 -0.40136558297E+01  0.59301926771E+02  0.49999968527E+02 0.  0.
         12    1    1    2    0    0  0.17352511400E+02 -0.26448111104E+02  0.40136558297E+01  0.31886073229E+02  0.00000000000E+00 0. -1.
         11    1    3    3    0    0 -0.22754796503E+01  0.23322968688E+02 -0.12223363736E+01  0.23465565890E+02  0.51100000000E-03 0. -1.
        -11    1    3    3    0    0 -0.15199899851E+02  0.10110266324E+02  0.10326941042E+02  0.20973796799E+02  0.51100000000E-03 0.  1.
         12    1    3    3    0    0  0.12286810141E+00 -0.69851239083E+01 -0.13118260498E+02  0.14862564081E+02  0.00000000000E+00 0. -1.
</event>
<event>
 7    1  0.5837204E-012  0.5930193E+02  0.7816164E-02  0.1266605E+00
        -11   -1    0    0    0    0  0.00000000000E+00  0.00000000000E+00  0.45593999997E+02  0.45594000000E+02  0.51100000000E-03 0.  1.
         11   -1    0    0    0    0 -0.00000000000E+00 -0.00000000000E+00 -0.45593999997E+02  0.45594000000E+02  0.51100000000E-03 0. -1.
    9900012    2    1    2    0    0  0.19452671998E+02 -0.16250541166E+02  0.19345144938E+02  0.59301934568E+02  0.49999982748E+02 0.  0.
         12    1    1    2    0    0 -0.19452671998E+02  0.16250541166E+02 -0.19345144938E+02  0.31886065432E+02  0.00000000000E+00 0. -1.
         11    1    3    3    0    0  0.28506030602E+01 -0.32940808826E+00 -0.85939198577E+01  0.90603480218E+01  0.51100000000E-03 0. -1.
        -11    1    3    3    0    0  0.25572474321E+02 -0.28488350378E+01  0.15047275451E+02  0.29807512521E+02  0.51100000000E-03 0.  1.
         12    1    3    3    0    0 -0.89704053824E+01 -0.13072298040E+02  0.12891789345E+02  0.20434074025E+02  0.00000000000E+00 0. -1.
</event>
<event>
 7    1  0.5837204E-012  0.5930192E+02  0.7816164E-02  0.1266605E+00
        -11   -1    0    0    0    0  0.00000000000E+00  0.00000000000E+00  0.45593999997E+02  0.45594000000E+02  0.51100000000E-03 0. -1.
         11   -1    0    0    0    0 -0.00000000000E+00 -0.00000000000E+00 -0.45593999997E+02  0.45594000000E+02  0.51100000000E-03 0.  1.
    9900012    2    1    2    0    0 -0.67835184577E+01  0.14502797780E+02 -0.27574894804E+02  0.59301920129E+02  0.49999956414E+02 0.  0.
         12    1    1    2    0    0  0.67835184577E+01 -0.14502797780E+02  0.27574894804E+02  0.31886079871E+02  0.00000000000E+00 0. -1.
         11    1    3    3    0    0  0.24547613746E+01  0.40189065184E+01  0.27934148474E+01  0.54754570385E+01  0.51100000000E-03 0. -1.
        -11    1    3    3    0    0  0.87721966151E+01 -0.11059391176E+02 -0.18673076041E+02  0.23408232221E+02  0.51100000000E-03 0.  1.
        -12    1    3    3    0    0 -0.18010476447E+02  0.21543282437E+02 -0.11695233611E+02  0.30418230869E+02  0.00000000000E+00 0.  1.
</event>
<event>
 7    1  0.5837204E-012  0.5930198E+02  0.7816164E-02  0.1266605E+00
        -11   -1    0    0    0    0  0.00000000000E+00  0.00000000000E+00  0.45593999997E+02  0.45594000000E+02  0.51100000000E-03 0.  1.
         11   -1    0    0    0    0 -0.00000000000E+00 -0.00000000000E+00 -0.45593999997E+02  0.45594000000E+02  0.51100000000E-03 0. -1.
    9900012    2    1    2    0    0 -0.29728594336E+02 -0.17058232683E+01  0.11402586391E+02  0.59301982208E+02  0.50000069632E+02 0.  0.
         12    1    1    2    0    0  0.29728594336E+02  0.17058232683E+01 -0.11402586391E+02  0.31886017792E+02  0.00000000000E+00 0. -1.
         11    1    3    3    0    0 -0.27054346084E+02 -0.10475651724E+02  0.51630907846E+01  0.29467514788E+02  0.51100000000E-03 0. -1.
        -11    1    3    3    0    0  0.18664441918E+01 -0.98387827946E+01  0.24268210628E+01  0.10304111875E+02  0.51100000000E-03 0.  1.
         12    1    3    3    0    0 -0.45406924431E+01  0.18608611250E+02  0.38126745440E+01  0.19530355545E+02  0.00000000000E+00 0. -1.
</event>
<event>
 7    1  0.5837204E-012  0.5930195E+02  0.7816164E-02  0.1266605E+00
        -11   -1    0    0    0    0  0.00000000000E+00  0.00000000000E+00  0.45593999997E+02  0.45594000000E+02  0.51100000000E-03 0.  1.
         11   -1    0    0    0    0 -0.00000000000E+00 -0.00000000000E+00 -0.45593999997E+02  0.45594000000E+02  0.51100000000E-03 0. -1.
    9900012    2    1    2    0    0 -0.25750857021E+02  0.20988951678E+01  0.18687114154E+02  0.59301949232E+02  0.50000009491E+02 0.  0.
         12    1    1    2    0    0  0.25750857021E+02 -0.20988951678E+01 -0.18687114154E+02  0.31886050768E+02  0.00000000000E+00 0. -1.
         11    1    3    3    0    0 -0.11106953980E+02 -0.54241235821E+01 -0.18463470715E+01  0.12497781448E+02  0.51100000000E-03 0. -1.
        -11    1    3    3    0    0 -0.25806159728E+02 -0.35954900070E+01  0.15232555206E+02  0.30181387752E+02  0.51100000000E-03 0.  1.
         12    1    3    3    0    0  0.11162256688E+02  0.11118508757E+02  0.53009060189E+01  0.16622780031E+02  0.00000000000E+00 0. -1.
</event>
<event>
 7    1  0.5837204E-012  0.5930195E+02  0.7816164E-02  0.1266605E+00
        -11   -1    0    0    0    0  0.00000000000E+00  0.00000000000E+00  0.45593999997E+02  0.45594000000E+02  0.51100000000E-03 0.  1.
         11   -1    0    0    0    0 -0.00000000000E+00 -0.00000000000E+00 -0.45593999997E+02  0.45594000000E+02  0.51100000000E-03 0. -1.
    9900012    2    1    2    0    0  0.19283907637E+02  0.18932177410E+02  0.16924061066E+02  0.59301948532E+02  0.50000008215E+02 0.  0.
         12    1    1    2    0    0 -0.19283907637E+02 -0.18932177410E+02 -0.16924061066E+02  0.31886051468E+02  0.00000000000E+00 0. -1.
         11    1    3    3    0    0  0.12020067447E+02 -0.60402387890E+01  0.48541610093E+01  0.14301377046E+02  0.51100000000E-03 0. -1.
        -11    1    3    3    0    0  0.14384954168E+00 -0.67662544357E+01  0.10428018034E+02  0.12431671334E+02  0.51100000000E-03 0.  1.
         12    1    3    3    0    0  0.71199906483E+01  0.31738670635E+02  0.16418820224E+01  0.32568900152E+02  0.00000000000E+00 0. -1.
</event>
<event>
 7    1  0.5837204E-012  0.5930193E+02  0.7816164E-02  0.1266605E+00
        -11   -1    0    0    0    0  0.00000000000E+00  0.00000000000E+00  0.45593999997E+02  0.45594000000E+02  0.51100000000E-03 0.  1.
         11   -1    0    0    0    0 -0.00000000000E+00 -0.00000000000E+00 -0.45593999997E+02  0.45594000000E+02  0.51100000000E-03 0. -1.
    9900012    2    1    2    0    0  0.13904804451E+02 -0.12862993566E+02  0.25649972186E+02  0.59301933083E+02  0.49999980040E+02 0.  0.
         12    1    1    2    0    0 -0.13904804451E+02  0.12862993566E+02 -0.25649972186E+02  0.31886066917E+02  0.00000000000E+00 0. -1.
         11    1    3    3    0    0  0.85796203458E+01  0.11171448997E+02 -0.40576587150E+01  0.14658640881E+02  0.51100000000E-03 0. -1.
        -11    1    3    3    0    0  0.26705324032E+01 -0.85946278284E+01 -0.20510684026E+01  0.92307233020E+01  0.51100000000E-03 0.  1.
         12    1    3    3    0    0  0.26546517018E+01 -0.15439814734E+02  0.31758699303E+02  0.35412568900E+02  0.00000000000E+00 0. -1.
</event>
<event>
 7    1  0.5837204E-012  0.5930195E+02  0.7816164E-02  0.1266605E+00
        -11   -1    0    0    0    0  0.00000000000E+00  0.00000000000E+00  0.45593999997E+02  0.45594000000E+02  0.51100000000E-03 0. -1.
         11   -1    0    0    0    0 -0.00000000000E+00 -0.00000000000E+00 -0.45593999997E+02  0.45594000000E+02  0.51100000000E-03 0.  1.
    9900012    2    1    2    0    0  0.15949155266E+02 -0.26817006965E+02 -0.65721275376E+01  0.59301948557E+02  0.50000008261E+02 0.  0.
         12    1    1    2    0    0 -0.15949155266E+02  0.26817006965E+02  0.65721275376E+01  0.31886051443E+02  0.00000000000E+00 0. -1.
         11    1    3    3    0    0  0.11267650139E+02  0.46307626804E+01  0.77351845770E+01  0.14430418682E+02  0.51100000000E-03 0. -1.
        -11    1    3    3    0    0  0.15382177704E+02 -0.15739005785E+02 -0.13560328889E+02  0.25849762356E+02  0.51100000000E-03 0.  1.
        -12    1    3    3    0    0 -0.10700672577E+02 -0.15708763860E+02 -0.74698322592E+00  0.19021767519E+02  0.00000000000E+00 0.  1.
</event>
<event>
 7    1  0.5837204E-012  0.5930201E+02  0.7816164E-02  0.1266605E+00
        -11   -1    0    0    0    0  0.00000000000E+00  0.00000000000E+00  0.45593999997E+02  0.45594000000E+02  0.51100000000E-03 0. -1.
         11   -1    0    0    0    0 -0.00000000000E+00 -0.00000000000E+00 -0.45593999997E+02  0.45594000000E+02  0.51100000000E-03 0.  1.
    9900012    2    1    2    0    0 -0.32594708185E+01 -0.19815874460E+02 -0.24767379406E+02  0.59302013842E+02  0.50000127325E+02 0.  0.
         12    1    1    2    0    0  0.32594708185E+01  0.19815874460E+02  0.24767379406E+02  0.31885986158E+02  0.00000000000E+00 0. -1.
         11    1    3    3    0    0  0.12630193424E+02 -0.32272310215E+01 -0.12445465408E+02  0.18022941366E+02  0.51100000000E-03 0. -1.
        -11    1    3    3    0    0  0.68100676049E+01 -0.13603930737E+02 -0.10134226287E+02  0.18279674368E+02  0.51100000000E-03 0.  1.
        -12    1    3    3    0    0 -0.22699731847E+02 -0.29847127011E+01 -0.21876877106E+01  0.22999398109E+02  0.00000000000E+00 0.  1.
</event>
<event>
 7    1  0.5837204E-012  0.5930191E+02  0.7816164E-02  0.1266605E+00
        -11   -1    0    0    0    0  0.00000000000E+00  0.00000000000E+00  0.45593999997E+02  0.45594000000E+02  0.51100000000E-03 0.  1.
         11   -1    0    0    0    0 -0.00000000000E+00 -0.00000000000E+00 -0.45593999997E+02  0.45594000000E+02  0.51100000000E-03 0. -1.
    9900012    2    1    2    0    0 -0.30894406962E+02 -0.77753603395E+01 -0.13423266824E+01  0.59301914463E+02  0.49999946082E+02 0.  0.
         12    1    1    2    0    0  0.30894406962E+02  0.77753603395E+01  0.13423266824E+01  0.31886085537E+02  0.00000000000E+00 0. -1.
         11    1    3    3    0    0 -0.69795296410E+01 -0.90404686160E+01 -0.14734159854E+02  0.18642407936E+02  0.51100000000E-03 0. -1.
        -11    1    3    3    0    0 -0.60639253108E+01 -0.13726321935E+02  0.64801436878E+01  0.16345499886E+02  0.51100000000E-03 0.  1.
        -12    1    3    3    0    0 -0.17850952010E+02  0.14991430211E+02  0.69116894836E+01  0.24314006641E+02  0.00000000000E+00 0.  1.
</event>
<event>
 7    1  0.5837204E-012  0.5930196E+02  0.7816164E-02  0.1266605E+00
        -11   -1    0    0    0    0  0.00000000000E+00  0.00000000000E+00  0.45593999997E+02  0.45594000000E+02  0.51100000000E-03 0. -1.
         11   -1    0    0    0    0 -0.00000000000E+00 -0.00000000000E+00 -0.45593999997E+02  0.45594000000E+02  0.51100000000E-03 0.  1.
    9900012    2    1    2    0    0 -0.28177402529E+02 -0.23585150878E+01 -0.14737393969E+02  0.59301962496E+02  0.50000033682E+02 0.  0.
         12    1    1    2    0    0  0.28177402529E+02  0.23585150878E+01  0.14737393969E+02  0.31886037504E+02  0.00000000000E+00 0. -1.
         11    1    3    3    0    0 -0.85482056102E+01  0.96101033662E+00  0.10191085105E+02  0.13336175460E+02  0.51100000000E-03 0. -1.
        -11    1    3    3    0    0 -0.90560085844E+01 -0.82472675298E+01  0.54636084398E+01  0.13411924941E+02  0.51100000000E-03 0.  1.
        -12    1    3    3    0    0 -0.10573188335E+02  0.49277421054E+01 -0.30392087514E+02  0.32553862094E+02  0.00000000000E+00 0.  1.
</event>
<event>
 7    1  0.5837204E-012  0.5930197E+02  0.7816164E-02  0.1266605E+00
        -11   -1    0    0    0    0  0.00000000000E+00  0.00000000000E+00  0.45593999997E+02  0.45594000000E+02  0.51100000000E-03 0.  1.
         11   -1    0    0    0    0 -0.00000000000E+00 -0.00000000000E+00 -0.45593999997E+02  0.45594000000E+02  0.51100000000E-03 0. -1.
    9900012    2    1    2    0    0  0.30815338320E+02  0.54841797656E+01 -0.60875012227E+01  0.59301968973E+02  0.50000045495E+02 0.  0.
         12    1    1    2    0    0 -0.30815338320E+02 -0.54841797656E+01  0.60875012227E+01  0.31886031027E+02  0.00000000000E+00 0. -1.
         11    1    3    3    0    0  0.31330223289E+01  0.59578207947E+01 -0.19765527980E+02  0.20880314991E+02  0.51100000000E-03 0. -1.
        -11    1    3    3    0    0 -0.35474199739E+01 -0.16142118738E+01  0.42797915740E+01  0.57884786104E+01  0.51100000000E-03 0.  1.
         12    1    3    3    0    0  0.31229735965E+02  0.11405708448E+01  0.93982351828E+01  0.32633175372E+02  0.00000000000E+00 0. -1.
</event>
<event>
 7    1  0.5837204E-012  0.5930192E+02  0.7816164E-02  0.1266605E+00
        -11   -1    0    0    0    0  0.00000000000E+00  0.00000000000E+00  0.45593999997E+02  0.45594000000E+02  0.51100000000E-03 0.  1.
         11   -1    0    0    0    0 -0.00000000000E+00 -0.00000000000E+00 -0.45593999997E+02  0.45594000000E+02  0.51100000000E-03 0. -1.
    9900012    2    1    2    0    0  0.10561387310E+02  0.77520304428E+01  0.29070344429E+02  0.59301924620E+02  0.49999964605E+02 0.  0.
         12    1    1    2    0    0 -0.10561387310E+02 -0.77520304428E+01 -0.29070344429E+02  0.31886075380E+02  0.00000000000E+00 0. -1.
         11    1    3    3    0    0 -0.89227642916E+01 -0.14763250129E+02  0.97671080329E+01  0.19823361889E+02  0.51100000000E-03 0. -1.
        -11    1    3    3    0    0 -0.10158076090E+01  0.22240737459E+00  0.65253395793E+01  0.66076763711E+01  0.51100000000E-03 0.  1.
        -12    1    3    3    0    0  0.20499959211E+02  0.22292873197E+02  0.12777896817E+02  0.32870886360E+02  0.00000000000E+00 0.  1.
</event>
<event>
 7    1  0.5837204E-012  0.5930191E+02  0.7816164E-02  0.1266605E+00
        -11   -1    0    0    0    0  0.00000000000E+00  0.00000000000E+00  0.45593999997E+02  0.45594000000E+02  0.51100000000E-03 0. -1.
         11   -1    0    0    0    0 -0.00000000000E+00 -0.00000000000E+00 -0.45593999997E+02  0.45594000000E+02  0.51100000000E-03 0.  1.
    9900012    2    1    2    0    0  0.31369272617E+02 -0.22765175779E+01  0.52449051706E+01  0.59301908564E+02  0.49999935322E+02 0.  0.
         12    1    1    2    0    0 -0.31369272617E+02  0.22765175779E+01 -0.52449051706E+01  0.31886091436E+02  0.00000000000E+00 0. -1.
         11    1    3    3    0    0  0.14546241815E+02 -0.13845952966E+02 -0.94965962530E+00  0.20104860560E+02  0.51100000000E-03 0. -1.
        -11    1    3    3    0    0 -0.61810847299E+01 -0.66717228757E+01 -0.41202341347E+00  0.91042549460E+01  0.51100000000E-03 0.  1.
         12    1    3    3    0    0  0.23004115532E+02  0.18241158264E+02  0.66065882093E+01  0.30092793058E+02  0.00000000000E+00 0. -1.
</event>
<event>
 7    1  0.5837204E-012  0.5930195E+02  0.7816164E-02  0.1266605E+00
        -11   -1    0    0    0    0  0.00000000000E+00  0.00000000000E+00  0.45593999997E+02  0.45594000000E+02  0.51100000000E-03 0.  1.
         11   -1    0    0    0    0 -0.00000000000E+00 -0.00000000000E+00 -0.45593999997E+02  0.45594000000E+02  0.51100000000E-03 0. -1.
    9900012    2    1    2    0    0  0.34226019576E+01 -0.28635801289E+02 -0.13601356540E+02  0.59301949455E+02  0.50000009898E+02 0.  0.
         12    1    1    2    0    0 -0.34226019576E+01  0.28635801289E+02  0.13601356540E+02  0.31886050545E+02  0.00000000000E+00 0. -1.
         11    1    3    3    0    0 -0.78682842667E+01 -0.20784420696E+02 -0.92629717771E+01  0.24077057282E+02  0.51100000000E-03 0. -1.
        -11    1    3    3    0    0 -0.10574399120E+02 -0.12537988516E+01 -0.61798465391E+01  0.12311800511E+02  0.51100000000E-03 0.  1.
        -12    1    3    3    0    0  0.21865285344E+02 -0.65975817418E+01  0.18414617762E+01  0.22913091662E+02  0.00000000000E+00 0.  1.
</event>
<event>
 7    1  0.5837204E-012  0.5930194E+02  0.7816164E-02  0.1266605E+00
        -11   -1    0    0    0    0  0.00000000000E+00  0.00000000000E+00  0.45593999997E+02  0.45594000000E+02  0.51100000000E-03 0.  1.
         11   -1    0    0    0    0 -0.00000000000E+00 -0.00000000000E+00 -0.45593999997E+02  0.45594000000E+02  0.51100000000E-03 0. -1.
    9900012    2    1    2    0    0  0.30762214114E+02 -0.77369944087E+00  0.83551541971E+01  0.59301936749E+02  0.49999986725E+02 0.  0.
         12    1    1    2    0    0 -0.30762214114E+02  0.77369944087E+00 -0.83551541971E+01  0.31886063251E+02  0.00000000000E+00 0. -1.
         11    1    3    3    0    0  0.28756867557E+01  0.11354931671E+02 -0.95215181961E+01  0.15095143477E+02  0.51100000000E-03 0. -1.
        -11    1    3    3    0    0 -0.30585626691E+01  0.36659683999E+01 -0.67386069130E+00  0.48216406339E+01  0.51100000000E-03 0.  1.
        -12    1    3    3    0    0  0.30945090027E+02 -0.15794599512E+02  0.18550533084E+02  0.39385152637E+02  0.00000000000E+00 0.  1.
</event>
<event>
 7    1  0.5837204E-012  0.5930192E+02  0.7816164E-02  0.1266605E+00
        -11   -1    0    0    0    0  0.00000000000E+00  0.00000000000E+00  0.45593999997E+02  0.45594000000E+02  0.51100000000E-03 0. -1.
         11   -1    0    0    0    0 -0.00000000000E+00 -0.00000000000E+00 -0.45593999997E+02  0.45594000000E+02  0.51100000000E-03 0.  1.
    9900012    2    1    2    0    0  0.21209169433E+02 -0.20644713764E+02 -0.11861231268E+02  0.59301923390E+02  0.49999962361E+02 0.  0.
         12    1    1    2    0    0 -0.21209169433E+02  0.20644713764E+02  0.11861231268E+02  0.31886076610E+02  0.00000000000E+00 0. -1.
         11    1    3    3    0    0 -0.23781682721E+01  0.27103930767E+01 -0.18460157837E+02  0.18809022904E+02  0.51100000000E-03 0. -1.
        -11    1    3    3    0    0  0.18166056435E+01  0.24701972613E+01  0.59680186243E+01  0.67096331595E+01  0.51100000000E-03 0.  1.
        -12    1    3    3    0    0  0.21770732061E+02 -0.25825304102E+02  0.63090794469E+00  0.33783267327E+02  0.00000000000E+00 0.  1.
</event>
<event>
 7    1  0.5837204E-012  0.5930190E+02  0.7816164E-02  0.1266605E+00
        -11   -1    0    0    0    0  0.00000000000E+00  0.00000000000E+00  0.45593999997E+02  0.45594000000E+02  0.51100000000E-03 0.  1.
         11   -1    0    0    0    0 -0.00000000000E+00 -0.00000000000E+00 -0.45593999997E+02  0.45594000000E+02  0.51100000000E-03 0. -1.
    9900012    2    1    2    0    0 -0.31705019254E+02 -0.26806733892E+01  0.20806725619E+01  0.59301898733E+02  0.49999917394E+02 0.  0.
         12    1    1    2    0    0  0.31705019254E+02  0.26806733892E+01 -0.20806725619E+01  0.31886101267E+02  0.00000000000E+00 0. -1.
         11    1    3    3    0    0 -0.89101428994E+01  0.14944413797E+02  0.57867010700E+01  0.18336086271E+02  0.51100000000E-03 0.  1.
        -11    1    3    3    0    0  0.36970295923E+01  0.48001479989E+01 -0.11121522659E+01  0.61600593781E+01  0.51100000000E-03 0. -1.
        -12    1    3    3    0    0 -0.26491905946E+02 -0.22425235185E+02 -0.25938762422E+01  0.34805753084E+02  0.00000000000E+00 0.  1.
</event>
<event>
 7    1  0.5837204E-012  0.5930191E+02  0.7816164E-02  0.1266605E+00
        -11   -1    0    0    0    0  0.00000000000E+00  0.00000000000E+00  0.45593999997E+02  0.45594000000E+02  0.51100000000E-03 0. -1.
         11   -1    0    0    0    0 -0.00000000000E+00 -0.00000000000E+00 -0.45593999997E+02  0.45594000000E+02  0.51100000000E-03 0.  1.
    9900012    2    1    2    0    0  0.24778041064E+02  0.87692625139E+00 -0.20049996460E+02  0.59301910923E+02  0.49999939624E+02 0.  0.
         12    1    1    2    0    0 -0.24778041064E+02 -0.87692625139E+00  0.20049996460E+02  0.31886089077E+02  0.00000000000E+00 0. -1.
         11    1    3    3    0    0  0.14891430246E+02 -0.27116784259E+01  0.66541937586E+01  0.16534394137E+02  0.51100000000E-03 0. -1.
        -11    1    3    3    0    0  0.19138745367E+02  0.95183257178E+01 -0.12338278146E+02  0.24680421523E+02  0.51100000000E-03 0.  1.
        -12    1    3    3    0    0 -0.92521345490E+01 -0.59297210405E+01 -0.14365912073E+02  0.18087095262E+02  0.00000000000E+00 0.  1.
</event>
<event>
 7    1  0.5837204E-012  0.5930196E+02  0.7816164E-02  0.1266605E+00
        -11   -1    0    0    0    0  0.00000000000E+00  0.00000000000E+00  0.45593999997E+02  0.45594000000E+02  0.51100000000E-03 0.  1.
         11   -1    0    0    0    0 -0.00000000000E+00 -0.00000000000E+00 -0.45593999997E+02  0.45594000000E+02  0.51100000000E-03 0. -1.
    9900012    2    1    2    0    0  0.39554859649E+01  0.29496502324E+02  0.11446842476E+02  0.59301957266E+02  0.50000024143E+02 0.  0.
         12    1    1    2    0    0 -0.39554859649E+01 -0.29496502324E+02 -0.11446842476E+02  0.31886042734E+02  0.00000000000E+00 0. -1.
         11    1    3    3    0    0  0.63339679494E+01  0.26176209716E+02  0.44094213075E+01  0.27290219889E+02  0.51100000000E-03 0. -1.
        -11    1    3    3    0    0  0.10797267245E+02 -0.81285715211E+01  0.10391656920E+01  0.13554870731E+02  0.51100000000E-03 0.  1.
         12    1    3    3    0    0 -0.13175749230E+02  0.11448864129E+02  0.59982554769E+01  0.18456866645E+02  0.00000000000E+00 0. -1.
</event>
<event>
 7    1  0.5837204E-012  0.5930190E+02  0.7816164E-02  0.1266605E+00
        -11   -1    0    0    0    0  0.00000000000E+00  0.00000000000E+00  0.45593999997E+02  0.45594000000E+02  0.51100000000E-03 0.  1.
         11   -1    0    0    0    0 -0.00000000000E+00 -0.00000000000E+00 -0.45593999997E+02  0.45594000000E+02  0.51100000000E-03 0. -1.
    9900012    2    1    2    0    0  0.22292813849E+02  0.21936654567E+02  0.62078117702E+01  0.59301901307E+02  0.49999922087E+02 0.  0.
         12    1    1    2    0    0 -0.22292813849E+02 -0.21936654567E+02 -0.62078117702E+01  0.31886098693E+02  0.00000000000E+00 0. -1.
         11    1    3    3    0    0  0.22778387890E+02  0.61129108472E+01 -0.52472589153E+01  0.24161050479E+02  0.51100000000E-03 0.  1.
        -11    1    3    3    0    0 -0.92639735855E+01  0.14124166766E+02 -0.39335077206E+01  0.17343176660E+02  0.51100000000E-03 0. -1.
        -12    1    3    3    0    0  0.87783995453E+01  0.16995769538E+01  0.15388578406E+02  0.17797674167E+02  0.00000000000E+00 0.  1.
</event>
<event>
 7    1  0.5837204E-012  0.5930194E+02  0.7816164E-02  0.1266605E+00
        -11   -1    0    0    0    0  0.00000000000E+00  0.00000000000E+00  0.45593999997E+02  0.45594000000E+02  0.51100000000E-03 0. -1.
         11   -1    0    0    0    0 -0.00000000000E+00 -0.00000000000E+00 -0.45593999997E+02  0.45594000000E+02  0.51100000000E-03 0.  1.
    9900012    2    1    2    0    0  0.19526616625E+02 -0.96111308308E+01 -0.23303614369E+02  0.59301936660E+02  0.49999986563E+02 0.  0.
         12    1    1    2    0    0 -0.19526616625E+02  0.96111308308E+01  0.23303614369E+02  0.31886063340E+02  0.00000000000E+00 0. -1.
         11    1    3    3    0    0  0.77032697483E+01  0.60668118725E+01 -0.55680042726E+01  0.11276047311E+02  0.51100000000E-03 0. -1.
        -11    1    3    3    0    0 -0.12494723198E+02 -0.15994608521E+02 -0.74587198186E+01  0.21623554544E+02  0.51100000000E-03 0.  1.
         12    1    3    3    0    0  0.24318070074E+02  0.31666581757E+00 -0.10276890278E+02  0.26402334805E+02  0.00000000000E+00 0. -1.
</event>
<event>
 7    1  0.5837204E-012  0.5930195E+02  0.7816164E-02  0.1266605E+00
        -11   -1    0    0    0    0  0.00000000000E+00  0.00000000000E+00  0.45593999997E+02  0.45594000000E+02  0.51100000000E-03 0.  1.
         11   -1    0    0    0    0 -0.00000000000E+00 -0.00000000000E+00 -0.45593999997E+02  0.45594000000E+02  0.51100000000E-03 0. -1.
    9900012    2    1    2    0    0 -0.30434881952E+02 -0.94972339070E+01  0.49081254447E+00  0.59301946807E+02  0.50000005068E+02 0.  0.
         12    1    1    2    0    0  0.30434881952E+02  0.94972339070E+01 -0.49081254447E+00  0.31886053193E+02  0.00000000000E+00 0. -1.
         11    1    3    3    0    0 -0.88481858052E+01  0.75616597200E+01  0.38160156343E+01  0.12248716886E+02  0.51100000000E-03 0. -1.
        -11    1    3    3    0    0 -0.26015417872E+02 -0.15165194516E+01  0.80679842429E+01  0.27279922440E+02  0.51100000000E-03 0.  1.
         12    1    3    3    0    0  0.44287217258E+01 -0.15542374175E+02 -0.11393187333E+02  0.19773307481E+02  0.00000000000E+00 0. -1.
</event>
<event>
 7    1  0.5837204E-012  0.5930195E+02  0.7816164E-02  0.1266605E+00
        -11   -1    0    0    0    0  0.00000000000E+00  0.00000000000E+00  0.45593999997E+02  0.45594000000E+02  0.51100000000E-03 0. -1.
         11   -1    0    0    0    0 -0.00000000000E+00 -0.00000000000E+00 -0.45593999997E+02  0.45594000000E+02  0.51100000000E-03 0.  1.
    9900012    2    1    2    0    0 -0.56581486639E+01  0.24708293729E+02  0.19344401255E+02  0.59301948423E+02  0.50000008015E+02 0.  0.
         12    1    1    2    0    0  0.56581486639E+01 -0.24708293729E+02 -0.19344401255E+02  0.31886051577E+02  0.00000000000E+00 0. -1.
         11    1    3    3    0    0  0.13477397850E+02  0.18281630440E+02  0.19101891276E+02  0.29677272700E+02  0.51100000000E-03 0. -1.
        -11    1    3    3    0    0  0.48129653050E+01  0.76249883747E+00 -0.10373883220E+01  0.49821897089E+01  0.51100000000E-03 0.  1.
         12    1    3    3    0    0 -0.23948511819E+02  0.56641644515E+01  0.12798983007E+01  0.24642486013E+02  0.00000000000E+00 0. -1.
</event>
<event>
 7    1  0.5837204E-012  0.5930197E+02  0.7816164E-02  0.1266605E+00
        -11   -1    0    0    0    0  0.00000000000E+00  0.00000000000E+00  0.45593999997E+02  0.45594000000E+02  0.51100000000E-03 0.  1.
         11   -1    0    0    0    0 -0.00000000000E+00 -0.00000000000E+00 -0.45593999997E+02  0.45594000000E+02  0.51100000000E-03 0. -1.
    9900012    2    1    2    0    0 -0.20296008643E+02 -0.20259894165E+02  0.13940150366E+02  0.59301967468E+02  0.50000042749E+02 0.  0.
         12    1    1    2    0    0  0.20296008643E+02  0.20259894165E+02 -0.13940150366E+02  0.31886032532E+02  0.00000000000E+00 0. -1.
         11    1    3    3    0    0 -0.88728576393E+01 -0.28884902023E+01  0.26231156624E+01  0.96928692540E+01  0.51100000000E-03 0. -1.
        -11    1    3    3    0    0 -0.20577533901E+01 -0.30371750721E+02  0.81645301311E+00  0.30452326457E+02  0.51100000000E-03 0.  1.
         12    1    3    3    0    0 -0.93653976133E+01  0.13000346758E+02  0.10500581691E+02  0.19156771757E+02  0.00000000000E+00 0. -1.
</event>
<event>
 7    1  0.5837204E-012  0.5930194E+02  0.7816164E-02  0.1266605E+00
        -11   -1    0    0    0    0  0.00000000000E+00  0.00000000000E+00  0.45593999997E+02  0.45594000000E+02  0.51100000000E-03 0. -1.
         11   -1    0    0    0    0 -0.00000000000E+00 -0.00000000000E+00 -0.45593999997E+02  0.45594000000E+02  0.51100000000E-03 0.  1.
    9900012    2    1    2    0    0 -0.82408712645E+01  0.13987250971E+02 -0.27443858677E+02  0.59301944615E+02  0.50000001072E+02 0.  0.
         12    1    1    2    0    0  0.82408712645E+01 -0.13987250971E+02  0.27443858677E+02  0.31886055385E+02  0.00000000000E+00 0. -1.
         11    1    3    3    0    0 -0.48149131890E+01 -0.94910496117E+01 -0.34959601144E+01  0.11202015405E+02  0.51100000000E-03 0.  1.
        -11    1    3    3    0    0  0.23289686564E+01  0.12322309971E+02  0.72401527362E+01  0.14480443015E+02  0.51100000000E-03 0. -1.
        -12    1    3    3    0    0 -0.57549267319E+01  0.11155990612E+02 -0.31188051298E+02  0.33619486195E+02  0.00000000000E+00 0.  1.
</event>
<event>
 7    1  0.5837204E-012  0.5930184E+02  0.7816164E-02  0.1266605E+00
        -11   -1    0    0    0    0  0.00000000000E+00  0.00000000000E+00  0.45593999997E+02  0.45594000000E+02  0.51100000000E-03 0.  1.
         11   -1    0    0    0    0 -0.00000000000E+00 -0.00000000000E+00 -0.45593999997E+02  0.45594000000E+02  0.51100000000E-03 0. -1.
    9900012    2    1    2    0    0  0.23601796019E+02 -0.19694029387E+02  0.84751184251E+01  0.59301839975E+02  0.49999810232E+02 0.  0.
         12    1    1    2    0    0 -0.23601796019E+02  0.19694029387E+02 -0.84751184251E+01  0.31886160025E+02  0.00000000000E+00 0. -1.
         11    1    3    3    0    0  0.11066975427E+02 -0.41413570832E+01 -0.13208254573E+02  0.17722493411E+02  0.51100000000E-03 0. -1.
        -11    1    3    3    0    0  0.17451810673E+02 -0.86644322921E+00  0.19084430548E+02  0.25875314669E+02  0.51100000000E-03 0.  1.
         12    1    3    3    0    0 -0.49169900808E+01 -0.14686229074E+02  0.25989424505E+01  0.15704031894E+02  0.00000000000E+00 0. -1.
</event>
<event>
 7    1  0.5837204E-012  0.5930196E+02  0.7816164E-02  0.1266605E+00
        -11   -1    0    0    0    0  0.00000000000E+00  0.00000000000E+00  0.45593999997E+02  0.45594000000E+02  0.51100000000E-03 0.  1.
         11   -1    0    0    0    0 -0.00000000000E+00 -0.00000000000E+00 -0.45593999997E+02  0.45594000000E+02  0.51100000000E-03 0. -1.
    9900012    2    1    2    0    0 -0.20984243799E+02  0.31926665383E+01  0.23794699514E+02  0.59301963364E+02  0.50000035264E+02 0.  0.
         12    1    1    2    0    0  0.20984243799E+02 -0.31926665383E+01 -0.23794699514E+02  0.31886036636E+02  0.00000000000E+00 0. -1.
         11    1    3    3    0    0  0.56084510278E+01 -0.17217780374E+01  0.12339539064E+02  0.13663215841E+02  0.51100000000E-03 0.  1.
        -11    1    3    3    0    0 -0.16399476258E+02 -0.49095050269E+01 -0.10080965195E+02  0.19866351468E+02  0.51100000000E-03 0. -1.
         12    1    3    3    0    0 -0.10193218569E+02  0.98239496025E+01  0.21536125645E+02  0.25772396055E+02  0.00000000000E+00 0. -1.
</event>
<event>
 7    1  0.5837204E-012  0.5930195E+02  0.7816164E-02  0.1266605E+00
        -11   -1    0    0    0    0  0.00000000000E+00  0.00000000000E+00  0.45593999997E+02  0.45594000000E+02  0.51100000000E-03 0.  1.
         11   -1    0    0    0    0 -0.00000000000E+00 -0.00000000000E+00 -0.45593999997E+02  0.45594000000E+02  0.51100000000E-03 0. -1.
    9900012    2    1    2    0    0  0.74102603783E+01  0.82930032290E+01  0.29883680357E+02  0.59301949553E+02  0.50000010077E+02 0.  0.
         12    1    1    2    0    0 -0.74102603783E+01 -0.82930032290E+01 -0.29883680357E+02  0.31886050447E+02  0.00000000000E+00 0. -1.
         11    1    3    3    0    0  0.29242448949E+00  0.71882019093E+00 -0.11838567358E+02  0.11863974540E+02  0.51100000000E-03 0. -1.
        -11    1    3    3    0    0  0.10911410369E+02  0.47538263520E+01  0.10535815139E+02  0.15895318246E+02  0.51100000000E-03 0.  1.
        -12    1    3    3    0    0 -0.37935744803E+01  0.28203566861E+01  0.31186432575E+02  0.31542656767E+02  0.00000000000E+00 0.  1.
</event>
<event>
 7    1  0.5837204E-012  0.5930194E+02  0.7816164E-02  0.1266605E+00
        -11   -1    0    0    0    0  0.00000000000E+00  0.00000000000E+00  0.45593999997E+02  0.45594000000E+02  0.51100000000E-03 0. -1.
         11   -1    0    0    0    0 -0.00000000000E+00 -0.00000000000E+00 -0.45593999997E+02  0.45594000000E+02  0.51100000000E-03 0.  1.
    9900012    2    1    2    0    0 -0.30309527941E+02  0.76222886762E+01 -0.63209387046E+01  0.59301936669E+02  0.49999986579E+02 0.  0.
         12    1    1    2    0    0  0.30309527941E+02 -0.76222886762E+01  0.63209387046E+01  0.31886063331E+02  0.00000000000E+00 0. -1.
         11    1    3    3    0    0 -0.68625562514E-02 -0.23861616167E+00  0.12134625632E+02  0.12136973439E+02  0.51100000000E-03 0. -1.
        -11    1    3    3    0    0 -0.27395418340E+02 -0.68961652806E+01 -0.10405750986E+02  0.30105575819E+02  0.51100000000E-03 0.  1.
        -12    1    3    3    0    0 -0.29072470447E+01  0.14757070118E+02 -0.80498133506E+01  0.17059387411E+02  0.00000000000E+00 0.  1.
</event>
<event>
 7    1  0.5837204E-012  0.5930192E+02  0.7816164E-02  0.1266605E+00
        -11   -1    0    0    0    0  0.00000000000E+00  0.00000000000E+00  0.45593999997E+02  0.45594000000E+02  0.51100000000E-03 0. -1.
         11   -1    0    0    0    0 -0.00000000000E+00 -0.00000000000E+00 -0.45593999997E+02  0.45594000000E+02  0.51100000000E-03 0.  1.
    9900012    2    1    2    0    0 -0.28752058533E+02  0.13598048622E+02 -0.22658889097E+01  0.59301920768E+02  0.49999957580E+02 0.  0.
         12    1    1    2    0    0  0.28752058533E+02 -0.13598048622E+02  0.22658889097E+01  0.31886079232E+02  0.00000000000E+00 0. -1.
         11    1    3    3    0    0 -0.66456761687E+01  0.10289439495E+02  0.90216761154E+01  0.15212764938E+02  0.51100000000E-03 0. -1.
        -11    1    3    3    0    0 -0.10657887225E+02 -0.53140873963E+01  0.11896111711E+02  0.16832930793E+02  0.51100000000E-03 0.  1.
        -12    1    3    3    0    0 -0.11448495139E+02  0.86226965233E+01 -0.23183676737E+02  0.27256225038E+02  0.00000000000E+00 0.  1.
</event>
<event>
 7    1  0.5837204E-012  0.5930191E+02  0.7816164E-02  0.1266605E+00
        -11   -1    0    0    0    0  0.00000000000E+00  0.00000000000E+00  0.45593999997E+02  0.45594000000E+02  0.51100000000E-03 0.  1.
         11   -1    0    0    0    0 -0.00000000000E+00 -0.00000000000E+00 -0.45593999997E+02  0.45594000000E+02  0.51100000000E-03 0. -1.
    9900012    2    1    2    0    0 -0.60744073793E+00 -0.16335615228E+02  0.27377018785E+02  0.59301914215E+02  0.49999945629E+02 0.  0.
         12    1    1    2    0    0  0.60744073793E+00  0.16335615228E+02 -0.27377018785E+02  0.31886085785E+02  0.00000000000E+00 0. -1.
         11    1    3    3    0    0 -0.18223346983E+01 -0.15955394955E+02  0.66877582455E+01  0.17396023756E+02  0.51100000000E-03 0. -1.
        -11    1    3    3    0    0 -0.17340831777E+02 -0.29580347817E+01  0.83424593180E+01  0.19469233273E+02  0.51100000000E-03 0.  1.
         12    1    3    3    0    0  0.18555725738E+02  0.25778145082E+01  0.12346801221E+02  0.22436657186E+02  0.00000000000E+00 0. -1.
</event>
<event>
 7    1  0.5837204E-012  0.5930191E+02  0.7816164E-02  0.1266605E+00
        -11   -1    0    0    0    0  0.00000000000E+00  0.00000000000E+00  0.45593999997E+02  0.45594000000E+02  0.51100000000E-03 0.  1.
         11   -1    0    0    0    0 -0.00000000000E+00 -0.00000000000E+00 -0.45593999997E+02  0.45594000000E+02  0.51100000000E-03 0. -1.
    9900012    2    1    2    0    0  0.18696854969E+02  0.17885702792E+02 -0.18634692913E+02  0.59301913221E+02  0.49999943816E+02 0.  0.
         12    1    1    2    0    0 -0.18696854969E+02 -0.17885702792E+02  0.18634692913E+02  0.31886086779E+02  0.00000000000E+00 0. -1.
         11    1    3    3    0    0  0.18017292059E+01  0.14625568876E+02 -0.20766356833E+01  0.14881730716E+02  0.51100000000E-03 0.  1.
        -11    1    3    3    0    0  0.51229728559E+01  0.18045977282E+02 -0.17282271336E+02  0.25506451140E+02  0.51100000000E-03 0. -1.
         12    1    3    3    0    0  0.11772152907E+02 -0.14785843365E+02  0.72421410657E+00  0.18913731366E+02  0.00000000000E+00 0. -1.
</event>
<event>
 7    1  0.5837204E-012  0.5930195E+02  0.7816164E-02  0.1266605E+00
        -11   -1    0    0    0    0  0.00000000000E+00  0.00000000000E+00  0.45593999997E+02  0.45594000000E+02  0.51100000000E-03 0. -1.
         11   -1    0    0    0    0 -0.00000000000E+00 -0.00000000000E+00 -0.45593999997E+02  0.45594000000E+02  0.51100000000E-03 0.  1.
    9900012    2    1    2    0    0 -0.23143659471E+02 -0.10611413396E+02  0.19196069117E+02  0.59301950739E+02  0.50000012239E+02 0.  0.
         12    1    1    2    0    0  0.23143659471E+02  0.10611413396E+02 -0.19196069117E+02  0.31886049261E+02  0.00000000000E+00 0. -1.
         11    1    3    3    0    0 -0.21703296149E+01 -0.35129662080E+01  0.20277388092E+02  0.20693567366E+02  0.51100000000E-03 0. -1.
        -11    1    3    3    0    0  0.32040333307E+01 -0.10481001383E+02 -0.76038217119E+01  0.13339240026E+02  0.51100000000E-03 0.  1.
        -12    1    3    3    0    0 -0.24177363187E+02  0.33825541956E+01  0.65225027369E+01  0.25269143347E+02  0.00000000000E+00 0.  1.
</event>
<event>
 7    1  0.5837204E-012  0.5930195E+02  0.7816164E-02  0.1266605E+00
        -11   -1    0    0    0    0  0.00000000000E+00  0.00000000000E+00  0.45593999997E+02  0.45594000000E+02  0.51100000000E-03 0.  1.
         11   -1    0    0    0    0 -0.00000000000E+00 -0.00000000000E+00 -0.45593999997E+02  0.45594000000E+02  0.51100000000E-03 0. -1.
    9900012    2    1    2    0    0  0.81837759006E+01 -0.29348022174E+02  0.94042249895E+01  0.59301952249E+02  0.50000014993E+02 0.  0.
         12    1    1    2    0    0 -0.81837759006E+01  0.29348022174E+02 -0.94042249895E+01  0.31886047751E+02  0.00000000000E+00 0. -1.
         11    1    3    3    0    0  0.11921969969E+02  0.21323081982E+01 -0.10582618346E+02  0.16083280682E+02  0.51100000000E-03 0. -1.
        -11    1    3    3    0    0  0.35577809233E+01 -0.28605268058E+02  0.20481371973E+02  0.35361076963E+02  0.51100000000E-03 0.  1.
         12    1    3    3    0    0 -0.72959749915E+01 -0.28750623140E+01 -0.49452863795E+00  0.78575946040E+01  0.00000000000E+00 0. -1.
</event>
<event>
 7    1  0.5837204E-012  0.5930194E+02  0.7816164E-02  0.1266605E+00
        -11   -1    0    0    0    0  0.00000000000E+00  0.00000000000E+00  0.45593999997E+02  0.45594000000E+02  0.51100000000E-03 0.  1.
         11   -1    0    0    0    0 -0.00000000000E+00 -0.00000000000E+00 -0.45593999997E+02  0.45594000000E+02  0.51100000000E-03 0. -1.
    9900012    2    1    2    0    0  0.19129070824E+02  0.16367334369E+02  0.19568087469E+02  0.59301936710E+02  0.49999986655E+02 0.  0.
         12    1    1    2    0    0 -0.19129070824E+02 -0.16367334369E+02 -0.19568087469E+02  0.31886063290E+02  0.00000000000E+00 0. -1.
         11    1    3    3    0    0 -0.56091192570E+01 -0.65878970328E+01  0.39619920412E+01  0.95163011380E+01  0.51100000000E-03 0. -1.
        -11    1    3    3    0    0  0.12081668718E+02  0.23232703415E+02  0.23232160287E+02  0.35006549370E+02  0.51100000000E-03 0.  1.
         12    1    3    3    0    0  0.12656521363E+02 -0.27747201303E+00 -0.76260648594E+01  0.14779086202E+02  0.00000000000E+00 0. -1.
</event>
<event>
 7    1  0.5837204E-012  0.5930194E+02  0.7816164E-02  0.1266605E+00
        -11   -1    0    0    0    0  0.00000000000E+00  0.00000000000E+00  0.45593999997E+02  0.45594000000E+02  0.51100000000E-03 0.  1.
         11   -1    0    0    0    0 -0.00000000000E+00 -0.00000000000E+00 -0.45593999997E+02  0.45594000000E+02  0.51100000000E-03 0. -1.
    9900012    2    1    2    0    0 -0.16803318627E+01  0.30988777070E+02  0.73207189221E+01  0.59301941213E+02  0.49999994866E+02 0.  0.
         12    1    1    2    0    0  0.16803318627E+01 -0.30988777070E+02 -0.73207189221E+01  0.31886058787E+02  0.00000000000E+00 0. -1.
         11    1    3    3    0    0 -0.58236676064E+01 -0.70515293547E+01 -0.69888937915E+01  0.11510161047E+02  0.51100000000E-03 0. -1.
        -11    1    3    3    0    0  0.41534956798E+01  0.77324079127E+01  0.15108809202E+02  0.17473344678E+02  0.51100000000E-03 0.  1.
        -12    1    3    3    0    0 -0.10159936192E-01  0.30307898511E+02 -0.79919648829E+00  0.30318435488E+02  0.00000000000E+00 0.  1.
</event>
<event>
 7    1  0.5837204E-012  0.5930195E+02  0.7816164E-02  0.1266605E+00
        -11   -1    0    0    0    0  0.00000000000E+00  0.00000000000E+00  0.45593999997E+02  0.45594000000E+02  0.51100000000E-03 0. -1.
         11   -1    0    0    0    0 -0.00000000000E+00 -0.00000000000E+00 -0.45593999997E+02  0.45594000000E+02  0.51100000000E-03 0.  1.
    9900012    2    1    2    0    0  0.62402077754E+00  0.31787776408E+02  0.24223899842E+01  0.59301951262E+02  0.50000013194E+02 0.  0.
         12    1    1    2    0    0 -0.62402077754E+00 -0.31787776408E+02 -0.24223899842E+01  0.31886048738E+02  0.00000000000E+00 0. -1.
         11    1    3    3    0    0 -0.15011804754E+02 -0.40052702402E+00 -0.71771577437E+01  0.16644106987E+02  0.51100000000E-03 0. -1.
        -11    1    3    3    0    0 -0.49195635474E+01  0.33432125249E+01  0.28706593398E+01  0.66045333514E+01  0.51100000000E-03 0.  1.
        -12    1    3    3    0    0  0.20555389079E+02  0.28845090907E+02  0.67288883882E+01  0.36053310923E+02  0.00000000000E+00 0.  1.
</event>
<event>
 7    1  0.5837204E-012  0.5930195E+02  0.7816164E-02  0.1266605E+00
        -11   -1    0    0    0    0  0.00000000000E+00  0.00000000000E+00  0.45593999997E+02  0.45594000000E+02  0.51100000000E-03 0.  1.
         11   -1    0    0    0    0 -0.00000000000E+00 -0.00000000000E+00 -0.45593999997E+02  0.45594000000E+02  0.51100000000E-03 0. -1.
    9900012    2    1    2    0    0  0.27943274449E+02  0.53509483584E+01  0.14396560757E+02  0.59301949808E+02  0.50000010541E+02 0.  0.
         12    1    1    2    0    0 -0.27943274449E+02 -0.53509483584E+01 -0.14396560757E+02  0.31886050192E+02  0.00000000000E+00 0. -1.
         11    1    3    3    0    0 -0.16550764473E+00  0.37407974222E+01 -0.13219949958E+02  0.13740015840E+02  0.51100000000E-03 0. -1.
        -11    1    3    3    0    0  0.13623869342E+02 -0.79396790445E+01  0.40188497566E+01  0.16272660287E+02  0.51100000000E-03 0.  1.
        -12    1    3    3    0    0  0.14484912751E+02  0.95498299806E+01  0.23597660958E+02  0.29289273681E+02  0.00000000000E+00 0.  1.
</event>
<event>
 7    1  0.5837204E-012  0.5930197E+02  0.7816164E-02  0.1266605E+00
        -11   -1    0    0    0    0  0.00000000000E+00  0.00000000000E+00  0.45593999997E+02  0.45594000000E+02  0.51100000000E-03 0. -1.
         11   -1    0    0    0    0 -0.00000000000E+00 -0.00000000000E+00 -0.45593999997E+02  0.45594000000E+02  0.51100000000E-03 0.  1.
    9900012    2    1    2    0    0 -0.22760068189E+02  0.84804678385E+01 -0.20658643698E+02  0.59301974876E+02  0.50000056261E+02 0.  0.
         12    1    1    2    0    0  0.22760068189E+02 -0.84804678385E+01  0.20658643698E+02  0.31886025124E+02  0.00000000000E+00 0. -1.
         11    1    3    3    0    0  0.76430616129E+01  0.67003623474E+01 -0.52129922278E+01  0.11423070281E+02  0.51100000000E-03 0. -1.
        -11    1    3    3    0    0 -0.25251910128E+02  0.74216083610E+01 -0.24551216657E+02  0.35993075381E+02  0.51100000000E-03 0.  1.
         12    1    3    3    0    0 -0.51512196743E+01 -0.56415028700E+01  0.91055651866E+01  0.11885829215E+02  0.00000000000E+00 0. -1.
</event>
<event>
 7    1  0.5837204E-012  0.5930190E+02  0.7816164E-02  0.1266605E+00
        -11   -1    0    0    0    0  0.00000000000E+00  0.00000000000E+00  0.45593999997E+02  0.45594000000E+02  0.51100000000E-03 0.  1.
         11   -1    0    0    0    0 -0.00000000000E+00 -0.00000000000E+00 -0.45593999997E+02  0.45594000000E+02  0.51100000000E-03 0. -1.
    9900012    2    1    2    0    0 -0.29147448169E+02  0.23017630310E+01  0.12722081763E+02  0.59301902525E+02  0.49999924309E+02 0.  0.
         12    1    1    2    0    0  0.29147448169E+02 -0.23017630310E+01 -0.12722081763E+02  0.31886097475E+02  0.00000000000E+00 0. -1.
         11    1    3    3    0    0 -0.13236809155E+02 -0.14560912809E+01  0.35784950996E+01  0.13789087927E+02  0.51100000000E-03 0.  1.
        -11    1    3    3    0    0 -0.17899624719E+02 -0.16249081848E+02  0.76295386843E+01  0.25350327153E+02  0.51100000000E-03 0. -1.
         12    1    3    3    0    0  0.19889857047E+01  0.20006936160E+02  0.15140479786E+01  0.20162487444E+02  0.00000000000E+00 0. -1.
</event>
<event>
 7    1  0.5837204E-012  0.5930195E+02  0.7816164E-02  0.1266605E+00
        -11   -1    0    0    0    0  0.00000000000E+00  0.00000000000E+00  0.45593999997E+02  0.45594000000E+02  0.51100000000E-03 0. -1.
         11   -1    0    0    0    0 -0.00000000000E+00 -0.00000000000E+00 -0.45593999997E+02  0.45594000000E+02  0.51100000000E-03 0.  1.
    9900012    2    1    2    0    0  0.23272210815E+02 -0.15956897236E+01  0.21738865795E+02  0.59301948066E+02  0.50000007364E+02 0.  0.
         12    1    1    2    0    0 -0.23272210815E+02  0.15956897236E+01 -0.21738865795E+02  0.31886051934E+02  0.00000000000E+00 0. -1.
         11    1    3    3    0    0 -0.52268671109E+00 -0.10432417409E+01  0.19760831266E+02  0.19795252141E+02  0.51100000000E-03 0. -1.
        -11    1    3    3    0    0  0.37857418131E+01  0.81893792132E+01  0.12381219219E+02  0.15319672405E+02  0.51100000000E-03 0.  1.
        -12    1    3    3    0    0  0.20009155713E+02 -0.87418271959E+01 -0.10403184690E+02  0.24187023520E+02  0.00000000000E+00 0.  1.
</event>
<event>
 7    1  0.5837204E-012  0.5930195E+02  0.7816164E-02  0.1266605E+00
        -11   -1    0    0    0    0  0.00000000000E+00  0.00000000000E+00  0.45593999997E+02  0.45594000000E+02  0.51100000000E-03 0.  1.
         11   -1    0    0    0    0 -0.00000000000E+00 -0.00000000000E+00 -0.45593999997E+02  0.45594000000E+02  0.51100000000E-03 0. -1.
    9900012    2    1    2    0    0  0.23565871379E+02  0.65927325481E+01  0.20442750774E+02  0.59301945439E+02  0.50000002573E+02 0.  0.
         12    1    1    2    0    0 -0.23565871379E+02 -0.65927325481E+01 -0.20442750774E+02  0.31886054561E+02  0.00000000000E+00 0. -1.
         11    1    3    3    0    0 -0.67494293457E-01 -0.76983781960E+01  0.18161888733E+02  0.19726220747E+02  0.51100000000E-03 0. -1.
        -11    1    3    3    0    0 -0.60539615601E+01  0.41271357156E+01 -0.26905799012E+01  0.78053135909E+01  0.51100000000E-03 0.  1.
        -12    1    3    3    0    0  0.29687327232E+02  0.10163975029E+02  0.49714419417E+01  0.31770411101E+02  0.00000000000E+00 0.  1.
</event>
<event>
 7    1  0.5837204E-012  0.5930187E+02  0.7816164E-02  0.1266605E+00
        -11   -1    0    0    0    0  0.00000000000E+00  0.00000000000E+00  0.45593999997E+02  0.45594000000E+02  0.51100000000E-03 0.  1.
         11   -1    0    0    0    0 -0.00000000000E+00 -0.00000000000E+00 -0.45593999997E+02  0.45594000000E+02  0.51100000000E-03 0. -1.
    9900012    2    1    2    0    0  0.21635168989E+02  0.97515685351E+01  0.21296754826E+02  0.59301868340E+02  0.49999861964E+02 0.  0.
         12    1    1    2    0    0 -0.21635168989E+02 -0.97515685351E+01 -0.21296754826E+02  0.31886131660E+02  0.00000000000E+00 0. -1.
         11    1    3    3    0    0 -0.21495663764E+01  0.68830234219E+01 -0.83265003622E+01  0.11014865209E+02  0.51100000000E-03 0. -1.
        -11    1    3    3    0    0  0.23123509751E+02  0.13051416137E+02  0.15126396519E+02  0.30558861862E+02  0.51100000000E-03 0.  1.
        -12    1    3    3    0    0  0.66122561463E+00 -0.10182871024E+02  0.14496858669E+02  0.17728141269E+02  0.00000000000E+00 0.  1.
</event>
<event>
 7    1  0.5837204E-012  0.5930193E+02  0.7816164E-02  0.1266605E+00
        -11   -1    0    0    0    0  0.00000000000E+00  0.00000000000E+00  0.45593999997E+02  0.45594000000E+02  0.51100000000E-03 0.  1.
         11   -1    0    0    0    0 -0.00000000000E+00 -0.00000000000E+00 -0.45593999997E+02  0.45594000000E+02  0.51100000000E-03 0. -1.
    9900012    2    1    2    0    0 -0.68567441645E+01 -0.29246107495E+02  0.10694478622E+02  0.59301927537E+02  0.49999969924E+02 0.  0.
         12    1    1    2    0    0  0.68567441645E+01  0.29246107495E+02 -0.10694478622E+02  0.31886072463E+02  0.00000000000E+00 0. -1.
         11    1    3    3    0    0  0.24039587775E+01 -0.69254968103E+01  0.74648053131E+00  0.73687690504E+01  0.51100000000E-03 0. -1.
        -11    1    3    3    0    0  0.17536539208E+02 -0.71975242292E+01  0.93985245811E+01  0.21158138552E+02  0.51100000000E-03 0.  1.
         12    1    3    3    0    0 -0.26797242150E+02 -0.15123086456E+02  0.54947350960E+00  0.30775019934E+02  0.00000000000E+00 0. -1.
</event>
<event>
 7    1  0.5837204E-012  0.5930195E+02  0.7816164E-02  0.1266605E+00
        -11   -1    0    0    0    0  0.00000000000E+00  0.00000000000E+00  0.45593999997E+02  0.45594000000E+02  0.51100000000E-03 0.  1.
         11   -1    0    0    0    0 -0.00000000000E+00 -0.00000000000E+00 -0.45593999997E+02  0.45594000000E+02  0.51100000000E-03 0. -1.
    9900012    2    1    2    0    0  0.12633383893E+01  0.13501076600E+02  0.28859052030E+02  0.59301953250E+02  0.50000016820E+02 0.  0.
         12    1    1    2    0    0 -0.12633383893E+01 -0.13501076600E+02 -0.28859052030E+02  0.31886046750E+02  0.00000000000E+00 0. -1.
         11    1    3    3    0    0  0.40720346838E+01  0.20235761325E+02  0.18963966658E+02  0.28030332402E+02  0.51100000000E-03 0.  1.
        -11    1    3    3    0    0  0.51037017260E+01 -0.11118305045E+02  0.16159948021E+02  0.20268408884E+02  0.51100000000E-03 0. -1.
         12    1    3    3    0    0 -0.79123980205E+01  0.43836203199E+01 -0.62648626486E+01  0.11003211965E+02  0.00000000000E+00 0. -1.
</event>
<event>
 7    1  0.5837204E-012  0.5930195E+02  0.7816164E-02  0.1266605E+00
        -11   -1    0    0    0    0  0.00000000000E+00  0.00000000000E+00  0.45593999997E+02  0.45594000000E+02  0.51100000000E-03 0.  1.
         11   -1    0    0    0    0 -0.00000000000E+00 -0.00000000000E+00 -0.45593999997E+02  0.45594000000E+02  0.51100000000E-03 0. -1.
    9900012    2    1    2    0    0 -0.13040985424E+02  0.23196816472E+02  0.17565890376E+02  0.59301951327E+02  0.50000013312E+02 0.  0.
         12    1    1    2    0    0  0.13040985424E+02 -0.23196816472E+02 -0.17565890376E+02  0.31886048673E+02  0.00000000000E+00 0. -1.
         11    1    3    3    0    0  0.15643856609E+02  0.54660926295E+01  0.14046488378E+02  0.21723541476E+02  0.51100000000E-03 0. -1.
        -11    1    3    3    0    0 -0.16201575461E+02  0.44485903014E+01  0.82924243039E+01  0.18736203036E+02  0.51100000000E-03 0.  1.
        -12    1    3    3    0    0 -0.12483266572E+02  0.13282133542E+02 -0.47730223066E+01  0.18842206815E+02  0.00000000000E+00 0.  1.
</event>
<event>
 7    1  0.5837204E-012  0.5930195E+02  0.7816164E-02  0.1266605E+00
        -11   -1    0    0    0    0  0.00000000000E+00  0.00000000000E+00  0.45593999997E+02  0.45594000000E+02  0.51100000000E-03 0.  1.
         11   -1    0    0    0    0 -0.00000000000E+00 -0.00000000000E+00 -0.45593999997E+02  0.45594000000E+02  0.51100000000E-03 0. -1.
    9900012    2    1    2    0    0  0.70925653072E+01  0.29848606238E+02  0.86877260114E+01  0.59301947246E+02  0.50000005870E+02 0.  0.
         12    1    1    2    0    0 -0.70925653072E+01 -0.29848606238E+02 -0.86877260114E+01  0.31886052754E+02  0.00000000000E+00 0. -1.
         11    1    3    3    0    0 -0.13348324137E+01 -0.35779270041E+01  0.12004160810E+02  0.12596952657E+02  0.51100000000E-03 0. -1.
        -11    1    3    3    0    0  0.14524175852E+02  0.30780903449E+01 -0.51015137903E+01  0.15698782359E+02  0.51100000000E-03 0.  1.
         12    1    3    3    0    0 -0.60967781311E+01  0.30348442897E+02  0.17850789914E+01  0.31006212230E+02  0.00000000000E+00 0. -1.
</event>
<event>
 7    1  0.5837204E-012  0.5930196E+02  0.7816164E-02  0.1266605E+00
        -11   -1    0    0    0    0  0.00000000000E+00  0.00000000000E+00  0.45593999997E+02  0.45594000000E+02  0.51100000000E-03 0. -1.
         11   -1    0    0    0    0 -0.00000000000E+00 -0.00000000000E+00 -0.45593999997E+02  0.45594000000E+02  0.51100000000E-03 0.  1.
    9900012    2    1    2    0    0 -0.16888881123E+02  0.85411978378E+01 -0.25661898979E+02  0.59301961907E+02  0.50000032607E+02 0.  0.
         12    1    1    2    0    0  0.16888881123E+02 -0.85411978378E+01  0.25661898979E+02  0.31886038093E+02  0.00000000000E+00 0. -1.
         11    1    3    3    0    0 -0.58824988660E+01  0.52030505673E+01  0.34444061479E+01  0.85755152666E+01  0.51100000000E-03 0. -1.
        -11    1    3    3    0    0 -0.24373517695E+02 -0.37959955252E+01 -0.24790309162E+02  0.34971951268E+02  0.51100000000E-03 0.  1.
         12    1    3    3    0    0  0.13367135439E+02  0.71341427957E+01 -0.43159959646E+01  0.15754495372E+02  0.00000000000E+00 0. -1.
</event>
<event>
 7    1  0.5837204E-012  0.5930190E+02  0.7816164E-02  0.1266605E+00
        -11   -1    0    0    0    0  0.00000000000E+00  0.00000000000E+00  0.45593999997E+02  0.45594000000E+02  0.51100000000E-03 0.  1.
         11   -1    0    0    0    0 -0.00000000000E+00 -0.00000000000E+00 -0.45593999997E+02  0.45594000000E+02  0.51100000000E-03 0. -1.
    9900012    2    1    2    0    0  0.25024867909E+02 -0.10215283102E+02  0.16915303221E+02  0.59301897921E+02  0.49999915912E+02 0.  0.
         12    1    1    2    0    0 -0.25024867909E+02  0.10215283102E+02 -0.16915303221E+02  0.31886102079E+02  0.00000000000E+00 0. -1.
         11    1    3    3    0    0  0.28102709796E+02 -0.70643360170E+01  0.14407533977E+02  0.32361152279E+02  0.51100000000E-03 0. -1.
        -11    1    3    3    0    0 -0.23958621058E+01  0.52190804189E+01 -0.10201973519E+02  0.11707229373E+02  0.51100000000E-03 0.  1.
        -12    1    3    3    0    0 -0.68197978112E+00 -0.83700275037E+01  0.12709742763E+02  0.15233516270E+02  0.00000000000E+00 0.  1.
</event>
<event>
 7    1  0.5837204E-012  0.5930192E+02  0.7816164E-02  0.1266605E+00
        -11   -1    0    0    0    0  0.00000000000E+00  0.00000000000E+00  0.45593999997E+02  0.45594000000E+02  0.51100000000E-03 0.  1.
         11   -1    0    0    0    0 -0.00000000000E+00 -0.00000000000E+00 -0.45593999997E+02  0.45594000000E+02  0.51100000000E-03 0. -1.
    9900012    2    1    2    0    0  0.21517351049E+02 -0.16973515801E+02  0.16298027421E+02  0.59301916317E+02  0.49999949462E+02 0.  0.
         12    1    1    2    0    0 -0.21517351049E+02  0.16973515801E+02 -0.16298027421E+02  0.31886083683E+02  0.00000000000E+00 0. -1.
         11    1    3    3    0    0  0.81020276265E+01 -0.12491781847E+02  0.19049055170E+02  0.24177550920E+02  0.51100000000E-03 0.  1.
        -11    1    3    3    0    0  0.92580866138E+01 -0.17322369447E+02 -0.71906927304E+01  0.20916087426E+02  0.51100000000E-03 0. -1.
         12    1    3    3    0    0  0.41572368090E+01  0.12840635493E+02  0.44396649818E+01  0.14208277971E+02  0.00000000000E+00 0. -1.
</event>
<event>
 7    1  0.5837204E-012  0.5930198E+02  0.7816164E-02  0.1266605E+00
        -11   -1    0    0    0    0  0.00000000000E+00  0.00000000000E+00  0.45593999997E+02  0.45594000000E+02  0.51100000000E-03 0.  1.
         11   -1    0    0    0    0 -0.00000000000E+00 -0.00000000000E+00 -0.45593999997E+02  0.45594000000E+02  0.51100000000E-03 0. -1.
    9900012    2    1    2    0    0  0.12111907173E+02 -0.41547808000E+01  0.29202015025E+02  0.59301981428E+02  0.50000068208E+02 0.  0.
         12    1    1    2    0    0 -0.12111907173E+02  0.41547808000E+01 -0.29202015025E+02  0.31886018572E+02  0.00000000000E+00 0. -1.
         11    1    3    3    0    0  0.32741329516E+01 -0.11937925036E+02 -0.78996431208E+01  0.14684630143E+02  0.51100000000E-03 0. -1.
        -11    1    3    3    0    0  0.91709271733E+01  0.55977120109E+00  0.28634134973E+01  0.96238446648E+01  0.51100000000E-03 0.  1.
        -12    1    3    3    0    0 -0.33315295189E+00  0.72233730350E+01  0.34238244649E+02  0.34993506619E+02  0.00000000000E+00 0.  1.
</event>
<event>
 7    1  0.5837204E-012  0.5930194E+02  0.7816164E-02  0.1266605E+00
        -11   -1    0    0    0    0  0.00000000000E+00  0.00000000000E+00  0.45593999997E+02  0.45594000000E+02  0.51100000000E-03 0. -1.
         11   -1    0    0    0    0 -0.00000000000E+00 -0.00000000000E+00 -0.45593999997E+02  0.45594000000E+02  0.51100000000E-03 0.  1.
    9900012    2    1    2    0    0 -0.55115781838E+00  0.28656861971E+02  0.13971443354E+02  0.59301941254E+02  0.49999994941E+02 0.  0.
         12    1    1    2    0    0  0.55115781838E+00 -0.28656861971E+02 -0.13971443354E+02  0.31886058746E+02  0.00000000000E+00 0. -1.
         11    1    3    3    0    0  0.19674020721E+02  0.58067631220E+01  0.14554641347E+02  0.25152001398E+02  0.51100000000E-03 0. -1.
        -11    1    3    3    0    0 -0.95060749900E+00  0.25387393031E+01  0.49160623072E+01  0.56139576714E+01  0.51100000000E-03 0.  1.
        -12    1    3    3    0    0 -0.19274571041E+02  0.20311359546E+02 -0.54992603010E+01  0.28535982185E+02  0.00000000000E+00 0.  1.
</event>
<event>
 7    1  0.5837204E-012  0.5930194E+02  0.7816164E-02  0.1266605E+00
        -11   -1    0    0    0    0  0.00000000000E+00  0.00000000000E+00  0.45593999997E+02  0.45594000000E+02  0.51100000000E-03 0. -1.
         11   -1    0    0    0    0 -0.00000000000E+00 -0.00000000000E+00 -0.45593999997E+02  0.45594000000E+02  0.51100000000E-03 0.  1.
    9900012    2    1    2    0    0 -0.25308791717E+02 -0.19378235003E+02 -0.81838862653E+00  0.59301942076E+02  0.49999996440E+02 0.  0.
         12    1    1    2    0    0  0.25308791717E+02  0.19378235003E+02  0.81838862653E+00  0.31886057924E+02  0.00000000000E+00 0. -1.
         11    1    3    3    0    0 -0.13302470241E+01  0.15824635723E+01  0.12722694052E+02  0.12889557491E+02  0.51100000000E-03 0. -1.
        -11    1    3    3    0    0 -0.30848105778E+02 -0.14753116839E+02 -0.65632213099E+01  0.34818615147E+02  0.51100000000E-03 0.  1.
        -12    1    3    3    0    0  0.68695610848E+01 -0.62075817366E+01 -0.69778613686E+01  0.11593769439E+02  0.00000000000E+00 0.  1.
</event>
<event>
 7    1  0.5837204E-012  0.5930194E+02  0.7816164E-02  0.1266605E+00
        -11   -1    0    0    0    0  0.00000000000E+00  0.00000000000E+00  0.45593999997E+02  0.45594000000E+02  0.51100000000E-03 0. -1.
         11   -1    0    0    0    0 -0.00000000000E+00 -0.00000000000E+00 -0.45593999997E+02  0.45594000000E+02  0.51100000000E-03 0.  1.
    9900012    2    1    2    0    0  0.17068947714E+02 -0.20536719934E+02 -0.17424549734E+02  0.59301940740E+02  0.49999994004E+02 0.  0.
         12    1    1    2    0    0 -0.17068947714E+02  0.20536719934E+02  0.17424549734E+02  0.31886059260E+02  0.00000000000E+00 0. -1.
         11    1    3    3    0    0 -0.45005188273E+01 -0.59952722159E+01 -0.58108268230E+01  0.94849178851E+01  0.51100000000E-03 0. -1.
        -11    1    3    3    0    0  0.55569241990E+01 -0.27057487301E+02 -0.10195992810E+02  0.29443934779E+02  0.51100000000E-03 0.  1.
        -12    1    3    3    0    0  0.16012542342E+02  0.12516039583E+02 -0.14177301006E+01  0.20373088076E+02  0.00000000000E+00 0.  1.
</event>
<event>
 7    1  0.5837204E-012  0.5930181E+02  0.7816164E-02  0.1266605E+00
        -11   -1    0    0    0    0  0.00000000000E+00  0.00000000000E+00  0.45593999997E+02  0.45594000000E+02  0.51100000000E-03 0. -1.
         11   -1    0    0    0    0 -0.00000000000E+00 -0.00000000000E+00 -0.45593999997E+02  0.45594000000E+02  0.51100000000E-03 0.  1.
    9900012    2    1    2    0    0 -0.26288457983E+02 -0.81595971775E+01  0.16095566188E+02  0.59301807061E+02  0.49999750205E+02 0.  0.
         12    1    1    2    0    0  0.26288457983E+02  0.81595971775E+01 -0.16095566188E+02  0.31886192939E+02  0.00000000000E+00 0. -1.
         11    1    3    3    0    0  0.29586312561E+01 -0.27855802170E+01 -0.55997190287E+01  0.69188011618E+01  0.51100000000E-03 0. -1.
        -11    1    3    3    0    0 -0.88794819234E+01  0.18280820214E+00 -0.10581526857E+02  0.13814750412E+02  0.51100000000E-03 0.  1.
         12    1    3    3    0    0 -0.20367607316E+02 -0.55568251627E+01  0.32276812074E+02  0.38568255487E+02  0.00000000000E+00 0. -1.
</event>
<event>
 7    1  0.5837204E-012  0.5930194E+02  0.7816164E-02  0.1266605E+00
        -11   -1    0    0    0    0  0.00000000000E+00  0.00000000000E+00  0.45593999997E+02  0.45594000000E+02  0.51100000000E-03 0. -1.
         11   -1    0    0    0    0 -0.00000000000E+00 -0.00000000000E+00 -0.45593999997E+02  0.45594000000E+02  0.51100000000E-03 0.  1.
    9900012    2    1    2    0    0  0.38503789816E+01 -0.21110636783E+02 -0.23584667281E+02  0.59301938242E+02  0.49999989448E+02 0.  0.
         12    1    1    2    0    0 -0.38503789816E+01  0.21110636783E+02  0.23584667281E+02  0.31886061758E+02  0.00000000000E+00 0. -1.
         11    1    3    3    0    0 -0.99461268992E+01 -0.51331919114E+01 -0.48000042421E+01  0.12178470367E+02  0.51100000000E-03 0. -1.
        -11    1    3    3    0    0 -0.42062661470E+01  0.10397702565E+02 -0.37392808656E+01  0.11823160118E+02  0.51100000000E-03 0.  1.
        -12    1    3    3    0    0  0.18002772028E+02 -0.26375147437E+02 -0.15045382173E+02  0.35300307757E+02  0.00000000000E+00 0.  1.
</event>
<event>
 7    1  0.5837204E-012  0.5930195E+02  0.7816164E-02  0.1266605E+00
        -11   -1    0    0    0    0  0.00000000000E+00  0.00000000000E+00  0.45593999997E+02  0.45594000000E+02  0.51100000000E-03 0. -1.
         11   -1    0    0    0    0 -0.00000000000E+00 -0.00000000000E+00 -0.45593999997E+02  0.45594000000E+02  0.51100000000E-03 0.  1.
    9900012    2    1    2    0    0  0.27753179593E+02  0.77632879513E+01  0.13645979318E+02  0.59301947111E+02  0.50000005623E+02 0.  0.
         12    1    1    2    0    0 -0.27753179593E+02 -0.77632879513E+01 -0.13645979318E+02  0.31886052889E+02  0.00000000000E+00 0. -1.
         11    1    3    3    0    0  0.99663940871E+01  0.89235194841E+01  0.21835508158E+02  0.25607569737E+02  0.51100000000E-03 0. -1.
        -11    1    3    3    0    0  0.98673069769E+01  0.13082290037E+02 -0.39467116518E+01  0.16854868517E+02  0.51100000000E-03 0.  1.
         12    1    3    3    0    0  0.79194785285E+01 -0.14242521570E+02 -0.42428171878E+01  0.16839508856E+02  0.00000000000E+00 0. -1.
</event>
<event>
 7    1  0.5837204E-012  0.5930206E+02  0.7816164E-02  0.1266604E+00
        -11   -1    0    0    0    0  0.00000000000E+00  0.00000000000E+00  0.45593999997E+02  0.45594000000E+02  0.51100000000E-03 0.  1.
         11   -1    0    0    0    0 -0.00000000000E+00 -0.00000000000E+00 -0.45593999997E+02  0.45594000000E+02  0.51100000000E-03 0. -1.
    9900012    2    1    2    0    0  0.78767298735E+01  0.28268212295E+02  0.12473121849E+02  0.59302055314E+02  0.50000202959E+02 0.  0.
         12    1    1    2    0    0 -0.78767298735E+01 -0.28268212295E+02 -0.12473121849E+02  0.31885944686E+02  0.00000000000E+00 0. -1.
         11    1    3    3    0    0 -0.56101035645E+01  0.24074728235E+02 -0.24073274367E+01  0.24836687123E+02  0.51100000000E-03 0. -1.
        -11    1    3    3    0    0  0.12833411421E+02 -0.46512319379E+01 -0.34697323632E+01  0.14084369002E+02  0.51100000000E-03 0.  1.
        -12    1    3    3    0    0  0.65342201702E+00  0.88447159977E+01  0.18350181649E+02  0.20380999189E+02  0.00000000000E+00 0.  1.
</event>
<event>
 7    1  0.5837204E-012  0.5930193E+02  0.7816164E-02  0.1266605E+00
        -11   -1    0    0    0    0  0.00000000000E+00  0.00000000000E+00  0.45593999997E+02  0.45594000000E+02  0.51100000000E-03 0.  1.
         11   -1    0    0    0    0 -0.00000000000E+00 -0.00000000000E+00 -0.45593999997E+02  0.45594000000E+02  0.51100000000E-03 0. -1.
    9900012    2    1    2    0    0 -0.37815710826E+01  0.19311982832E+02  0.25089206324E+02  0.59301933533E+02  0.49999980861E+02 0.  0.
         12    1    1    2    0    0  0.37815710826E+01 -0.19311982832E+02 -0.25089206324E+02  0.31886066467E+02  0.00000000000E+00 0. -1.
         11    1    3    3    0    0 -0.19067352893E+02  0.12531627758E+01  0.10489156267E+02  0.21798090805E+02  0.51100000000E-03 0. -1.
        -11    1    3    3    0    0 -0.69260692638E+01  0.29836059880E+01  0.17476008801E+01  0.77412175552E+01  0.51100000000E-03 0.  1.
         12    1    3    3    0    0  0.22211851074E+02  0.15075214068E+02  0.12852449177E+02  0.29762625173E+02  0.00000000000E+00 0. -1.
</event>
<event>
 7    1  0.5837204E-012  0.5930194E+02  0.7816164E-02  0.1266605E+00
        -11   -1    0    0    0    0  0.00000000000E+00  0.00000000000E+00  0.45593999997E+02  0.45594000000E+02  0.51100000000E-03 0. -1.
         11   -1    0    0    0    0 -0.00000000000E+00 -0.00000000000E+00 -0.45593999997E+02  0.45594000000E+02  0.51100000000E-03 0.  1.
    9900012    2    1    2    0    0 -0.25454611406E+02  0.16881565203E+02 -0.91540367484E+01  0.59301939184E+02  0.49999991167E+02 0.  0.
         12    1    1    2    0    0  0.25454611406E+02 -0.16881565203E+02  0.91540367484E+01  0.31886060816E+02  0.00000000000E+00 0. -1.
         11    1    3    3    0    0 -0.92322058967E-01  0.17969980028E+02 -0.14838019615E+02  0.23304410139E+02  0.51100000000E-03 0. -1.
        -11    1    3    3    0    0 -0.35534391433E+01  0.10019231297E+02  0.43510378368E+01  0.11486664269E+02  0.51100000000E-03 0.  1.
         12    1    3    3    0    0 -0.21808850204E+02 -0.11107646122E+02  0.13329450298E+01  0.24510864776E+02  0.00000000000E+00 0. -1.
</event>
<event>
 7    1  0.5837204E-012  0.5930195E+02  0.7816164E-02  0.1266605E+00
        -11   -1    0    0    0    0  0.00000000000E+00  0.00000000000E+00  0.45593999997E+02  0.45594000000E+02  0.51100000000E-03 0.  1.
         11   -1    0    0    0    0 -0.00000000000E+00 -0.00000000000E+00 -0.45593999997E+02  0.45594000000E+02  0.51100000000E-03 0. -1.
    9900012    2    1    2    0    0  0.50607187559E+01  0.25545299493E+02  0.18399638118E+02  0.59301954724E+02  0.50000019507E+02 0.  0.
         12    1    1    2    0    0 -0.50607187559E+01 -0.25545299493E+02 -0.18399638118E+02  0.31886045276E+02  0.00000000000E+00 0. -1.
         11    1    3    3    0    0 -0.99562577281E+01 -0.49799291176E+01 -0.58235198565E+01  0.12563444820E+02  0.51100000000E-03 0. -1.
        -11    1    3    3    0    0 -0.25609085221E+01 -0.86134986122E-01  0.70147205269E+01  0.74680637401E+01  0.51100000000E-03 0.  1.
         12    1    3    3    0    0  0.17577885006E+02  0.30611363597E+02  0.17208437447E+02  0.39270446164E+02  0.00000000000E+00 0. -1.
</event>
<event>
 7    1  0.5837204E-012  0.5930201E+02  0.7816164E-02  0.1266605E+00
        -11   -1    0    0    0    0  0.00000000000E+00  0.00000000000E+00  0.45593999997E+02  0.45594000000E+02  0.51100000000E-03 0. -1.
         11   -1    0    0    0    0 -0.00000000000E+00 -0.00000000000E+00 -0.45593999997E+02  0.45594000000E+02  0.51100000000E-03 0.  1.
    9900012    2    1    2    0    0  0.12031324704E+01  0.31054113646E+02  0.71351794253E+01  0.59302011110E+02  0.50000122342E+02 0.  0.
         12    1    1    2    0    0 -0.12031324704E+01 -0.31054113646E+02 -0.71351794253E+01  0.31885988890E+02  0.00000000000E+00 0. -1.
         11    1    3    3    0    0  0.26665869953E+01  0.12505316468E+02 -0.37843277582E+01  0.13334720208E+02  0.51100000000E-03 0. -1.
        -11    1    3    3    0    0  0.80468797021E+01  0.29051833068E+02  0.10029797156E+02  0.31770396737E+02  0.51100000000E-03 0.  1.
         12    1    3    3    0    0 -0.95103342271E+01 -0.10503035890E+02  0.88971002727E+00  0.14196894166E+02  0.00000000000E+00 0. -1.
</event>
<event>
 7    1  0.5837204E-012  0.5930195E+02  0.7816164E-02  0.1266605E+00
        -11   -1    0    0    0    0  0.00000000000E+00  0.00000000000E+00  0.45593999997E+02  0.45594000000E+02  0.51100000000E-03 0.  1.
         11   -1    0    0    0    0 -0.00000000000E+00 -0.00000000000E+00 -0.45593999997E+02  0.45594000000E+02  0.51100000000E-03 0. -1.
    9900012    2    1    2    0    0 -0.31313068822E+01  0.57371979693E+01  0.31208965483E+02  0.59301952113E+02  0.50000014745E+02 0.  0.
         12    1    1    2    0    0  0.31313068822E+01 -0.57371979693E+01 -0.31208965483E+02  0.31886047887E+02  0.00000000000E+00 0. -1.
         11    1    3    3    0    0 -0.68023408120E+01 -0.80317525776E+01  0.95688056418E+01  0.14224729581E+02  0.51100000000E-03 0. -1.
        -11    1    3    3    0    0  0.29370061108E+01  0.67097409301E+01  0.31828603434E+02  0.32660474967E+02  0.51100000000E-03 0.  1.
         12    1    3    3    0    0  0.73402781903E+00  0.70592096168E+01 -0.10188443592E+02  0.12416747565E+02  0.00000000000E+00 0. -1.
</event>
<event>
 7    1  0.5837204E-012  0.5930191E+02  0.7816164E-02  0.1266605E+00
        -11   -1    0    0    0    0  0.00000000000E+00  0.00000000000E+00  0.45593999997E+02  0.45594000000E+02  0.51100000000E-03 0.  1.
         11   -1    0    0    0    0 -0.00000000000E+00 -0.00000000000E+00 -0.45593999997E+02  0.45594000000E+02  0.51100000000E-03 0. -1.
    9900012    2    1    2    0    0  0.14298379730E+02 -0.15000932627E+02  0.24233264344E+02  0.59301909877E+02  0.49999937717E+02 0.  0.
         12    1    1    2    0    0 -0.14298379730E+02  0.15000932627E+02 -0.24233264344E+02  0.31886090123E+02  0.00000000000E+00 0. -1.
         11    1    3    3    0    0  0.12019650530E+02  0.81565698457E+01 -0.27356605211E+01  0.14781253982E+02  0.51100000000E-03 0. -1.
        -11    1    3    3    0    0 -0.60401197623E+01 -0.71467076794E+01 -0.27503379699E+01  0.97530936942E+01  0.51100000000E-03 0.  1.
        -12    1    3    3    0    0  0.83188489616E+01 -0.16010794793E+02  0.29719262835E+02  0.34767562201E+02  0.00000000000E+00 0.  1.
</event>
<event>
 7    1  0.5837204E-012  0.5930158E+02  0.7816164E-02  0.1266606E+00
        -11   -1    0    0    0    0  0.00000000000E+00  0.00000000000E+00  0.45593999997E+02  0.45594000000E+02  0.51100000000E-03 0.  1.
         11   -1    0    0    0    0 -0.00000000000E+00 -0.00000000000E+00 -0.45593999997E+02  0.45594000000E+02  0.51100000000E-03 0. -1.
    9900012    2    1    2    0    0 -0.65333221361E+01 -0.60517037801E+01  0.30617581128E+02  0.59301581404E+02  0.49999338657E+02 0.  0.
         12    1    1    2    0    0  0.65333221361E+01  0.60517037801E+01 -0.30617581128E+02  0.31886418596E+02  0.00000000000E+00 0. -1.
         11    1    3    3    0    0  0.12155584580E+02 -0.36694525657E+01  0.20377145959E+02  0.24009398083E+02  0.51100000000E-03 0. -1.
        -11    1    3    3    0    0  0.22773271529E+01  0.51163376516E+01  0.11706535778E+02  0.12977137979E+02  0.51100000000E-03 0.  1.
        -12    1    3    3    0    0 -0.20966233869E+02 -0.74985888661E+01 -0.14661006101E+01  0.22315045342E+02  0.00000000000E+00 0.  1.
</event>
<event>
 7    1  0.5837204E-012  0.5930201E+02  0.7816164E-02  0.1266605E+00
        -11   -1    0    0    0    0  0.00000000000E+00  0.00000000000E+00  0.45593999997E+02  0.45594000000E+02  0.51100000000E-03 0.  1.
         11   -1    0    0    0    0 -0.00000000000E+00 -0.00000000000E+00 -0.45593999997E+02  0.45594000000E+02  0.51100000000E-03 0. -1.
    9900012    2    1    2    0    0 -0.22082512224E+02  0.19174071456E+02  0.12705676624E+02  0.59302006510E+02  0.50000113953E+02 0.  0.
         12    1    1    2    0    0  0.22082512224E+02 -0.19174071456E+02 -0.12705676624E+02  0.31885993490E+02  0.00000000000E+00 0. -1.
         11    1    3    3    0    0  0.28731384700E+01  0.98745740976E+01  0.18520475910E+02  0.21184196149E+02  0.51100000000E-03 0. -1.
        -11    1    3    3    0    0 -0.96757774809E+01  0.91932416839E+01  0.95785357245E+01  0.16428168170E+02  0.51100000000E-03 0.  1.
        -12    1    3    3    0    0 -0.15279873214E+02  0.10625567458E+00 -0.15393335010E+02  0.21689642192E+02  0.00000000000E+00 0.  1.
</event>
<event>
 7    1  0.5837204E-012  0.5930194E+02  0.7816164E-02  0.1266605E+00
        -11   -1    0    0    0    0  0.00000000000E+00  0.00000000000E+00  0.45593999997E+02  0.45594000000E+02  0.51100000000E-03 0.  1.
         11   -1    0    0    0    0 -0.00000000000E+00 -0.00000000000E+00 -0.45593999997E+02  0.45594000000E+02  0.51100000000E-03 0. -1.
    9900012    2    1    2    0    0 -0.26521833073E+01  0.22886709366E+02  0.22042800434E+02  0.59301943598E+02  0.49999999216E+02 0.  0.
         12    1    1    2    0    0  0.26521833073E+01 -0.22886709366E+02 -0.22042800434E+02  0.31886056402E+02  0.00000000000E+00 0. -1.
         11    1    3    3    0    0  0.41950709950E+01  0.15216136781E+02  0.19582724771E+02  0.25151790173E+02  0.51100000000E-03 0.  1.
        -11    1    3    3    0    0  0.35759882325E+01 -0.38446932670E+00  0.15322545542E+02  0.15738993317E+02  0.51100000000E-03 0. -1.
         12    1    3    3    0    0 -0.10423242535E+02  0.80550419114E+01 -0.12862469879E+02  0.18411160108E+02  0.00000000000E+00 0. -1.
</event>
<event>
 7    1  0.5837204E-012  0.5930193E+02  0.7816164E-02  0.1266605E+00
        -11   -1    0    0    0    0  0.00000000000E+00  0.00000000000E+00  0.45593999997E+02  0.45594000000E+02  0.51100000000E-03 0.  1.
         11   -1    0    0    0    0 -0.00000000000E+00 -0.00000000000E+00 -0.45593999997E+02  0.45594000000E+02  0.51100000000E-03 0. -1.
    9900012    2    1    2    0    0  0.20885053708E+02  0.15517213778E+02  0.18432356203E+02  0.59301934908E+02  0.49999983368E+02 0.  0.
         12    1    1    2    0    0 -0.20885053708E+02 -0.15517213778E+02 -0.18432356203E+02  0.31886065092E+02  0.00000000000E+00 0. -1.
         11    1    3    3    0    0 -0.15670719735E+01  0.72332688999E+01 -0.67682420851E+01  0.10029207084E+02  0.51100000000E-03 0. -1.
        -11    1    3    3    0    0 -0.74240718261E+01  0.92795758473E+01  0.36853055752E+01  0.12442220374E+02  0.51100000000E-03 0.  1.
        -12    1    3    3    0    0  0.29876197508E+02 -0.99563096877E+00  0.21515292713E+02  0.36830507451E+02  0.00000000000E+00 0.  1.
</event>
<event>
 7    1  0.5837204E-012  0.5930203E+02  0.7816164E-02  0.1266604E+00
        -11   -1    0    0    0    0  0.00000000000E+00  0.00000000000E+00  0.45593999997E+02  0.45594000000E+02  0.51100000000E-03 0.  1.
         11   -1    0    0    0    0 -0.00000000000E+00 -0.00000000000E+00 -0.45593999997E+02  0.45594000000E+02  0.51100000000E-03 0. -1.
    9900012    2    1    2    0    0 -0.17029589074E+02 -0.26377940070E+02  0.55598972566E+01  0.59302029984E+02  0.50000156763E+02 0.  0.
         12    1    1    2    0    0  0.17029589074E+02  0.26377940070E+02 -0.55598972566E+01  0.31885970016E+02  0.00000000000E+00 0. -1.
         11    1    3    3    0    0 -0.18627964586E+02 -0.69628371582E+01 -0.35339018899E+01  0.20198282817E+02  0.51100000000E-03 0. -1.
        -11    1    3    3    0    0 -0.15475457376E+02 -0.93004660817E+01  0.27106431017E+01  0.18257492616E+02  0.51100000000E-03 0.  1.
        -12    1    3    3    0    0  0.17073832889E+02 -0.10114636830E+02  0.63831560448E+01  0.20846254551E+02  0.00000000000E+00 0.  1.
</event>
<event>
 7    1  0.5837204E-012  0.5930194E+02  0.7816164E-02  0.1266605E+00
        -11   -1    0    0    0    0  0.00000000000E+00  0.00000000000E+00  0.45593999997E+02  0.45594000000E+02  0.51100000000E-03 0. -1.
         11   -1    0    0    0    0 -0.00000000000E+00 -0.00000000000E+00 -0.45593999997E+02  0.45594000000E+02  0.51100000000E-03 0.  1.
    9900012    2    1    2    0    0  0.68472765528E+00 -0.28372298004E+02  0.14534939889E+02  0.59301943117E+02  0.49999998339E+02 0.  0.
         12    1    1    2    0    0 -0.68472765528E+00  0.28372298004E+02 -0.14534939889E+02  0.31886056883E+02  0.00000000000E+00 0. -1.
         11    1    3    3    0    0  0.24697549403E+01 -0.63125305852E+01  0.12168308490E+02  0.13928943378E+02  0.51100000000E-03 0. -1.
        -11    1    3    3    0    0  0.10100400230E+02  0.25998423914E+01 -0.10785066961E+02  0.15003164162E+02  0.51100000000E-03 0.  1.
         12    1    3    3    0    0 -0.11885427515E+02 -0.24659609810E+02  0.13151698360E+02  0.30369835577E+02  0.00000000000E+00 0. -1.
</event>
<event>
 7    1  0.5837204E-012  0.5930196E+02  0.7816164E-02  0.1266605E+00
        -11   -1    0    0    0    0  0.00000000000E+00  0.00000000000E+00  0.45593999997E+02  0.45594000000E+02  0.51100000000E-03 0.  1.
         11   -1    0    0    0    0 -0.00000000000E+00 -0.00000000000E+00 -0.45593999997E+02  0.45594000000E+02  0.51100000000E-03 0. -1.
    9900012    2    1    2    0    0 -0.15734583362E+02 -0.25274589942E+02 -0.11416558023E+02  0.59301955915E+02  0.50000021679E+02 0.  0.
         12    1    1    2    0    0  0.15734583362E+02  0.25274589942E+02  0.11416558023E+02  0.31886044085E+02  0.00000000000E+00 0. -1.
         11    1    3    3    0    0 -0.58192919282E+00  0.11668274808E+01  0.60468928209E+01  0.61858743120E+01  0.51100000000E-03 0.  1.
        -11    1    3    3    0    0 -0.13091732479E+02 -0.55275297663E+01 -0.26633295909E+02  0.30187406245E+02  0.51100000000E-03 0. -1.
         12    1    3    3    0    0 -0.20609216908E+01 -0.20913887657E+02  0.91698450645E+01  0.22928675357E+02  0.00000000000E+00 0. -1.
</event>
<event>
 7    1  0.5837204E-012  0.5930193E+02  0.7816164E-02  0.1266605E+00
        -11   -1    0    0    0    0  0.00000000000E+00  0.00000000000E+00  0.45593999997E+02  0.45594000000E+02  0.51100000000E-03 0.  1.
         11   -1    0    0    0    0 -0.00000000000E+00 -0.00000000000E+00 -0.45593999997E+02  0.45594000000E+02  0.51100000000E-03 0. -1.
    9900012    2    1    2    0    0 -0.22982776216E+02 -0.82350431457E+01  0.20510906183E+02  0.59301933911E+02  0.49999981549E+02 0.  0.
         12    1    1    2    0    0  0.22982776216E+02  0.82350431457E+01 -0.20510906183E+02  0.31886066089E+02  0.00000000000E+00 0. -1.
         11    1    3    3    0    0 -0.89461534403E+01  0.33752181047E+01  0.25688063594E+02  0.27409895478E+02  0.51100000000E-03 0. -1.
        -11    1    3    3    0    0 -0.13433881620E+02 -0.62907132319E+01  0.85754236176E+01  0.17134180425E+02  0.51100000000E-03 0.  1.
         12    1    3    3    0    0 -0.60274115540E+00 -0.53195480186E+01 -0.13752581029E+02  0.14757858008E+02  0.00000000000E+00 0. -1.
</event>
<event>
 7    1  0.5837204E-012  0.5930192E+02  0.7816164E-02  0.1266605E+00
        -11   -1    0    0    0    0  0.00000000000E+00  0.00000000000E+00  0.45593999997E+02  0.45594000000E+02  0.51100000000E-03 0.  1.
         11   -1    0    0    0    0 -0.00000000000E+00 -0.00000000000E+00 -0.45593999997E+02  0.45594000000E+02  0.51100000000E-03 0. -1.
    9900012    2    1    2    0    0  0.93550287338E+01  0.97637161446E+01  0.28876896683E+02  0.59301923453E+02  0.49999962476E+02 0.  0.
         12    1    1    2    0    0 -0.93550287338E+01 -0.97637161446E+01 -0.28876896683E+02  0.31886076547E+02  0.00000000000E+00 0. -1.
         11    1    3    3    0    0  0.46534307321E+01  0.74838052232E+01  0.26946043026E+01  0.92153486535E+01  0.51100000000E-03 0. -1.
        -11    1    3    3    0    0  0.11235102489E+02 -0.17807492499E+02  0.91753827080E+01  0.22967846332E+02  0.51100000000E-03 0.  1.
        -12    1    3    3    0    0 -0.65335044874E+01  0.20087403420E+02  0.17006909672E+02  0.27118728467E+02  0.00000000000E+00 0.  1.
</event>
<event>
 7    1  0.5837204E-012  0.5930194E+02  0.7816164E-02  0.1266605E+00
        -11   -1    0    0    0    0  0.00000000000E+00  0.00000000000E+00  0.45593999997E+02  0.45594000000E+02  0.51100000000E-03 0.  1.
         11   -1    0    0    0    0 -0.00000000000E+00 -0.00000000000E+00 -0.45593999997E+02  0.45594000000E+02  0.51100000000E-03 0. -1.
    9900012    2    1    2    0    0  0.16613175817E+02 -0.25142332113E+02  0.10420488255E+02  0.59301936426E+02  0.49999986136E+02 0.  0.
         12    1    1    2    0    0 -0.16613175817E+02  0.25142332113E+02 -0.10420488255E+02  0.31886063574E+02  0.00000000000E+00 0. -1.
         11    1    3    3    0    0  0.12598313226E+02 -0.16579845868E+02  0.83753751561E+01  0.22444502543E+02  0.51100000000E-03 0. -1.
        -11    1    3    3    0    0 -0.46926012330E+01 -0.18719241985E+02 -0.71974222941E+01  0.20596927313E+02  0.51100000000E-03 0.  1.
        -12    1    3    3    0    0  0.87074638242E+01  0.10156755740E+02  0.92425353925E+01  0.16260506569E+02  0.00000000000E+00 0.  1.
</event>
<event>
 7    1  0.5837204E-012  0.5930194E+02  0.7816164E-02  0.1266605E+00
        -11   -1    0    0    0    0  0.00000000000E+00  0.00000000000E+00  0.45593999997E+02  0.45594000000E+02  0.51100000000E-03 0. -1.
         11   -1    0    0    0    0 -0.00000000000E+00 -0.00000000000E+00 -0.45593999997E+02  0.45594000000E+02  0.51100000000E-03 0.  1.
    9900012    2    1    2    0    0 -0.22784481413E+02 -0.10541103574E+02 -0.19658924451E+02  0.59301940846E+02  0.49999994197E+02 0.  0.
         12    1    1    2    0    0  0.22784481413E+02  0.10541103574E+02  0.19658924451E+02  0.31886059154E+02  0.00000000000E+00 0. -1.
         11    1    3    3    0    0  0.17047997741E+01  0.11436097179E+02 -0.95750728862E+01  0.15012417594E+02  0.51100000000E-03 0. -1.
        -11    1    3    3    0    0 -0.15587390431E+02  0.36396098486E+01 -0.36811243510E+01  0.16424499293E+02  0.51100000000E-03 0.  1.
         12    1    3    3    0    0 -0.89018907569E+01 -0.25616810602E+02 -0.64027272137E+01  0.27865023959E+02  0.00000000000E+00 0. -1.
</event>
<event>
 7    1  0.5837204E-012  0.5930194E+02  0.7816164E-02  0.1266605E+00
        -11   -1    0    0    0    0  0.00000000000E+00  0.00000000000E+00  0.45593999997E+02  0.45594000000E+02  0.51100000000E-03 0.  1.
         11   -1    0    0    0    0 -0.00000000000E+00 -0.00000000000E+00 -0.45593999997E+02  0.45594000000E+02  0.51100000000E-03 0. -1.
    9900012    2    1    2    0    0  0.28278942556E+02  0.12900049098E+01  0.14675084256E+02  0.59301940309E+02  0.49999993217E+02 0.  0.
         12    1    1    2    0    0 -0.28278942556E+02 -0.12900049098E+01 -0.14675084256E+02  0.31886059691E+02  0.00000000000E+00 0. -1.
         11    1    3    3    0    0  0.10426037113E+02 -0.54281843591E+01  0.16817862441E+02  0.20518477835E+02  0.51100000000E-03 0. -1.
        -11    1    3    3    0    0 -0.19196662116E+01  0.34134303265E+01  0.13053238389E+02  0.13628046730E+02  0.51100000000E-03 0.  1.
         12    1    3    3    0    0  0.19772571654E+02  0.33047589424E+01 -0.15196016575E+02  0.25155415743E+02  0.00000000000E+00 0. -1.
</event>
<event>
 7    1  0.5837204E-012  0.5930195E+02  0.7816164E-02  0.1266605E+00
        -11   -1    0    0    0    0  0.00000000000E+00  0.00000000000E+00  0.45593999997E+02  0.45594000000E+02  0.51100000000E-03 0. -1.
         11   -1    0    0    0    0 -0.00000000000E+00 -0.00000000000E+00 -0.45593999997E+02  0.45594000000E+02  0.51100000000E-03 0.  1.
    9900012    2    1    2    0    0  0.14156152087E+02 -0.15667388981E+01 -0.28528388695E+02  0.59301948595E+02  0.50000008329E+02 0.  0.
         12    1    1    2    0    0 -0.14156152087E+02  0.15667388981E+01  0.28528388695E+02  0.31886051405E+02  0.00000000000E+00 0. -1.
         11    1    3    3    0    0  0.10219315069E+02 -0.30158031780E+01 -0.58730023149E+01  0.12166413841E+02  0.51100000000E-03 0. -1.
        -11    1    3    3    0    0  0.10081324333E+02 -0.17421430010E+02 -0.17398588171E+02  0.26605454225E+02  0.51100000000E-03 0.  1.
        -12    1    3    3    0    0 -0.61444873154E+01  0.18870494290E+02 -0.52567982089E+01  0.20530080529E+02  0.00000000000E+00 0.  1.
</event>
<event>
 7    1  0.5837204E-012  0.5930187E+02  0.7816164E-02  0.1266605E+00
        -11   -1    0    0    0    0  0.00000000000E+00  0.00000000000E+00  0.45593999997E+02  0.45594000000E+02  0.51100000000E-03 0.  1.
         11   -1    0    0    0    0 -0.00000000000E+00 -0.00000000000E+00 -0.45593999997E+02  0.45594000000E+02  0.51100000000E-03 0. -1.
    9900012    2    1    2    0    0  0.13311067038E+02  0.24544473699E+02  0.15398361632E+02  0.59301870793E+02  0.49999866438E+02 0.  0.
         12    1    1    2    0    0 -0.13311067038E+02 -0.24544473699E+02 -0.15398361632E+02  0.31886129207E+02  0.00000000000E+00 0. -1.
         11    1    3    3    0    0 -0.39885537415E+00 -0.94714001326E+00  0.81977159485E+01  0.82618827665E+01  0.51100000000E-03 0. -1.
        -11    1    3    3    0    0  0.52232094599E+01 -0.11471294215E+02  0.17117415191E+01  0.12720163809E+02  0.51100000000E-03 0.  1.
        -12    1    3    3    0    0  0.84867129527E+01  0.36962907927E+02  0.54889041643E+01  0.38319824218E+02  0.00000000000E+00 0.  1.
</event>
<event>
 7    1  0.5837204E-012  0.5930194E+02  0.7816164E-02  0.1266605E+00
        -11   -1    0    0    0    0  0.00000000000E+00  0.00000000000E+00  0.45593999997E+02  0.45594000000E+02  0.51100000000E-03 0. -1.
         11   -1    0    0    0    0 -0.00000000000E+00 -0.00000000000E+00 -0.45593999997E+02  0.45594000000E+02  0.51100000000E-03 0.  1.
    9900012    2    1    2    0    0 -0.14258344497E+01 -0.71399491627E+01 -0.31043662849E+02  0.59301939080E+02  0.49999990977E+02 0.  0.
         12    1    1    2    0    0  0.14258344497E+01  0.71399491627E+01  0.31043662849E+02  0.31886060920E+02  0.00000000000E+00 0. -1.
         11    1    3    3    0    0  0.11317915281E+02 -0.30610759393E+01 -0.14958695812E+01  0.11819603135E+02  0.51100000000E-03 0. -1.
        -11    1    3    3    0    0  0.10533003216E+02 -0.55791362042E+01 -0.17650915396E+02  0.21298491311E+02  0.51100000000E-03 0.  1.
         12    1    3    3    0    0 -0.23276752946E+02  0.15002629809E+01 -0.11896877871E+02  0.26183844634E+02  0.00000000000E+00 0. -1.
</event>
<event>
 7    1  0.5837204E-012  0.5930229E+02  0.7816164E-02  0.1266604E+00
        -11   -1    0    0    0    0  0.00000000000E+00  0.00000000000E+00  0.45593999997E+02  0.45594000000E+02  0.51100000000E-03 0. -1.
         11   -1    0    0    0    0 -0.00000000000E+00 -0.00000000000E+00 -0.45593999997E+02  0.45594000000E+02  0.51100000000E-03 0.  1.
    9900012    2    1    2    0    0  0.20707779746E+02 -0.22716419782E+02 -0.84764609462E+01  0.59302293800E+02  0.50000637896E+02 0.  0.
         12    1    1    2    0    0 -0.20707779746E+02  0.22716419782E+02  0.84764609462E+01  0.31885706200E+02  0.00000000000E+00 0. -1.
         11    1    3    3    0    0  0.19017496421E+02  0.37898550902E+01 -0.58366197289E+01  0.20250785216E+02  0.51100000000E-03 0. -1.
        -11    1    3    3    0    0  0.11576975871E+02 -0.17041014127E+02 -0.10651301638E+02  0.23192083986E+02  0.51100000000E-03 0.  1.
         12    1    3    3    0    0 -0.98866925467E+01 -0.94652607457E+01  0.80114604205E+01  0.15859424598E+02  0.00000000000E+00 0. -1.
</event>
<event>
 7    1  0.5837204E-012  0.5930184E+02  0.7816164E-02  0.1266605E+00
        -11   -1    0    0    0    0  0.00000000000E+00  0.00000000000E+00  0.45593999997E+02  0.45594000000E+02  0.51100000000E-03 0. -1.
         11   -1    0    0    0    0 -0.00000000000E+00 -0.00000000000E+00 -0.45593999997E+02  0.45594000000E+02  0.51100000000E-03 0.  1.
    9900012    2    1    2    0    0  0.11470388389E+02  0.16810261579E+02 -0.24547350982E+02  0.59301840865E+02  0.49999811856E+02 0.  0.
         12    1    1    2    0    0 -0.11470388389E+02 -0.16810261579E+02  0.24547350982E+02  0.31886159135E+02  0.00000000000E+00 0. -1.
         11    1    3    3    0    0 -0.80814865468E+01 -0.94614899802E+00 -0.33200700288E+01  0.87879740549E+01  0.51100000000E-03 0. -1.
        -11    1    3    3    0    0 -0.94570294378E+01  0.10691870611E+02 -0.13560385619E+02  0.19688462646E+02  0.51100000000E-03 0.  1.
        -12    1    3    3    0    0  0.29008904373E+02  0.70645399660E+01 -0.76668953339E+01  0.30825404165E+02  0.00000000000E+00 0.  1.
</event>
<event>
 7    1  0.5837204E-012  0.5930196E+02  0.7816164E-02  0.1266605E+00
        -11   -1    0    0    0    0  0.00000000000E+00  0.00000000000E+00  0.45593999997E+02  0.45594000000E+02  0.51100000000E-03 0.  1.
         11   -1    0    0    0    0 -0.00000000000E+00 -0.00000000000E+00 -0.45593999997E+02  0.45594000000E+02  0.51100000000E-03 0. -1.
    9900012    2    1    2    0    0 -0.10496206847E+02 -0.30056510110E+02  0.17762635765E+01  0.59301964335E+02  0.50000037035E+02 0.  0.
         12    1    1    2    0    0  0.10496206847E+02  0.30056510110E+02 -0.17762635765E+01  0.31886035665E+02  0.00000000000E+00 0. -1.
         11    1    3    3    0    0 -0.14562464272E+02  0.21812763690E+01 -0.77650123093E+01  0.16646884054E+02  0.51100000000E-03 0. -1.
        -11    1    3    3    0    0  0.64547967810E+01  0.19594999749E+01  0.42385796221E+01  0.79667809754E+01  0.51100000000E-03 0.  1.
         12    1    3    3    0    0 -0.23885393566E+01 -0.34197286454E+02  0.53026962637E+01  0.34688299306E+02  0.00000000000E+00 0. -1.
</event>
<event>
 7    1  0.5837204E-012  0.5930200E+02  0.7816164E-02  0.1266605E+00
        -11   -1    0    0    0    0  0.00000000000E+00  0.00000000000E+00  0.45593999997E+02  0.45594000000E+02  0.51100000000E-03 0. -1.
         11   -1    0    0    0    0 -0.00000000000E+00 -0.00000000000E+00 -0.45593999997E+02  0.45594000000E+02  0.51100000000E-03 0.  1.
    9900012    2    1    2    0    0  0.11854005092E+02 -0.22014736859E+02 -0.19787653233E+02  0.59301995293E+02  0.50000093496E+02 0.  0.
         12    1    1    2    0    0 -0.11854005092E+02  0.22014736859E+02  0.19787653233E+02  0.31886004707E+02  0.00000000000E+00 0. -1.
         11    1    3    3    0    0  0.13040732368E+02 -0.18685264905E+02 -0.15925960219E+02  0.27799928676E+02  0.51100000000E-03 0. -1.
        -11    1    3    3    0    0  0.14462466669E+01 -0.16022666572E+02 -0.79019090194E+01  0.17923661454E+02  0.51100000000E-03 0.  1.
         12    1    3    3    0    0 -0.26329739423E+01  0.12693194618E+02  0.40402160050E+01  0.13578405163E+02  0.00000000000E+00 0. -1.
</event>
<event>
 7    1  0.5837204E-012  0.5930188E+02  0.7816164E-02  0.1266605E+00
        -11   -1    0    0    0    0  0.00000000000E+00  0.00000000000E+00  0.45593999997E+02  0.45594000000E+02  0.51100000000E-03 0. -1.
         11   -1    0    0    0    0 -0.00000000000E+00 -0.00000000000E+00 -0.45593999997E+02  0.45594000000E+02  0.51100000000E-03 0.  1.
    9900012    2    1    2    0    0  0.21631382579E+02 -0.11336603623E+02 -0.20500956310E+02  0.59301882274E+02  0.49999887377E+02 0.  0.
         12    1    1    2    0    0 -0.21631382579E+02  0.11336603623E+02  0.20500956310E+02  0.31886117726E+02  0.00000000000E+00 0. -1.
         11    1    3    3    0    0 -0.29133732328E+01  0.55680603252E+00 -0.42436531692E+01  0.51774867487E+01  0.51100000000E-03 0. -1.
        -11    1    3    3    0    0  0.19847867135E+02 -0.25422223203E+02 -0.21624201188E+02  0.38830829758E+02  0.51100000000E-03 0.  1.
         12    1    3    3    0    0  0.46968886768E+01  0.13528813548E+02  0.53668980467E+01  0.15293565768E+02  0.00000000000E+00 0. -1.
</event>
<event>
 7    1  0.5837204E-012  0.5930178E+02  0.7816164E-02  0.1266605E+00
        -11   -1    0    0    0    0  0.00000000000E+00  0.00000000000E+00  0.45593999997E+02  0.45594000000E+02  0.51100000000E-03 0.  1.
         11   -1    0    0    0    0 -0.00000000000E+00 -0.00000000000E+00 -0.45593999997E+02  0.45594000000E+02  0.51100000000E-03 0. -1.
    9900012    2    1    2    0    0 -0.14847497179E+01 -0.85261645111E+00  0.31840219086E+02  0.59301780595E+02  0.49999701936E+02 0.  0.
         12    1    1    2    0    0  0.14847497179E+01  0.85261645111E+00 -0.31840219086E+02  0.31886219405E+02  0.00000000000E+00 0. -1.
         11    1    3    3    0    0  0.13428424708E+02  0.21715557290E+01  0.14143310161E+02  0.19623237934E+02  0.51100000000E-03 0. -1.
        -11    1    3    3    0    0  0.75078310951E+01 -0.95335960987E+01  0.68525481811E+01  0.13936082633E+02  0.51100000000E-03 0.  1.
         12    1    3    3    0    0 -0.22421005521E+02  0.65094239186E+01  0.10844360744E+02  0.25742460028E+02  0.00000000000E+00 0. -1.
</event>
<event>
 7    1  0.5837204E-012  0.5930193E+02  0.7816164E-02  0.1266605E+00
        -11   -1    0    0    0    0  0.00000000000E+00  0.00000000000E+00  0.45593999997E+02  0.45594000000E+02  0.51100000000E-03 0.  1.
         11   -1    0    0    0    0 -0.00000000000E+00 -0.00000000000E+00 -0.45593999997E+02  0.45594000000E+02  0.51100000000E-03 0. -1.
    9900012    2    1    2    0    0  0.12987325389E+02  0.18070016935E+02  0.22836930751E+02  0.59301928763E+02  0.49999972161E+02 0.  0.
         12    1    1    2    0    0 -0.12987325389E+02 -0.18070016935E+02 -0.22836930751E+02  0.31886071237E+02  0.00000000000E+00 0. -1.
         11    1    3    3    0    0 -0.55235440714E+01 -0.65236235910E+01 -0.39325021552E+01  0.94091326554E+01  0.51100000000E-03 0. -1.
        -11    1    3    3    0    0  0.23320931355E+00  0.45555220193E+01  0.21859080347E+02  0.22329947634E+02  0.51100000000E-03 0.  1.
        -12    1    3    3    0    0  0.18277660147E+02  0.20038118507E+02  0.49103525591E+01  0.27562848474E+02  0.00000000000E+00 0.  1.
</event>
<event>
 7    1  0.5837204E-012  0.5930195E+02  0.7816164E-02  0.1266605E+00
        -11   -1    0    0    0    0  0.00000000000E+00  0.00000000000E+00  0.45593999997E+02  0.45594000000E+02  0.51100000000E-03 0.  1.
         11   -1    0    0    0    0 -0.00000000000E+00 -0.00000000000E+00 -0.45593999997E+02  0.45594000000E+02  0.51100000000E-03 0. -1.
    9900012    2    1    2    0    0  0.22009819748E+02  0.22936359134E+02  0.24922744061E+01  0.59301950270E+02  0.50000011384E+02 0.  0.
         12    1    1    2    0    0 -0.22009819748E+02 -0.22936359134E+02 -0.24922744061E+01  0.31886049730E+02  0.00000000000E+00 0. -1.
         11    1    3    3    0    0  0.17946372559E+02  0.93343850729E+01 -0.98369404777E+01  0.22493742039E+02  0.51100000000E-03 0. -1.
        -11    1    3    3    0    0  0.62076779072E+01 -0.48951698841E+01 -0.65680973843E+01  0.10278027861E+02  0.51100000000E-03 0.  1.
        -12    1    3    3    0    0 -0.21442307178E+01  0.18497143945E+02  0.18897312268E+02  0.26530180370E+02  0.00000000000E+00 0.  1.
</event>
<event>
 7    1  0.5837204E-012  0.5930197E+02  0.7816164E-02  0.1266605E+00
        -11   -1    0    0    0    0  0.00000000000E+00  0.00000000000E+00  0.45593999997E+02  0.45594000000E+02  0.51100000000E-03 0.  1.
         11   -1    0    0    0    0 -0.00000000000E+00 -0.00000000000E+00 -0.45593999997E+02  0.45594000000E+02  0.51100000000E-03 0. -1.
    9900012    2    1    2    0    0 -0.25882832584E+02 -0.12655868825E+02  0.13661145076E+02  0.59301969782E+02  0.50000046970E+02 0.  0.
         12    1    1    2    0    0  0.25882832584E+02  0.12655868825E+02 -0.13661145076E+02  0.31886030218E+02  0.00000000000E+00 0. -1.
         11    1    3    3    0    0 -0.82572671356E+00  0.54600929248E+01 -0.16979695746E+01  0.57773298582E+01  0.51100000000E-03 0. -1.
        -11    1    3    3    0    0  0.55116180689E+01 -0.23277363520E+00 -0.89890967572E+01  0.10546846831E+02  0.51100000000E-03 0.  1.
        -12    1    3    3    0    0 -0.30568723939E+02 -0.17883188115E+02  0.24348211408E+02  0.42977793093E+02  0.00000000000E+00 0.  1.
</event>
<event>
 7    1  0.5837204E-012  0.5930203E+02  0.7816164E-02  0.1266604E+00
        -11   -1    0    0    0    0  0.00000000000E+00  0.00000000000E+00  0.45593999997E+02  0.45594000000E+02  0.51100000000E-03 0.  1.
         11   -1    0    0    0    0 -0.00000000000E+00 -0.00000000000E+00 -0.45593999997E+02  0.45594000000E+02  0.51100000000E-03 0. -1.
    9900012    2    1    2    0    0 -0.31933601115E+01 -0.23420914442E+00  0.31724792685E+02  0.59302033281E+02  0.50000162776E+02 0.  0.
         12    1    1    2    0    0  0.31933601115E+01  0.23420914442E+00 -0.31724792685E+02  0.31885966719E+02  0.00000000000E+00 0. -1.
         11    1    3    3    0    0 -0.21909497133E+01  0.11692269174E+02  0.43719362294E+01  0.12673722647E+02  0.51100000000E-03 0. -1.
        -11    1    3    3    0    0 -0.24829043537E+01 -0.75431286810E+00  0.33628839525E+02  0.33728810385E+02  0.51100000000E-03 0.  1.
         12    1    3    3    0    0  0.14804939555E+01 -0.11172165450E+02 -0.62759830696E+01  0.12899500249E+02  0.00000000000E+00 0. -1.
</event>
<event>
 7    1  0.5837204E-012  0.5930195E+02  0.7816164E-02  0.1266605E+00
        -11   -1    0    0    0    0  0.00000000000E+00  0.00000000000E+00  0.45593999997E+02  0.45594000000E+02  0.51100000000E-03 0.  1.
         11   -1    0    0    0    0 -0.00000000000E+00 -0.00000000000E+00 -0.45593999997E+02  0.45594000000E+02  0.51100000000E-03 0. -1.
    9900012    2    1    2    0    0  0.29019800691E+02 -0.97504222073E+01  0.89163120883E+01  0.59301949968E+02  0.50000010834E+02 0.  0.
         12    1    1    2    0    0 -0.29019800691E+02  0.97504222073E+01 -0.89163120883E+01  0.31886050032E+02  0.00000000000E+00 0. -1.
         11    1    3    3    0    0  0.11149991558E+02 -0.11447150053E+01 -0.10700233267E+02  0.15496053576E+02  0.51100000000E-03 0. -1.
        -11    1    3    3    0    0  0.81070605519E+00  0.71273044610E+01 -0.59195383128E+01  0.93003573741E+01  0.51100000000E-03 0.  1.
        -12    1    3    3    0    0  0.17059103078E+02 -0.15733011663E+02  0.25536083668E+02  0.34505539018E+02  0.00000000000E+00 0.  1.
</event>
<event>
 7    1  0.5837204E-012  0.5930201E+02  0.7816164E-02  0.1266605E+00
        -11   -1    0    0    0    0  0.00000000000E+00  0.00000000000E+00  0.45593999997E+02  0.45594000000E+02  0.51100000000E-03 0.  1.
         11   -1    0    0    0    0 -0.00000000000E+00 -0.00000000000E+00 -0.45593999997E+02  0.45594000000E+02  0.51100000000E-03 0. -1.
    9900012    2    1    2    0    0 -0.12925501137E+02 -0.12650428012E+01  0.29121256664E+02  0.59302007737E+02  0.50000116190E+02 0.  0.
         12    1    1    2    0    0  0.12925501137E+02  0.12650428012E+01 -0.29121256664E+02  0.31885992263E+02  0.00000000000E+00 0. -1.
         11    1    3    3    0    0  0.93842923201E+01  0.15672043814E+02  0.16853606105E+02  0.24854012527E+02  0.51100000000E-03 0. -1.
        -11    1    3    3    0    0 -0.32046701239E+01  0.24005367437E+00  0.77130657847E+01  0.83557716837E+01  0.51100000000E-03 0.  1.
        -12    1    3    3    0    0 -0.19105123333E+02 -0.17177140289E+02  0.45545847735E+01  0.26092223527E+02  0.00000000000E+00 0.  1.
</event>
<event>
 7    1  0.5837204E-012  0.5930195E+02  0.7816164E-02  0.1266605E+00
        -11   -1    0    0    0    0  0.00000000000E+00  0.00000000000E+00  0.45593999997E+02  0.45594000000E+02  0.51100000000E-03 0. -1.
         11   -1    0    0    0    0 -0.00000000000E+00 -0.00000000000E+00 -0.45593999997E+02  0.45594000000E+02  0.51100000000E-03 0.  1.
    9900012    2    1    2    0    0 -0.17410814541E+02  0.52741504333E+01 -0.26187154910E+02  0.59301949633E+02  0.50000010222E+02 0.  0.
         12    1    1    2    0    0  0.17410814541E+02 -0.52741504333E+01  0.26187154910E+02  0.31886050367E+02  0.00000000000E+00 0. -1.
         11    1    3    3    0    0  0.27923134196E+01  0.46203120985E-01 -0.19631164793E+02  0.19828811874E+02  0.51100000000E-03 0. -1.
        -11    1    3    3    0    0 -0.66213909310E+01  0.63567529652E+01 -0.18947290515E+02  0.21053525697E+02  0.51100000000E-03 0.  1.
         12    1    3    3    0    0 -0.13581737029E+02 -0.11288056529E+01  0.12391300398E+02  0.18419612062E+02  0.00000000000E+00 0. -1.
</event>
<event>
 7    1  0.5837204E-012  0.5930189E+02  0.7816164E-02  0.1266605E+00
        -11   -1    0    0    0    0  0.00000000000E+00  0.00000000000E+00  0.45593999997E+02  0.45594000000E+02  0.51100000000E-03 0. -1.
         11   -1    0    0    0    0 -0.00000000000E+00 -0.00000000000E+00 -0.45593999997E+02  0.45594000000E+02  0.51100000000E-03 0.  1.
    9900012    2    1    2    0    0  0.12201122708E+02  0.29342147238E+02 -0.26258221376E+01  0.59301891084E+02  0.49999903443E+02 0.  0.
         12    1    1    2    0    0 -0.12201122708E+02 -0.29342147238E+02  0.26258221376E+01  0.31886108916E+02  0.00000000000E+00 0. -1.
         11    1    3    3    0    0  0.95806475877E-01  0.15952679715E+01 -0.68949785858E+01  0.70777672144E+01  0.51100000000E-03 0. -1.
        -11    1    3    3    0    0 -0.23420857043E+01 -0.10627226129E+02 -0.78311020605E+00  0.10910387825E+02  0.51100000000E-03 0.  1.
         12    1    3    3    0    0  0.14447401937E+02  0.38374105395E+02  0.50522666543E+01  0.41313736045E+02  0.00000000000E+00 0. -1.
</event>
<event>
 7    1  0.5837204E-012  0.5930186E+02  0.7816164E-02  0.1266605E+00
        -11   -1    0    0    0    0  0.00000000000E+00  0.00000000000E+00  0.45593999997E+02  0.45594000000E+02  0.51100000000E-03 0. -1.
         11   -1    0    0    0    0 -0.00000000000E+00 -0.00000000000E+00 -0.45593999997E+02  0.45594000000E+02  0.51100000000E-03 0.  1.
    9900012    2    1    2    0    0 -0.38304835683E+01  0.76331622061E+01 -0.30721133958E+02  0.59301861298E+02  0.49999849121E+02 0.  0.
         12    1    1    2    0    0  0.38304835683E+01 -0.76331622061E+01  0.30721133958E+02  0.31886138702E+02  0.00000000000E+00 0. -1.
         11    1    3    3    0    0  0.38245058669E+01  0.84791486593E+01 -0.59305928298E+01  0.11031533832E+02  0.51100000000E-03 0. -1.
        -11    1    3    3    0    0 -0.17288955102E+01  0.15892371357E+02 -0.25946990308E+02  0.30476267050E+02  0.51100000000E-03 0.  1.
         12    1    3    3    0    0 -0.59260939250E+01 -0.16738357810E+02  0.11564491793E+01  0.17794060416E+02  0.00000000000E+00 0. -1.
</event>
<event>
 7    1  0.5837204E-012  0.5930196E+02  0.7816164E-02  0.1266605E+00
        -11   -1    0    0    0    0  0.00000000000E+00  0.00000000000E+00  0.45593999997E+02  0.45594000000E+02  0.51100000000E-03 0. -1.
         11   -1    0    0    0    0 -0.00000000000E+00 -0.00000000000E+00 -0.45593999997E+02  0.45594000000E+02  0.51100000000E-03 0.  1.
    9900012    2    1    2    0    0  0.52029124988E+01  0.31281393801E+02  0.33352219781E+01  0.59301959132E+02  0.50000027546E+02 0.  0.
         12    1    1    2    0    0 -0.52029124988E+01 -0.31281393801E+02 -0.33352219781E+01  0.31886040868E+02  0.00000000000E+00 0. -1.
         11    1    3    3    0    0  0.63312440883E+01  0.19197690437E+01  0.12177393807E+02  0.13858538346E+02  0.51100000000E-03 0. -1.
        -11    1    3    3    0    0  0.12026162402E+02  0.44950328381E+00 -0.62844000008E+01  0.13576609258E+02  0.51100000000E-03 0.  1.
        -12    1    3    3    0    0 -0.13154493991E+02  0.28912121473E+02 -0.25577718281E+01  0.31866811528E+02  0.00000000000E+00 0.  1.
</event>
<event>
 7    1  0.5837204E-012  0.5930187E+02  0.7816164E-02  0.1266605E+00
        -11   -1    0    0    0    0  0.00000000000E+00  0.00000000000E+00  0.45593999997E+02  0.45594000000E+02  0.51100000000E-03 0. -1.
         11   -1    0    0    0    0 -0.00000000000E+00 -0.00000000000E+00 -0.45593999997E+02  0.45594000000E+02  0.51100000000E-03 0.  1.
    9900012    2    1    2    0    0 -0.22075827085E+02 -0.12494238523E+02 -0.19320382975E+02  0.59301869220E+02  0.49999863569E+02 0.  0.
         12    1    1    2    0    0  0.22075827085E+02  0.12494238523E+02  0.19320382975E+02  0.31886130780E+02  0.00000000000E+00 0. -1.
         11    1    3    3    0    0 -0.64409128442E+01 -0.20982486715E+02 -0.60951004064E+01  0.22779384457E+02  0.51100000000E-03 0. -1.
        -11    1    3    3    0    0 -0.18813121867E+02 -0.41599079454E+01 -0.21021898036E+01  0.19381888214E+02  0.51100000000E-03 0.  1.
         12    1    3    3    0    0  0.31782076257E+01  0.12648156138E+02 -0.11123092765E+02  0.17140596549E+02  0.00000000000E+00 0. -1.
</event>
<event>
 7    1  0.5837204E-012  0.5930195E+02  0.7816164E-02  0.1266605E+00
        -11   -1    0    0    0    0  0.00000000000E+00  0.00000000000E+00  0.45593999997E+02  0.45594000000E+02  0.51100000000E-03 0. -1.
         11   -1    0    0    0    0 -0.00000000000E+00 -0.00000000000E+00 -0.45593999997E+02  0.45594000000E+02  0.51100000000E-03 0.  1.
    9900012    2    1    2    0    0 -0.82082606650E+01  0.43004565677E+00 -0.30808436842E+02  0.59301948770E+02  0.50000008648E+02 0.  0.
         12    1    1    2    0    0  0.82082606650E+01 -0.43004565677E+00  0.30808436842E+02  0.31886051230E+02  0.00000000000E+00 0. -1.
         11    1    3    3    0    0  0.97889266578E+01 -0.98449336262E+01 -0.18260283875E+02  0.22938695924E+02  0.51100000000E-03 0. -1.
        -11    1    3    3    0    0 -0.43569881964E+01  0.91734666544E+01 -0.18761791482E+02  0.21334025791E+02  0.51100000000E-03 0.  1.
        -12    1    3    3    0    0 -0.13640199126E+02  0.11015126286E+01  0.62136385148E+01  0.15029227055E+02  0.00000000000E+00 0.  1.
</event>
<event>
 7    1  0.5837204E-012  0.5930194E+02  0.7816164E-02  0.1266605E+00
        -11   -1    0    0    0    0  0.00000000000E+00  0.00000000000E+00  0.45593999997E+02  0.45594000000E+02  0.51100000000E-03 0. -1.
         11   -1    0    0    0    0 -0.00000000000E+00 -0.00000000000E+00 -0.45593999997E+02  0.45594000000E+02  0.51100000000E-03 0.  1.
    9900012    2    1    2    0    0  0.11063484061E+01  0.31118706877E+02  0.68646088850E+01  0.59301940669E+02  0.49999993875E+02 0.  0.
         12    1    1    2    0    0 -0.11063484061E+01 -0.31118706877E+02 -0.68646088850E+01  0.31886059331E+02  0.00000000000E+00 0. -1.
         11    1    3    3    0    0  0.10989425812E+02  0.12660985734E+02  0.24242102594E+01  0.16939446126E+02  0.51100000000E-03 0. -1.
        -11    1    3    3    0    0  0.80032129224E+01 -0.35480846058E+01  0.10183070116E+02  0.13428895662E+02  0.51100000000E-03 0.  1.
         12    1    3    3    0    0 -0.17886290328E+02  0.22005805749E+02 -0.57426714900E+01  0.28933598881E+02  0.00000000000E+00 0. -1.
</event>
<event>
 7    1  0.5837204E-012  0.5930211E+02  0.7816164E-02  0.1266604E+00
        -11   -1    0    0    0    0  0.00000000000E+00  0.00000000000E+00  0.45593999997E+02  0.45594000000E+02  0.51100000000E-03 0. -1.
         11   -1    0    0    0    0 -0.00000000000E+00 -0.00000000000E+00 -0.45593999997E+02  0.45594000000E+02  0.51100000000E-03 0.  1.
    9900012    2    1    2    0    0  0.54191719804E+01 -0.20710090789E+01 -0.31353683733E+02  0.59302109905E+02  0.50000302519E+02 0.  0.
         12    1    1    2    0    0 -0.54191719804E+01  0.20710090789E+01  0.31353683733E+02  0.31885890095E+02  0.00000000000E+00 0. -1.
         11    1    3    3    0    0  0.78739002927E+01  0.34248096169E+01 -0.42841576495E+01  0.95959175569E+01  0.51100000000E-03 0. -1.
        -11    1    3    3    0    0  0.67460183385E+01  0.15405709951E+02 -0.19263386369E+02  0.25571912662E+02  0.51100000000E-03 0.  1.
         12    1    3    3    0    0 -0.92007466508E+01 -0.20901528647E+02 -0.78061397149E+01  0.24134279686E+02  0.00000000000E+00 0. -1.
</event>
<event>
 7    1  0.5837204E-012  0.5930194E+02  0.7816164E-02  0.1266605E+00
        -11   -1    0    0    0    0  0.00000000000E+00  0.00000000000E+00  0.45593999997E+02  0.45594000000E+02  0.51100000000E-03 0.  1.
         11   -1    0    0    0    0 -0.00000000000E+00 -0.00000000000E+00 -0.45593999997E+02  0.45594000000E+02  0.51100000000E-03 0. -1.
    9900012    2    1    2    0    0  0.31704358361E+02  0.84540281754E+00  0.32924049866E+01  0.59301937596E+02  0.49999988270E+02 0.  0.
         12    1    1    2    0    0 -0.31704358361E+02 -0.84540281754E+00 -0.32924049866E+01  0.31886062404E+02  0.00000000000E+00 0. -1.
         11    1    3    3    0    0  0.80175811122E+00  0.53326887685E+01 -0.41483181264E+01  0.68035967775E+01  0.51100000000E-03 0. -1.
        -11    1    3    3    0    0  0.27677610934E+02 -0.31584662939E+01 -0.13719623652E+02  0.31052441607E+02  0.51100000000E-03 0.  1.
         12    1    3    3    0    0  0.32249893160E+01 -0.13288196571E+01  0.21160346765E+02  0.21445899211E+02  0.00000000000E+00 0. -1.
</event>
<event>
 7    1  0.5837204E-012  0.5930197E+02  0.7816164E-02  0.1266605E+00
        -11   -1    0    0    0    0  0.00000000000E+00  0.00000000000E+00  0.45593999997E+02  0.45594000000E+02  0.51100000000E-03 0. -1.
         11   -1    0    0    0    0 -0.00000000000E+00 -0.00000000000E+00 -0.45593999997E+02  0.45594000000E+02  0.51100000000E-03 0.  1.
    9900012    2    1    2    0    0 -0.61461683464E+01  0.30282278092E+02 -0.78693978798E+01  0.59301965835E+02  0.50000039771E+02 0.  0.
         12    1    1    2    0    0  0.61461683464E+01 -0.30282278092E+02  0.78693978798E+01  0.31886034165E+02  0.00000000000E+00 0. -1.
         11    1    3    3    0    0 -0.15591756415E+02  0.44094528755E+01 -0.65172089535E+01  0.17464826239E+02  0.51100000000E-03 0. -1.
        -11    1    3    3    0    0  0.24198042070E+01 -0.70707432581E+01  0.26200469854E+01  0.79193124126E+01  0.51100000000E-03 0.  1.
        -12    1    3    3    0    0  0.70257838612E+01  0.32943568474E+02 -0.39722359117E+01  0.33917827183E+02  0.00000000000E+00 0.  1.
</event>
<event>
 7    1  0.5837204E-012  0.5930193E+02  0.7816164E-02  0.1266605E+00
        -11   -1    0    0    0    0  0.00000000000E+00  0.00000000000E+00  0.45593999997E+02  0.45594000000E+02  0.51100000000E-03 0. -1.
         11   -1    0    0    0    0 -0.00000000000E+00 -0.00000000000E+00 -0.45593999997E+02  0.45594000000E+02  0.51100000000E-03 0.  1.
    9900012    2    1    2    0    0  0.19336021619E+02 -0.24650457780E+02 -0.59325080634E+01  0.59301930114E+02  0.49999974626E+02 0.  0.
         12    1    1    2    0    0 -0.19336021619E+02  0.24650457780E+02  0.59325080634E+01  0.31886069886E+02  0.00000000000E+00 0. -1.
         11    1    3    3    0    0 -0.55985182269E+01 -0.28344092918E+01  0.63684146326E+01  0.89405809411E+01  0.51100000000E-03 0. -1.
        -11    1    3    3    0    0 -0.53671811319E+01 -0.15708765218E+02 -0.99661797005E+01  0.19362248735E+02  0.51100000000E-03 0.  1.
        -12    1    3    3    0    0  0.30301720978E+02 -0.61072832704E+01 -0.23347429955E+01  0.30999100439E+02  0.00000000000E+00 0.  1.
</event>
<event>
 7    1  0.5837204E-012  0.5930199E+02  0.7816164E-02  0.1266605E+00
        -11   -1    0    0    0    0  0.00000000000E+00  0.00000000000E+00  0.45593999997E+02  0.45594000000E+02  0.51100000000E-03 0. -1.
         11   -1    0    0    0    0 -0.00000000000E+00 -0.00000000000E+00 -0.45593999997E+02  0.45594000000E+02  0.51100000000E-03 0.  1.
    9900012    2    1    2    0    0 -0.15579526343E+02 -0.14627384774E+02 -0.23665076532E+02  0.59301986237E+02  0.50000076980E+02 0.  0.
         12    1    1    2    0    0  0.15579526343E+02  0.14627384774E+02  0.23665076532E+02  0.31886013763E+02  0.00000000000E+00 0. -1.
         11    1    3    3    0    0 -0.17051119260E+02 -0.71580136711E+01  0.21368617726E+01  0.18615692472E+02  0.51100000000E-03 0. -1.
        -11    1    3    3    0    0  0.94756257691E+01  0.26210822076E+00  0.28914872132E+01  0.99104431283E+01  0.51100000000E-03 0.  1.
        -12    1    3    3    0    0 -0.80040328528E+01 -0.77314793238E+01 -0.28693425518E+02  0.30775850637E+02  0.00000000000E+00 0.  1.
</event>
<event>
 7    1  0.5837204E-012  0.5930197E+02  0.7816164E-02  0.1266605E+00
        -11   -1    0    0    0    0  0.00000000000E+00  0.00000000000E+00  0.45593999997E+02  0.45594000000E+02  0.51100000000E-03 0.  1.
         11   -1    0    0    0    0 -0.00000000000E+00 -0.00000000000E+00 -0.45593999997E+02  0.45594000000E+02  0.51100000000E-03 0. -1.
    9900012    2    1    2    0    0  0.24511505086E+02 -0.73763560511E+00  0.20380413106E+02  0.59301965028E+02  0.50000038299E+02 0.  0.
         12    1    1    2    0    0 -0.24511505086E+02  0.73763560511E+00 -0.20380413106E+02  0.31886034972E+02  0.00000000000E+00 0. -1.
         11    1    3    3    0    0  0.57560331371E+01  0.22886897474E+01 -0.13292182128E+02  0.14664655612E+02  0.51100000000E-03 0. -1.
        -11    1    3    3    0    0  0.65252821203E+01 -0.64332071136E+01  0.56700365845E+00  0.91807926633E+01  0.51100000000E-03 0.  1.
         12    1    3    3    0    0  0.12230189829E+02  0.34068817612E+01  0.33105591576E+02  0.35456516752E+02  0.00000000000E+00 0. -1.
</event>
<event>
 7    1  0.5837204E-012  0.5930190E+02  0.7816164E-02  0.1266605E+00
        -11   -1    0    0    0    0  0.00000000000E+00  0.00000000000E+00  0.45593999997E+02  0.45594000000E+02  0.51100000000E-03 0.  1.
         11   -1    0    0    0    0 -0.00000000000E+00 -0.00000000000E+00 -0.45593999997E+02  0.45594000000E+02  0.51100000000E-03 0. -1.
    9900012    2    1    2    0    0  0.29259875942E+02 -0.13574731809E+01  0.12599217067E+02  0.59301900454E+02  0.49999920531E+02 0.  0.
         12    1    1    2    0    0 -0.29259875942E+02  0.13574731809E+01 -0.12599217067E+02  0.31886099546E+02  0.00000000000E+00 0. -1.
         11    1    3    3    0    0  0.26204920122E+02 -0.12166532659E+00 -0.79280888024E+00  0.26217192588E+02  0.51100000000E-03 0. -1.
        -11    1    3    3    0    0  0.13387975115E+02  0.24984529242E+01  0.16757403277E+02  0.21593765525E+02  0.51100000000E-03 0.  1.
        -12    1    3    3    0    0 -0.10333019295E+02 -0.37342607785E+01 -0.33653773294E+01  0.11490942341E+02  0.00000000000E+00 0.  1.
</event>
<event>
 7    1  0.5837204E-012  0.5930195E+02  0.7816164E-02  0.1266605E+00
        -11   -1    0    0    0    0  0.00000000000E+00  0.00000000000E+00  0.45593999997E+02  0.45594000000E+02  0.51100000000E-03 0.  1.
         11   -1    0    0    0    0 -0.00000000000E+00 -0.00000000000E+00 -0.45593999997E+02  0.45594000000E+02  0.51100000000E-03 0. -1.
    9900012    2    1    2    0    0  0.27726843641E+02 -0.12497172521E+02  0.95792966202E+01  0.59301951279E+02  0.50000013224E+02 0.  0.
         12    1    1    2    0    0 -0.27726843641E+02  0.12497172521E+02 -0.95792966202E+01  0.31886048721E+02  0.00000000000E+00 0. -1.
         11    1    3    3    0    0  0.15292702973E+02 -0.80081080753E+01  0.42968291671E+01  0.17789302974E+02  0.51100000000E-03 0. -1.
        -11    1    3    3    0    0  0.52907628492E+01  0.15095612791E+02  0.11566162328E+02  0.19739448025E+02  0.51100000000E-03 0.  1.
         12    1    3    3    0    0  0.71433778187E+01 -0.19584677237E+02 -0.62836948751E+01  0.21773200280E+02  0.00000000000E+00 0. -1.
</event>
<event>
 7    1  0.5837204E-012  0.5930196E+02  0.7816164E-02  0.1266605E+00
        -11   -1    0    0    0    0  0.00000000000E+00  0.00000000000E+00  0.45593999997E+02  0.45594000000E+02  0.51100000000E-03 0.  1.
         11   -1    0    0    0    0 -0.00000000000E+00 -0.00000000000E+00 -0.45593999997E+02  0.45594000000E+02  0.51100000000E-03 0. -1.
    9900012    2    1    2    0    0 -0.23654497278E+02  0.20199088517E+02 -0.70129313645E+01  0.59301958779E+02  0.50000026903E+02 0.  0.
         12    1    1    2    0    0  0.23654497278E+02 -0.20199088517E+02  0.70129313645E+01  0.31886041221E+02  0.00000000000E+00 0. -1.
         11    1    3    3    0    0 -0.20282749411E+02  0.19532359332E+02  0.13928684628E+02  0.31415143490E+02  0.51100000000E-03 0. -1.
        -11    1    3    3    0    0 -0.13178089256E+01  0.82828378165E+01 -0.41999160085E+01  0.93798356808E+01  0.51100000000E-03 0.  1.
         12    1    3    3    0    0 -0.20539389416E+01 -0.76161086317E+01 -0.16741699984E+02  0.18506979609E+02  0.00000000000E+00 0. -1.
</event>
<event>
 7    1  0.5837204E-012  0.5930174E+02  0.7816164E-02  0.1266605E+00
        -11   -1    0    0    0    0  0.00000000000E+00  0.00000000000E+00  0.45593999997E+02  0.45594000000E+02  0.51100000000E-03 0.  1.
         11   -1    0    0    0    0 -0.00000000000E+00 -0.00000000000E+00 -0.45593999997E+02  0.45594000000E+02  0.51100000000E-03 0. -1.
    9900012    2    1    2    0    0 -0.93935024123E+01 -0.26400963550E+02  0.15214618638E+02  0.59301743019E+02  0.49999633407E+02 0.  0.
         12    1    1    2    0    0  0.93935024123E+01  0.26400963550E+02 -0.15214618638E+02  0.31886256981E+02  0.00000000000E+00 0. -1.
         11    1    3    3    0    0  0.55429484543E+01  0.51182588362E+01  0.28440535710E+01  0.80628463992E+01  0.51100000000E-03 0.  1.
        -11    1    3    3    0    0 -0.47974028898E+01  0.23708711843E+01  0.14843156636E+02  0.15778320691E+02  0.51100000000E-03 0. -1.
         12    1    3    3    0    0 -0.10139047977E+02 -0.33890093571E+02 -0.24725915686E+01  0.35460575929E+02  0.00000000000E+00 0. -1.
</event>
<event>
 7    1  0.5837204E-012  0.5930195E+02  0.7816164E-02  0.1266605E+00
        -11   -1    0    0    0    0  0.00000000000E+00  0.00000000000E+00  0.45593999997E+02  0.45594000000E+02  0.51100000000E-03 0.  1.
         11   -1    0    0    0    0 -0.00000000000E+00 -0.00000000000E+00 -0.45593999997E+02  0.45594000000E+02  0.51100000000E-03 0. -1.
    9900012    2    1    2    0    0 -0.22766503934E+02  0.12908359631E+02  0.18214843136E+02  0.59301953519E+02  0.50000017309E+02 0.  0.
         12    1    1    2    0    0  0.22766503934E+02 -0.12908359631E+02 -0.18214843136E+02  0.31886046481E+02  0.00000000000E+00 0. -1.
         11    1    3    3    0    0  0.56941181007E+01  0.33721168085E+01  0.56402345577E+01  0.86951940083E+01  0.51100000000E-03 0. -1.
        -11    1    3    3    0    0 -0.14944386585E+01 -0.64454876308E+01  0.17652571828E+02  0.18851815566E+02  0.51100000000E-03 0.  1.
         12    1    3    3    0    0 -0.26966183376E+02  0.15981730454E+02 -0.50779632501E+01  0.31754943945E+02  0.00000000000E+00 0. -1.
</event>
<event>
 7    1  0.5837204E-012  0.5930202E+02  0.7816164E-02  0.1266604E+00
        -11   -1    0    0    0    0  0.00000000000E+00  0.00000000000E+00  0.45593999997E+02  0.45594000000E+02  0.51100000000E-03 0.  1.
         11   -1    0    0    0    0 -0.00000000000E+00 -0.00000000000E+00 -0.45593999997E+02  0.45594000000E+02  0.51100000000E-03 0. -1.
    9900012    2    1    2    0    0  0.30976980639E+02 -0.71486472636E+01  0.24574943296E+01  0.59302019294E+02  0.50000137267E+02 0.  0.
         12    1    1    2    0    0 -0.30976980639E+02  0.71486472636E+01 -0.24574943296E+01  0.31885980706E+02  0.00000000000E+00 0. -1.
         11    1    3    3    0    0  0.14165333210E+02 -0.23907056705E+02 -0.95627888328E+00  0.27805008448E+02  0.51100000000E-03 0. -1.
        -11    1    3    3    0    0 -0.23576352309E+01  0.31828906156E+01  0.66954905364E+01  0.77793849588E+01  0.51100000000E-03 0.  1.
         12    1    3    3    0    0  0.19169282660E+02  0.13575518826E+02 -0.32817173235E+01  0.23717625887E+02  0.00000000000E+00 0. -1.
</event>
<event>
 7    1  0.5837204E-012  0.5930198E+02  0.7816164E-02  0.1266605E+00
        -11   -1    0    0    0    0  0.00000000000E+00  0.00000000000E+00  0.45593999997E+02  0.45594000000E+02  0.51100000000E-03 0.  1.
         11   -1    0    0    0    0 -0.00000000000E+00 -0.00000000000E+00 -0.45593999997E+02  0.45594000000E+02  0.51100000000E-03 0. -1.
    9900012    2    1    2    0    0 -0.16345970008E+02 -0.20999157932E+02  0.17565965060E+02  0.59301976450E+02  0.50000059130E+02 0.  0.
         12    1    1    2    0    0  0.16345970008E+02  0.20999157932E+02 -0.17565965060E+02  0.31886023550E+02  0.00000000000E+00 0. -1.
         11    1    3    3    0    0  0.76373526544E+01 -0.17962155948E+02 -0.25009636757E+01  0.19677983165E+02  0.51100000000E-03 0. -1.
        -11    1    3    3    0    0 -0.11684250317E+01 -0.93912119094E+01  0.10351479630E+02  0.14025448619E+02  0.51100000000E-03 0.  1.
        -12    1    3    3    0    0 -0.22814897631E+02  0.63542099255E+01  0.97154491058E+01  0.25598544666E+02  0.00000000000E+00 0.  1.
</event>
<event>
 7    1  0.5837204E-012  0.5930195E+02  0.7816164E-02  0.1266605E+00
        -11   -1    0    0    0    0  0.00000000000E+00  0.00000000000E+00  0.45593999997E+02  0.45594000000E+02  0.51100000000E-03 0.  1.
         11   -1    0    0    0    0 -0.00000000000E+00 -0.00000000000E+00 -0.45593999997E+02  0.45594000000E+02  0.51100000000E-03 0. -1.
    9900012    2    1    2    0    0  0.21836027185E+02  0.12334945388E+02  0.19691557750E+02  0.59301946504E+02  0.50000004516E+02 0.  0.
         12    1    1    2    0    0 -0.21836027185E+02 -0.12334945388E+02 -0.19691557750E+02  0.31886053496E+02  0.00000000000E+00 0. -1.
         11    1    3    3    0    0 -0.55761223139E+01 -0.39708875258E+01  0.53183399268E+00  0.68661441479E+01  0.51100000000E-03 0. -1.
        -11    1    3    3    0    0  0.15516337481E+01  0.16040655377E+02 -0.51739752040E+01  0.16925726333E+02  0.51100000000E-03 0.  1.
        -12    1    3    3    0    0  0.25860515751E+02  0.26517753682E+00  0.24333698961E+02  0.35510076023E+02  0.00000000000E+00 0.  1.
</event>
<event>
 7    1  0.5837204E-012  0.5930195E+02  0.7816164E-02  0.1266605E+00
        -11   -1    0    0    0    0  0.00000000000E+00  0.00000000000E+00  0.45593999997E+02  0.45594000000E+02  0.51100000000E-03 0.  1.
         11   -1    0    0    0    0 -0.00000000000E+00 -0.00000000000E+00 -0.45593999997E+02  0.45594000000E+02  0.51100000000E-03 0. -1.
    9900012    2    1    2    0    0  0.87994511196E+01 -0.15581508683E+02  0.26391406924E+02  0.59301951134E+02  0.50000012961E+02 0.  0.
         12    1    1    2    0    0 -0.87994511196E+01  0.15581508683E+02 -0.26391406924E+02  0.31886048866E+02  0.00000000000E+00 0. -1.
         11    1    3    3    0    0 -0.22805621064E+01 -0.21955879194E+02  0.14584425636E+02  0.26456890711E+02  0.51100000000E-03 0. -1.
        -11    1    3    3    0    0 -0.24847030759E-01 -0.86719348671E+01 -0.28033598354E+01  0.91138300589E+01  0.51100000000E-03 0.  1.
        -12    1    3    3    0    0  0.11104860257E+02  0.15046305378E+02  0.14610341123E+02  0.23731230364E+02  0.00000000000E+00 0.  1.
</event>
<event>
 7    1  0.5837204E-012  0.5930194E+02  0.7816164E-02  0.1266605E+00
        -11   -1    0    0    0    0  0.00000000000E+00  0.00000000000E+00  0.45593999997E+02  0.45594000000E+02  0.51100000000E-03 0.  1.
         11   -1    0    0    0    0 -0.00000000000E+00 -0.00000000000E+00 -0.45593999997E+02  0.45594000000E+02  0.51100000000E-03 0. -1.
    9900012    2    1    2    0    0 -0.23473887492E+02 -0.18632775434E+01 -0.21499431958E+02  0.59301940794E+02  0.49999994103E+02 0.  0.
         12    1    1    2    0    0  0.23473887492E+02  0.18632775434E+01  0.21499431958E+02  0.31886059206E+02  0.00000000000E+00 0. -1.
         11    1    3    3    0    0 -0.18309325369E+01  0.11592164684E+00  0.45553460521E+01  0.49108990723E+01  0.51100000000E-03 0. -1.
        -11    1    3    3    0    0 -0.27347576322E+02 -0.10779754977E+02 -0.36092961575E+01  0.29616212909E+02  0.51100000000E-03 0.  1.
         12    1    3    3    0    0  0.57046213678E+01  0.88005557870E+01 -0.22445481852E+02  0.24774828813E+02  0.00000000000E+00 0. -1.
</event>
<event>
 7    1  0.5837204E-012  0.5930197E+02  0.7816164E-02  0.1266605E+00
        -11   -1    0    0    0    0  0.00000000000E+00  0.00000000000E+00  0.45593999997E+02  0.45594000000E+02  0.51100000000E-03 0.  1.
         11   -1    0    0    0    0 -0.00000000000E+00 -0.00000000000E+00 -0.45593999997E+02  0.45594000000E+02  0.51100000000E-03 0. -1.
    9900012    2    1    2    0    0 -0.16805651145E+02  0.96102143933E+01  0.25336392042E+02  0.59301970256E+02  0.50000047835E+02 0.  0.
         12    1    1    2    0    0  0.16805651145E+02 -0.96102143933E+01 -0.25336392042E+02  0.31886029744E+02  0.00000000000E+00 0. -1.
         11    1    3    3    0    0 -0.10917396028E+02  0.20653779837E+02  0.61207468756E+01  0.24150190479E+02  0.51100000000E-03 0. -1.
        -11    1    3    3    0    0 -0.35221856479E+01  0.31558336334E+01  0.20177693470E+02  0.20724487731E+02  0.51100000000E-03 0.  1.
        -12    1    3    3    0    0 -0.23660694691E+01 -0.14199399077E+02 -0.96204830331E+00  0.14427292047E+02  0.00000000000E+00 0.  1.
</event>
<event>
 7    1  0.5837204E-012  0.5930193E+02  0.7816164E-02  0.1266605E+00
        -11   -1    0    0    0    0  0.00000000000E+00  0.00000000000E+00  0.45593999997E+02  0.45594000000E+02  0.51100000000E-03 0.  1.
         11   -1    0    0    0    0 -0.00000000000E+00 -0.00000000000E+00 -0.45593999997E+02  0.45594000000E+02  0.51100000000E-03 0. -1.
    9900012    2    1    2    0    0  0.31572945254E+02 -0.59350752786E-01  0.44572271868E+01  0.59301933000E+02  0.49999979888E+02 0.  0.
         12    1    1    2    0    0 -0.31572945254E+02  0.59350752786E-01 -0.44572271868E+01  0.31886067000E+02  0.00000000000E+00 0. -1.
         11    1    3    3    0    0 -0.26265923793E+01  0.95431985055E+01  0.32462954262E+01  0.10416816188E+02  0.51100000000E-03 0. -1.
        -11    1    3    3    0    0  0.22191884440E+02  0.53891603778E+01  0.13068925315E+02  0.26311966740E+02  0.51100000000E-03 0.  1.
         12    1    3    3    0    0  0.12007653193E+02 -0.14991709636E+02 -0.11857993554E+02  0.22573150072E+02  0.00000000000E+00 0. -1.
</event>
<event>
 7    1  0.5837204E-012  0.5930202E+02  0.7816164E-02  0.1266604E+00
        -11   -1    0    0    0    0  0.00000000000E+00  0.00000000000E+00  0.45593999997E+02  0.45594000000E+02  0.51100000000E-03 0.  1.
         11   -1    0    0    0    0 -0.00000000000E+00 -0.00000000000E+00 -0.45593999997E+02  0.45594000000E+02  0.51100000000E-03 0. -1.
    9900012    2    1    2    0    0  0.19465068860E+02 -0.24104041046E+02  0.75380267886E+01  0.59302022700E+02  0.50000143479E+02 0.  0.
         12    1    1    2    0    0 -0.19465068860E+02  0.24104041046E+02 -0.75380267886E+01  0.31885977300E+02  0.00000000000E+00 0. -1.
         11    1    3    3    0    0  0.22114217001E+01  0.22914247228E+01 -0.89496451974E+01  0.94993243242E+01  0.51100000000E-03 0. -1.
        -11    1    3    3    0    0 -0.69872570198E+01 -0.12848378220E+01 -0.51165327814E+01  0.87550829153E+01  0.51100000000E-03 0.  1.
        -12    1    3    3    0    0  0.24240904180E+02 -0.25110627947E+02  0.21604204767E+02  0.41047615461E+02  0.00000000000E+00 0.  1.
</event>
<event>
 7    1  0.5837204E-012  0.5930194E+02  0.7816164E-02  0.1266605E+00
        -11   -1    0    0    0    0  0.00000000000E+00  0.00000000000E+00  0.45593999997E+02  0.45594000000E+02  0.51100000000E-03 0.  1.
         11   -1    0    0    0    0 -0.00000000000E+00 -0.00000000000E+00 -0.45593999997E+02  0.45594000000E+02  0.51100000000E-03 0. -1.
    9900012    2    1    2    0    0  0.18046687344E+02  0.22331755822E+02  0.13868324443E+02  0.59301942466E+02  0.49999997153E+02 0.  0.
         12    1    1    2    0    0 -0.18046687344E+02 -0.22331755822E+02 -0.13868324443E+02  0.31886057534E+02  0.00000000000E+00 0. -1.
         11    1    3    3    0    0  0.15240400246E+02  0.19833069121E+02  0.13571505934E+01  0.25049197361E+02  0.51100000000E-03 0. -1.
        -11    1    3    3    0    0  0.12120947832E+02  0.10615435149E+02  0.14575286861E+02  0.21726569612E+02  0.51100000000E-03 0.  1.
         12    1    3    3    0    0 -0.93146607344E+01 -0.81167484488E+01 -0.20641130112E+01  0.12526175494E+02  0.00000000000E+00 0. -1.
</event>
<event>
 7    1  0.5837204E-012  0.5930194E+02  0.7816164E-02  0.1266605E+00
        -11   -1    0    0    0    0  0.00000000000E+00  0.00000000000E+00  0.45593999997E+02  0.45594000000E+02  0.51100000000E-03 0.  1.
         11   -1    0    0    0    0 -0.00000000000E+00 -0.00000000000E+00 -0.45593999997E+02  0.45594000000E+02  0.51100000000E-03 0. -1.
    9900012    2    1    2    0    0  0.24109017785E+02 -0.73836099691E+01  0.19518157140E+02  0.59301938894E+02  0.49999990638E+02 0.  0.
         12    1    1    2    0    0 -0.24109017785E+02  0.73836099691E+01 -0.19518157140E+02  0.31886061106E+02  0.00000000000E+00 0. -1.
         11    1    3    3    0    0  0.11052327537E+02  0.28083587214E+01  0.11863550197E+02  0.16455535429E+02  0.51100000000E-03 0. -1.
        -11    1    3    3    0    0 -0.60348079708E+01  0.93585751777E+01  0.10585030044E+02  0.15363746219E+02  0.51100000000E-03 0.  1.
         12    1    3    3    0    0  0.19091498218E+02 -0.19550543868E+02 -0.29304231018E+01  0.27482657246E+02  0.00000000000E+00 0. -1.
</event>
<event>
 7    1  0.5837204E-012  0.5930193E+02  0.7816164E-02  0.1266605E+00
        -11   -1    0    0    0    0  0.00000000000E+00  0.00000000000E+00  0.45593999997E+02  0.45594000000E+02  0.51100000000E-03 0. -1.
         11   -1    0    0    0    0 -0.00000000000E+00 -0.00000000000E+00 -0.45593999997E+02  0.45594000000E+02  0.51100000000E-03 0.  1.
    9900012    2    1    2    0    0 -0.17597120449E+02 -0.50101287037E+01  0.26114388208E+02  0.59301932365E+02  0.49999978730E+02 0.  0.
         12    1    1    2    0    0  0.17597120449E+02  0.50101287037E+01 -0.26114388208E+02  0.31886067635E+02  0.00000000000E+00 0. -1.
         11    1    3    3    0    0 -0.12349207226E+02  0.21929134375E+01  0.32346064116E+01  0.12952778364E+02  0.51100000000E-03 0. -1.
        -11    1    3    3    0    0 -0.12899130048E+02  0.12297134395E+02  0.16910568391E+02  0.24567751096E+02  0.51100000000E-03 0.  1.
         12    1    3    3    0    0  0.76512168247E+01 -0.19500176536E+02  0.59692134050E+01  0.21781402905E+02  0.00000000000E+00 0. -1.
</event>
<event>
 7    1  0.5837204E-012  0.5930194E+02  0.7816164E-02  0.1266605E+00
        -11   -1    0    0    0    0  0.00000000000E+00  0.00000000000E+00  0.45593999997E+02  0.45594000000E+02  0.51100000000E-03 0. -1.
         11   -1    0    0    0    0 -0.00000000000E+00 -0.00000000000E+00 -0.45593999997E+02  0.45594000000E+02  0.51100000000E-03 0.  1.
    9900012    2    1    2    0    0 -0.56480912267E+01  0.84033158802E+01 -0.30235812104E+02  0.59301937435E+02  0.49999987977E+02 0.  0.
         12    1    1    2    0    0  0.56480912267E+01 -0.84033158802E+01  0.30235812104E+02  0.31886062565E+02  0.00000000000E+00 0. -1.
         11    1    3    3    0    0  0.15898958464E+02  0.12584936405E+02 -0.26294319843E+02  0.33204649687E+02  0.51100000000E-03 0. -1.
        -11    1    3    3    0    0 -0.15502627899E+02  0.21534248491E+01 -0.65413708580E+01  0.16963438429E+02  0.51100000000E-03 0.  1.
         12    1    3    3    0    0 -0.60444217911E+01 -0.63350453738E+01  0.25998785971E+01  0.91338493198E+01  0.00000000000E+00 0. -1.
</event>
<event>
 7    1  0.5837204E-012  0.5930190E+02  0.7816164E-02  0.1266605E+00
        -11   -1    0    0    0    0  0.00000000000E+00  0.00000000000E+00  0.45593999997E+02  0.45594000000E+02  0.51100000000E-03 0.  1.
         11   -1    0    0    0    0 -0.00000000000E+00 -0.00000000000E+00 -0.45593999997E+02  0.45594000000E+02  0.51100000000E-03 0. -1.
    9900012    2    1    2    0    0 -0.25435736814E+02  0.14232590076E+02 -0.12929811613E+02  0.59301900272E+02  0.49999920200E+02 0.  0.
         12    1    1    2    0    0  0.25435736814E+02 -0.14232590076E+02  0.12929811613E+02  0.31886099728E+02  0.00000000000E+00 0. -1.
         11    1    3    3    0    0 -0.45224291751E+01 -0.64900121022E+01  0.13205338201E+02  0.15393296593E+02  0.51100000000E-03 0. -1.
        -11    1    3    3    0    0  0.34207043080E+01  0.27262146349E+01 -0.64887674289E+01  0.78254435789E+01  0.51100000000E-03 0.  1.
        -12    1    3    3    0    0 -0.24334011946E+02  0.17996387543E+02 -0.19646382385E+02  0.36083160100E+02  0.00000000000E+00 0.  1.
</event>
<event>
 7    1  0.5938351E-012  0.5930198E+02  0.7816164E-02  0.1266605E+00
        -11   -1    0    0    0    0  0.00000000000E+00  0.00000000000E+00  0.45593999997E+02  0.45594000000E+02  0.51100000000E-03 0. -1.
         11   -1    0    0    0    0 -0.00000000000E+00 -0.00000000000E+00 -0.45593999997E+02  0.45594000000E+02  0.51100000000E-03 0.  1.
    9900012    2    1    2    0    0  0.20182979621E+02  0.16000178814E+02 -0.18797870957E+02  0.59301978909E+02  0.50000063616E+02 0.  0.
         12    1    1    2    0    0 -0.20182979621E+02 -0.16000178814E+02  0.18797870957E+02  0.31886021091E+02  0.00000000000E+00 0. -1.
         11    1    3    3    0    0  0.12338587732E+02 -0.80318730247E+01  0.72442349027E+01  0.16408250092E+02  0.51100000000E-03 0. -1.
        -11    1    3    3    0    0 -0.23156394072E+01 -0.27751141921E+01  0.70888011751E+00  0.36831991428E+01  0.51100000000E-03 0.  1.
        -12    1    3    3    0    0  0.10160031296E+02  0.26807166031E+02 -0.26750985978E+02  0.39210529674E+02  0.00000000000E+00 0.  1.
</event>
<event>
 7    1  0.5837204E-012  0.5930192E+02  0.7816164E-02  0.1266605E+00
        -11   -1    0    0    0    0  0.00000000000E+00  0.00000000000E+00  0.45593999997E+02  0.45594000000E+02  0.51100000000E-03 0. -1.
         11   -1    0    0    0    0 -0.00000000000E+00 -0.00000000000E+00 -0.45593999997E+02  0.45594000000E+02  0.51100000000E-03 0.  1.
    9900012    2    1    2    0    0  0.54809511813E+01 -0.33342619955E+01 -0.31234016846E+02  0.59301922517E+02  0.49999960770E+02 0.  0.
         12    1    1    2    0    0 -0.54809511813E+01  0.33342619955E+01  0.31234016846E+02  0.31886077483E+02  0.00000000000E+00 0. -1.
         11    1    3    3    0    0  0.11163277119E+02  0.60798645375E+01 -0.15302870679E+02  0.19893751785E+02  0.51100000000E-03 0. -1.
        -11    1    3    3    0    0  0.89562309860E+01  0.61153610354E+01 -0.14379373425E+02  0.18010499560E+02  0.51100000000E-03 0.  1.
         12    1    3    3    0    0 -0.14638556923E+02 -0.15529487568E+02 -0.15517727424E+01  0.21397671172E+02  0.00000000000E+00 0. -1.
</event>
<event>
 7    1  0.5837204E-012  0.5930195E+02  0.7816164E-02  0.1266605E+00
        -11   -1    0    0    0    0  0.00000000000E+00  0.00000000000E+00  0.45593999997E+02  0.45594000000E+02  0.51100000000E-03 0. -1.
         11   -1    0    0    0    0 -0.00000000000E+00 -0.00000000000E+00 -0.45593999997E+02  0.45594000000E+02  0.51100000000E-03 0.  1.
    9900012    2    1    2    0    0 -0.23590934680E+02 -0.13519597527E+02 -0.16655583459E+02  0.59301950123E+02  0.50000011117E+02 0.  0.
         12    1    1    2    0    0  0.23590934680E+02  0.13519597527E+02  0.16655583459E+02  0.31886049877E+02  0.00000000000E+00 0. -1.
         11    1    3    3    0    0 -0.65163479783E+01  0.15597762538E+01 -0.16216063785E+02  0.17545837623E+02  0.51100000000E-03 0. -1.
        -11    1    3    3    0    0 -0.17586784948E+02 -0.46511926865E+01 -0.15179674476E+02  0.23692849463E+02  0.51100000000E-03 0.  1.
         12    1    3    3    0    0  0.51219824674E+00 -0.10428181094E+02  0.14740154802E+02  0.18063263038E+02  0.00000000000E+00 0. -1.
</event>
<event>
 7    1  0.5837204E-012  0.5930194E+02  0.7816164E-02  0.1266605E+00
        -11   -1    0    0    0    0  0.00000000000E+00  0.00000000000E+00  0.45593999997E+02  0.45594000000E+02  0.51100000000E-03 0.  1.
         11   -1    0    0    0    0 -0.00000000000E+00 -0.00000000000E+00 -0.45593999997E+02  0.45594000000E+02  0.51100000000E-03 0. -1.
    9900012    2    1    2    0    0  0.17321766082E+02 -0.23702094206E+02  0.12445403094E+02  0.59301938654E+02  0.49999990200E+02 0.  0.
         12    1    1    2    0    0 -0.17321766082E+02  0.23702094206E+02 -0.12445403094E+02  0.31886061346E+02  0.00000000000E+00 0. -1.
         11    1    3    3    0    0 -0.29447672887E+01 -0.18971997378E+02 -0.76804021824E+01  0.20678416691E+02  0.51100000000E-03 0. -1.
        -11    1    3    3    0    0  0.69630176631E+01 -0.11075723544E+02 -0.70938582466E+00  0.13101850843E+02  0.51100000000E-03 0.  1.
         12    1    3    3    0    0  0.13303515708E+02  0.63456267153E+01  0.20835191101E+02  0.25521671121E+02  0.00000000000E+00 0. -1.
</event>
<event>
 7    1  0.5837204E-012  0.5930195E+02  0.7816164E-02  0.1266605E+00
        -11   -1    0    0    0    0  0.00000000000E+00  0.00000000000E+00  0.45593999997E+02  0.45594000000E+02  0.51100000000E-03 0.  1.
         11   -1    0    0    0    0 -0.00000000000E+00 -0.00000000000E+00 -0.45593999997E+02  0.45594000000E+02  0.51100000000E-03 0. -1.
    9900012    2    1    2    0    0 -0.21637467502E+01 -0.70078443356E+01  0.31031087730E+02  0.59301951516E+02  0.50000013656E+02 0.  0.
         12    1    1    2    0    0  0.21637467502E+01  0.70078443356E+01 -0.31031087730E+02  0.31886048484E+02  0.00000000000E+00 0. -1.
         11    1    3    3    0    0  0.19848442810E+01 -0.61203364516E+01 -0.87736953479E+00  0.64936817494E+01  0.51100000000E-03 0. -1.
        -11    1    3    3    0    0 -0.11325312657E+02  0.17528204473E+02  0.95013527323E+01  0.22929813842E+02  0.51100000000E-03 0.  1.
         12    1    3    3    0    0  0.71767216254E+01 -0.18415712357E+02  0.22407104532E+02  0.29878455925E+02  0.00000000000E+00 0. -1.
</event>
<event>
 7    1  0.5837204E-012  0.5930194E+02  0.7816164E-02  0.1266605E+00
        -11   -1    0    0    0    0  0.00000000000E+00  0.00000000000E+00  0.45593999997E+02  0.45594000000E+02  0.51100000000E-03 0.  1.
         11   -1    0    0    0    0 -0.00000000000E+00 -0.00000000000E+00 -0.45593999997E+02  0.45594000000E+02  0.51100000000E-03 0. -1.
    9900012    2    1    2    0    0 -0.12289479656E+02  0.38453310034E+01  0.29170236705E+02  0.59301943641E+02  0.49999999294E+02 0.  0.
         12    1    1    2    0    0  0.12289479656E+02 -0.38453310034E+01 -0.29170236705E+02  0.31886056359E+02  0.00000000000E+00 0. -1.
         11    1    3    3    0    0  0.83166909429E+01  0.11498780848E+02  0.11021336419E+02  0.17968282221E+02  0.51100000000E-03 0. -1.
        -11    1    3    3    0    0 -0.22299963071E+02  0.53623734892E+01  0.16163213920E+02  0.28058739938E+02  0.51100000000E-03 0.  1.
        -12    1    3    3    0    0  0.16937924725E+01 -0.13015823334E+02  0.19856863654E+01  0.13274921482E+02  0.00000000000E+00 0.  1.
</event>
<event>
 7    1  0.5837204E-012  0.5930197E+02  0.7816164E-02  0.1266605E+00
        -11   -1    0    0    0    0  0.00000000000E+00  0.00000000000E+00  0.45593999997E+02  0.45594000000E+02  0.51100000000E-03 0. -1.
         11   -1    0    0    0    0 -0.00000000000E+00 -0.00000000000E+00 -0.45593999997E+02  0.45594000000E+02  0.51100000000E-03 0.  1.
    9900012    2    1    2    0    0  0.17825157942E+02  0.17590631410E+01 -0.26379692591E+02  0.59301972653E+02  0.50000052205E+02 0.  0.
         12    1    1    2    0    0 -0.17825157942E+02 -0.17590631410E+01  0.26379692591E+02  0.31886027347E+02  0.00000000000E+00 0. -1.
         11    1    3    3    0    0  0.74359494498E+00 -0.10689977405E+01 -0.52902858238E+01  0.54481936429E+01  0.51100000000E-03 0.  1.
        -11    1    3    3    0    0  0.15407255704E+02 -0.19385614705E+02 -0.25907153935E+01  0.24897738699E+02  0.51100000000E-03 0. -1.
         12    1    3    3    0    0  0.16743072937E+01  0.22213675586E+02 -0.18498691374E+02  0.28956040311E+02  0.00000000000E+00 0. -1.
</event>
<event>
 7    1  0.5837204E-012  0.5930192E+02  0.7816164E-02  0.1266605E+00
        -11   -1    0    0    0    0  0.00000000000E+00  0.00000000000E+00  0.45593999997E+02  0.45594000000E+02  0.51100000000E-03 0.  1.
         11   -1    0    0    0    0 -0.00000000000E+00 -0.00000000000E+00 -0.45593999997E+02  0.45594000000E+02  0.51100000000E-03 0. -1.
    9900012    2    1    2    0    0  0.44558095577E-01  0.21281546299E+02  0.23744807723E+02  0.59301920089E+02  0.49999956341E+02 0.  0.
         12    1    1    2    0    0 -0.44558095577E-01 -0.21281546299E+02 -0.23744807723E+02  0.31886079911E+02  0.00000000000E+00 0. -1.
         11    1    3    3    0    0  0.28632425753E+01  0.46936526712E+01 -0.31709538204E+01  0.63469269599E+01  0.51100000000E-03 0. -1.
        -11    1    3    3    0    0 -0.19654942126E+02  0.18899978008E+02  0.10186901695E+02  0.29108398875E+02  0.51100000000E-03 0.  1.
        -12    1    3    3    0    0  0.16836257646E+02 -0.23120843803E+01  0.16728859848E+02  0.23846594254E+02  0.00000000000E+00 0.  1.
</event>
<event>
 7    1  0.5837204E-012  0.5930199E+02  0.7816164E-02  0.1266605E+00
        -11   -1    0    0    0    0  0.00000000000E+00  0.00000000000E+00  0.45593999997E+02  0.45594000000E+02  0.51100000000E-03 0.  1.
         11   -1    0    0    0    0 -0.00000000000E+00 -0.00000000000E+00 -0.45593999997E+02  0.45594000000E+02  0.51100000000E-03 0. -1.
    9900012    2    1    2    0    0  0.30018386207E+02 -0.10444236640E+02  0.25557735654E+01  0.59301991031E+02  0.50000085723E+02 0.  0.
         12    1    1    2    0    0 -0.30018386207E+02  0.10444236640E+02 -0.25557735654E+01  0.31886008969E+02  0.00000000000E+00 0. -1.
         11    1    3    3    0    0  0.15733321890E+02 -0.47431253445E+01 -0.12853498589E+02  0.20862576111E+02  0.51100000000E-03 0. -1.
        -11    1    3    3    0    0  0.10468290759E+02  0.54134285697E+01 -0.65867702906E+01  0.13500957870E+02  0.51100000000E-03 0.  1.
         12    1    3    3    0    0  0.38167735575E+01 -0.11114539865E+02  0.21996042445E+02  0.24938457050E+02  0.00000000000E+00 0. -1.
</event>
<event>
 7    1  0.5837204E-012  0.5930195E+02  0.7816164E-02  0.1266605E+00
        -11   -1    0    0    0    0  0.00000000000E+00  0.00000000000E+00  0.45593999997E+02  0.45594000000E+02  0.51100000000E-03 0.  1.
         11   -1    0    0    0    0 -0.00000000000E+00 -0.00000000000E+00 -0.45593999997E+02  0.45594000000E+02  0.51100000000E-03 0. -1.
    9900012    2    1    2    0    0  0.27048038685E+02 -0.95746666690E+01 -0.13908624805E+02  0.59301945329E+02  0.50000002373E+02 0.  0.
         12    1    1    2    0    0 -0.27048038685E+02  0.95746666690E+01  0.13908624805E+02  0.31886054671E+02  0.00000000000E+00 0. -1.
         11    1    3    3    0    0  0.23586544331E+02 -0.16201560966E+02 -0.52449545120E+01  0.29091668898E+02  0.51100000000E-03 0. -1.
        -11    1    3    3    0    0  0.14544074963E+02 -0.99127931732E+00 -0.73001841368E+00  0.14596084351E+02  0.51100000000E-03 0.  1.
         12    1    3    3    0    0 -0.11082580609E+02  0.76181736145E+01 -0.79336518791E+01  0.15614192080E+02  0.00000000000E+00 0. -1.
</event>
<event>
 7    1  0.7101245E-012  0.5930194E+02  0.7816164E-02  0.1266605E+00
        -11   -1    0    0    0    0  0.00000000000E+00  0.00000000000E+00  0.45593999997E+02  0.45594000000E+02  0.51100000000E-03 0. -1.
         11   -1    0    0    0    0 -0.00000000000E+00 -0.00000000000E+00 -0.45593999997E+02  0.45594000000E+02  0.51100000000E-03 0.  1.
    9900012    2    1    2    0    0  0.14504186178E+02  0.21474480473E+02 -0.18579449999E+02  0.59301942067E+02  0.49999996423E+02 0.  0.
         12    1    1    2    0    0 -0.14504186178E+02 -0.21474480473E+02  0.18579449999E+02  0.31886057933E+02  0.00000000000E+00 0. -1.
         11    1    3    3    0    0 -0.87027382155E+01  0.12090887905E+01  0.35768473234E+01  0.94864843428E+01  0.51100000000E-03 0. -1.
        -11    1    3    3    0    0 -0.28174631951E+01  0.18080602073E+02 -0.68135603274E+01  0.19526158731E+02  0.51100000000E-03 0.  1.
        -12    1    3    3    0    0  0.26024387589E+02  0.21847896095E+01 -0.15342736995E+02  0.30289298993E+02  0.00000000000E+00 0.  1.
</event>
<event>
 7    1  0.5837204E-012  0.5930191E+02  0.7816164E-02  0.1266605E+00
        -11   -1    0    0    0    0  0.00000000000E+00  0.00000000000E+00  0.45593999997E+02  0.45594000000E+02  0.51100000000E-03 0. -1.
         11   -1    0    0    0    0 -0.00000000000E+00 -0.00000000000E+00 -0.45593999997E+02  0.45594000000E+02  0.51100000000E-03 0.  1.
    9900012    2    1    2    0    0  0.78648122897E+01 -0.30437543955E+02 -0.53313777541E+01  0.59301906744E+02  0.49999932004E+02 0.  0.
         12    1    1    2    0    0 -0.78648122897E+01  0.30437543955E+02  0.53313777541E+01  0.31886093256E+02  0.00000000000E+00 0. -1.
         11    1    3    3    0    0 -0.15083341683E+02  0.17838532077E+01  0.11754300472E+01  0.15233875562E+02  0.51100000000E-03 0. -1.
        -11    1    3    3    0    0  0.61088569517E+01 -0.29644485576E+01 -0.77302004042E+01  0.10288930316E+02  0.51100000000E-03 0.  1.
        -12    1    3    3    0    0  0.16839297021E+02 -0.29256948605E+02  0.12233926028E+01  0.33779100866E+02  0.00000000000E+00 0.  1.
</event>
<event>
 7    1  0.5837204E-012  0.5930193E+02  0.7816164E-02  0.1266605E+00
        -11   -1    0    0    0    0  0.00000000000E+00  0.00000000000E+00  0.45593999997E+02  0.45594000000E+02  0.51100000000E-03 0.  1.
         11   -1    0    0    0    0 -0.00000000000E+00 -0.00000000000E+00 -0.45593999997E+02  0.45594000000E+02  0.51100000000E-03 0. -1.
    9900012    2    1    2    0    0 -0.31384644212E+02 -0.56227238969E+01  0.33213623701E+00  0.59301933594E+02  0.49999980972E+02 0.  0.
         12    1    1    2    0    0  0.31384644212E+02  0.56227238969E+01 -0.33213623701E+00  0.31886066406E+02  0.00000000000E+00 0. -1.
         11    1    3    3    0    0 -0.25801689510E+01 -0.12860513997E+01  0.16291585507E+02  0.16544695785E+02  0.51100000000E-03 0. -1.
        -11    1    3    3    0    0 -0.16991521824E+02 -0.13271351705E+02 -0.81727497707E+00  0.21575646656E+02  0.51100000000E-03 0.  1.
         12    1    3    3    0    0 -0.11812953437E+02  0.89346792082E+01 -0.15142174293E+02  0.21181591153E+02  0.00000000000E+00 0. -1.
</event>
<event>
 7    1  0.5837204E-012  0.5930192E+02  0.7816164E-02  0.1266605E+00
        -11   -1    0    0    0    0  0.00000000000E+00  0.00000000000E+00  0.45593999997E+02  0.45594000000E+02  0.51100000000E-03 0. -1.
         11   -1    0    0    0    0 -0.00000000000E+00 -0.00000000000E+00 -0.45593999997E+02  0.45594000000E+02  0.51100000000E-03 0.  1.
    9900012    2    1    2    0    0  0.18542032372E+02 -0.15301036083E+02 -0.20947390477E+02  0.59301924081E+02  0.49999963622E+02 0.  0.
         12    1    1    2    0    0 -0.18542032372E+02  0.15301036083E+02  0.20947390477E+02  0.31886075919E+02  0.00000000000E+00 0. -1.
         11    1    3    3    0    0 -0.85228379857E+01 -0.12372470860E+02  0.65736099397E+01  0.16399059437E+02  0.51100000000E-03 0. -1.
        -11    1    3    3    0    0  0.13354345193E+01 -0.37775635656E+01 -0.12435474957E+02  0.13065007061E+02  0.51100000000E-03 0.  1.
         12    1    3    3    0    0  0.25729435838E+02  0.84899834242E+00 -0.15085525459E+02  0.29837857583E+02  0.00000000000E+00 0. -1.
</event>
<event>
 7    1  0.5837204E-012  0.5930211E+02  0.7816164E-02  0.1266604E+00
        -11   -1    0    0    0    0  0.00000000000E+00  0.00000000000E+00  0.45593999997E+02  0.45594000000E+02  0.51100000000E-03 0. -1.
         11   -1    0    0    0    0 -0.00000000000E+00 -0.00000000000E+00 -0.45593999997E+02  0.45594000000E+02  0.51100000000E-03 0.  1.
    9900012    2    1    2    0    0  0.23728573054E+02 -0.21216691883E+02 -0.18752726794E+01  0.59302112193E+02  0.50000306692E+02 0.  0.
         12    1    1    2    0    0 -0.23728573054E+02  0.21216691883E+02  0.18752726794E+01  0.31885887807E+02  0.00000000000E+00 0. -1.
         11    1    3    3    0    0  0.13161608316E+02 -0.12932345329E+02  0.13401843361E+02  0.22805326020E+02  0.51100000000E-03 0. -1.
        -11    1    3    3    0    0  0.19059495441E+02 -0.12867002951E+02 -0.77796126439E+01  0.24276459885E+02  0.51100000000E-03 0.  1.
        -12    1    3    3    0    0 -0.84925307029E+01  0.45826563976E+01 -0.74975033961E+01  0.12220326287E+02  0.00000000000E+00 0.  1.
</event>
<event>
 7    1  0.5837204E-012  0.5930195E+02  0.7816164E-02  0.1266605E+00
        -11   -1    0    0    0    0  0.00000000000E+00  0.00000000000E+00  0.45593999997E+02  0.45594000000E+02  0.51100000000E-03 0.  1.
         11   -1    0    0    0    0 -0.00000000000E+00 -0.00000000000E+00 -0.45593999997E+02  0.45594000000E+02  0.51100000000E-03 0. -1.
    9900012    2    1    2    0    0 -0.96777358106E+01 -0.28594399677E+02  0.10267511743E+02  0.59301951943E+02  0.50000014436E+02 0.  0.
         12    1    1    2    0    0  0.96777358106E+01  0.28594399677E+02 -0.10267511743E+02  0.31886048057E+02  0.00000000000E+00 0. -1.
         11    1    3    3    0    0 -0.19330945953E+02 -0.12917702124E+02 -0.44093580838E+01  0.23664212190E+02  0.51100000000E-03 0. -1.
        -11    1    3    3    0    0 -0.25849716747E+01 -0.14706197943E+02  0.17536767868E+02  0.23032424188E+02  0.51100000000E-03 0.  1.
         12    1    3    3    0    0  0.12238181817E+02 -0.97049961016E+00 -0.28598980411E+01  0.12605315565E+02  0.00000000000E+00 0. -1.
</event>
<event>
 7    1  0.5837204E-012  0.5930196E+02  0.7816164E-02  0.1266605E+00
        -11   -1    0    0    0    0  0.00000000000E+00  0.00000000000E+00  0.45593999997E+02  0.45594000000E+02  0.51100000000E-03 0.  1.
         11   -1    0    0    0    0 -0.00000000000E+00 -0.00000000000E+00 -0.45593999997E+02  0.45594000000E+02  0.51100000000E-03 0. -1.
    9900012    2    1    2    0    0 -0.23499424391E+02  0.17206413474E+02 -0.12978297331E+02  0.59301955828E+02  0.50000021520E+02 0.  0.
         12    1    1    2    0    0  0.23499424391E+02 -0.17206413474E+02  0.12978297331E+02  0.31886044172E+02  0.00000000000E+00 0. -1.
         11    1    3    3    0    0 -0.33397281710E+01  0.21250681441E+01 -0.81598337425E+01  0.90693211344E+01  0.51100000000E-03 0. -1.
        -11    1    3    3    0    0  0.76937722643E+01  0.20037763537E+02 -0.45465405296E+01  0.21940308345E+02  0.51100000000E-03 0.  1.
         12    1    3    3    0    0 -0.27853468485E+02 -0.49564182071E+01 -0.27192305884E+00  0.28292326349E+02  0.00000000000E+00 0. -1.
</event>
<event>
 7    1  0.5837204E-012  0.5930194E+02  0.7816164E-02  0.1266605E+00
        -11   -1    0    0    0    0  0.00000000000E+00  0.00000000000E+00  0.45593999997E+02  0.45594000000E+02  0.51100000000E-03 0. -1.
         11   -1    0    0    0    0 -0.00000000000E+00 -0.00000000000E+00 -0.45593999997E+02  0.45594000000E+02  0.51100000000E-03 0.  1.
    9900012    2    1    2    0    0 -0.21980589997E+02  0.15849684082E+02 -0.16803634375E+02  0.59301937993E+02  0.49999988994E+02 0.  0.
         12    1    1    2    0    0  0.21980589997E+02 -0.15849684082E+02  0.16803634375E+02  0.31886062007E+02  0.00000000000E+00 0. -1.
         11    1    3    3    0    0  0.38274959043E+01  0.51111909517E+01 -0.44632046173E+01  0.77906478267E+01  0.51100000000E-03 0. -1.
        -11    1    3    3    0    0  0.86837543780E+01 -0.70504815980E+01 -0.22076399215E+01  0.11401340059E+02  0.51100000000E-03 0.  1.
        -12    1    3    3    0    0 -0.34491840279E+02  0.17788974728E+02 -0.10132789837E+02  0.40109950107E+02  0.00000000000E+00 0.  1.
</event>
<event>
 7    1  0.5837204E-012  0.5930195E+02  0.7816164E-02  0.1266605E+00
        -11   -1    0    0    0    0  0.00000000000E+00  0.00000000000E+00  0.45593999997E+02  0.45594000000E+02  0.51100000000E-03 0. -1.
         11   -1    0    0    0    0 -0.00000000000E+00 -0.00000000000E+00 -0.45593999997E+02  0.45594000000E+02  0.51100000000E-03 0.  1.
    9900012    2    1    2    0    0  0.30234611482E+01 -0.30911228419E+02  0.72162685343E+01  0.59301954600E+02  0.50000019281E+02 0.  0.
         12    1    1    2    0    0 -0.30234611482E+01  0.30911228419E+02 -0.72162685343E+01  0.31886045400E+02  0.00000000000E+00 0. -1.
         11    1    3    3    0    0  0.13371738042E+02 -0.35695074352E+02  0.41147362308E+01  0.38338919726E+02  0.51100000000E-03 0. -1.
        -11    1    3    3    0    0  0.43568454952E+01 -0.77695494199E+00  0.28034113873E+01  0.52387858630E+01  0.51100000000E-03 0.  1.
        -12    1    3    3    0    0 -0.14705122389E+02  0.55608008747E+01  0.29812091617E+00  0.15724249010E+02  0.00000000000E+00 0.  1.
</event>
<event>
 7    1  0.5837204E-012  0.5930193E+02  0.7816164E-02  0.1266605E+00
        -11   -1    0    0    0    0  0.00000000000E+00  0.00000000000E+00  0.45593999997E+02  0.45594000000E+02  0.51100000000E-03 0.  1.
         11   -1    0    0    0    0 -0.00000000000E+00 -0.00000000000E+00 -0.45593999997E+02  0.45594000000E+02  0.51100000000E-03 0. -1.
    9900012    2    1    2    0    0 -0.25716797285E+02 -0.18671049813E+02 -0.25999945519E+01  0.59301925682E+02  0.49999966542E+02 0.  0.
         12    1    1    2    0    0  0.25716797285E+02  0.18671049813E+02  0.25999945519E+01  0.31886074318E+02  0.00000000000E+00 0. -1.
         11    1    3    3    0    0 -0.65647787944E+01  0.51150615464E+01 -0.11526827063E+02  0.14217169818E+02  0.51100000000E-03 0. -1.
        -11    1    3    3    0    0  0.41276151076E+01 -0.15080562338E+02  0.12444209643E+02  0.19982965766E+02  0.51100000000E-03 0.  1.
         12    1    3    3    0    0 -0.23279633598E+02 -0.87055490217E+01 -0.35173771326E+01  0.25101790098E+02  0.00000000000E+00 0. -1.
</event>
<event>
 7    1  0.5837204E-012  0.5930195E+02  0.7816164E-02  0.1266605E+00
        -11   -1    0    0    0    0  0.00000000000E+00  0.00000000000E+00  0.45593999997E+02  0.45594000000E+02  0.51100000000E-03 0. -1.
         11   -1    0    0    0    0 -0.00000000000E+00 -0.00000000000E+00 -0.45593999997E+02  0.45594000000E+02  0.51100000000E-03 0.  1.
    9900012    2    1    2    0    0  0.13371720700E+02 -0.12967037091E+02 -0.25879976634E+02  0.59301950449E+02  0.50000011710E+02 0.  0.
         12    1    1    2    0    0 -0.13371720700E+02  0.12967037091E+02  0.25879976634E+02  0.31886049551E+02  0.00000000000E+00 0. -1.
         11    1    3    3    0    0 -0.70288823025E+01 -0.61448803316E+01 -0.19652129199E+02  0.21757089030E+02  0.51100000000E-03 0. -1.
        -11    1    3    3    0    0  0.27673412457E+01 -0.97812581450E+01 -0.14609466933E+02  0.17797969344E+02  0.51100000000E-03 0.  1.
         12    1    3    3    0    0  0.17633261757E+02  0.29591013852E+01  0.83816194980E+01  0.19746892075E+02  0.00000000000E+00 0. -1.
</event>
<event>
 7    1  0.5837204E-012  0.5930197E+02  0.7816164E-02  0.1266605E+00
        -11   -1    0    0    0    0  0.00000000000E+00  0.00000000000E+00  0.45593999997E+02  0.45594000000E+02  0.51100000000E-03 0.  1.
         11   -1    0    0    0    0 -0.00000000000E+00 -0.00000000000E+00 -0.45593999997E+02  0.45594000000E+02  0.51100000000E-03 0. -1.
    9900012    2    1    2    0    0 -0.24921837305E+02 -0.92678241211E+01  0.17599105844E+02  0.59301967554E+02  0.50000042907E+02 0.  0.
         12    1    1    2    0    0  0.24921837305E+02  0.92678241211E+01 -0.17599105844E+02  0.31886032446E+02  0.00000000000E+00 0. -1.
         11    1    3    3    0    0 -0.83200635973E+01  0.10139939245E+02  0.13002853497E+01  0.13180765092E+02  0.51100000000E-03 0. -1.
        -11    1    3    3    0    0 -0.24644272521E+02 -0.15178374953E+02  0.21124536472E+02  0.35832517016E+02  0.51100000000E-03 0.  1.
         12    1    3    3    0    0  0.80424988129E+01 -0.42293884135E+01 -0.48257159780E+01  0.10288685446E+02  0.00000000000E+00 0. -1.
</event>
<event>
 7    1  0.5837204E-012  0.5930197E+02  0.7816164E-02  0.1266605E+00
        -11   -1    0    0    0    0  0.00000000000E+00  0.00000000000E+00  0.45593999997E+02  0.45594000000E+02  0.51100000000E-03 0. -1.
         11   -1    0    0    0    0 -0.00000000000E+00 -0.00000000000E+00 -0.45593999997E+02  0.45594000000E+02  0.51100000000E-03 0.  1.
    9900012    2    1    2    0    0 -0.12045088682E+02 -0.18556354395E+02 -0.22962930317E+02  0.59301974557E+02  0.50000055679E+02 0.  0.
         12    1    1    2    0    0  0.12045088682E+02  0.18556354395E+02  0.22962930317E+02  0.31886025443E+02  0.00000000000E+00 0. -1.
         11    1    3    3    0    0 -0.13455895316E+02 -0.13066368791E+02 -0.17084528611E+02  0.25370696291E+02  0.51100000000E-03 0. -1.
        -11    1    3    3    0    0 -0.15209029865E+02 -0.44120800749E+01 -0.68370637328E+01  0.17248955932E+02  0.51100000000E-03 0.  1.
        -12    1    3    3    0    0  0.16619836499E+02 -0.10779055294E+01  0.95866202742E+00  0.16682322334E+02  0.00000000000E+00 0.  1.
</event>
<event>
 7    1  0.5837204E-012  0.5930195E+02  0.7816164E-02  0.1266605E+00
        -11   -1    0    0    0    0  0.00000000000E+00  0.00000000000E+00  0.45593999997E+02  0.45594000000E+02  0.51100000000E-03 0.  1.
         11   -1    0    0    0    0 -0.00000000000E+00 -0.00000000000E+00 -0.45593999997E+02  0.45594000000E+02  0.51100000000E-03 0. -1.
    9900012    2    1    2    0    0  0.16020506750E+01  0.29114721017E+02  0.12902959187E+02  0.59301954431E+02  0.50000018972E+02 0.  0.
         12    1    1    2    0    0 -0.16020506750E+01 -0.29114721017E+02 -0.12902959187E+02  0.31886045569E+02  0.00000000000E+00 0. -1.
         11    1    3    3    0    0  0.49340928213E+01  0.52663399457E+01 -0.74413961985E+01  0.10366001449E+02  0.51100000000E-03 0. -1.
        -11    1    3    3    0    0  0.58330663994E+01 -0.76495270436E+01  0.11435391111E+02  0.14943496837E+02  0.51100000000E-03 0.  1.
         12    1    3    3    0    0 -0.91651085458E+01  0.31497908115E+02  0.89089642751E+01  0.33992456144E+02  0.00000000000E+00 0. -1.
</event>
<event>
 7    1  0.5837204E-012  0.5930200E+02  0.7816164E-02  0.1266605E+00
        -11   -1    0    0    0    0  0.00000000000E+00  0.00000000000E+00  0.45593999997E+02  0.45594000000E+02  0.51100000000E-03 0. -1.
         11   -1    0    0    0    0 -0.00000000000E+00 -0.00000000000E+00 -0.45593999997E+02  0.45594000000E+02  0.51100000000E-03 0.  1.
    9900012    2    1    2    0    0  0.47239559588E+01  0.12212342803E+02 -0.29073358020E+02  0.59301996437E+02  0.50000095582E+02 0.  0.
         12    1    1    2    0    0 -0.47239559588E+01 -0.12212342803E+02  0.29073358020E+02  0.31886003563E+02  0.00000000000E+00 0. -1.
         11    1    3    3    0    0 -0.52846247894E+01  0.17873347852E+01 -0.44672656107E+01  0.71469075198E+01  0.51100000000E-03 0. -1.
        -11    1    3    3    0    0  0.64976903176E+01 -0.42923667377E+01 -0.33642261684E+02  0.34531813783E+02  0.51100000000E-03 0.  1.
         12    1    3    3    0    0  0.35108904306E+01  0.14717374756E+02  0.90361692745E+01  0.17623275135E+02  0.00000000000E+00 0. -1.
</event>
<event>
 7    1  0.5837204E-012  0.5930216E+02  0.7816164E-02  0.1266604E+00
        -11   -1    0    0    0    0  0.00000000000E+00  0.00000000000E+00  0.45593999997E+02  0.45594000000E+02  0.51100000000E-03 0.  1.
         11   -1    0    0    0    0 -0.00000000000E+00 -0.00000000000E+00 -0.45593999997E+02  0.45594000000E+02  0.51100000000E-03 0. -1.
    9900012    2    1    2    0    0  0.14833206481E+02 -0.70719152296E+00  0.28216710428E+02  0.59302158601E+02  0.50000391328E+02 0.  0.
         12    1    1    2    0    0 -0.14833206481E+02  0.70719152296E+00 -0.28216710428E+02  0.31885841399E+02  0.00000000000E+00 0. -1.
         11    1    3    3    0    0 -0.13315100215E+02 -0.93073416633E-01  0.51418208617E+01  0.14273712847E+02  0.51100000000E-03 0. -1.
        -11    1    3    3    0    0 -0.44079881941E+00  0.22784882932E+01 -0.45881953169E+01  0.51417262693E+01  0.51100000000E-03 0.  1.
        -12    1    3    3    0    0  0.28589105516E+02 -0.28926063995E+01  0.27663084883E+02  0.39886719485E+02  0.00000000000E+00 0.  1.
</event>
<event>
 7    1  0.5837204E-012  0.5930196E+02  0.7816164E-02  0.1266605E+00
        -11   -1    0    0    0    0  0.00000000000E+00  0.00000000000E+00  0.45593999997E+02  0.45594000000E+02  0.51100000000E-03 0.  1.
         11   -1    0    0    0    0 -0.00000000000E+00 -0.00000000000E+00 -0.45593999997E+02  0.45594000000E+02  0.51100000000E-03 0. -1.
    9900012    2    1    2    0    0  0.31362658723E+02  0.57531722418E+01 -0.65600705955E-01  0.59301958281E+02  0.50000025995E+02 0.  0.
         12    1    1    2    0    0 -0.31362658723E+02 -0.57531722418E+01  0.65600705955E-01  0.31886041719E+02  0.00000000000E+00 0. -1.
         11    1    3    3    0    0  0.86872444138E+01 -0.54359548389E+01 -0.10318207905E+02  0.14542463174E+02  0.51100000000E-03 0. -1.
        -11    1    3    3    0    0  0.25541218724E+02  0.56933576749E+01 -0.64437895399E+01  0.26949779209E+02  0.51100000000E-03 0.  1.
         12    1    3    3    0    0 -0.28658044144E+01  0.54957694058E+01  0.16696396739E+02  0.17809715898E+02  0.00000000000E+00 0. -1.
</event>
<event>
 7    1  0.5837204E-012  0.5930195E+02  0.7816164E-02  0.1266605E+00
        -11   -1    0    0    0    0  0.00000000000E+00  0.00000000000E+00  0.45593999997E+02  0.45594000000E+02  0.51100000000E-03 0. -1.
         11   -1    0    0    0    0 -0.00000000000E+00 -0.00000000000E+00 -0.45593999997E+02  0.45594000000E+02  0.51100000000E-03 0.  1.
    9900012    2    1    2    0    0  0.15524799800E+01  0.13009682360E+02 -0.29069887624E+02  0.59301946690E+02  0.50000004855E+02 0.  0.
         12    1    1    2    0    0 -0.15524799800E+01 -0.13009682360E+02  0.29069887624E+02  0.31886053310E+02  0.00000000000E+00 0. -1.
         11    1    3    3    0    0  0.96186434119E+01 -0.28580693840E+01 -0.21853538698E+02  0.24047120734E+02  0.51100000000E-03 0.  1.
        -11    1    3    3    0    0 -0.42387447749E+01  0.22066713078E+02 -0.12993877497E+02  0.25956649168E+02  0.51100000000E-03 0. -1.
         12    1    3    3    0    0 -0.38274186571E+01 -0.61989613341E+01  0.57775285712E+01  0.92981767885E+01  0.00000000000E+00 0. -1.
</event>
<event>
 7    1  0.5837204E-012  0.5930191E+02  0.7816164E-02  0.1266605E+00
        -11   -1    0    0    0    0  0.00000000000E+00  0.00000000000E+00  0.45593999997E+02  0.45594000000E+02  0.51100000000E-03 0.  1.
         11   -1    0    0    0    0 -0.00000000000E+00 -0.00000000000E+00 -0.45593999997E+02  0.45594000000E+02  0.51100000000E-03 0. -1.
    9900012    2    1    2    0    0  0.25678665161E+01  0.21594700499E+02  0.23319469666E+02  0.59301910657E+02  0.49999939139E+02 0.  0.
         12    1    1    2    0    0 -0.25678665161E+01 -0.21594700499E+02 -0.23319469666E+02  0.31886089343E+02  0.00000000000E+00 0. -1.
         11    1    3    3    0    0 -0.33153612879E+00 -0.47225219385E+01  0.47257408236E+01  0.66891521330E+01  0.51100000000E-03 0. -1.
        -11    1    3    3    0    0  0.42357882127E+01  0.27822790948E+01  0.27086632021E+02  0.27556643722E+02  0.51100000000E-03 0.  1.
        -12    1    3    3    0    0 -0.13363855678E+01  0.23534943343E+02 -0.84929031785E+01  0.25056114802E+02  0.00000000000E+00 0.  1.
</event>
<event>
 7    1  0.5837204E-012  0.5930202E+02  0.7816164E-02  0.1266605E+00
        -11   -1    0    0    0    0  0.00000000000E+00  0.00000000000E+00  0.45593999997E+02  0.45594000000E+02  0.51100000000E-03 0. -1.
         11   -1    0    0    0    0 -0.00000000000E+00 -0.00000000000E+00 -0.45593999997E+02  0.45594000000E+02  0.51100000000E-03 0.  1.
    9900012    2    1    2    0    0 -0.17415949297E+02 -0.48675858099E+01 -0.26262275078E+02  0.59302019165E+02  0.50000137032E+02 0.  0.
         12    1    1    2    0    0  0.17415949297E+02  0.48675858099E+01  0.26262275078E+02  0.31885980835E+02  0.00000000000E+00 0. -1.
         11    1    3    3    0    0 -0.69203119647E+00 -0.11880410770E+02 -0.79616179824E+01  0.14318185234E+02  0.51100000000E-03 0. -1.
        -11    1    3    3    0    0 -0.23952398525E+02 -0.10323389836E+01 -0.29131255083E+00  0.23976404696E+02  0.51100000000E-03 0.  1.
         12    1    3    3    0    0  0.72284804241E+01  0.80451639438E+01 -0.18009344545E+02  0.21007429235E+02  0.00000000000E+00 0. -1.
</event>
<event>
 7    1  0.5837204E-012  0.5930193E+02  0.7816164E-02  0.1266605E+00
        -11   -1    0    0    0    0  0.00000000000E+00  0.00000000000E+00  0.45593999997E+02  0.45594000000E+02  0.51100000000E-03 0.  1.
         11   -1    0    0    0    0 -0.00000000000E+00 -0.00000000000E+00 -0.45593999997E+02  0.45594000000E+02  0.51100000000E-03 0. -1.
    9900012    2    1    2    0    0  0.26606282129E+01  0.11731117167E+02  0.29530043830E+02  0.59301928729E+02  0.49999972099E+02 0.  0.
         12    1    1    2    0    0 -0.26606282129E+01 -0.11731117167E+02 -0.29530043830E+02  0.31886071271E+02  0.00000000000E+00 0. -1.
         11    1    3    3    0    0  0.91536841738E+01 -0.38136679404E+00  0.60430782437E+01  0.10975161480E+02  0.51100000000E-03 0. -1.
        -11    1    3    3    0    0 -0.17275354377E+02  0.37034398235E+01  0.28692359779E+02  0.33695768953E+02  0.51100000000E-03 0.  1.
         12    1    3    3    0    0  0.10782298416E+02  0.84090441380E+01 -0.52053941923E+01  0.14630998296E+02  0.00000000000E+00 0. -1.
</event>
<event>
 7    1  0.5837204E-012  0.5930194E+02  0.7816164E-02  0.1266605E+00
        -11   -1    0    0    0    0  0.00000000000E+00  0.00000000000E+00  0.45593999997E+02  0.45594000000E+02  0.51100000000E-03 0.  1.
         11   -1    0    0    0    0 -0.00000000000E+00 -0.00000000000E+00 -0.45593999997E+02  0.45594000000E+02  0.51100000000E-03 0. -1.
    9900012    2    1    2    0    0 -0.12376349778E+02 -0.63099240268E+01  0.28700730176E+02  0.59301935839E+02  0.49999985066E+02 0.  0.
         12    1    1    2    0    0  0.12376349778E+02  0.63099240268E+01 -0.28700730176E+02  0.31886064161E+02  0.00000000000E+00 0. -1.
         11    1    3    3    0    0 -0.42572127323E+01  0.23777011704E+01 -0.11649877353E+02  0.12629210811E+02  0.51100000000E-03 0. -1.
        -11    1    3    3    0    0 -0.13350372960E+02 -0.11738185306E+01  0.17396971135E+02  0.21960530800E+02  0.51100000000E-03 0.  1.
         12    1    3    3    0    0  0.52312359143E+01 -0.75138066667E+01  0.22953636394E+02  0.24712194228E+02  0.00000000000E+00 0. -1.
</event>
<event>
 7    1  0.5837204E-012  0.5930194E+02  0.7816164E-02  0.1266605E+00
        -11   -1    0    0    0    0  0.00000000000E+00  0.00000000000E+00  0.45593999997E+02  0.45594000000E+02  0.51100000000E-03 0.  1.
         11   -1    0    0    0    0 -0.00000000000E+00 -0.00000000000E+00 -0.45593999997E+02  0.45594000000E+02  0.51100000000E-03 0. -1.
    9900012    2    1    2    0    0 -0.22919717618E+02 -0.12527452820E+02 -0.18288526370E+02  0.59301941501E+02  0.49999995391E+02 0.  0.
         12    1    1    2    0    0  0.22919717618E+02  0.12527452820E+02  0.18288526370E+02  0.31886058499E+02  0.00000000000E+00 0. -1.
         11    1    3    3    0    0 -0.18763511314E+01  0.54035576493E+01 -0.19525841007E+02  0.20346439397E+02  0.51100000000E-03 0. -1.
        -11    1    3    3    0    0 -0.39631165447E+01  0.63350554061E+01  0.50762643586E+01  0.90336969090E+01  0.51100000000E-03 0.  1.
         12    1    3    3    0    0 -0.17080249942E+02 -0.24266065875E+02 -0.38389497209E+01  0.29921805194E+02  0.00000000000E+00 0. -1.
</event>
<event>
 7    1  0.5837204E-012  0.5930197E+02  0.7816164E-02  0.1266605E+00
        -11   -1    0    0    0    0  0.00000000000E+00  0.00000000000E+00  0.45593999997E+02  0.45594000000E+02  0.51100000000E-03 0.  1.
         11   -1    0    0    0    0 -0.00000000000E+00 -0.00000000000E+00 -0.45593999997E+02  0.45594000000E+02  0.51100000000E-03 0. -1.
    9900012    2    1    2    0    0  0.18168953276E+02  0.10224476979E+02  0.24126087478E+02  0.59301970306E+02  0.50000047925E+02 0.  0.
         12    1    1    2    0    0 -0.18168953276E+02 -0.10224476979E+02 -0.24126087478E+02  0.31886029694E+02  0.00000000000E+00 0. -1.
         11    1    3    3    0    0 -0.52233269825E+01 -0.28332716172E+01  0.64074354178E+00  0.59767152659E+01  0.51100000000E-03 0. -1.
        -11    1    3    3    0    0 -0.10513822100E+02  0.59958963129E+01  0.11446731421E+02  0.16658898169E+02  0.51100000000E-03 0.  1.
        -12    1    3    3    0    0  0.33906102359E+02  0.70618522837E+01  0.12038612516E+02  0.36666356870E+02  0.00000000000E+00 0.  1.
</event>
<event>
 7    1  0.5837204E-012  0.5930193E+02  0.7816164E-02  0.1266605E+00
        -11   -1    0    0    0    0  0.00000000000E+00  0.00000000000E+00  0.45593999997E+02  0.45594000000E+02  0.51100000000E-03 0.  1.
         11   -1    0    0    0    0 -0.00000000000E+00 -0.00000000000E+00 -0.45593999997E+02  0.45594000000E+02  0.51100000000E-03 0. -1.
    9900012    2    1    2    0    0 -0.11568192952E+01  0.18548277933E+02  0.25910316086E+02  0.59301932120E+02  0.49999978284E+02 0.  0.
         12    1    1    2    0    0  0.11568192952E+01 -0.18548277933E+02 -0.25910316086E+02  0.31886067880E+02  0.00000000000E+00 0. -1.
         11    1    3    3    0    0 -0.80521338892E+01 -0.52490253675E+01 -0.36338069634E+01  0.10275878590E+02  0.51100000000E-03 0. -1.
        -11    1    3    3    0    0  0.53578812003E+01 -0.57282267425E+01  0.12900429207E+02  0.15097700042E+02  0.51100000000E-03 0.  1.
        -12    1    3    3    0    0  0.15374333936E+01  0.29525530043E+02  0.16643693842E+02  0.33928353489E+02  0.00000000000E+00 0.  1.
</event>
<event>
 7    1  0.5837204E-012  0.5930195E+02  0.7816164E-02  0.1266605E+00
        -11   -1    0    0    0    0  0.00000000000E+00  0.00000000000E+00  0.45593999997E+02  0.45594000000E+02  0.51100000000E-03 0.  1.
         11   -1    0    0    0    0 -0.00000000000E+00 -0.00000000000E+00 -0.45593999997E+02  0.45594000000E+02  0.51100000000E-03 0. -1.
    9900012    2    1    2    0    0 -0.22567127215E+02  0.14976134156E+02  0.16827378294E+02  0.59301945285E+02  0.50000002294E+02 0.  0.
         12    1    1    2    0    0  0.22567127215E+02 -0.14976134156E+02 -0.16827378294E+02  0.31886054715E+02  0.00000000000E+00 0. -1.
         11    1    3    3    0    0 -0.68998514972E+01  0.15531571318E+02 -0.69464455105E+01  0.18360031693E+02  0.51100000000E-03 0. -1.
        -11    1    3    3    0    0 -0.84668632762E+01  0.13497308952E+02  0.56518641252E+01  0.16905877411E+02  0.51100000000E-03 0.  1.
        -12    1    3    3    0    0 -0.72004124415E+01 -0.14052746114E+02  0.18121959679E+02  0.24036036181E+02  0.00000000000E+00 0.  1.
</event>
<event>
 7    1  0.5837204E-012  0.5930203E+02  0.7816164E-02  0.1266604E+00
        -11   -1    0    0    0    0  0.00000000000E+00  0.00000000000E+00  0.45593999997E+02  0.45594000000E+02  0.51100000000E-03 0.  1.
         11   -1    0    0    0    0 -0.00000000000E+00 -0.00000000000E+00 -0.45593999997E+02  0.45594000000E+02  0.51100000000E-03 0. -1.
    9900012    2    1    2    0    0 -0.13369068830E+02  0.28656192765E+02 -0.40994423891E+01  0.59302034230E+02  0.50000164507E+02 0.  0.
         12    1    1    2    0    0  0.13369068830E+02 -0.28656192765E+02  0.40994423891E+01  0.31885965770E+02  0.00000000000E+00 0. -1.
         11    1    3    3    0    0  0.10757804176E+02  0.73672325809E+01 -0.81310071317E+01  0.15366188331E+02  0.51100000000E-03 0. -1.
        -11    1    3    3    0    0 -0.74300667403E+01  0.16933615149E+02 -0.10597770536E+02  0.21313515768E+02  0.51100000000E-03 0.  1.
        -12    1    3    3    0    0 -0.16696806266E+02  0.43553450351E+01  0.14629335279E+02  0.22622330131E+02  0.00000000000E+00 0.  1.
</event>
<event>
 7    1  0.5837204E-012  0.5930193E+02  0.7816164E-02  0.1266605E+00
        -11   -1    0    0    0    0  0.00000000000E+00  0.00000000000E+00  0.45593999997E+02  0.45594000000E+02  0.51100000000E-03 0.  1.
         11   -1    0    0    0    0 -0.00000000000E+00 -0.00000000000E+00 -0.45593999997E+02  0.45594000000E+02  0.51100000000E-03 0. -1.
    9900012    2    1    2    0    0 -0.26650607858E+02  0.14364200933E+02 -0.10006825387E+02  0.59301925893E+02  0.49999966927E+02 0.  0.
         12    1    1    2    0    0  0.26650607858E+02 -0.14364200933E+02  0.10006825387E+02  0.31886074107E+02  0.00000000000E+00 0. -1.
         11    1    3    3    0    0 -0.16941777161E+02 -0.82640649715E+01 -0.88676156251E+01  0.20831543158E+02  0.51100000000E-03 0. -1.
        -11    1    3    3    0    0 -0.44328696137E+01 -0.64250344656E+01  0.35442470693E+01  0.85728110003E+01  0.51100000000E-03 0.  1.
         12    1    3    3    0    0 -0.52759610834E+01  0.29053300370E+02 -0.46834568308E+01  0.29897571734E+02  0.00000000000E+00 0. -1.
</event>
<event>
 7    1  0.5837204E-012  0.5930189E+02  0.7816164E-02  0.1266605E+00
        -11   -1    0    0    0    0  0.00000000000E+00  0.00000000000E+00  0.45593999997E+02  0.45594000000E+02  0.51100000000E-03 0.  1.
         11   -1    0    0    0    0 -0.00000000000E+00 -0.00000000000E+00 -0.45593999997E+02  0.45594000000E+02  0.51100000000E-03 0. -1.
    9900012    2    1    2    0    0  0.29523434738E+02 -0.10656918997E+02 -0.56143445916E+01  0.59301890385E+02  0.49999902168E+02 0.  0.
         12    1    1    2    0    0 -0.29523434738E+02  0.10656918997E+02  0.56143445916E+01  0.31886109615E+02  0.00000000000E+00 0. -1.
         11    1    3    3    0    0  0.18618743925E+01  0.32318730330E+01 -0.30930316427E+01  0.48454540096E+01  0.51100000000E-03 0. -1.
        -11    1    3    3    0    0  0.38853097466E+02 -0.68740396941E+01 -0.78218393537E+01  0.40224330641E+02  0.51100000000E-03 0.  1.
         12    1    3    3    0    0 -0.11191537121E+02 -0.70147523356E+01  0.53005264048E+01  0.14232105734E+02  0.00000000000E+00 0. -1.
</event>
<event>
 7    1  0.5837204E-012  0.5930203E+02  0.7816164E-02  0.1266604E+00
        -11   -1    0    0    0    0  0.00000000000E+00  0.00000000000E+00  0.45593999997E+02  0.45594000000E+02  0.51100000000E-03 0. -1.
         11   -1    0    0    0    0 -0.00000000000E+00 -0.00000000000E+00 -0.45593999997E+02  0.45594000000E+02  0.51100000000E-03 0.  1.
    9900012    2    1    2    0    0  0.18122816129E+02  0.16702395333E+02 -0.20231375659E+02  0.59302030745E+02  0.50000158151E+02 0.  0.
         12    1    1    2    0    0 -0.18122816129E+02 -0.16702395333E+02  0.20231375659E+02  0.31885969255E+02  0.00000000000E+00 0. -1.
         11    1    3    3    0    0  0.79240672134E+01  0.19992847932E+02 -0.56120661433E+01  0.22226112937E+02  0.51100000000E-03 0.  1.
        -11    1    3    3    0    0  0.20747436680E+02  0.18716096166E+01 -0.39371883696E+01  0.21200483576E+02  0.51100000000E-03 0. -1.
        -12    1    3    3    0    0 -0.10548687765E+02 -0.51620622149E+01 -0.10682121146E+02  0.15875434232E+02  0.00000000000E+00 0.  1.
</event>
<event>
 7    1  0.5837204E-012  0.5930196E+02  0.7816164E-02  0.1266605E+00
        -11   -1    0    0    0    0  0.00000000000E+00  0.00000000000E+00  0.45593999997E+02  0.45594000000E+02  0.51100000000E-03 0. -1.
         11   -1    0    0    0    0 -0.00000000000E+00 -0.00000000000E+00 -0.45593999997E+02  0.45594000000E+02  0.51100000000E-03 0.  1.
    9900012    2    1    2    0    0 -0.10196090661E+02 -0.24279967938E+02 -0.17978948282E+02  0.59301957769E+02  0.50000025060E+02 0.  0.
         12    1    1    2    0    0  0.10196090661E+02  0.24279967938E+02  0.17978948282E+02  0.31886042231E+02  0.00000000000E+00 0. -1.
         11    1    3    3    0    0  0.11884237374E+01 -0.11172928657E+02  0.22770598725E+01  0.11464365996E+02  0.51100000000E-03 0. -1.
        -11    1    3    3    0    0  0.87494580430E+01 -0.13455431677E+02 -0.22432915002E+02  0.27583279961E+02  0.51100000000E-03 0.  1.
        -12    1    3    3    0    0 -0.20133972441E+02  0.34839239634E+00  0.21769068479E+01  0.20254311812E+02  0.00000000000E+00 0.  1.
</event>
<event>
 7    1  0.5837204E-012  0.5930196E+02  0.7816164E-02  0.1266605E+00
        -11   -1    0    0    0    0  0.00000000000E+00  0.00000000000E+00  0.45593999997E+02  0.45594000000E+02  0.51100000000E-03 0. -1.
         11   -1    0    0    0    0 -0.00000000000E+00 -0.00000000000E+00 -0.45593999997E+02  0.45594000000E+02  0.51100000000E-03 0.  1.
    9900012    2    1    2    0    0 -0.12706235042E+02  0.28658019988E+02 -0.58300310313E+01  0.59301956338E+02  0.50000022450E+02 0.  0.
         12    1    1    2    0    0  0.12706235042E+02 -0.28658019988E+02  0.58300310313E+01  0.31886043662E+02  0.00000000000E+00 0. -1.
         11    1    3    3    0    0 -0.97275975128E+01 -0.39154244563E+01 -0.51221940448E+01  0.11670200261E+02  0.51100000000E-03 0. -1.
        -11    1    3    3    0    0 -0.73241865257E+01  0.19745139126E+02 -0.16553116984E+02  0.26786562107E+02  0.51100000000E-03 0.  1.
         12    1    3    3    0    0  0.43455489960E+01  0.12828305319E+02  0.15845279997E+02  0.20845193970E+02  0.00000000000E+00 0. -1.
</event>
<event>
 7    1  0.5837204E-012  0.5930191E+02  0.7816164E-02  0.1266605E+00
        -11   -1    0    0    0    0  0.00000000000E+00  0.00000000000E+00  0.45593999997E+02  0.45594000000E+02  0.51100000000E-03 0.  1.
         11   -1    0    0    0    0 -0.00000000000E+00 -0.00000000000E+00 -0.45593999997E+02  0.45594000000E+02  0.51100000000E-03 0. -1.
    9900012    2    1    2    0    0  0.27925818429E+02 -0.11793527797E+01  0.15345371173E+02  0.59301911742E+02  0.49999941119E+02 0.  0.
         12    1    1    2    0    0 -0.27925818429E+02  0.11793527797E+01 -0.15345371173E+02  0.31886088258E+02  0.00000000000E+00 0. -1.
         11    1    3    3    0    0  0.54052061263E+01 -0.10619081798E+02  0.50815599313E+01  0.12953895287E+02  0.51100000000E-03 0. -1.
        -11    1    3    3    0    0  0.12556176107E+02 -0.59863843676E+01 -0.11373427217E+02  0.17968004985E+02  0.51100000000E-03 0.  1.
         12    1    3    3    0    0  0.99644361957E+01  0.15426113386E+02  0.21637238459E+02  0.28380011470E+02  0.00000000000E+00 0. -1.
</event>
<event>
 7    1  0.5837204E-012  0.5930200E+02  0.7816164E-02  0.1266605E+00
        -11   -1    0    0    0    0  0.00000000000E+00  0.00000000000E+00  0.45593999997E+02  0.45594000000E+02  0.51100000000E-03 0. -1.
         11   -1    0    0    0    0 -0.00000000000E+00 -0.00000000000E+00 -0.45593999997E+02  0.45594000000E+02  0.51100000000E-03 0.  1.
    9900012    2    1    2    0    0  0.19704496725E+02  0.22577809782E+02 -0.10894595454E+02  0.59302001570E+02  0.50000104943E+02 0.  0.
         12    1    1    2    0    0 -0.19704496725E+02 -0.22577809782E+02  0.10894595454E+02  0.31885998430E+02  0.00000000000E+00 0. -1.
         11    1    3    3    0    0  0.13889681128E+01  0.86411759855E+01  0.17098830151E+01  0.89175588037E+01  0.51100000000E-03 0. -1.
        -11    1    3    3    0    0  0.27969276352E+02  0.19691006146E+02 -0.17146699797E+02  0.38262585601E+02  0.51100000000E-03 0.  1.
        -12    1    3    3    0    0 -0.96537477392E+01 -0.57543723491E+01  0.45422213282E+01  0.12121857165E+02  0.00000000000E+00 0.  1.
</event>
<event>
 7    1  0.5837204E-012  0.5930194E+02  0.7816164E-02  0.1266605E+00
        -11   -1    0    0    0    0  0.00000000000E+00  0.00000000000E+00  0.45593999997E+02  0.45594000000E+02  0.51100000000E-03 0.  1.
         11   -1    0    0    0    0 -0.00000000000E+00 -0.00000000000E+00 -0.45593999997E+02  0.45594000000E+02  0.51100000000E-03 0. -1.
    9900012    2    1    2    0    0 -0.25002193082E+02 -0.19741661216E+02 -0.13703287396E+01  0.59301942744E+02  0.49999997659E+02 0.  0.
         12    1    1    2    0    0  0.25002193082E+02  0.19741661216E+02  0.13703287396E+01  0.31886057256E+02  0.00000000000E+00 0. -1.
         11    1    3    3    0    0 -0.23920615456E+02  0.43924376996E+01  0.19856145772E+01  0.24401475739E+02  0.51100000000E-03 0.  1.
        -11    1    3    3    0    0 -0.29414958820E+01  0.43234050075E+01 -0.36563190625E+01  0.63806659708E+01  0.51100000000E-03 0. -1.
        -12    1    3    3    0    0  0.18599182557E+01 -0.28457503923E+02  0.30037574569E+00  0.28519801034E+02  0.00000000000E+00 0.  1.
</event>
<event>
 7    1  0.5837204E-012  0.5930190E+02  0.7816164E-02  0.1266605E+00
        -11   -1    0    0    0    0  0.00000000000E+00  0.00000000000E+00  0.45593999997E+02  0.45594000000E+02  0.51100000000E-03 0.  1.
         11   -1    0    0    0    0 -0.00000000000E+00 -0.00000000000E+00 -0.45593999997E+02  0.45594000000E+02  0.51100000000E-03 0. -1.
    9900012    2    1    2    0    0  0.17054822738E+02 -0.17974489893E+02  0.20069230033E+02  0.59301901781E+02  0.49999922952E+02 0.  0.
         12    1    1    2    0    0 -0.17054822738E+02  0.17974489893E+02 -0.20069230033E+02  0.31886098219E+02  0.00000000000E+00 0. -1.
         11    1    3    3    0    0 -0.60887981224E+00  0.78712286521E+01 -0.96368251615E+01  0.12457743559E+02  0.51100000000E-03 0. -1.
        -11    1    3    3    0    0  0.82703132101E+01 -0.74277701597E+01  0.58691270617E+00  0.11131680777E+02  0.51100000000E-03 0.  1.
         12    1    3    3    0    0  0.93933893401E+01 -0.18417948385E+02  0.29119142488E+02  0.35712477445E+02  0.00000000000E+00 0. -1.
</event>
<event>
 7    1  0.5837204E-012  0.5930207E+02  0.7816164E-02  0.1266604E+00
        -11   -1    0    0    0    0  0.00000000000E+00  0.00000000000E+00  0.45593999997E+02  0.45594000000E+02  0.51100000000E-03 0. -1.
         11   -1    0    0    0    0 -0.00000000000E+00 -0.00000000000E+00 -0.45593999997E+02  0.45594000000E+02  0.51100000000E-03 0.  1.
    9900012    2    1    2    0    0 -0.90844803190E+01 -0.27249484436E+02 -0.13843779951E+02  0.59302071630E+02  0.50000232715E+02 0.  0.
         12    1    1    2    0    0  0.90844803190E+01  0.27249484436E+02  0.13843779951E+02  0.31885928370E+02  0.00000000000E+00 0. -1.
         11    1    3    3    0    0  0.26838638040E+01 -0.22237808428E+02  0.12059281594E+01  0.22431618568E+02  0.51100000000E-03 0. -1.
        -11    1    3    3    0    0 -0.13336458357E+02 -0.16863344815E+02 -0.76996825371E+01  0.22836782420E+02  0.51100000000E-03 0.  1.
        -12    1    3    3    0    0  0.15681142340E+01  0.11851668807E+02 -0.73500255732E+01  0.14033670642E+02  0.00000000000E+00 0.  1.
</event>
<event>
 7    1  0.5837204E-012  0.5930195E+02  0.7816164E-02  0.1266605E+00
        -11   -1    0    0    0    0  0.00000000000E+00  0.00000000000E+00  0.45593999997E+02  0.45594000000E+02  0.51100000000E-03 0. -1.
         11   -1    0    0    0    0 -0.00000000000E+00 -0.00000000000E+00 -0.45593999997E+02  0.45594000000E+02  0.51100000000E-03 0.  1.
    9900012    2    1    2    0    0 -0.25342626795E+02 -0.77068784403E+01 -0.17750363942E+02  0.59301950884E+02  0.50000012504E+02 0.  0.
         12    1    1    2    0    0  0.25342626795E+02  0.77068784403E+01  0.17750363942E+02  0.31886049116E+02  0.00000000000E+00 0. -1.
         11    1    3    3    0    0 -0.16818336975E+01 -0.72104046507E+01  0.18734134299E+01  0.76372886519E+01  0.51100000000E-03 0. -1.
        -11    1    3    3    0    0 -0.10687532021E+02 -0.66224352700E+01 -0.30936733376E+02  0.33394033327E+02  0.51100000000E-03 0.  1.
         12    1    3    3    0    0 -0.12973261077E+02  0.61259614803E+01  0.11312956004E+02  0.18270628905E+02  0.00000000000E+00 0. -1.
</event>
<event>
 7    1  0.5837204E-012  0.5930196E+02  0.7816164E-02  0.1266605E+00
        -11   -1    0    0    0    0  0.00000000000E+00  0.00000000000E+00  0.45593999997E+02  0.45594000000E+02  0.51100000000E-03 0.  1.
         11   -1    0    0    0    0 -0.00000000000E+00 -0.00000000000E+00 -0.45593999997E+02  0.45594000000E+02  0.51100000000E-03 0. -1.
    9900012    2    1    2    0    0  0.14450795503E+01  0.76709672537E+01  0.30915815629E+02  0.59301958391E+02  0.50000026195E+02 0.  0.
         12    1    1    2    0    0 -0.14450795503E+01 -0.76709672537E+01 -0.30915815629E+02  0.31886041609E+02  0.00000000000E+00 0. -1.
         11    1    3    3    0    0  0.28983621502E+01 -0.25875103327E+01  0.10251579252E+02  0.10963146915E+02  0.51100000000E-03 0. -1.
        -11    1    3    3    0    0  0.11479935766E+02  0.11181442590E+02  0.28852064584E+02  0.33003866661E+02  0.51100000000E-03 0.  1.
         12    1    3    3    0    0 -0.12933218366E+02 -0.92296500412E+00 -0.81878282068E+01  0.15334944814E+02  0.00000000000E+00 0. -1.
</event>
<event>
 7    1  0.5837204E-012  0.5930189E+02  0.7816164E-02  0.1266605E+00
        -11   -1    0    0    0    0  0.00000000000E+00  0.00000000000E+00  0.45593999997E+02  0.45594000000E+02  0.51100000000E-03 0.  1.
         11   -1    0    0    0    0 -0.00000000000E+00 -0.00000000000E+00 -0.45593999997E+02  0.45594000000E+02  0.51100000000E-03 0. -1.
    9900012    2    1    2    0    0  0.12924371179E+02  0.28199981280E+02  0.73787158684E+01  0.59301893896E+02  0.49999908573E+02 0.  0.
         12    1    1    2    0    0 -0.12924371179E+02 -0.28199981280E+02 -0.73787158684E+01  0.31886106104E+02  0.00000000000E+00 0. -1.
         11    1    3    3    0    0  0.94003476176E+01  0.10971695902E+02  0.10558819370E+01  0.14486529371E+02  0.51100000000E-03 0. -1.
        -11    1    3    3    0    0  0.54217235057E+01  0.27452206159E+02 -0.60746862093E+01  0.28634254340E+02  0.51100000000E-03 0.  1.
         12    1    3    3    0    0 -0.18976999448E+01 -0.10223920780E+02  0.12397520141E+02  0.16181110186E+02  0.00000000000E+00 0. -1.
</event>
<event>
 7    1  0.5837204E-012  0.5930196E+02  0.7816164E-02  0.1266605E+00
        -11   -1    0    0    0    0  0.00000000000E+00  0.00000000000E+00  0.45593999997E+02  0.45594000000E+02  0.51100000000E-03 0. -1.
         11   -1    0    0    0    0 -0.00000000000E+00 -0.00000000000E+00 -0.45593999997E+02  0.45594000000E+02  0.51100000000E-03 0.  1.
    9900012    2    1    2    0    0 -0.29223423197E+00  0.31566518609E+02 -0.44932293581E+01  0.59301959042E+02  0.50000027382E+02 0.  0.
         12    1    1    2    0    0  0.29223423197E+00 -0.31566518609E+02  0.44932293581E+01  0.31886040958E+02  0.00000000000E+00 0. -1.
         11    1    3    3    0    0  0.12471187016E+02 -0.17011413619E+01  0.48329373348E+01  0.13482643326E+02  0.51100000000E-03 0. -1.
        -11    1    3    3    0    0  0.20210754709E+01  0.86574725162E+01 -0.14146255412E+02  0.16707875953E+02  0.51100000000E-03 0.  1.
        -12    1    3    3    0    0 -0.14784496719E+02  0.24610187454E+02  0.48200887193E+01  0.29111439762E+02  0.00000000000E+00 0.  1.
</event>
<event>
 7    1  0.5837204E-012  0.5930191E+02  0.7816164E-02  0.1266605E+00
        -11   -1    0    0    0    0  0.00000000000E+00  0.00000000000E+00  0.45593999997E+02  0.45594000000E+02  0.51100000000E-03 0. -1.
         11   -1    0    0    0    0 -0.00000000000E+00 -0.00000000000E+00 -0.45593999997E+02  0.45594000000E+02  0.51100000000E-03 0.  1.
    9900012    2    1    2    0    0 -0.12911518890E+00 -0.46665324627E+01 -0.31542501332E+02  0.59301912340E+02  0.49999942210E+02 0.  0.
         12    1    1    2    0    0  0.12911518890E+00  0.46665324627E+01  0.31542501332E+02  0.31886087660E+02  0.00000000000E+00 0. -1.
         11    1    3    3    0    0  0.86364081821E+01 -0.39489193592E+01  0.77405177836E+00  0.95278888957E+01  0.51100000000E-03 0.  1.
        -11    1    3    3    0    0  0.92805723685E+01  0.93859318351E+01 -0.24182001688E+02  0.27549844751E+02  0.51100000000E-03 0. -1.
         12    1    3    3    0    0 -0.18046095739E+02 -0.10103544939E+02 -0.81345514222E+01  0.22224178694E+02  0.00000000000E+00 0. -1.
</event>
<event>
 7    1  0.5837204E-012  0.5930199E+02  0.7816164E-02  0.1266605E+00
        -11   -1    0    0    0    0  0.00000000000E+00  0.00000000000E+00  0.45593999997E+02  0.45594000000E+02  0.51100000000E-03 0.  1.
         11   -1    0    0    0    0 -0.00000000000E+00 -0.00000000000E+00 -0.45593999997E+02  0.45594000000E+02  0.51100000000E-03 0. -1.
    9900012    2    1    2    0    0 -0.25948661454E+02  0.18525109939E+02  0.45299241310E+00  0.59301985328E+02  0.50000075322E+02 0.  0.
         12    1    1    2    0    0  0.25948661454E+02 -0.18525109939E+02 -0.45299241310E+00  0.31886014672E+02  0.00000000000E+00 0. -1.
         11    1    3    3    0    0 -0.32978143573E+01  0.71692649444E+01  0.10200371830E+02  0.12896570284E+02  0.51100000000E-03 0. -1.
        -11    1    3    3    0    0 -0.31649196314E+02  0.33503206083E+01 -0.16034015595E+01  0.31866395660E+02  0.51100000000E-03 0.  1.
         12    1    3    3    0    0  0.89983492171E+01  0.80055243859E+01 -0.81439778569E+01  0.14539019384E+02  0.00000000000E+00 0. -1.
</event>
<event>
 7    1  0.5837204E-012  0.5930197E+02  0.7816164E-02  0.1266605E+00
        -11   -1    0    0    0    0  0.00000000000E+00  0.00000000000E+00  0.45593999997E+02  0.45594000000E+02  0.51100000000E-03 0.  1.
         11   -1    0    0    0    0 -0.00000000000E+00 -0.00000000000E+00 -0.45593999997E+02  0.45594000000E+02  0.51100000000E-03 0. -1.
    9900012    2    1    2    0    0 -0.25655299803E+02 -0.82224685368E+01  0.17056249504E+02  0.59301967886E+02  0.50000043512E+02 0.  0.
         12    1    1    2    0    0  0.25655299803E+02  0.82224685368E+01 -0.17056249504E+02  0.31886032114E+02  0.00000000000E+00 0. -1.
         11    1    3    3    0    0 -0.12593507716E+02 -0.39508306925E+01 -0.11508982442E+01  0.13248776049E+02  0.51100000000E-03 0. -1.
        -11    1    3    3    0    0 -0.11354287847E+02 -0.65296820767E+01  0.30629416650E+02  0.33312426587E+02  0.51100000000E-03 0.  1.
         12    1    3    3    0    0 -0.17075042394E+01  0.22580442324E+01 -0.12422268902E+02  0.12740765250E+02  0.00000000000E+00 0. -1.
</event>
<event>
 7    1  0.5837204E-012  0.5930194E+02  0.7816164E-02  0.1266605E+00
        -11   -1    0    0    0    0  0.00000000000E+00  0.00000000000E+00  0.45593999997E+02  0.45594000000E+02  0.51100000000E-03 0.  1.
         11   -1    0    0    0    0 -0.00000000000E+00 -0.00000000000E+00 -0.45593999997E+02  0.45594000000E+02  0.51100000000E-03 0. -1.
    9900012    2    1    2    0    0 -0.31828742843E+02 -0.51062520941E+00 -0.18414748957E+01  0.59301942877E+02  0.49999997901E+02 0.  0.
         12    1    1    2    0    0  0.31828742843E+02  0.51062520941E+00  0.18414748957E+01  0.31886057123E+02  0.00000000000E+00 0. -1.
         11    1    3    3    0    0 -0.17617176901E+02  0.17815874655E+02  0.49740950794E+01  0.25544313140E+02  0.51100000000E-03 0. -1.
        -11    1    3    3    0    0 -0.12518502250E+02  0.17328676336E+01 -0.45527051333E+00  0.12646066594E+02  0.51100000000E-03 0.  1.
        -12    1    3    3    0    0 -0.16930636926E+01 -0.20059367498E+02 -0.63602994618E+01  0.21111563142E+02  0.00000000000E+00 0.  1.
</event>
<event>
 7    1  0.5837204E-012  0.5930195E+02  0.7816164E-02  0.1266605E+00
        -11   -1    0    0    0    0  0.00000000000E+00  0.00000000000E+00  0.45593999997E+02  0.45594000000E+02  0.51100000000E-03 0.  1.
         11   -1    0    0    0    0 -0.00000000000E+00 -0.00000000000E+00 -0.45593999997E+02  0.45594000000E+02  0.51100000000E-03 0. -1.
    9900012    2    1    2    0    0  0.11269117200E+02  0.26200579360E+02  0.14256808055E+02  0.59301953880E+02  0.50000017968E+02 0.  0.
         12    1    1    2    0    0 -0.11269117200E+02 -0.26200579360E+02 -0.14256808055E+02  0.31886046120E+02  0.00000000000E+00 0. -1.
         11    1    3    3    0    0  0.12576090945E+02 -0.42414311937E+01 -0.23326418167E+01  0.13475497028E+02  0.51100000000E-03 0. -1.
        -11    1    3    3    0    0  0.53095337366E+01  0.22638418224E+02  0.23828064108E+02  0.33293629535E+02  0.51100000000E-03 0.  1.
         12    1    3    3    0    0 -0.66165074820E+01  0.78035923292E+01 -0.72386142368E+01  0.12532827317E+02  0.00000000000E+00 0. -1.
</event>
<event>
 7    1  0.5837204E-012  0.5930194E+02  0.7816164E-02  0.1266605E+00
        -11   -1    0    0    0    0  0.00000000000E+00  0.00000000000E+00  0.45593999997E+02  0.45594000000E+02  0.51100000000E-03 0.  1.
         11   -1    0    0    0    0 -0.00000000000E+00 -0.00000000000E+00 -0.45593999997E+02  0.45594000000E+02  0.51100000000E-03 0. -1.
    9900012    2    1    2    0    0  0.93052010862E+00 -0.23968532534E+02  0.21008668596E+02  0.59301943867E+02  0.49999999708E+02 0.  0.
         12    1    1    2    0    0 -0.93052010862E+00  0.23968532534E+02 -0.21008668596E+02  0.31886056133E+02  0.00000000000E+00 0. -1.
         11    1    3    3    0    0  0.59699970206E+01 -0.11095397029E+02 -0.15718115045E+00  0.12600531966E+02  0.51100000000E-03 0. -1.
        -11    1    3    3    0    0  0.10757227776E+02  0.28116435197E+01 -0.51327491193E+01  0.12246158683E+02  0.51100000000E-03 0.  1.
        -12    1    3    3    0    0 -0.15796704688E+02 -0.15684779025E+02  0.26298598866E+02  0.34455253219E+02  0.00000000000E+00 0.  1.
</event>
<event>
 7    1  0.5837204E-012  0.5930212E+02  0.7816164E-02  0.1266604E+00
        -11   -1    0    0    0    0  0.00000000000E+00  0.00000000000E+00  0.45593999997E+02  0.45594000000E+02  0.51100000000E-03 0.  1.
         11   -1    0    0    0    0 -0.00000000000E+00 -0.00000000000E+00 -0.45593999997E+02  0.45594000000E+02  0.51100000000E-03 0. -1.
    9900012    2    1    2    0    0  0.11093482542E+02  0.86686530974E+01  0.28609406369E+02  0.59302124847E+02  0.50000329771E+02 0.  0.
         12    1    1    2    0    0 -0.11093482542E+02 -0.86686530974E+01 -0.28609406369E+02  0.31885875153E+02  0.00000000000E+00 0. -1.
         11    1    3    3    0    0 -0.17200834161E+01  0.60157409033E+01 -0.47831302516E+01  0.78756689137E+01  0.51100000000E-03 0. -1.
        -11    1    3    3    0    0 -0.12106184617E+02  0.41488356567E+01  0.53197664967E+01  0.13859020858E+02  0.51100000000E-03 0.  1.
        -12    1    3    3    0    0  0.24919750575E+02 -0.14959234625E+01  0.28072770124E+02  0.37567435076E+02  0.00000000000E+00 0.  1.
</event>
<event>
 7    1  0.5837204E-012  0.5930195E+02  0.7816164E-02  0.1266605E+00
        -11   -1    0    0    0    0  0.00000000000E+00  0.00000000000E+00  0.45593999997E+02  0.45594000000E+02  0.51100000000E-03 0.  1.
         11   -1    0    0    0    0 -0.00000000000E+00 -0.00000000000E+00 -0.45593999997E+02  0.45594000000E+02  0.51100000000E-03 0. -1.
    9900012    2    1    2    0    0  0.18085876502E+01 -0.20963052671E+02  0.23958292026E+02  0.59301947824E+02  0.50000006923E+02 0.  0.
         12    1    1    2    0    0 -0.18085876502E+01  0.20963052671E+02 -0.23958292026E+02  0.31886052176E+02  0.00000000000E+00 0. -1.
         11    1    3    3    0    0 -0.19705023032E+02 -0.65721548251E+01  0.15330028964E+02  0.25816485819E+02  0.51100000000E-03 0. -1.
        -11    1    3    3    0    0 -0.86002556359E+00 -0.18239127113E+01  0.75356471472E+01  0.78007871229E+01  0.51100000000E-03 0.  1.
        -12    1    3    3    0    0  0.22373636246E+02 -0.12566985135E+02  0.10926159149E+01  0.25684674882E+02  0.00000000000E+00 0.  1.
</event>
<event>
 7    1  0.5837204E-012  0.5930200E+02  0.7816164E-02  0.1266605E+00
        -11   -1    0    0    0    0  0.00000000000E+00  0.00000000000E+00  0.45593999997E+02  0.45594000000E+02  0.51100000000E-03 0. -1.
         11   -1    0    0    0    0 -0.00000000000E+00 -0.00000000000E+00 -0.45593999997E+02  0.45594000000E+02  0.51100000000E-03 0.  1.
    9900012    2    1    2    0    0  0.19747666230E+02  0.22070823533E+02 -0.11816310760E+02  0.59302003497E+02  0.50000108458E+02 0.  0.
         12    1    1    2    0    0 -0.19747666230E+02 -0.22070823533E+02  0.11816310760E+02  0.31885996503E+02  0.00000000000E+00 0. -1.
         11    1    3    3    0    0 -0.38000537248E+01  0.46721044506E+01 -0.28716955361E+01  0.66720014855E+01  0.51100000000E-03 0. -1.
        -11    1    3    3    0    0  0.61762415342E+01 -0.61924843964E+01 -0.19594153377E+02  0.21457485159E+02  0.51100000000E-03 0.  1.
        -12    1    3    3    0    0  0.17371478421E+02  0.23591203479E+02  0.10649538153E+02  0.31172516854E+02  0.00000000000E+00 0.  1.
</event>
<event>
 7    1  0.5837204E-012  0.5930190E+02  0.7816164E-02  0.1266605E+00
        -11   -1    0    0    0    0  0.00000000000E+00  0.00000000000E+00  0.45593999997E+02  0.45594000000E+02  0.51100000000E-03 0. -1.
         11   -1    0    0    0    0 -0.00000000000E+00 -0.00000000000E+00 -0.45593999997E+02  0.45594000000E+02  0.51100000000E-03 0.  1.
    9900012    2    1    2    0    0 -0.30538835865E+02 -0.59065809064E+01 -0.70153353165E+01  0.59301903914E+02  0.49999926842E+02 0.  0.
         12    1    1    2    0    0  0.30538835865E+02  0.59065809064E+01  0.70153353165E+01  0.31886096086E+02  0.00000000000E+00 0. -1.
         11    1    3    3    0    0 -0.72510268489E+01  0.11562522277E+02  0.82015328350E+01  0.15922765239E+02  0.51100000000E-03 0. -1.
        -11    1    3    3    0    0 -0.10143706001E+02  0.64657003593E+01 -0.98564589279E+01  0.15551521965E+02  0.51100000000E-03 0.  1.
         12    1    3    3    0    0 -0.13144103015E+02 -0.23934803542E+02 -0.53604092236E+01  0.27827616709E+02  0.00000000000E+00 0. -1.
</event>
<event>
 7    1  0.5837204E-012  0.5930195E+02  0.7816164E-02  0.1266605E+00
        -11   -1    0    0    0    0  0.00000000000E+00  0.00000000000E+00  0.45593999997E+02  0.45594000000E+02  0.51100000000E-03 0.  1.
         11   -1    0    0    0    0 -0.00000000000E+00 -0.00000000000E+00 -0.45593999997E+02  0.45594000000E+02  0.51100000000E-03 0. -1.
    9900012    2    1    2    0    0  0.99823458141E+01 -0.26312497413E+02  0.14990846853E+02  0.59301949172E+02  0.50000009382E+02 0.  0.
         12    1    1    2    0    0 -0.99823458141E+01  0.26312497413E+02 -0.14990846853E+02  0.31886050828E+02  0.00000000000E+00 0. -1.
         11    1    3    3    0    0  0.15543496137E+02 -0.12903906474E+02  0.20444864284E+02  0.28742017158E+02  0.51100000000E-03 0.  1.
        -11    1    3    3    0    0  0.52823163848E+01 -0.16516648530E+02  0.13388786706E+01  0.17392387456E+02  0.51100000000E-03 0. -1.
         12    1    3    3    0    0 -0.10843466708E+02  0.31080575915E+01 -0.67928961018E+01  0.13167544558E+02  0.00000000000E+00 0. -1.
</event>
<event>
 7    1  0.5837204E-012  0.5930194E+02  0.7816164E-02  0.1266605E+00
        -11   -1    0    0    0    0  0.00000000000E+00  0.00000000000E+00  0.45593999997E+02  0.45594000000E+02  0.51100000000E-03 0. -1.
         11   -1    0    0    0    0 -0.00000000000E+00 -0.00000000000E+00 -0.45593999997E+02  0.45594000000E+02  0.51100000000E-03 0.  1.
    9900012    2    1    2    0    0  0.25848337033E+02  0.15645078992E+02  0.10188996036E+02  0.59301942479E+02  0.49999997175E+02 0.  0.
         12    1    1    2    0    0 -0.25848337033E+02 -0.15645078992E+02 -0.10188996036E+02  0.31886057521E+02  0.00000000000E+00 0. -1.
         11    1    3    3    0    0  0.24677902261E+02  0.15720641990E+02  0.17143663660E+02  0.33912278728E+02  0.51100000000E-03 0.  1.
        -11    1    3    3    0    0  0.18433916422E+01  0.27907170898E+01  0.87729348224E+01  0.93888540452E+01  0.51100000000E-03 0. -1.
         12    1    3    3    0    0 -0.67295687004E+00 -0.28662800874E+01 -0.15727602447E+02  0.16000809705E+02  0.00000000000E+00 0. -1.
</event>
<event>
 7    1  0.5837204E-012  0.5930194E+02  0.7816164E-02  0.1266605E+00
        -11   -1    0    0    0    0  0.00000000000E+00  0.00000000000E+00  0.45593999997E+02  0.45594000000E+02  0.51100000000E-03 0.  1.
         11   -1    0    0    0    0 -0.00000000000E+00 -0.00000000000E+00 -0.45593999997E+02  0.45594000000E+02  0.51100000000E-03 0. -1.
    9900012    2    1    2    0    0 -0.12139811069E+00 -0.19220204461E+02  0.25441885647E+02  0.59301944391E+02  0.50000000663E+02 0.  0.
         12    1    1    2    0    0  0.12139811069E+00  0.19220204461E+02 -0.25441885647E+02  0.31886055609E+02  0.00000000000E+00 0. -1.
         11    1    3    3    0    0  0.35219061627E+01  0.30003475800E+01  0.27982294292E+01  0.54070321637E+01  0.51100000000E-03 0.  1.
        -11    1    3    3    0    0  0.19227786066E+02 -0.87231747739E+01  0.41100088068E+01  0.21510316310E+02  0.51100000000E-03 0. -1.
        -12    1    3    3    0    0 -0.22871090339E+02 -0.13497377267E+02  0.18533647411E+02  0.32384595917E+02  0.00000000000E+00 0.  1.
</event>
<event>
 7    1  0.5837204E-012  0.5930194E+02  0.7816164E-02  0.1266605E+00
        -11   -1    0    0    0    0  0.00000000000E+00  0.00000000000E+00  0.45593999997E+02  0.45594000000E+02  0.51100000000E-03 0. -1.
         11   -1    0    0    0    0 -0.00000000000E+00 -0.00000000000E+00 -0.45593999997E+02  0.45594000000E+02  0.51100000000E-03 0.  1.
    9900012    2    1    2    0    0 -0.24641726356E+02 -0.19409682881E+02  0.57245182783E+01  0.59301943849E+02  0.49999999675E+02 0.  0.
         12    1    1    2    0    0  0.24641726356E+02  0.19409682881E+02 -0.57245182783E+01  0.31886056151E+02  0.00000000000E+00 0. -1.
         11    1    3    3    0    0 -0.23094946934E+02  0.61415742526E+01  0.14962458441E+01  0.23944399347E+02  0.51100000000E-03 0. -1.
        -11    1    3    3    0    0 -0.12958783399E+01  0.45606633249E+01  0.20515020712E+01  0.51660053856E+01  0.51100000000E-03 0.  1.
        -12    1    3    3    0    0 -0.25090108148E+00 -0.30111920458E+02  0.21767703630E+01  0.30191539117E+02  0.00000000000E+00 0.  1.
</event>
<event>
 7    1  0.5837204E-012  0.5930196E+02  0.7816164E-02  0.1266605E+00
        -11   -1    0    0    0    0  0.00000000000E+00  0.00000000000E+00  0.45593999997E+02  0.45594000000E+02  0.51100000000E-03 0.  1.
         11   -1    0    0    0    0 -0.00000000000E+00 -0.00000000000E+00 -0.45593999997E+02  0.45594000000E+02  0.51100000000E-03 0. -1.
    9900012    2    1    2    0    0  0.50165631922E+01  0.29347568607E+02 -0.11413753178E+02  0.59301961503E+02  0.50000031871E+02 0.  0.
         12    1    1    2    0    0 -0.50165631922E+01 -0.29347568607E+02  0.11413753178E+02  0.31886038497E+02  0.00000000000E+00 0. -1.
         11    1    3    3    0    0 -0.14896951323E+02  0.17823286445E+02  0.61623419161E+00  0.23237221075E+02  0.51100000000E-03 0. -1.
        -11    1    3    3    0    0  0.28483470900E+01  0.15749452064E+02 -0.85414494929E+01  0.18141518160E+02  0.51100000000E-03 0.  1.
        -12    1    3    3    0    0  0.17065167426E+02 -0.42251699015E+01 -0.34885378770E+01  0.17923222268E+02  0.00000000000E+00 0.  1.
</event>
<event>
 7    1  0.5837204E-012  0.5930194E+02  0.7816164E-02  0.1266605E+00
        -11   -1    0    0    0    0  0.00000000000E+00  0.00000000000E+00  0.45593999997E+02  0.45594000000E+02  0.51100000000E-03 0. -1.
         11   -1    0    0    0    0 -0.00000000000E+00 -0.00000000000E+00 -0.45593999997E+02  0.45594000000E+02  0.51100000000E-03 0.  1.
    9900012    2    1    2    0    0 -0.59538932252E+01 -0.11182265669E+02 -0.29261391399E+02  0.59301938207E+02  0.49999989385E+02 0.  0.
         12    1    1    2    0    0  0.59538932252E+01  0.11182265669E+02  0.29261391399E+02  0.31886061793E+02  0.00000000000E+00 0. -1.
         11    1    3    3    0    0  0.17510263587E+01 -0.13264178631E+02 -0.17409375398E+01  0.13492049209E+02  0.51100000000E-03 0. -1.
        -11    1    3    3    0    0 -0.11176717413E+02 -0.11828741251E+02 -0.18128277966E+01  0.16374506912E+02  0.51100000000E-03 0.  1.
         12    1    3    3    0    0  0.34717978295E+01  0.13910654213E+02 -0.25707626063E+02  0.29435382087E+02  0.00000000000E+00 0. -1.
</event>
<event>
 7    1  0.5837204E-012  0.5930194E+02  0.7816164E-02  0.1266605E+00
        -11   -1    0    0    0    0  0.00000000000E+00  0.00000000000E+00  0.45593999997E+02  0.45594000000E+02  0.51100000000E-03 0.  1.
         11   -1    0    0    0    0 -0.00000000000E+00 -0.00000000000E+00 -0.45593999997E+02  0.45594000000E+02  0.51100000000E-03 0. -1.
    9900012    2    1    2    0    0  0.29891325283E+02  0.11098704138E+02  0.21937138510E+00  0.59301942161E+02  0.49999996595E+02 0.  0.
         12    1    1    2    0    0 -0.29891325283E+02 -0.11098704138E+02 -0.21937138510E+00  0.31886057839E+02  0.00000000000E+00 0. -1.
         11    1    3    3    0    0  0.36972729426E+01  0.14673022531E+02 -0.10733135341E+02  0.18551754956E+02  0.51100000000E-03 0. -1.
        -11    1    3    3    0    0  0.18295008643E+02  0.10151075454E+02 -0.94340279539E+00  0.20943774330E+02  0.51100000000E-03 0.  1.
        -12    1    3    3    0    0  0.78990436980E+01 -0.13725393847E+02  0.11895909522E+02  0.19806412875E+02  0.00000000000E+00 0.  1.
</event>
<event>
 7    1  0.5837204E-012  0.5930194E+02  0.7816164E-02  0.1266605E+00
        -11   -1    0    0    0    0  0.00000000000E+00  0.00000000000E+00  0.45593999997E+02  0.45594000000E+02  0.51100000000E-03 0.  1.
         11   -1    0    0    0    0 -0.00000000000E+00 -0.00000000000E+00 -0.45593999997E+02  0.45594000000E+02  0.51100000000E-03 0. -1.
    9900012    2    1    2    0    0  0.82064477420E+01  0.12479587175E+02  0.28171531527E+02  0.59301936129E+02  0.49999985595E+02 0.  0.
         12    1    1    2    0    0 -0.82064477420E+01 -0.12479587175E+02 -0.28171531527E+02  0.31886063871E+02  0.00000000000E+00 0. -1.
         11    1    3    3    0    0 -0.60656807177E+01 -0.91797057580E+01  0.29075883582E+01  0.11380402044E+02  0.51100000000E-03 0. -1.
        -11    1    3    3    0    0  0.53409020865E+00  0.22365056758E+01  0.23987033145E+02  0.24096990878E+02  0.51100000000E-03 0.  1.
         12    1    3    3    0    0  0.13738038251E+02  0.19422787257E+02  0.12769100236E+01  0.23824543207E+02  0.00000000000E+00 0. -1.
</event>
<event>
 7    1  0.5837204E-012  0.5930194E+02  0.7816164E-02  0.1266605E+00
        -11   -1    0    0    0    0  0.00000000000E+00  0.00000000000E+00  0.45593999997E+02  0.45594000000E+02  0.51100000000E-03 0. -1.
         11   -1    0    0    0    0 -0.00000000000E+00 -0.00000000000E+00 -0.45593999997E+02  0.45594000000E+02  0.51100000000E-03 0.  1.
    9900012    2    1    2    0    0  0.31742649421E+02 -0.25238646646E+01 -0.16598150177E+01  0.59301942373E+02  0.49999996982E+02 0.  0.
         12    1    1    2    0    0 -0.31742649421E+02  0.25238646646E+01  0.16598150177E+01  0.31886057627E+02  0.00000000000E+00 0. -1.
         11    1    3    3    0    0  0.13315861419E+02  0.85223809736E+01 -0.36640528574E+01  0.16228629837E+02  0.51100000000E-03 0.  1.
        -11    1    3    3    0    0 -0.35749765379E+01  0.57951246126E+01 -0.10627886867E+02  0.12622040486E+02  0.51100000000E-03 0. -1.
        -12    1    3    3    0    0  0.22001764540E+02 -0.16841370251E+02  0.12632124707E+02  0.30451272049E+02  0.00000000000E+00 0.  1.
</event>
<event>
 7    1  0.5837204E-012  0.5930194E+02  0.7816164E-02  0.1266605E+00
        -11   -1    0    0    0    0  0.00000000000E+00  0.00000000000E+00  0.45593999997E+02  0.45594000000E+02  0.51100000000E-03 0.  1.
         11   -1    0    0    0    0 -0.00000000000E+00 -0.00000000000E+00 -0.45593999997E+02  0.45594000000E+02  0.51100000000E-03 0. -1.
    9900012    2    1    2    0    0 -0.13084977251E+02  0.28897542724E+02  0.32305042300E+01  0.59301940935E+02  0.49999994359E+02 0.  0.
         12    1    1    2    0    0  0.13084977251E+02 -0.28897542724E+02 -0.32305042300E+01  0.31886059065E+02  0.00000000000E+00 0. -1.
         11    1    3    3    0    0 -0.61117308810E+01 -0.14520643307E+01 -0.35810316771E+01  0.72308736206E+01  0.51100000000E-03 0. -1.
        -11    1    3    3    0    0  0.81152016953E+01  0.16751164227E+02  0.20413385877E+02  0.27625428952E+02  0.51100000000E-03 0.  1.
         12    1    3    3    0    0 -0.15088448065E+02  0.13598442827E+02 -0.13601849970E+02  0.24445638362E+02  0.00000000000E+00 0. -1.
</event>
<event>
 7    1  0.5837204E-012  0.5930199E+02  0.7816164E-02  0.1266605E+00
        -11   -1    0    0    0    0  0.00000000000E+00  0.00000000000E+00  0.45593999997E+02  0.45594000000E+02  0.51100000000E-03 0.  1.
         11   -1    0    0    0    0 -0.00000000000E+00 -0.00000000000E+00 -0.45593999997E+02  0.45594000000E+02  0.51100000000E-03 0. -1.
    9900012    2    1    2    0    0 -0.10626477551E+02 -0.24500705082E+02 -0.17421574948E+02  0.59301986634E+02  0.50000077704E+02 0.  0.
         12    1    1    2    0    0  0.10626477551E+02  0.24500705082E+02  0.17421574948E+02  0.31886013366E+02  0.00000000000E+00 0. -1.
         11    1    3    3    0    0 -0.82560979617E+01  0.66962591571E+00 -0.50941999129E+01  0.97243213353E+01  0.51100000000E-03 0. -1.
        -11    1    3    3    0    0 -0.21337080331E+02 -0.13323240376E+02 -0.29464854116E+01  0.25327090392E+02  0.51100000000E-03 0.  1.
        -12    1    3    3    0    0  0.18966700741E+02 -0.11847090622E+02 -0.93808896240E+01  0.24250574908E+02  0.00000000000E+00 0.  1.
</event>
<event>
 7    1  0.5837204E-012  0.5930196E+02  0.7816164E-02  0.1266605E+00
        -11   -1    0    0    0    0  0.00000000000E+00  0.00000000000E+00  0.45593999997E+02  0.45594000000E+02  0.51100000000E-03 0. -1.
         11   -1    0    0    0    0 -0.00000000000E+00 -0.00000000000E+00 -0.45593999997E+02  0.45594000000E+02  0.51100000000E-03 0.  1.
    9900012    2    1    2    0    0  0.17328014185E+02 -0.11408046875E+02 -0.24213955589E+02  0.59301964587E+02  0.50000037495E+02 0.  0.
         12    1    1    2    0    0 -0.17328014185E+02  0.11408046875E+02  0.24213955589E+02  0.31886035413E+02  0.00000000000E+00 0. -1.
         11    1    3    3    0    0 -0.25107757369E+01 -0.70747197464E+01  0.16152300674E+01  0.76788425379E+01  0.51100000000E-03 0. -1.
        -11    1    3    3    0    0 -0.83751685593E+01  0.65725948945E+01 -0.17094832768E+02  0.20138911581E+02  0.51100000000E-03 0.  1.
         12    1    3    3    0    0  0.28213958482E+02 -0.10905922024E+02 -0.87343528878E+01  0.31484210467E+02  0.00000000000E+00 0. -1.
</event>
<event>
 7    1  0.5837204E-012  0.5930196E+02  0.7816164E-02  0.1266605E+00
        -11   -1    0    0    0    0  0.00000000000E+00  0.00000000000E+00  0.45593999997E+02  0.45594000000E+02  0.51100000000E-03 0. -1.
         11   -1    0    0    0    0 -0.00000000000E+00 -0.00000000000E+00 -0.45593999997E+02  0.45594000000E+02  0.51100000000E-03 0.  1.
    9900012    2    1    2    0    0 -0.48699324703E+01  0.52026111856E+01 -0.31079511080E+02  0.59301962078E+02  0.50000032919E+02 0.  0.
         12    1    1    2    0    0  0.48699324703E+01 -0.52026111856E+01  0.31079511080E+02  0.31886037922E+02  0.00000000000E+00 0. -1.
         11    1    3    3    0    0 -0.11807655914E+02 -0.14944526763E+02 -0.14931655528E+02  0.24201527956E+02  0.51100000000E-03 0. -1.
        -11    1    3    3    0    0 -0.17106702999E+01 -0.16026269994E+01 -0.10852499212E+02  0.11102771977E+02  0.51100000000E-03 0.  1.
         12    1    3    3    0    0  0.86483937438E+01  0.21749764948E+02 -0.52953563402E+01  0.23997662145E+02  0.00000000000E+00 0. -1.
</event>
<event>
 7    1  0.5837204E-012  0.5930189E+02  0.7816164E-02  0.1266605E+00
        -11   -1    0    0    0    0  0.00000000000E+00  0.00000000000E+00  0.45593999997E+02  0.45594000000E+02  0.51100000000E-03 0. -1.
         11   -1    0    0    0    0 -0.00000000000E+00 -0.00000000000E+00 -0.45593999997E+02  0.45594000000E+02  0.51100000000E-03 0.  1.
    9900012    2    1    2    0    0 -0.80933608955E+01 -0.29486528829E+02 -0.90424562090E+01  0.59301891939E+02  0.49999905002E+02 0.  0.
         12    1    1    2    0    0  0.80933608955E+01  0.29486528829E+02  0.90424562090E+01  0.31886108061E+02  0.00000000000E+00 0. -1.
         11    1    3    3    0    0 -0.34143521528E+00 -0.31725949488E+02 -0.84182453373E+01  0.32825589161E+02  0.51100000000E-03 0. -1.
        -11    1    3    3    0    0 -0.33788921089E+01  0.57775899851E+01 -0.12025631106E+02  0.13762749059E+02  0.51100000000E-03 0.  1.
        -12    1    3    3    0    0 -0.43730335713E+01 -0.35381693261E+01  0.11401420234E+02  0.12713553718E+02  0.00000000000E+00 0.  1.
</event>
<event>
 7    1  0.5837204E-012  0.5930194E+02  0.7816164E-02  0.1266605E+00
        -11   -1    0    0    0    0  0.00000000000E+00  0.00000000000E+00  0.45593999997E+02  0.45594000000E+02  0.51100000000E-03 0. -1.
         11   -1    0    0    0    0 -0.00000000000E+00 -0.00000000000E+00 -0.45593999997E+02  0.45594000000E+02  0.51100000000E-03 0.  1.
    9900012    2    1    2    0    0 -0.19737132267E+02  0.13232340526E+02 -0.21261974948E+02  0.59301940278E+02  0.49999993161E+02 0.  0.
         12    1    1    2    0    0  0.19737132267E+02 -0.13232340526E+02  0.21261974948E+02  0.31886059722E+02  0.00000000000E+00 0. -1.
         11    1    3    3    0    0 -0.73741123195E+01  0.18648650896E+02  0.53038337356E+00  0.20060683427E+02  0.51100000000E-03 0. -1.
        -11    1    3    3    0    0 -0.23493017286E+01  0.12170895617E+02 -0.83286002819E+01  0.14933703548E+02  0.51100000000E-03 0.  1.
         12    1    3    3    0    0 -0.10013718219E+02 -0.17587205988E+02 -0.13463758040E+02  0.24307553303E+02  0.00000000000E+00 0. -1.
</event>
<event>
 7    1  0.5837204E-012  0.5930194E+02  0.7816164E-02  0.1266605E+00
        -11   -1    0    0    0    0  0.00000000000E+00  0.00000000000E+00  0.45593999997E+02  0.45594000000E+02  0.51100000000E-03 0. -1.
         11   -1    0    0    0    0 -0.00000000000E+00 -0.00000000000E+00 -0.45593999997E+02  0.45594000000E+02  0.51100000000E-03 0.  1.
    9900012    2    1    2    0    0 -0.16579399578E+02 -0.20811855805E+02 -0.17570179459E+02  0.59301936608E+02  0.49999986468E+02 0.  0.
         12    1    1    2    0    0  0.16579399578E+02  0.20811855805E+02  0.17570179459E+02  0.31886063392E+02  0.00000000000E+00 0. -1.
         11    1    3    3    0    0 -0.84108074214E+01 -0.55781042587E+01 -0.12684023539E+02  0.16209299245E+02  0.51100000000E-03 0.  1.
        -11    1    3    3    0    0  0.13370325185E+02 -0.15390691048E+02 -0.67426446065E+01  0.21473290922E+02  0.51100000000E-03 0. -1.
         12    1    3    3    0    0 -0.21538917342E+02  0.15693950207E+00  0.18564886862E+01  0.21619346441E+02  0.00000000000E+00 0. -1.
</event>
<event>
 7    1  0.5837204E-012  0.5930192E+02  0.7816164E-02  0.1266605E+00
        -11   -1    0    0    0    0  0.00000000000E+00  0.00000000000E+00  0.45593999997E+02  0.45594000000E+02  0.51100000000E-03 0.  1.
         11   -1    0    0    0    0 -0.00000000000E+00 -0.00000000000E+00 -0.45593999997E+02  0.45594000000E+02  0.51100000000E-03 0. -1.
    9900012    2    1    2    0    0  0.28060815527E+02 -0.14534038296E+02  0.42514258700E+01  0.59301917469E+02  0.49999951564E+02 0.  0.
         12    1    1    2    0    0 -0.28060815527E+02  0.14534038296E+02 -0.42514258700E+01  0.31886082531E+02  0.00000000000E+00 0. -1.
         11    1    3    3    0    0  0.14977939493E+02 -0.95383395891E+01 -0.13091363360E+02  0.22061332427E+02  0.51100000000E-03 0. -1.
        -11    1    3    3    0    0  0.21801736511E+02 -0.31488352663E+01  0.60290170781E+01  0.22838124389E+02  0.51100000000E-03 0.  1.
         12    1    3    3    0    0 -0.87188604768E+01 -0.18468634408E+01  0.11313772152E+02  0.14402460654E+02  0.00000000000E+00 0. -1.
</event>
<event>
 7    1  0.5837204E-012  0.5930195E+02  0.7816164E-02  0.1266605E+00
        -11   -1    0    0    0    0  0.00000000000E+00  0.00000000000E+00  0.45593999997E+02  0.45594000000E+02  0.51100000000E-03 0. -1.
         11   -1    0    0    0    0 -0.00000000000E+00 -0.00000000000E+00 -0.45593999997E+02  0.45594000000E+02  0.51100000000E-03 0.  1.
    9900012    2    1    2    0    0  0.24151614790E+02 -0.89130051178E+01 -0.18814307811E+02  0.59301947632E+02  0.50000006574E+02 0.  0.
         12    1    1    2    0    0 -0.24151614790E+02  0.89130051178E+01  0.18814307811E+02  0.31886052368E+02  0.00000000000E+00 0. -1.
         11    1    3    3    0    0  0.19547253630E+02 -0.18896226981E+02  0.32028840131E+01  0.27375554513E+02  0.51100000000E-03 0. -1.
        -11    1    3    3    0    0  0.82482924874E+01  0.36788242844E+00 -0.73356906815E+00  0.82890162430E+01  0.51100000000E-03 0.  1.
         12    1    3    3    0    0 -0.36439313277E+01  0.96153394351E+01 -0.21283622756E+02  0.23637376876E+02  0.00000000000E+00 0. -1.
</event>
<event>
 7    1  0.5837204E-012  0.5930166E+02  0.7816164E-02  0.1266606E+00
        -11   -1    0    0    0    0  0.00000000000E+00  0.00000000000E+00  0.45593999997E+02  0.45594000000E+02  0.51100000000E-03 0.  1.
         11   -1    0    0    0    0 -0.00000000000E+00 -0.00000000000E+00 -0.45593999997E+02  0.45594000000E+02  0.51100000000E-03 0. -1.
    9900012    2    1    2    0    0 -0.10044333307E+02  0.92485732011E+00  0.30248878290E+02  0.59301660755E+02  0.49999483376E+02 0.  0.
         12    1    1    2    0    0  0.10044333307E+02 -0.92485732011E+00 -0.30248878290E+02  0.31886339245E+02  0.00000000000E+00 0. -1.
         11    1    3    3    0    0 -0.18568673294E+02 -0.92174658974E+01  0.38708992634E+01  0.21088887283E+02  0.51100000000E-03 0. -1.
        -11    1    3    3    0    0  0.49089830204E+01 -0.37085129325E+01 -0.19662108635E+01  0.64588828667E+01  0.51100000000E-03 0.  1.
        -12    1    3    3    0    0  0.36153569661E+01  0.13850836150E+02  0.28344189890E+02  0.31753890605E+02  0.00000000000E+00 0.  1.
</event>
<event>
 7    1  0.5837204E-012  0.5930192E+02  0.7816164E-02  0.1266605E+00
        -11   -1    0    0    0    0  0.00000000000E+00  0.00000000000E+00  0.45593999997E+02  0.45594000000E+02  0.51100000000E-03 0.  1.
         11   -1    0    0    0    0 -0.00000000000E+00 -0.00000000000E+00 -0.45593999997E+02  0.45594000000E+02  0.51100000000E-03 0. -1.
    9900012    2    1    2    0    0 -0.29646383032E+02 -0.11273379456E+02  0.32748877419E+01  0.59301921518E+02  0.49999958947E+02 0.  0.
         12    1    1    2    0    0  0.29646383032E+02  0.11273379456E+02 -0.32748877419E+01  0.31886078482E+02  0.00000000000E+00 0. -1.
         11    1    3    3    0    0  0.13741697237E+00 -0.24200629252E+01 -0.65168493576E+01  0.69530506828E+01  0.51100000000E-03 0. -1.
        -11    1    3    3    0    0 -0.28000024309E+02  0.10866406554E+02  0.12169385792E+02  0.32406389856E+02  0.51100000000E-03 0.  1.
         12    1    3    3    0    0 -0.17837756959E+01 -0.19719723085E+02 -0.23776486929E+01  0.19942480979E+02  0.00000000000E+00 0. -1.
</event>
<event>
 7    1  0.5837204E-012  0.5930193E+02  0.7816164E-02  0.1266605E+00
        -11   -1    0    0    0    0  0.00000000000E+00  0.00000000000E+00  0.45593999997E+02  0.45594000000E+02  0.51100000000E-03 0. -1.
         11   -1    0    0    0    0 -0.00000000000E+00 -0.00000000000E+00 -0.45593999997E+02  0.45594000000E+02  0.51100000000E-03 0.  1.
    9900012    2    1    2    0    0  0.80185934464E+01 -0.30124522024E+02  0.67035009366E+01  0.59301927917E+02  0.49999970619E+02 0.  0.
         12    1    1    2    0    0 -0.80185934464E+01  0.30124522024E+02 -0.67035009366E+01  0.31886072083E+02  0.00000000000E+00 0. -1.
         11    1    3    3    0    0 -0.14674435030E+02 -0.11835483116E+02  0.63581785678E+01  0.19895832202E+02  0.51100000000E-03 0. -1.
        -11    1    3    3    0    0 -0.29018427648E+01  0.36698690382E+01 -0.29353927313E+01  0.55231477381E+01  0.51100000000E-03 0.  1.
        -12    1    3    3    0    0  0.25594871241E+02 -0.21958907947E+02  0.32807151000E+01  0.33882947978E+02  0.00000000000E+00 0.  1.
</event>
<event>
 7    1  0.5837204E-012  0.5930190E+02  0.7816164E-02  0.1266605E+00
        -11   -1    0    0    0    0  0.00000000000E+00  0.00000000000E+00  0.45593999997E+02  0.45594000000E+02  0.51100000000E-03 0.  1.
         11   -1    0    0    0    0 -0.00000000000E+00 -0.00000000000E+00 -0.45593999997E+02  0.45594000000E+02  0.51100000000E-03 0. -1.
    9900012    2    1    2    0    0  0.22176429835E+02 -0.92589259341E+01  0.20957133682E+02  0.59301902687E+02  0.49999924605E+02 0.  0.
         12    1    1    2    0    0 -0.22176429835E+02  0.92589259341E+01 -0.20957133682E+02  0.31886097313E+02  0.00000000000E+00 0. -1.
         11    1    3    3    0    0 -0.63878186748E+00 -0.10157170434E+02 -0.25949273165E+01  0.10502847307E+02  0.51100000000E-03 0. -1.
        -11    1    3    3    0    0 -0.73338224895E+01  0.25072622488E+01  0.15844883119E+02  0.17638923935E+02  0.51100000000E-03 0.  1.
        -12    1    3    3    0    0  0.30149034192E+02 -0.16090177486E+01  0.77071778803E+01  0.31160131445E+02  0.00000000000E+00 0.  1.
</event>
<event>
 7    1  0.5837204E-012  0.5930193E+02  0.7816164E-02  0.1266605E+00
        -11   -1    0    0    0    0  0.00000000000E+00  0.00000000000E+00  0.45593999997E+02  0.45594000000E+02  0.51100000000E-03 0.  1.
         11   -1    0    0    0    0 -0.00000000000E+00 -0.00000000000E+00 -0.45593999997E+02  0.45594000000E+02  0.51100000000E-03 0. -1.
    9900012    2    1    2    0    0  0.13894593227E+01  0.24874357281E+02  0.19901179480E+02  0.59301934203E+02  0.49999982082E+02 0.  0.
         12    1    1    2    0    0 -0.13894593227E+01 -0.24874357281E+02 -0.19901179480E+02  0.31886065797E+02  0.00000000000E+00 0. -1.
         11    1    3    3    0    0  0.15093804910E+02  0.10483797553E+02 -0.86004200337E+01  0.20290396319E+02  0.51100000000E-03 0. -1.
        -11    1    3    3    0    0 -0.76281429022E+00  0.10339665114E+02  0.21225077218E+02  0.23621906432E+02  0.51100000000E-03 0.  1.
        -12    1    3    3    0    0 -0.12941531297E+02  0.40508946140E+01  0.72765222959E+01  0.15389631451E+02  0.00000000000E+00 0.  1.
</event>
<event>
 7    1  0.5837204E-012  0.5930193E+02  0.7816164E-02  0.1266605E+00
        -11   -1    0    0    0    0  0.00000000000E+00  0.00000000000E+00  0.45593999997E+02  0.45594000000E+02  0.51100000000E-03 0.  1.
         11   -1    0    0    0    0 -0.00000000000E+00 -0.00000000000E+00 -0.45593999997E+02  0.45594000000E+02  0.51100000000E-03 0. -1.
    9900012    2    1    2    0    0 -0.14388296072E+02 -0.96816723621E+01  0.26757490978E+02  0.59301934595E+02  0.49999982797E+02 0.  0.
         12    1    1    2    0    0  0.14388296072E+02  0.96816723621E+01 -0.26757490978E+02  0.31886065405E+02  0.00000000000E+00 0. -1.
         11    1    3    3    0    0 -0.10250927064E+02 -0.71170576791E+01 -0.89685941683E+01  0.15367813679E+02  0.51100000000E-03 0. -1.
        -11    1    3    3    0    0  0.17190584672E+00  0.24511065576E+01 -0.34323919568E+01  0.42212308375E+01  0.51100000000E-03 0.  1.
        -12    1    3    3    0    0 -0.43092748552E+01 -0.50157212406E+01  0.39158477103E+02  0.39712890078E+02  0.00000000000E+00 0.  1.
</event>
<event>
 7    1  0.5837204E-012  0.5930195E+02  0.7816164E-02  0.1266605E+00
        -11   -1    0    0    0    0  0.00000000000E+00  0.00000000000E+00  0.45593999997E+02  0.45594000000E+02  0.51100000000E-03 0. -1.
         11   -1    0    0    0    0 -0.00000000000E+00 -0.00000000000E+00 -0.45593999997E+02  0.45594000000E+02  0.51100000000E-03 0.  1.
    9900012    2    1    2    0    0  0.57577149884E+01  0.23022448970E+02 -0.21296373724E+02  0.59301953330E+02  0.50000016965E+02 0.  0.
         12    1    1    2    0    0 -0.57577149884E+01 -0.23022448970E+02  0.21296373724E+02  0.31886046670E+02  0.00000000000E+00 0. -1.
         11    1    3    3    0    0  0.12689153578E+02  0.13456713284E+02 -0.91636945944E+01  0.20641488556E+02  0.51100000000E-03 0. -1.
        -11    1    3    3    0    0  0.88667285333E+01 -0.82382946995E+01 -0.79829010511E+01  0.14498795946E+02  0.51100000000E-03 0.  1.
         12    1    3    3    0    0 -0.15798167123E+02  0.17804030385E+02 -0.41497780787E+01  0.24161668827E+02  0.00000000000E+00 0. -1.
</event>
<event>
 7    1  0.5837204E-012  0.5930205E+02  0.7816164E-02  0.1266604E+00
        -11   -1    0    0    0    0  0.00000000000E+00  0.00000000000E+00  0.45593999997E+02  0.45594000000E+02  0.51100000000E-03 0. -1.
         11   -1    0    0    0    0 -0.00000000000E+00 -0.00000000000E+00 -0.45593999997E+02  0.45594000000E+02  0.51100000000E-03 0.  1.
    9900012    2    1    2    0    0 -0.22741538470E+02 -0.13542092859E+02 -0.17780551953E+02  0.59302048881E+02  0.50000191227E+02 0.  0.
         12    1    1    2    0    0  0.22741538470E+02  0.13542092859E+02  0.17780551953E+02  0.31885951119E+02  0.00000000000E+00 0. -1.
         11    1    3    3    0    0 -0.11270928677E+02 -0.57979156510E+01 -0.15583349813E+02  0.20087071733E+02  0.51100000000E-03 0.  1.
        -11    1    3    3    0    0  0.59184392982E+01  0.81757529850E+01 -0.10169194851E+02  0.14327713871E+02  0.51100000000E-03 0. -1.
         12    1    3    3    0    0 -0.17389049090E+02 -0.15919930193E+02  0.79719927108E+01  0.24887263277E+02  0.00000000000E+00 0. -1.
</event>
<event>
 7    1  0.5837204E-012  0.5930183E+02  0.7816164E-02  0.1266605E+00
        -11   -1    0    0    0    0  0.00000000000E+00  0.00000000000E+00  0.45593999997E+02  0.45594000000E+02  0.51100000000E-03 0.  1.
         11   -1    0    0    0    0 -0.00000000000E+00 -0.00000000000E+00 -0.45593999997E+02  0.45594000000E+02  0.51100000000E-03 0. -1.
    9900012    2    1    2    0    0 -0.19016050918E+01 -0.31477576412E+02 -0.47195523157E+01  0.59301825993E+02  0.49999784733E+02 0.  0.
         12    1    1    2    0    0  0.19016050918E+01  0.31477576412E+02  0.47195523157E+01  0.31886174007E+02  0.00000000000E+00 0. -1.
         11    1    3    3    0    0 -0.27809318441E+01 -0.14352676602E+02 -0.13286935847E+02  0.19755393492E+02  0.51100000000E-03 0. -1.
        -11    1    3    3    0    0 -0.55680014590E+01  0.88240215466E+01 -0.23001004939E+01  0.10684402606E+02  0.51100000000E-03 0.  1.
        -12    1    3    3    0    0  0.64473282113E+01 -0.25948921357E+02  0.10867484025E+02  0.28862029896E+02  0.00000000000E+00 0.  1.
</event>
<event>
 7    1  0.5837204E-012  0.5930190E+02  0.7816164E-02  0.1266605E+00
        -11   -1    0    0    0    0  0.00000000000E+00  0.00000000000E+00  0.45593999997E+02  0.45594000000E+02  0.51100000000E-03 0. -1.
         11   -1    0    0    0    0 -0.00000000000E+00 -0.00000000000E+00 -0.45593999997E+02  0.45594000000E+02  0.51100000000E-03 0.  1.
    9900012    2    1    2    0    0 -0.46863186716E+01 -0.26498552765E+02 -0.17105218132E+02  0.59301900071E+02  0.49999919833E+02 0.  0.
         12    1    1    2    0    0  0.46863186716E+01  0.26498552765E+02  0.17105218132E+02  0.31886099929E+02  0.00000000000E+00 0. -1.
         11    1    3    3    0    0  0.10116671725E+02 -0.45945088521E+01  0.12517372569E+02  0.16737418399E+02  0.51100000000E-03 0. -1.
        -11    1    3    3    0    0  0.61664940693E+00 -0.12474201128E+02 -0.11906925660E+02  0.17255747715E+02  0.51100000000E-03 0.  1.
        -12    1    3    3    0    0 -0.15419639804E+02 -0.94298427850E+01 -0.17715665041E+02  0.25308733957E+02  0.00000000000E+00 0.  1.
</event>
<event>
 7    1  0.5837204E-012  0.5930195E+02  0.7816164E-02  0.1266605E+00
        -11   -1    0    0    0    0  0.00000000000E+00  0.00000000000E+00  0.45593999997E+02  0.45594000000E+02  0.51100000000E-03 0.  1.
         11   -1    0    0    0    0 -0.00000000000E+00 -0.00000000000E+00 -0.45593999997E+02  0.45594000000E+02  0.51100000000E-03 0. -1.
    9900012    2    1    2    0    0  0.16584847411E+02 -0.19048797504E+02  0.19462942330E+02  0.59301953300E+02  0.50000016911E+02 0.  0.
         12    1    1    2    0    0 -0.16584847411E+02  0.19048797504E+02 -0.19462942330E+02  0.31886046700E+02  0.00000000000E+00 0. -1.
         11    1    3    3    0    0  0.73200400834E+00  0.96698764243E+01  0.12780751040E+01  0.97814015439E+01  0.51100000000E-03 0. -1.
        -11    1    3    3    0    0 -0.87935964401E+01 -0.32003739617E+01  0.87472407026E+01  0.12809525831E+02  0.51100000000E-03 0.  1.
         12    1    3    3    0    0  0.24646439843E+02 -0.25518299967E+02  0.94376265230E+01  0.36711025926E+02  0.00000000000E+00 0. -1.
</event>
<event>
 7    1  0.5837204E-012  0.5930188E+02  0.7816164E-02  0.1266605E+00
        -11   -1    0    0    0    0  0.00000000000E+00  0.00000000000E+00  0.45593999997E+02  0.45594000000E+02  0.51100000000E-03 0.  1.
         11   -1    0    0    0    0 -0.00000000000E+00 -0.00000000000E+00 -0.45593999997E+02  0.45594000000E+02  0.51100000000E-03 0. -1.
    9900012    2    1    2    0    0  0.20683321207E+02  0.42790892881E+01  0.23887529172E+02  0.59301883409E+02  0.49999889446E+02 0.  0.
         12    1    1    2    0    0 -0.20683321207E+02 -0.42790892881E+01 -0.23887529172E+02  0.31886116591E+02  0.00000000000E+00 0. -1.
         11    1    3    3    0    0 -0.11393031704E+02 -0.77270789303E+01  0.16852199007E+02  0.21760182257E+02  0.51100000000E-03 0.  1.
        -11    1    3    3    0    0  0.11162552866E+02 -0.20714191906E+01  0.44688261624E+01  0.12200974202E+02  0.51100000000E-03 0. -1.
        -12    1    3    3    0    0  0.20913800045E+02  0.14077587409E+02  0.25665040027E+01  0.25340726950E+02  0.00000000000E+00 0.  1.
</event>
<event>
 7    1  0.5837204E-012  0.5930194E+02  0.7816164E-02  0.1266605E+00
        -11   -1    0    0    0    0  0.00000000000E+00  0.00000000000E+00  0.45593999997E+02  0.45594000000E+02  0.51100000000E-03 0.  1.
         11   -1    0    0    0    0 -0.00000000000E+00 -0.00000000000E+00 -0.45593999997E+02  0.45594000000E+02  0.51100000000E-03 0. -1.
    9900012    2    1    2    0    0  0.37142086486E+01 -0.10928823694E+02  0.29723495954E+02  0.59301941213E+02  0.49999994867E+02 0.  0.
         12    1    1    2    0    0 -0.37142086486E+01  0.10928823694E+02 -0.29723495954E+02  0.31886058787E+02  0.00000000000E+00 0. -1.
         11    1    3    3    0    0  0.11494538876E+02 -0.13978807305E+02  0.34846223131E+02  0.39265643308E+02  0.51100000000E-03 0. -1.
        -11    1    3    3    0    0 -0.24547608297E+01  0.22915411527E+01  0.64514566847E+01  0.72731221082E+01  0.51100000000E-03 0.  1.
         12    1    3    3    0    0 -0.53255693973E+01  0.75844245868E+00 -0.11574183862E+02  0.12763175797E+02  0.00000000000E+00 0. -1.
</event>
<event>
 7    1  0.5837204E-012  0.5930194E+02  0.7816164E-02  0.1266605E+00
        -11   -1    0    0    0    0  0.00000000000E+00  0.00000000000E+00  0.45593999997E+02  0.45594000000E+02  0.51100000000E-03 0. -1.
         11   -1    0    0    0    0 -0.00000000000E+00 -0.00000000000E+00 -0.45593999997E+02  0.45594000000E+02  0.51100000000E-03 0.  1.
    9900012    2    1    2    0    0  0.15379204766E+01  0.25471206063E+02 -0.19119972190E+02  0.59301939186E+02  0.49999991169E+02 0.  0.
         12    1    1    2    0    0 -0.15379204766E+01 -0.25471206063E+02  0.19119972190E+02  0.31886060814E+02  0.00000000000E+00 0. -1.
         11    1    3    3    0    0 -0.24121656710E+00  0.10784407304E+02  0.12809494317E+02  0.16746485340E+02  0.51100000000E-03 0. -1.
        -11    1    3    3    0    0 -0.19639140500E+01  0.11180585198E+02 -0.12159847723E+01  0.11416701055E+02  0.51100000000E-03 0.  1.
        -12    1    3    3    0    0  0.37430510937E+01  0.35062135607E+01 -0.30713481735E+02  0.31138752790E+02  0.00000000000E+00 0.  1.
</event>
<event>
 7    1  0.5837204E-012  0.5930194E+02  0.7816164E-02  0.1266605E+00
        -11   -1    0    0    0    0  0.00000000000E+00  0.00000000000E+00  0.45593999997E+02  0.45594000000E+02  0.51100000000E-03 0. -1.
         11   -1    0    0    0    0 -0.00000000000E+00 -0.00000000000E+00 -0.45593999997E+02  0.45594000000E+02  0.51100000000E-03 0.  1.
    9900012    2    1    2    0    0  0.10991038689E+02 -0.19605235464E+02 -0.22617525627E+02  0.59301942632E+02  0.49999997454E+02 0.  0.
         12    1    1    2    0    0 -0.10991038689E+02  0.19605235464E+02  0.22617525627E+02  0.31886057368E+02  0.00000000000E+00 0. -1.
         11    1    3    3    0    0  0.15611914333E+02 -0.26333079485E+02 -0.53171893664E-01  0.30613163375E+02  0.51100000000E-03 0. -1.
        -11    1    3    3    0    0  0.47858265442E+01 -0.14940553133E+01 -0.45790634071E+01  0.67900043400E+01  0.51100000000E-03 0.  1.
         12    1    3    3    0    0 -0.94067021882E+01  0.82218993351E+01 -0.17985290326E+02  0.21898774916E+02  0.00000000000E+00 0. -1.
</event>
<event>
 7    1  0.5837204E-012  0.5930198E+02  0.7816164E-02  0.1266605E+00
        -11   -1    0    0    0    0  0.00000000000E+00  0.00000000000E+00  0.45593999997E+02  0.45594000000E+02  0.51100000000E-03 0. -1.
         11   -1    0    0    0    0 -0.00000000000E+00 -0.00000000000E+00 -0.45593999997E+02  0.45594000000E+02  0.51100000000E-03 0.  1.
    9900012    2    1    2    0    0 -0.14770303200E+02  0.15675844722E+02 -0.23512214344E+02  0.59301981313E+02  0.50000067999E+02 0.  0.
         12    1    1    2    0    0  0.14770303200E+02 -0.15675844722E+02  0.23512214344E+02  0.31886018687E+02  0.00000000000E+00 0. -1.
         11    1    3    3    0    0  0.54413090406E+01  0.10440859586E+02 -0.69573306198E+01  0.13675666075E+02  0.51100000000E-03 0. -1.
        -11    1    3    3    0    0 -0.17574855896E+02  0.17430176100E+02 -0.20918922532E+02  0.32408145871E+02  0.51100000000E-03 0.  1.
         12    1    3    3    0    0 -0.26367563449E+01 -0.12195190964E+02  0.43640388088E+01  0.13218169367E+02  0.00000000000E+00 0. -1.
</event>
<event>
 7    1  0.5837204E-012  0.5930212E+02  0.7816164E-02  0.1266604E+00
        -11   -1    0    0    0    0  0.00000000000E+00  0.00000000000E+00  0.45593999997E+02  0.45594000000E+02  0.51100000000E-03 0. -1.
         11   -1    0    0    0    0 -0.00000000000E+00 -0.00000000000E+00 -0.45593999997E+02  0.45594000000E+02  0.51100000000E-03 0.  1.
    9900012    2    1    2    0    0  0.31144086622E+02  0.14413057969E+01  0.66841407784E+01  0.59302121748E+02  0.50000324119E+02 0.  0.
         12    1    1    2    0    0 -0.31144086622E+02 -0.14413057969E+01 -0.66841407784E+01  0.31885878252E+02  0.00000000000E+00 0. -1.
         11    1    3    3    0    0  0.67669064359E+01 -0.16050237976E+02 -0.83768781823E+00  0.17438545895E+02  0.51100000000E-03 0. -1.
        -11    1    3    3    0    0  0.12867213458E+02  0.57227405466E+00 -0.88749562502E+01  0.15641532165E+02  0.51100000000E-03 0.  1.
         12    1    3    3    0    0  0.11509966728E+02  0.16919269718E+02  0.16396784847E+02  0.26222043688E+02  0.00000000000E+00 0. -1.
</event>
<event>
 7    1  0.5837204E-012  0.5930193E+02  0.7816164E-02  0.1266605E+00
        -11   -1    0    0    0    0  0.00000000000E+00  0.00000000000E+00  0.45593999997E+02  0.45594000000E+02  0.51100000000E-03 0.  1.
         11   -1    0    0    0    0 -0.00000000000E+00 -0.00000000000E+00 -0.45593999997E+02  0.45594000000E+02  0.51100000000E-03 0. -1.
    9900012    2    1    2    0    0  0.26374828560E+02 -0.34958899106E+01  0.17574658202E+02  0.59301930333E+02  0.49999975025E+02 0.  0.
         12    1    1    2    0    0 -0.26374828560E+02  0.34958899106E+01 -0.17574658202E+02  0.31886069667E+02  0.00000000000E+00 0. -1.
         11    1    3    3    0    0 -0.10710502510E+02 -0.82777284210E+01 -0.26789962123E+01  0.13799009848E+02  0.51100000000E-03 0. -1.
        -11    1    3    3    0    0  0.46000823773E+01  0.33917446631E+01  0.98071877021E+01  0.11351018484E+02  0.51100000000E-03 0.  1.
        -12    1    3    3    0    0  0.32485248693E+02  0.13900938474E+01  0.10446466713E+02  0.34151902001E+02  0.00000000000E+00 0.  1.
</event>
<event>
 7    1  0.5837204E-012  0.5930194E+02  0.7816164E-02  0.1266605E+00
        -11   -1    0    0    0    0  0.00000000000E+00  0.00000000000E+00  0.45593999997E+02  0.45594000000E+02  0.51100000000E-03 0. -1.
         11   -1    0    0    0    0 -0.00000000000E+00 -0.00000000000E+00 -0.45593999997E+02  0.45594000000E+02  0.51100000000E-03 0.  1.
    9900012    2    1    2    0    0 -0.10226757513E+02  0.23646003133E+02 -0.18788306856E+02  0.59301944930E+02  0.50000001646E+02 0.  0.
         12    1    1    2    0    0  0.10226757513E+02 -0.23646003133E+02  0.18788306856E+02  0.31886055070E+02  0.00000000000E+00 0. -1.
         11    1    3    3    0    0 -0.13593573393E+02  0.23173192326E+02 -0.11773934774E+02  0.29332705646E+02  0.51100000000E-03 0.  1.
        -11    1    3    3    0    0 -0.52972878367E+01  0.67883081533E+01 -0.14520313675E+02  0.16881406799E+02  0.51100000000E-03 0. -1.
         12    1    3    3    0    0  0.86641037174E+01 -0.63154973465E+01  0.75059415934E+01  0.13087832485E+02  0.00000000000E+00 0. -1.
</event>
<event>
 7    1  0.5837204E-012  0.5930173E+02  0.7816164E-02  0.1266605E+00
        -11   -1    0    0    0    0  0.00000000000E+00  0.00000000000E+00  0.45593999997E+02  0.45594000000E+02  0.51100000000E-03 0. -1.
         11   -1    0    0    0    0 -0.00000000000E+00 -0.00000000000E+00 -0.45593999997E+02  0.45594000000E+02  0.51100000000E-03 0.  1.
    9900012    2    1    2    0    0  0.26724638151E+02  0.10246560021E+02 -0.14054740013E+02  0.59301733467E+02  0.49999615987E+02 0.  0.
         12    1    1    2    0    0 -0.26724638151E+02 -0.10246560021E+02  0.14054740013E+02  0.31886266533E+02  0.00000000000E+00 0. -1.
         11    1    3    3    0    0  0.10476910764E+02  0.79029061643E+01  0.21624135014E+01  0.13300286366E+02  0.51100000000E-03 0. -1.
        -11    1    3    3    0    0 -0.40127579467E+01  0.13425399670E+02 -0.18032945122E+02  0.22837046496E+02  0.51100000000E-03 0.  1.
         12    1    3    3    0    0  0.20260485334E+02 -0.11081745814E+02  0.18157916079E+01  0.23164400605E+02  0.00000000000E+00 0. -1.
</event>
<event>
 7    1  0.5837204E-012  0.5930194E+02  0.7816164E-02  0.1266605E+00
        -11   -1    0    0    0    0  0.00000000000E+00  0.00000000000E+00  0.45593999997E+02  0.45594000000E+02  0.51100000000E-03 0. -1.
         11   -1    0    0    0    0 -0.00000000000E+00 -0.00000000000E+00 -0.45593999997E+02  0.45594000000E+02  0.51100000000E-03 0.  1.
    9900012    2    1    2    0    0  0.68616746143E+01  0.31110411745E+02 -0.13342549497E+01  0.59301944525E+02  0.50000000907E+02 0.  0.
         12    1    1    2    0    0 -0.68616746143E+01 -0.31110411745E+02  0.13342549497E+01  0.31886055475E+02  0.00000000000E+00 0. -1.
         11    1    3    3    0    0 -0.85416820428E+01  0.37313195855E+01  0.30235437971E+01  0.97992293229E+01  0.51100000000E-03 0. -1.
        -11    1    3    3    0    0 -0.24687040940E+01  0.27996926712E+02 -0.11337517934E+02  0.30306133346E+02  0.51100000000E-03 0.  1.
         12    1    3    3    0    0  0.17872060751E+02 -0.61783455217E+00  0.69797191871E+01  0.19196581856E+02  0.00000000000E+00 0. -1.
</event>
<event>
 7    1  0.5837204E-012  0.5930195E+02  0.7816164E-02  0.1266605E+00
        -11   -1    0    0    0    0  0.00000000000E+00  0.00000000000E+00  0.45593999997E+02  0.45594000000E+02  0.51100000000E-03 0.  1.
         11   -1    0    0    0    0 -0.00000000000E+00 -0.00000000000E+00 -0.45593999997E+02  0.45594000000E+02  0.51100000000E-03 0. -1.
    9900012    2    1    2    0    0 -0.24238888193E+02  0.88933751931E+01  0.18711077844E+02  0.59301948861E+02  0.50000008815E+02 0.  0.
         12    1    1    2    0    0  0.24238888193E+02 -0.88933751931E+01 -0.18711077844E+02  0.31886051139E+02  0.00000000000E+00 0. -1.
         11    1    3    3    0    0 -0.46329532402E+01 -0.16591085628E+02  0.20784509699E+01  0.17350744559E+02  0.51100000000E-03 0. -1.
        -11    1    3    3    0    0 -0.17532755404E+02  0.64776194361E+01  0.12213083594E+02  0.22327482543E+02  0.51100000000E-03 0.  1.
        -12    1    3    3    0    0 -0.20731795486E+01  0.19006841385E+02  0.44195432805E+01  0.19623721759E+02  0.00000000000E+00 0.  1.
</event>
<event>
 7    1  0.5837204E-012  0.5930194E+02  0.7816164E-02  0.1266605E+00
        -11   -1    0    0    0    0  0.00000000000E+00  0.00000000000E+00  0.45593999997E+02  0.45594000000E+02  0.51100000000E-03 0. -1.
         11   -1    0    0    0    0 -0.00000000000E+00 -0.00000000000E+00 -0.45593999997E+02  0.45594000000E+02  0.51100000000E-03 0.  1.
    9900012    2    1    2    0    0  0.74133471765E+01 -0.30390340069E+02 -0.61798365432E+01  0.59301939322E+02  0.49999991418E+02 0.  0.
         12    1    1    2    0    0 -0.74133471765E+01  0.30390340069E+02  0.61798365432E+01  0.31886060678E+02  0.00000000000E+00 0. -1.
         11    1    3    3    0    0  0.13646668575E+01 -0.15201941751E+02  0.92877822185E+00  0.15291303996E+02  0.51100000000E-03 0. -1.
        -11    1    3    3    0    0  0.16767782008E+02 -0.21737289586E+02 -0.12715458232E+02  0.30254770703E+02  0.51100000000E-03 0.  1.
         12    1    3    3    0    0 -0.10719101689E+02  0.65488912680E+01  0.56068434665E+01  0.13755864623E+02  0.00000000000E+00 0. -1.
</event>
<event>
 7    1  0.5837204E-012  0.5930207E+02  0.7816164E-02  0.1266604E+00
        -11   -1    0    0    0    0  0.00000000000E+00  0.00000000000E+00  0.45593999997E+02  0.45594000000E+02  0.51100000000E-03 0.  1.
         11   -1    0    0    0    0 -0.00000000000E+00 -0.00000000000E+00 -0.45593999997E+02  0.45594000000E+02  0.51100000000E-03 0. -1.
    9900012    2    1    2    0    0  0.18399108013E+01 -0.48177043403E+01  0.31466120734E+02  0.59302073623E+02  0.50000236350E+02 0.  0.
         12    1    1    2    0    0 -0.18399108013E+01  0.48177043403E+01 -0.31466120734E+02  0.31885926377E+02  0.00000000000E+00 0. -1.
         11    1    3    3    0    0 -0.16484264885E+01  0.13421090965E+01 -0.66785703154E+01  0.70086994823E+01  0.51100000000E-03 0. -1.
        -11    1    3    3    0    0 -0.84883997905E+01  0.77112588442E+01  0.18254093501E+01  0.11612431422E+02  0.51100000000E-03 0.  1.
        -12    1    3    3    0    0  0.11976737080E+02 -0.13871072281E+02  0.36319281700E+02  0.40680942719E+02  0.00000000000E+00 0.  1.
</event>
<event>
 7    1  0.5837204E-012  0.5930235E+02  0.7816164E-02  0.1266603E+00
        -11   -1    0    0    0    0  0.00000000000E+00  0.00000000000E+00  0.45593999997E+02  0.45594000000E+02  0.51100000000E-03 0. -1.
         11   -1    0    0    0    0 -0.00000000000E+00 -0.00000000000E+00 -0.45593999997E+02  0.45594000000E+02  0.51100000000E-03 0.  1.
    9900012    2    1    2    0    0  0.22381043611E+02 -0.14565005428E+02 -0.17425393217E+02  0.59302347662E+02  0.50000736127E+02 0.  0.
         12    1    1    2    0    0 -0.22381043611E+02  0.14565005428E+02  0.17425393217E+02  0.31885652338E+02  0.00000000000E+00 0. -1.
         11    1    3    3    0    0 -0.54170912965E+00 -0.16931658555E+02 -0.28841068273E+01  0.17184079337E+02  0.51100000000E-03 0. -1.
        -11    1    3    3    0    0  0.87623486485E+01 -0.11476358086E+02 -0.16839934681E+02  0.22182627191E+02  0.51100000000E-03 0.  1.
         12    1    3    3    0    0  0.14160404093E+02  0.13843011212E+02  0.22986482920E+01  0.19935641135E+02  0.00000000000E+00 0. -1.
</event>
<event>
 7    1  0.5837204E-012  0.5930196E+02  0.7816164E-02  0.1266605E+00
        -11   -1    0    0    0    0  0.00000000000E+00  0.00000000000E+00  0.45593999997E+02  0.45594000000E+02  0.51100000000E-03 0.  1.
         11   -1    0    0    0    0 -0.00000000000E+00 -0.00000000000E+00 -0.45593999997E+02  0.45594000000E+02  0.51100000000E-03 0. -1.
    9900012    2    1    2    0    0  0.26505301406E+02 -0.66591629226E+01  0.16426937742E+02  0.59301957018E+02  0.50000023692E+02 0.  0.
         12    1    1    2    0    0 -0.26505301406E+02  0.66591629226E+01 -0.16426937742E+02  0.31886042982E+02  0.00000000000E+00 0. -1.
         11    1    3    3    0    0 -0.96665654003E+01 -0.56958483259E+01 -0.18172697110E+01  0.11366074267E+02  0.51100000000E-03 0. -1.
        -11    1    3    3    0    0  0.14894255004E+01 -0.76965792727E+01 -0.65841436857E+00  0.78669708633E+01  0.51100000000E-03 0.  1.
         12    1    3    3    0    0  0.34682441306E+02  0.67332646760E+01  0.18902621822E+02  0.40068911888E+02  0.00000000000E+00 0. -1.
</event>
<event>
 7    1  0.5837204E-012  0.5930189E+02  0.7816164E-02  0.1266605E+00
        -11   -1    0    0    0    0  0.00000000000E+00  0.00000000000E+00  0.45593999997E+02  0.45594000000E+02  0.51100000000E-03 0. -1.
         11   -1    0    0    0    0 -0.00000000000E+00 -0.00000000000E+00 -0.45593999997E+02  0.45594000000E+02  0.51100000000E-03 0.  1.
    9900012    2    1    2    0    0 -0.22565672581E+02  0.31364656116E+01 -0.22308676824E+02  0.59301889275E+02  0.49999900143E+02 0.  0.
         12    1    1    2    0    0  0.22565672581E+02 -0.31364656116E+01  0.22308676824E+02  0.31886110725E+02  0.00000000000E+00 0. -1.
         11    1    3    3    0    0 -0.18602410939E+00 -0.81614106159E+01 -0.13732364025E+02  0.15975639273E+02  0.51100000000E-03 0. -1.
        -11    1    3    3    0    0 -0.26102886402E+02 -0.41962680577E+01 -0.67545775086E+01  0.27287243571E+02  0.51100000000E-03 0.  1.
        -12    1    3    3    0    0  0.37232379305E+01  0.15494144285E+02 -0.18217352907E+01  0.16039006431E+02  0.00000000000E+00 0.  1.
</event>
<event>
 7    1  0.5837204E-012  0.5930195E+02  0.7816164E-02  0.1266605E+00
        -11   -1    0    0    0    0  0.00000000000E+00  0.00000000000E+00  0.45593999997E+02  0.45594000000E+02  0.51100000000E-03 0.  1.
         11   -1    0    0    0    0 -0.00000000000E+00 -0.00000000000E+00 -0.45593999997E+02  0.45594000000E+02  0.51100000000E-03 0. -1.
    9900012    2    1    2    0    0 -0.61695917872E+01  0.25277761772E+02  0.18430713482E+02  0.59301948151E+02  0.50000007521E+02 0.  0.
         12    1    1    2    0    0  0.61695917872E+01 -0.25277761772E+02 -0.18430713482E+02  0.31886051849E+02  0.00000000000E+00 0. -1.
         11    1    3    3    0    0  0.11402579530E+02  0.13681132907E+02  0.22377976925E+02  0.28600106102E+02  0.51100000000E-03 0. -1.
        -11    1    3    3    0    0 -0.30827004829E+01  0.77847167763E+01  0.79685366047E+01  0.11558651887E+02  0.51100000000E-03 0.  1.
         12    1    3    3    0    0 -0.14489470834E+02  0.38119120896E+01 -0.11915800048E+02  0.19143190163E+02  0.00000000000E+00 0. -1.
</event>
<event>
 7    1  0.5837204E-012  0.5930193E+02  0.7816164E-02  0.1266605E+00
        -11   -1    0    0    0    0  0.00000000000E+00  0.00000000000E+00  0.45593999997E+02  0.45594000000E+02  0.51100000000E-03 0. -1.
         11   -1    0    0    0    0 -0.00000000000E+00 -0.00000000000E+00 -0.45593999997E+02  0.45594000000E+02  0.51100000000E-03 0.  1.
    9900012    2    1    2    0    0 -0.30779495161E+02  0.19596354623E+00 -0.83250241693E+01  0.59301925430E+02  0.49999966083E+02 0.  0.
         12    1    1    2    0    0  0.30779495161E+02 -0.19596354623E+00  0.83250241693E+01  0.31886074570E+02  0.00000000000E+00 0. -1.
         11    1    3    3    0    0 -0.57677008475E+01 -0.46490235540E+01  0.82597443427E+01  0.11095186792E+02  0.51100000000E-03 0. -1.
        -11    1    3    3    0    0 -0.25987413055E+02 -0.11593904876E+02 -0.76292273447E+01  0.29461320026E+02  0.51100000000E-03 0.  1.
        -12    1    3    3    0    0  0.97561874169E+00  0.16438891977E+02 -0.89555411673E+01  0.18745418612E+02  0.00000000000E+00 0.  1.
</event>
<event>
 7    1  0.5837204E-012  0.5930195E+02  0.7816164E-02  0.1266605E+00
        -11   -1    0    0    0    0  0.00000000000E+00  0.00000000000E+00  0.45593999997E+02  0.45594000000E+02  0.51100000000E-03 0.  1.
         11   -1    0    0    0    0 -0.00000000000E+00 -0.00000000000E+00 -0.45593999997E+02  0.45594000000E+02  0.51100000000E-03 0. -1.
    9900012    2    1    2    0    0  0.19771737564E+02  0.24215659987E+02 -0.62769925184E+01  0.59301946152E+02  0.50000003874E+02 0.  0.
         12    1    1    2    0    0 -0.19771737564E+02 -0.24215659987E+02  0.62769925184E+01  0.31886053848E+02  0.00000000000E+00 0. -1.
         11    1    3    3    0    0 -0.26784927936E+01  0.32099393564E+02 -0.10463137104E+01  0.32227940726E+02  0.51100000000E-03 0. -1.
        -11    1    3    3    0    0  0.15094204994E+00  0.73456944175E+00 -0.29670041276E+01  0.30603087297E+01  0.51100000000E-03 0.  1.
        -12    1    3    3    0    0  0.22299288308E+02 -0.86183030182E+01 -0.22636746805E+01  0.24013696696E+02  0.00000000000E+00 0.  1.
</event>
<event>
 7    1  0.5837204E-012  0.5930193E+02  0.7816164E-02  0.1266605E+00
        -11   -1    0    0    0    0  0.00000000000E+00  0.00000000000E+00  0.45593999997E+02  0.45594000000E+02  0.51100000000E-03 0. -1.
         11   -1    0    0    0    0 -0.00000000000E+00 -0.00000000000E+00 -0.45593999997E+02  0.45594000000E+02  0.51100000000E-03 0.  1.
    9900012    2    1    2    0    0  0.68508517116E+00  0.12603206601E+02 -0.29281585232E+02  0.59301931066E+02  0.49999976362E+02 0.  0.
         12    1    1    2    0    0 -0.68508517116E+00 -0.12603206601E+02  0.29281585232E+02  0.31886068934E+02  0.00000000000E+00 0. -1.
         11    1    3    3    0    0 -0.15307042551E+02  0.42649882439E+00  0.37538964907E+01  0.15766394389E+02  0.51100000000E-03 0. -1.
        -11    1    3    3    0    0 -0.48006823038E+01  0.19731455668E+01 -0.58026312621E+01  0.77852671010E+01  0.51100000000E-03 0.  1.
        -12    1    3    3    0    0  0.20792810026E+02  0.10203562209E+02 -0.27232850461E+02  0.35750269576E+02  0.00000000000E+00 0.  1.
</event>
<event>
 7    1  0.5837204E-012  0.5930182E+02  0.7816164E-02  0.1266605E+00
        -11   -1    0    0    0    0  0.00000000000E+00  0.00000000000E+00  0.45593999997E+02  0.45594000000E+02  0.51100000000E-03 0. -1.
         11   -1    0    0    0    0 -0.00000000000E+00 -0.00000000000E+00 -0.45593999997E+02  0.45594000000E+02  0.51100000000E-03 0.  1.
    9900012    2    1    2    0    0 -0.18759007940E+01  0.94829191311E+01 -0.30385587105E+02  0.59301817056E+02  0.49999768433E+02 0.  0.
         12    1    1    2    0    0  0.18759007940E+01 -0.94829191311E+01  0.30385587105E+02  0.31886182944E+02  0.00000000000E+00 0. -1.
         11    1    3    3    0    0 -0.12741988930E+02 -0.60802961174E+00 -0.84234768107E+01  0.15286691720E+02  0.51100000000E-03 0. -1.
        -11    1    3    3    0    0  0.18758793470E+02  0.36882566668E+01 -0.26670104554E+02  0.32814479226E+02  0.51100000000E-03 0.  1.
         12    1    3    3    0    0 -0.78927053342E+01  0.64026920761E+01  0.47079942602E+01  0.11200646109E+02  0.00000000000E+00 0. -1.
</event>
<event>
 7    1  0.5837204E-012  0.5930196E+02  0.7816164E-02  0.1266605E+00
        -11   -1    0    0    0    0  0.00000000000E+00  0.00000000000E+00  0.45593999997E+02  0.45594000000E+02  0.51100000000E-03 0.  1.
         11   -1    0    0    0    0 -0.00000000000E+00 -0.00000000000E+00 -0.45593999997E+02  0.45594000000E+02  0.51100000000E-03 0. -1.
    9900012    2    1    2    0    0  0.19183444122E+02 -0.23414775309E+02  0.10023144225E+02  0.59301958363E+02  0.50000026144E+02 0.  0.
         12    1    1    2    0    0 -0.19183444122E+02  0.23414775309E+02 -0.10023144225E+02  0.31886041637E+02  0.00000000000E+00 0. -1.
         11    1    3    3    0    0 -0.23016963488E+01  0.71124725379E+01 -0.58847984911E+01  0.95139857698E+01  0.51100000000E-03 0. -1.
        -11    1    3    3    0    0  0.13224722949E+02 -0.20660439333E+02 -0.51917328016E+01  0.25073913541E+02  0.51100000000E-03 0.  1.
         12    1    3    3    0    0  0.82604175219E+01 -0.98668085137E+01  0.21099675518E+02  0.24714059052E+02  0.00000000000E+00 0. -1.
</event>
<event>
 7    1  0.5837204E-012  0.5930194E+02  0.7816164E-02  0.1266605E+00
        -11   -1    0    0    0    0  0.00000000000E+00  0.00000000000E+00  0.45593999997E+02  0.45594000000E+02  0.51100000000E-03 0. -1.
         11   -1    0    0    0    0 -0.00000000000E+00 -0.00000000000E+00 -0.45593999997E+02  0.45594000000E+02  0.51100000000E-03 0.  1.
    9900012    2    1    2    0    0 -0.21947044942E+02 -0.22328386367E+02 -0.60408033537E+01  0.59301938396E+02  0.49999989729E+02 0.  0.
         12    1    1    2    0    0  0.21947044942E+02  0.22328386367E+02  0.60408033537E+01  0.31886061604E+02  0.00000000000E+00 0. -1.
         11    1    3    3    0    0 -0.69331332016E+01 -0.28088955816E+02 -0.72477556110E+01  0.29825957428E+02  0.51100000000E-03 0. -1.
        -11    1    3    3    0    0  0.54041006673E+01 -0.28676842794E+01 -0.31568220843E+01  0.68842895844E+01  0.51100000000E-03 0.  1.
        -12    1    3    3    0    0 -0.20418012408E+02  0.86282537283E+01  0.43637743415E+01  0.22591691384E+02  0.00000000000E+00 0.  1.
</event>
<event>
 7    1  0.5837204E-012  0.5930187E+02  0.7816164E-02  0.1266605E+00
        -11   -1    0    0    0    0  0.00000000000E+00  0.00000000000E+00  0.45593999997E+02  0.45594000000E+02  0.51100000000E-03 0. -1.
         11   -1    0    0    0    0 -0.00000000000E+00 -0.00000000000E+00 -0.45593999997E+02  0.45594000000E+02  0.51100000000E-03 0.  1.
    9900012    2    1    2    0    0 -0.29377040000E+02  0.11197864586E+02 -0.53218851190E+01  0.59301872740E+02  0.49999869987E+02 0.  0.
         12    1    1    2    0    0  0.29377040000E+02 -0.11197864586E+02  0.53218851190E+01  0.31886127260E+02  0.00000000000E+00 0. -1.
         11    1    3    3    0    0 -0.37913115826E+01 -0.37128544881E+00  0.60623305204E+01  0.71598706693E+01  0.51100000000E-03 0. -1.
        -11    1    3    3    0    0  0.16687906106E+00 -0.14185159433E+02 -0.77468851702E+00  0.14207277689E+02  0.51100000000E-03 0.  1.
        -12    1    3    3    0    0 -0.25752607479E+02  0.25754309468E+02 -0.10609527122E+02  0.37934724381E+02  0.00000000000E+00 0.  1.
</event>
<event>
 7    1  0.5837204E-012  0.5930196E+02  0.7816164E-02  0.1266605E+00
        -11   -1    0    0    0    0  0.00000000000E+00  0.00000000000E+00  0.45593999997E+02  0.45594000000E+02  0.51100000000E-03 0. -1.
         11   -1    0    0    0    0 -0.00000000000E+00 -0.00000000000E+00 -0.45593999997E+02  0.45594000000E+02  0.51100000000E-03 0.  1.
    9900012    2    1    2    0    0  0.10337111450E+02  0.29885789114E+02 -0.40869685818E+01  0.59301959539E+02  0.50000028289E+02 0.  0.
         12    1    1    2    0    0 -0.10337111450E+02 -0.29885789114E+02  0.40869685818E+01  0.31886040461E+02  0.00000000000E+00 0. -1.
         11    1    3    3    0    0 -0.50330084259E+00  0.94247261341E+01  0.13334613615E+02  0.16336789616E+02  0.51100000000E-03 0.  1.
        -11    1    3    3    0    0  0.18263691063E+02  0.24101913699E+02 -0.99883795932E+01  0.31847015282E+02  0.51100000000E-03 0. -1.
         12    1    3    3    0    0 -0.74232787712E+01 -0.36408507194E+01 -0.74332026035E+01  0.11118154641E+02  0.00000000000E+00 0. -1.
</event>
<event>
 7    1  0.5837204E-012  0.5930193E+02  0.7816164E-02  0.1266605E+00
        -11   -1    0    0    0    0  0.00000000000E+00  0.00000000000E+00  0.45593999997E+02  0.45594000000E+02  0.51100000000E-03 0. -1.
         11   -1    0    0    0    0 -0.00000000000E+00 -0.00000000000E+00 -0.45593999997E+02  0.45594000000E+02  0.51100000000E-03 0.  1.
    9900012    2    1    2    0    0  0.23873303582E+02 -0.59696216145E+01 -0.20276838033E+02  0.59301934600E+02  0.49999982806E+02 0.  0.
         12    1    1    2    0    0 -0.23873303582E+02  0.59696216145E+01  0.20276838033E+02  0.31886065400E+02  0.00000000000E+00 0. -1.
         11    1    3    3    0    0  0.95786951751E+01  0.76519667704E+01 -0.54380053121E+01  0.13411782087E+02  0.51100000000E-03 0.  1.
        -11    1    3    3    0    0  0.29287896095E+01  0.10901077066E+02  0.50167663196E+01  0.12352296723E+02  0.51100000000E-03 0. -1.
         12    1    3    3    0    0  0.11365818797E+02 -0.24522665451E+02 -0.19855599040E+02  0.33537855790E+02  0.00000000000E+00 0. -1.
</event>
<event>
 7    1  0.5837204E-012  0.5930196E+02  0.7816164E-02  0.1266605E+00
        -11   -1    0    0    0    0  0.00000000000E+00  0.00000000000E+00  0.45593999997E+02  0.45594000000E+02  0.51100000000E-03 0.  1.
         11   -1    0    0    0    0 -0.00000000000E+00 -0.00000000000E+00 -0.45593999997E+02  0.45594000000E+02  0.51100000000E-03 0. -1.
    9900012    2    1    2    0    0  0.14924542822E+02  0.24459293811E+02  0.13990015158E+02  0.59301959852E+02  0.50000028861E+02 0.  0.
         12    1    1    2    0    0 -0.14924542822E+02 -0.24459293811E+02 -0.13990015158E+02  0.31886040148E+02  0.00000000000E+00 0. -1.
         11    1    3    3    0    0  0.87645886342E+01  0.14534824099E+02 -0.50353545471E+01  0.17704065104E+02  0.51100000000E-03 0. -1.
        -11    1    3    3    0    0  0.16949742986E+02  0.16577595201E+02  0.87210726130E+01  0.25261978500E+02  0.51100000000E-03 0.  1.
         12    1    3    3    0    0 -0.10789788799E+02 -0.66531254898E+01  0.10304297092E+02  0.16335916248E+02  0.00000000000E+00 0. -1.
</event>
<event>
 7    1  0.5837204E-012  0.5930194E+02  0.7816164E-02  0.1266605E+00
        -11   -1    0    0    0    0  0.00000000000E+00  0.00000000000E+00  0.45593999997E+02  0.45594000000E+02  0.51100000000E-03 0.  1.
         11   -1    0    0    0    0 -0.00000000000E+00 -0.00000000000E+00 -0.45593999997E+02  0.45594000000E+02  0.51100000000E-03 0. -1.
    9900012    2    1    2    0    0  0.95219739240E+00  0.19149197681E+02  0.25477885928E+02  0.59301935284E+02  0.49999984054E+02 0.  0.
         12    1    1    2    0    0 -0.95219739240E+00 -0.19149197681E+02 -0.25477885928E+02  0.31886064716E+02  0.00000000000E+00 0. -1.
         11    1    3    3    0    0 -0.29035673907E+01  0.14276569462E+02 -0.63957546367E+01  0.15910902452E+02  0.51100000000E-03 0. -1.
        -11    1    3    3    0    0 -0.91261271341E+01 -0.13955558693E+00  0.58333255751E+00  0.91458159485E+01  0.51100000000E-03 0.  1.
         12    1    3    3    0    0  0.12981891917E+02  0.50121838060E+01  0.31290308007E+02  0.34245216884E+02  0.00000000000E+00 0. -1.
</event>
<event>
 7    1  0.5837204E-012  0.5930193E+02  0.7816164E-02  0.1266605E+00
        -11   -1    0    0    0    0  0.00000000000E+00  0.00000000000E+00  0.45593999997E+02  0.45594000000E+02  0.51100000000E-03 0.  1.
         11   -1    0    0    0    0 -0.00000000000E+00 -0.00000000000E+00 -0.45593999997E+02  0.45594000000E+02  0.51100000000E-03 0. -1.
    9900012    2    1    2    0    0 -0.28723402004E+02 -0.13801752416E+02  0.10951874328E+01  0.59301927367E+02  0.49999969616E+02 0.  0.
         12    1    1    2    0    0  0.28723402004E+02  0.13801752416E+02 -0.10951874328E+01  0.31886072633E+02  0.00000000000E+00 0. -1.
         11    1    3    3    0    0 -0.12293959267E+02 -0.47231454906E+01 -0.16949574853E+02  0.21464799690E+02  0.51100000000E-03 0. -1.
        -11    1    3    3    0    0 -0.74350386063E+01  0.51150739111E+01 -0.42040395166E+01  0.99557887036E+01  0.51100000000E-03 0.  1.
        -12    1    3    3    0    0 -0.89944041307E+01 -0.14193680837E+02  0.22248801802E+02  0.27881338974E+02  0.00000000000E+00 0.  1.
</event>
<event>
 7    1  0.5837204E-012  0.5930198E+02  0.7816164E-02  0.1266605E+00
        -11   -1    0    0    0    0  0.00000000000E+00  0.00000000000E+00  0.45593999997E+02  0.45594000000E+02  0.51100000000E-03 0.  1.
         11   -1    0    0    0    0 -0.00000000000E+00 -0.00000000000E+00 -0.45593999997E+02  0.45594000000E+02  0.51100000000E-03 0. -1.
    9900012    2    1    2    0    0  0.13109714258E+02  0.43450471619E+01  0.28739770287E+02  0.59301977374E+02  0.50000060815E+02 0.  0.
         12    1    1    2    0    0 -0.13109714258E+02 -0.43450471619E+01 -0.28739770287E+02  0.31886022626E+02  0.00000000000E+00 0. -1.
         11    1    3    3    0    0 -0.29593664406E+01 -0.10571506621E+02  0.45959781908E+01  0.11901160353E+02  0.51100000000E-03 0. -1.
        -11    1    3    3    0    0  0.21551825406E+02 -0.24152890965E+01  0.18089271485E+02  0.28240689490E+02  0.51100000000E-03 0.  1.
         12    1    3    3    0    0 -0.54827447081E+01  0.17331842879E+02  0.60545206113E+01  0.19160127530E+02  0.00000000000E+00 0. -1.
</event>
<event>
 7    1  0.5837204E-012  0.5930193E+02  0.7816164E-02  0.1266605E+00
        -11   -1    0    0    0    0  0.00000000000E+00  0.00000000000E+00  0.45593999997E+02  0.45594000000E+02  0.51100000000E-03 0.  1.
         11   -1    0    0    0    0 -0.00000000000E+00 -0.00000000000E+00 -0.45593999997E+02  0.45594000000E+02  0.51100000000E-03 0. -1.
    9900012    2    1    2    0    0 -0.12571829533E+02  0.26763225080E+02  0.11933174012E+02  0.59301925352E+02  0.49999965939E+02 0.  0.
         12    1    1    2    0    0  0.12571829533E+02 -0.26763225080E+02 -0.11933174012E+02  0.31886074648E+02  0.00000000000E+00 0. -1.
         11    1    3    3    0    0 -0.27319630772E+01  0.13867229066E+02  0.69515974065E+01  0.15750821280E+02  0.51100000000E-03 0. -1.
        -11    1    3    3    0    0  0.11857910345E+02  0.17417118897E+02  0.32512007387E+01  0.21319858699E+02  0.51100000000E-03 0.  1.
        -12    1    3    3    0    0 -0.21697776801E+02 -0.45211228831E+01  0.17303758667E+01  0.22231245373E+02  0.00000000000E+00 0.  1.
</event>
<event>
 7    1  0.5837204E-012  0.5930196E+02  0.7816164E-02  0.1266605E+00
        -11   -1    0    0    0    0  0.00000000000E+00  0.00000000000E+00  0.45593999997E+02  0.45594000000E+02  0.51100000000E-03 0.  1.
         11   -1    0    0    0    0 -0.00000000000E+00 -0.00000000000E+00 -0.45593999997E+02  0.45594000000E+02  0.51100000000E-03 0. -1.
    9900012    2    1    2    0    0 -0.15586323567E+02  0.18946875068E+02  0.20366695876E+02  0.59301955120E+02  0.50000020230E+02 0.  0.
         12    1    1    2    0    0  0.15586323567E+02 -0.18946875068E+02 -0.20366695876E+02  0.31886044880E+02  0.00000000000E+00 0. -1.
         11    1    3    3    0    0 -0.85454566287E+01 -0.12351137385E+02  0.21474064178E+02  0.26205168504E+02  0.51100000000E-03 0.  1.
        -11    1    3    3    0    0  0.41878395998E+00  0.10551023098E+02 -0.29752628017E+01  0.10970490300E+02  0.51100000000E-03 0. -1.
        -12    1    3    3    0    0 -0.74596508986E+01  0.20746989355E+02  0.18678944990E+01  0.22126296316E+02  0.00000000000E+00 0.  1.
</event>
<event>
 7    1  0.5837204E-012  0.5930195E+02  0.7816164E-02  0.1266605E+00
        -11   -1    0    0    0    0  0.00000000000E+00  0.00000000000E+00  0.45593999997E+02  0.45594000000E+02  0.51100000000E-03 0. -1.
         11   -1    0    0    0    0 -0.00000000000E+00 -0.00000000000E+00 -0.45593999997E+02  0.45594000000E+02  0.51100000000E-03 0.  1.
    9900012    2    1    2    0    0  0.13177300587E+02  0.16124765700E+02 -0.24146859406E+02  0.59301950718E+02  0.50000012202E+02 0.  0.
         12    1    1    2    0    0 -0.13177300587E+02 -0.16124765700E+02  0.24146859406E+02  0.31886049282E+02  0.00000000000E+00 0. -1.
         11    1    3    3    0    0  0.77115524514E+01  0.30936165291E+02 -0.97358902434E+01  0.33336195392E+02  0.51100000000E-03 0. -1.
        -11    1    3    3    0    0 -0.26419205554E+01  0.15701837800E+01 -0.35853993304E+01  0.47223203982E+01  0.51100000000E-03 0.  1.
         12    1    3    3    0    0  0.81076686910E+01 -0.16381583371E+02 -0.10825569832E+02  0.21243434928E+02  0.00000000000E+00 0. -1.
</event>
<event>
 7    1  0.5837204E-012  0.5930195E+02  0.7816164E-02  0.1266605E+00
        -11   -1    0    0    0    0  0.00000000000E+00  0.00000000000E+00  0.45593999997E+02  0.45594000000E+02  0.51100000000E-03 0.  1.
         11   -1    0    0    0    0 -0.00000000000E+00 -0.00000000000E+00 -0.45593999997E+02  0.45594000000E+02  0.51100000000E-03 0. -1.
    9900012    2    1    2    0    0  0.11375698513E+02 -0.17868505693E+02  0.23833385109E+02  0.59301948847E+02  0.50000008790E+02 0.  0.
         12    1    1    2    0    0 -0.11375698513E+02  0.17868505693E+02 -0.23833385109E+02  0.31886051153E+02  0.00000000000E+00 0. -1.
         11    1    3    3    0    0  0.21914159740E+02  0.87011210943E+01  0.17060656487E+02  0.29103365878E+02  0.51100000000E-03 0. -1.
        -11    1    3    3    0    0 -0.75102029719E+01 -0.13642382742E+02  0.67367900139E+00  0.15587546286E+02  0.51100000000E-03 0.  1.
        -12    1    3    3    0    0 -0.30282582558E+01 -0.12927244046E+02  0.60990496208E+01  0.14611036683E+02  0.00000000000E+00 0.  1.
</event>
<event>
 7    1  0.5837204E-012  0.5930189E+02  0.7816164E-02  0.1266605E+00
        -11   -1    0    0    0    0  0.00000000000E+00  0.00000000000E+00  0.45593999997E+02  0.45594000000E+02  0.51100000000E-03 0. -1.
         11   -1    0    0    0    0 -0.00000000000E+00 -0.00000000000E+00 -0.45593999997E+02  0.45594000000E+02  0.51100000000E-03 0.  1.
    9900012    2    1    2    0    0  0.15434214772E+02  0.25535201613E+02 -0.11245547022E+02  0.59301892761E+02  0.49999906501E+02 0.  0.
         12    1    1    2    0    0 -0.15434214772E+02 -0.25535201613E+02  0.11245547022E+02  0.31886107239E+02  0.00000000000E+00 0. -1.
         11    1    3    3    0    0  0.52600423971E+01 -0.10156402264E+02 -0.34605334660E+01  0.11949721549E+02  0.51100000000E-03 0. -1.
        -11    1    3    3    0    0  0.13709175156E+02  0.21274624750E+02  0.71453241627E+01  0.26298418191E+02  0.51100000000E-03 0.  1.
         12    1    3    3    0    0 -0.35350027817E+01  0.14416979128E+02 -0.14930337719E+02  0.21053753020E+02  0.00000000000E+00 0. -1.
</event>
<event>
 7    1  0.5837204E-012  0.5930193E+02  0.7816164E-02  0.1266605E+00
        -11   -1    0    0    0    0  0.00000000000E+00  0.00000000000E+00  0.45593999997E+02  0.45594000000E+02  0.51100000000E-03 0.  1.
         11   -1    0    0    0    0 -0.00000000000E+00 -0.00000000000E+00 -0.45593999997E+02  0.45594000000E+02  0.51100000000E-03 0. -1.
    9900012    2    1    2    0    0 -0.23982373896E+02  0.19885146594E+02 -0.67932351626E+01  0.59301931620E+02  0.49999977372E+02 0.  0.
         12    1    1    2    0    0  0.23982373896E+02 -0.19885146594E+02  0.67932351626E+01  0.31886068380E+02  0.00000000000E+00 0. -1.
         11    1    3    3    0    0  0.13232465610E+02  0.17562143210E+01  0.35971656599E+00  0.13353345316E+02  0.51100000000E-03 0. -1.
        -11    1    3    3    0    0 -0.52176894913E+00  0.70022501640E+01 -0.57176011151E+00  0.70449031279E+01  0.51100000000E-03 0.  1.
        -12    1    3    3    0    0 -0.36693070556E+02  0.11126682109E+02 -0.65811916171E+01  0.38903683177E+02  0.00000000000E+00 0.  1.
</event>
<event>
 7    1  0.5837204E-012  0.5930191E+02  0.7816164E-02  0.1266605E+00
        -11   -1    0    0    0    0  0.00000000000E+00  0.00000000000E+00  0.45593999997E+02  0.45594000000E+02  0.51100000000E-03 0.  1.
         11   -1    0    0    0    0 -0.00000000000E+00 -0.00000000000E+00 -0.45593999997E+02  0.45594000000E+02  0.51100000000E-03 0. -1.
    9900012    2    1    2    0    0 -0.21554226227E+02  0.12169061848E+01  0.23466086520E+02  0.59301909844E+02  0.49999937657E+02 0.  0.
         12    1    1    2    0    0  0.21554226227E+02 -0.12169061848E+01 -0.23466086520E+02  0.31886090156E+02  0.00000000000E+00 0. -1.
         11    1    3    3    0    0 -0.30894436192E+01 -0.62538676767E+01  0.35159504484E+02  0.35844752456E+02  0.51100000000E-03 0.  1.
        -11    1    3    3    0    0 -0.48941228261E+01  0.12060957345E+00 -0.30575770544E+01  0.57719808221E+01  0.51100000000E-03 0. -1.
        -12    1    3    3    0    0 -0.13570659781E+02  0.73501642880E+01 -0.86358409098E+01  0.17685176566E+02  0.00000000000E+00 0.  1.
</event>
<event>
 7    1  0.5837204E-012  0.5930194E+02  0.7816164E-02  0.1266605E+00
        -11   -1    0    0    0    0  0.00000000000E+00  0.00000000000E+00  0.45593999997E+02  0.45594000000E+02  0.51100000000E-03 0. -1.
         11   -1    0    0    0    0 -0.00000000000E+00 -0.00000000000E+00 -0.45593999997E+02  0.45594000000E+02  0.51100000000E-03 0.  1.
    9900012    2    1    2    0    0  0.18871626777E+01 -0.16980113701E+02 -0.26922761356E+02  0.59301941552E+02  0.49999995486E+02 0.  0.
         12    1    1    2    0    0 -0.18871626777E+01  0.16980113701E+02  0.26922761356E+02  0.31886058448E+02  0.00000000000E+00 0. -1.
         11    1    3    3    0    0 -0.42991540754E+01 -0.93435601132E+00  0.19263100141E+01  0.48027510295E+01  0.51100000000E-03 0. -1.
        -11    1    3    3    0    0  0.62020435817E+01 -0.12940208130E+02  0.87269457106E+01  0.16795056200E+02  0.51100000000E-03 0.  1.
         12    1    3    3    0    0 -0.15726828613E-01 -0.31055495593E+01 -0.37576017081E+02  0.37704134323E+02  0.00000000000E+00 0. -1.
</event>
<event>
 7    1  0.5837204E-012  0.5930193E+02  0.7816164E-02  0.1266605E+00
        -11   -1    0    0    0    0  0.00000000000E+00  0.00000000000E+00  0.45593999997E+02  0.45594000000E+02  0.51100000000E-03 0. -1.
         11   -1    0    0    0    0 -0.00000000000E+00 -0.00000000000E+00 -0.45593999997E+02  0.45594000000E+02  0.51100000000E-03 0.  1.
    9900012    2    1    2    0    0  0.16722886215E+02 -0.18098768232E+02 -0.20236128588E+02  0.59301933527E+02  0.49999980849E+02 0.  0.
         12    1    1    2    0    0 -0.16722886215E+02  0.18098768232E+02  0.20236128588E+02  0.31886066473E+02  0.00000000000E+00 0. -1.
         11    1    3    3    0    0  0.24033780008E+01 -0.24580736502E+00  0.55532183771E+01  0.60559790026E+01  0.51100000000E-03 0. -1.
        -11    1    3    3    0    0  0.10170108267E+02  0.10568683823E+02 -0.34619338598E-01  0.14667289411E+02  0.51100000000E-03 0.  1.
         12    1    3    3    0    0  0.41493999481E+01 -0.28421644690E+02 -0.25754727627E+02  0.38578665113E+02  0.00000000000E+00 0. -1.
</event>
<event>
 7    1  0.5837204E-012  0.5930194E+02  0.7816164E-02  0.1266605E+00
        -11   -1    0    0    0    0  0.00000000000E+00  0.00000000000E+00  0.45593999997E+02  0.45594000000E+02  0.51100000000E-03 0.  1.
         11   -1    0    0    0    0 -0.00000000000E+00 -0.00000000000E+00 -0.45593999997E+02  0.45594000000E+02  0.51100000000E-03 0. -1.
    9900012    2    1    2    0    0  0.18616316363E+02  0.25866312254E+02 -0.10427277524E+01  0.59301943083E+02  0.49999998278E+02 0.  0.
         12    1    1    2    0    0 -0.18616316363E+02 -0.25866312254E+02  0.10427277524E+01  0.31886056917E+02  0.00000000000E+00 0. -1.
         11    1    3    3    0    0  0.77356967572E+01  0.93924637978E+01  0.40863625917E+01  0.12835799157E+02  0.51100000000E-03 0. -1.
        -11    1    3    3    0    0 -0.60655567033E+01  0.25665679938E+02  0.51723229217E+00  0.26377748848E+02  0.51100000000E-03 0.  1.
         12    1    3    3    0    0  0.16946176309E+02 -0.91918314820E+01 -0.56463226362E+01  0.20088395078E+02  0.00000000000E+00 0. -1.
</event>
<event>
 7    1  0.5837204E-012  0.5930193E+02  0.7816164E-02  0.1266605E+00
        -11   -1    0    0    0    0  0.00000000000E+00  0.00000000000E+00  0.45593999997E+02  0.45594000000E+02  0.51100000000E-03 0.  1.
         11   -1    0    0    0    0 -0.00000000000E+00 -0.00000000000E+00 -0.45593999997E+02  0.45594000000E+02  0.51100000000E-03 0. -1.
    9900012    2    1    2    0    0  0.29961469977E+01 -0.12877480655E+01  0.31718861538E+02  0.59301931425E+02  0.49999977015E+02 0.  0.
         12    1    1    2    0    0 -0.29961469977E+01  0.12877480655E+01 -0.31718861538E+02  0.31886068575E+02  0.00000000000E+00 0. -1.
         11    1    3    3    0    0  0.13401915002E+02  0.36915741066E+01  0.11253808885E+02  0.17885392358E+02  0.51100000000E-03 0. -1.
        -11    1    3    3    0    0  0.19328693066E+01  0.12280628742E+02  0.75073045916E+00  0.12454453924E+02  0.51100000000E-03 0.  1.
        -12    1    3    3    0    0 -0.12338637311E+02 -0.17259950914E+02  0.19714322194E+02  0.28962085143E+02  0.00000000000E+00 0.  1.
</event>
<event>
 7    1  0.5837204E-012  0.5930201E+02  0.7816164E-02  0.1266605E+00
        -11   -1    0    0    0    0  0.00000000000E+00  0.00000000000E+00  0.45593999997E+02  0.45594000000E+02  0.51100000000E-03 0.  1.
         11   -1    0    0    0    0 -0.00000000000E+00 -0.00000000000E+00 -0.45593999997E+02  0.45594000000E+02  0.51100000000E-03 0. -1.
    9900012    2    1    2    0    0  0.88473181153E+01 -0.28119412979E+02  0.12154837550E+02  0.59302007778E+02  0.50000116265E+02 0.  0.
         12    1    1    2    0    0 -0.88473181153E+01  0.28119412979E+02 -0.12154837550E+02  0.31885992222E+02  0.00000000000E+00 0. -1.
         11    1    3    3    0    0  0.76314304058E+01  0.54556277993E+01 -0.37465642640E+01  0.10101452805E+02  0.51100000000E-03 0.  1.
        -11    1    3    3    0    0 -0.15048306657E+02 -0.19158173747E+02  0.49345845802E+01  0.24856332791E+02  0.51100000000E-03 0. -1.
         12    1    3    3    0    0  0.16264194367E+02 -0.14416867031E+02  0.10966817234E+02  0.24344222182E+02  0.00000000000E+00 0. -1.
</event>
<event>
 7    1  0.5837204E-012  0.5930192E+02  0.7816164E-02  0.1266605E+00
        -11   -1    0    0    0    0  0.00000000000E+00  0.00000000000E+00  0.45593999997E+02  0.45594000000E+02  0.51100000000E-03 0.  1.
         11   -1    0    0    0    0 -0.00000000000E+00 -0.00000000000E+00 -0.45593999997E+02  0.45594000000E+02  0.51100000000E-03 0. -1.
    9900012    2    1    2    0    0 -0.17028366698E+01  0.22268727268E+02  0.22757985745E+02  0.59301924951E+02  0.49999965209E+02 0.  0.
         12    1    1    2    0    0  0.17028366698E+01 -0.22268727268E+02 -0.22757985745E+02  0.31886075049E+02  0.00000000000E+00 0. -1.
         11    1    3    3    0    0  0.75970731723E+01 -0.42986781305E+01 -0.52489658618E+00  0.87446938850E+01  0.51100000000E-03 0. -1.
        -11    1    3    3    0    0 -0.58505320242E+01 -0.57795995627E+01  0.14812190413E+02  0.16942062483E+02  0.51100000000E-03 0.  1.
        -12    1    3    3    0    0 -0.34493778179E+01  0.32347004962E+02  0.84706919178E+01  0.33615168583E+02  0.00000000000E+00 0.  1.
</event>
<event>
 7    1  0.5837204E-012  0.5930196E+02  0.7816164E-02  0.1266605E+00
        -11   -1    0    0    0    0  0.00000000000E+00  0.00000000000E+00  0.45593999997E+02  0.45594000000E+02  0.51100000000E-03 0. -1.
         11   -1    0    0    0    0 -0.00000000000E+00 -0.00000000000E+00 -0.45593999997E+02  0.45594000000E+02  0.51100000000E-03 0.  1.
    9900012    2    1    2    0    0  0.93422000127E+00 -0.14873170869E+02 -0.28189280820E+02  0.59301960236E+02  0.50000029560E+02 0.  0.
         12    1    1    2    0    0 -0.93422000127E+00  0.14873170869E+02  0.28189280820E+02  0.31886039764E+02  0.00000000000E+00 0. -1.
         11    1    3    3    0    0 -0.17475915368E+02 -0.51403995933E+01 -0.54172458040E+01  0.19004680431E+02  0.51100000000E-03 0. -1.
        -11    1    3    3    0    0 -0.36204012121E+01 -0.84098214386E+01 -0.85898195492E+00  0.91962085571E+01  0.51100000000E-03 0.  1.
        -12    1    3    3    0    0  0.22030536581E+02 -0.13229498368E+01 -0.21913053061E+02  0.31101071248E+02  0.00000000000E+00 0.  1.
</event>
<event>
 7    1  0.5837204E-012  0.5930195E+02  0.7816164E-02  0.1266605E+00
        -11   -1    0    0    0    0  0.00000000000E+00  0.00000000000E+00  0.45593999997E+02  0.45594000000E+02  0.51100000000E-03 0.  1.
         11   -1    0    0    0    0 -0.00000000000E+00 -0.00000000000E+00 -0.45593999997E+02  0.45594000000E+02  0.51100000000E-03 0. -1.
    9900012    2    1    2    0    0 -0.19213231833E+02  0.19868560616E+02  0.15900073778E+02  0.59301947805E+02  0.50000006890E+02 0.  0.
         12    1    1    2    0    0  0.19213231833E+02 -0.19868560616E+02 -0.15900073778E+02  0.31886052195E+02  0.00000000000E+00 0. -1.
         11    1    3    3    0    0  0.53722726766E+00 -0.17574219925E+01  0.11899551221E+02  0.12040617289E+02  0.51100000000E-03 0. -1.
        -11    1    3    3    0    0 -0.18190614979E+02 -0.59262630767E+01 -0.12400793431E+01  0.19171772594E+02  0.51100000000E-03 0.  1.
         12    1    3    3    0    0 -0.15598441216E+01  0.27552245685E+02  0.52406019007E+01  0.28089557922E+02  0.00000000000E+00 0. -1.
</event>
<event>
 7    1  0.5837204E-012  0.5930193E+02  0.7816164E-02  0.1266605E+00
        -11   -1    0    0    0    0  0.00000000000E+00  0.00000000000E+00  0.45593999997E+02  0.45594000000E+02  0.51100000000E-03 0. -1.
         11   -1    0    0    0    0 -0.00000000000E+00 -0.00000000000E+00 -0.45593999997E+02  0.45594000000E+02  0.51100000000E-03 0.  1.
    9900012    2    1    2    0    0  0.19917294403E+02  0.21905904819E+02  0.11838684654E+02  0.59301925663E+02  0.49999966508E+02 0.  0.
         12    1    1    2    0    0 -0.19917294403E+02 -0.21905904819E+02 -0.11838684654E+02  0.31886074337E+02  0.00000000000E+00 0. -1.
         11    1    3    3    0    0 -0.91828185296E+01  0.15848142558E+02  0.16294093705E+02  0.24515000890E+02  0.51100000000E-03 0. -1.
        -11    1    3    3    0    0  0.37519509174E+01  0.74881266402E+01  0.19571152665E+01  0.86011322914E+01  0.51100000000E-03 0.  1.
         12    1    3    3    0    0  0.25348162015E+02 -0.14303643794E+01 -0.64125243175E+01  0.26185792482E+02  0.00000000000E+00 0. -1.
</event>
<event>
 7    1  0.5837204E-012  0.5930196E+02  0.7816164E-02  0.1266605E+00
        -11   -1    0    0    0    0  0.00000000000E+00  0.00000000000E+00  0.45593999997E+02  0.45594000000E+02  0.51100000000E-03 0.  1.
         11   -1    0    0    0    0 -0.00000000000E+00 -0.00000000000E+00 -0.45593999997E+02  0.45594000000E+02  0.51100000000E-03 0. -1.
    9900012    2    1    2    0    0  0.78829612916E+01 -0.19222538892E+02  0.24188270474E+02  0.59301960599E+02  0.50000030222E+02 0.  0.
         12    1    1    2    0    0 -0.78829612916E+01  0.19222538892E+02 -0.24188270474E+02  0.31886039401E+02  0.00000000000E+00 0. -1.
         11    1    3    3    0    0  0.23978509554E+02 -0.23079652756E+01  0.16060095678E+02  0.28952068969E+02  0.51100000000E-03 0.  1.
        -11    1    3    3    0    0 -0.10221547941E+02 -0.49029816001E+00  0.78621395417E+01  0.12904792638E+02  0.51100000000E-03 0. -1.
        -12    1    3    3    0    0 -0.58740003215E+01 -0.16424275457E+02  0.26603525395E+00  0.17445098991E+02  0.00000000000E+00 0.  1.
</event>
<event>
 7    1  0.5837204E-012  0.5930195E+02  0.7816164E-02  0.1266605E+00
        -11   -1    0    0    0    0  0.00000000000E+00  0.00000000000E+00  0.45593999997E+02  0.45594000000E+02  0.51100000000E-03 0. -1.
         11   -1    0    0    0    0 -0.00000000000E+00 -0.00000000000E+00 -0.45593999997E+02  0.45594000000E+02  0.51100000000E-03 0.  1.
    9900012    2    1    2    0    0 -0.22066354435E+02  0.13266032196E+02  0.18809792947E+02  0.59301954166E+02  0.50000018489E+02 0.  0.
         12    1    1    2    0    0  0.22066354435E+02 -0.13266032196E+02 -0.18809792947E+02  0.31886045834E+02  0.00000000000E+00 0. -1.
         11    1    3    3    0    0 -0.30549854447E+02  0.38528305727E+01  0.11466691892E+01  0.30813191341E+02  0.51100000000E-03 0. -1.
        -11    1    3    3    0    0  0.53900032823E+00 -0.50570890114E+01  0.76351349878E+01  0.91738736184E+01  0.51100000000E-03 0.  1.
        -12    1    3    3    0    0  0.79444996840E+01  0.14470290634E+02  0.10027988770E+02  0.19314889206E+02  0.00000000000E+00 0.  1.
</event>
<event>
 7    1  0.5837204E-012  0.5930196E+02  0.7816164E-02  0.1266605E+00
        -11   -1    0    0    0    0  0.00000000000E+00  0.00000000000E+00  0.45593999997E+02  0.45594000000E+02  0.51100000000E-03 0. -1.
         11   -1    0    0    0    0 -0.00000000000E+00 -0.00000000000E+00 -0.45593999997E+02  0.45594000000E+02  0.51100000000E-03 0.  1.
    9900012    2    1    2    0    0  0.13915917807E+02  0.12543116993E+02 -0.25801884948E+02  0.59301955731E+02  0.50000021344E+02 0.  0.
         12    1    1    2    0    0 -0.13915917807E+02 -0.12543116993E+02  0.25801884948E+02  0.31886044269E+02  0.00000000000E+00 0. -1.
         11    1    3    3    0    0  0.86368590815E+00  0.39755872436E+01 -0.58627158922E+01  0.71360132548E+01  0.51100000000E-03 0. -1.
        -11    1    3    3    0    0 -0.70875966591E+01 -0.42648253295E+01 -0.26202921579E+02  0.27477551948E+02  0.51100000000E-03 0.  1.
         12    1    3    3    0    0  0.20139828558E+02  0.12832355079E+02  0.62637525238E+01  0.24688390528E+02  0.00000000000E+00 0. -1.
</event>
<event>
 7    1  0.5837204E-012  0.5930195E+02  0.7816164E-02  0.1266605E+00
        -11   -1    0    0    0    0  0.00000000000E+00  0.00000000000E+00  0.45593999997E+02  0.45594000000E+02  0.51100000000E-03 0.  1.
         11   -1    0    0    0    0 -0.00000000000E+00 -0.00000000000E+00 -0.45593999997E+02  0.45594000000E+02  0.51100000000E-03 0. -1.
    9900012    2    1    2    0    0 -0.10406801723E+02  0.26588607241E+02  0.14193831068E+02  0.59301946662E+02  0.50000004804E+02 0.  0.
         12    1    1    2    0    0  0.10406801723E+02 -0.26588607241E+02 -0.14193831068E+02  0.31886053338E+02  0.00000000000E+00 0. -1.
         11    1    3    3    0    0 -0.13847921015E+02  0.92445665439E+01  0.95280974151E+01  0.19183627593E+02  0.51100000000E-03 0. -1.
        -11    1    3    3    0    0 -0.11785670315E+01  0.16201386935E+02 -0.13635477595E+02  0.21208493779E+02  0.51100000000E-03 0.  1.
        -12    1    3    3    0    0  0.46196863235E+01  0.11426537623E+01  0.18301211248E+02  0.18909825290E+02  0.00000000000E+00 0.  1.
</event>
<event>
 7    1  0.5837204E-012  0.5930199E+02  0.7816164E-02  0.1266605E+00
        -11   -1    0    0    0    0  0.00000000000E+00  0.00000000000E+00  0.45593999997E+02  0.45594000000E+02  0.51100000000E-03 0.  1.
         11   -1    0    0    0    0 -0.00000000000E+00 -0.00000000000E+00 -0.45593999997E+02  0.45594000000E+02  0.51100000000E-03 0. -1.
    9900012    2    1    2    0    0  0.31575547237E+02 -0.41745722765E+01  0.15083960387E+01  0.59301992166E+02  0.50000087792E+02 0.  0.
         12    1    1    2    0    0 -0.31575547237E+02  0.41745722765E+01 -0.15083960387E+01  0.31886007834E+02  0.00000000000E+00 0. -1.
         11    1    3    3    0    0  0.10940548598E+02 -0.28620579627E+01  0.14669026218E+02  0.18522076283E+02  0.51100000000E-03 0.  1.
        -11    1    3    3    0    0  0.19554807409E+02 -0.50873161449E+01  0.61131886932E+01  0.21110242884E+02  0.51100000000E-03 0. -1.
         12    1    3    3    0    0  0.10801912298E+01  0.37748018311E+01 -0.19273818872E+02  0.19669672999E+02  0.00000000000E+00 0. -1.
</event>
<event>
 7    1  0.5837204E-012  0.5930191E+02  0.7816164E-02  0.1266605E+00
        -11   -1    0    0    0    0  0.00000000000E+00  0.00000000000E+00  0.45593999997E+02  0.45594000000E+02  0.51100000000E-03 0.  1.
         11   -1    0    0    0    0 -0.00000000000E+00 -0.00000000000E+00 -0.45593999997E+02  0.45594000000E+02  0.51100000000E-03 0. -1.
    9900012    2    1    2    0    0  0.18825021789E+02 -0.24365270313E+02  0.82870395976E+01  0.59301907921E+02  0.49999934149E+02 0.  0.
         12    1    1    2    0    0 -0.18825021789E+02  0.24365270313E+02 -0.82870395976E+01  0.31886092079E+02  0.00000000000E+00 0. -1.
         11    1    3    3    0    0 -0.51332203796E+01 -0.92791697852E+01  0.14365765258E+02  0.17855759717E+02  0.51100000000E-03 0. -1.
        -11    1    3    3    0    0  0.43152184578E+01 -0.19385605992E+02  0.15940157246E+01  0.19923948314E+02  0.51100000000E-03 0.  1.
        -12    1    3    3    0    0  0.19643023711E+02  0.42995054637E+01 -0.76727413848E+01  0.21522199890E+02  0.00000000000E+00 0.  1.
</event>
<event>
 7    1  0.5837204E-012  0.5930195E+02  0.7816164E-02  0.1266605E+00
        -11   -1    0    0    0    0  0.00000000000E+00  0.00000000000E+00  0.45593999997E+02  0.45594000000E+02  0.51100000000E-03 0. -1.
         11   -1    0    0    0    0 -0.00000000000E+00 -0.00000000000E+00 -0.45593999997E+02  0.45594000000E+02  0.51100000000E-03 0.  1.
    9900012    2    1    2    0    0 -0.11396213363E+02 -0.95687926780E+01 -0.28200791305E+02  0.59301951287E+02  0.50000013239E+02 0.  0.
         12    1    1    2    0    0  0.11396213363E+02  0.95687926780E+01  0.28200791305E+02  0.31886048713E+02  0.00000000000E+00 0. -1.
         11    1    3    3    0    0 -0.12946626430E+02  0.79117490691E+01 -0.17317918673E+02  0.23024361374E+02  0.51100000000E-03 0. -1.
        -11    1    3    3    0    0 -0.63442565059E+00 -0.14069048836E+02 -0.21053609369E+02  0.25329727570E+02  0.51100000000E-03 0.  1.
         12    1    3    3    0    0  0.21848387177E+01 -0.34114929113E+01  0.10170736737E+02  0.10947862343E+02  0.00000000000E+00 0. -1.
</event>
<event>
 7    1  0.5837204E-012  0.5930192E+02  0.7816164E-02  0.1266605E+00
        -11   -1    0    0    0    0  0.00000000000E+00  0.00000000000E+00  0.45593999997E+02  0.45594000000E+02  0.51100000000E-03 0. -1.
         11   -1    0    0    0    0 -0.00000000000E+00 -0.00000000000E+00 -0.45593999997E+02  0.45594000000E+02  0.51100000000E-03 0.  1.
    9900012    2    1    2    0    0 -0.20507617649E+01  0.11972064058E+02 -0.29481963642E+02  0.59301919623E+02  0.49999955492E+02 0.  0.
         12    1    1    2    0    0  0.20507617649E+01 -0.11972064058E+02  0.29481963642E+02  0.31886080377E+02  0.00000000000E+00 0. -1.
         11    1    3    3    0    0  0.66124790112E+01  0.44806836521E+01  0.29995846420E+01  0.85322279007E+01  0.51100000000E-03 0. -1.
        -11    1    3    3    0    0 -0.86469679157E+01 -0.13640970238E+02 -0.68327288397E+01  0.17536599067E+02  0.51100000000E-03 0.  1.
        -12    1    3    3    0    0 -0.16272860387E-01  0.21132350645E+02 -0.25648819444E+02  0.33233092655E+02  0.00000000000E+00 0.  1.
</event>
<event>
 7    1  0.6142852E-012  0.5930205E+02  0.7816164E-02  0.1266604E+00
        -11   -1    0    0    0    0  0.00000000000E+00  0.00000000000E+00  0.45593999997E+02  0.45594000000E+02  0.51100000000E-03 0.  1.
         11   -1    0    0    0    0 -0.00000000000E+00 -0.00000000000E+00 -0.45593999997E+02  0.45594000000E+02  0.51100000000E-03 0. -1.
    9900012    2    1    2    0    0 -0.25807955216E+02 -0.18692413700E+02  0.11212534451E+01  0.59302045542E+02  0.50000185138E+02 0.  0.
         12    1    1    2    0    0  0.25807955216E+02  0.18692413700E+02 -0.11212534451E+01  0.31885954458E+02  0.00000000000E+00 0. -1.
         11    1    3    3    0    0  0.21567032970E-01  0.29751468137E+01 -0.11490918751E+02  0.11869843205E+02  0.51100000000E-03 0. -1.
        -11    1    3    3    0    0  0.46420176321E+01  0.25978972197E+01  0.58319921301E+01  0.78936385860E+01  0.51100000000E-03 0.  1.
        -12    1    3    3    0    0 -0.30471539882E+02 -0.24265457734E+02  0.67801800663E+01  0.39538563751E+02  0.00000000000E+00 0.  1.
</event>
<event>
 7    1  0.5837204E-012  0.5930193E+02  0.7816164E-02  0.1266605E+00
        -11   -1    0    0    0    0  0.00000000000E+00  0.00000000000E+00  0.45593999997E+02  0.45594000000E+02  0.51100000000E-03 0. -1.
         11   -1    0    0    0    0 -0.00000000000E+00 -0.00000000000E+00 -0.45593999997E+02  0.45594000000E+02  0.51100000000E-03 0.  1.
    9900012    2    1    2    0    0  0.11046239776E+02  0.98906726816E+01 -0.28229003990E+02  0.59301929600E+02  0.49999973688E+02 0.  0.
         12    1    1    2    0    0 -0.11046239776E+02 -0.98906726816E+01  0.28229003990E+02  0.31886070400E+02  0.00000000000E+00 0. -1.
         11    1    3    3    0    0  0.25426864025E+01 -0.28335386560E+01 -0.35991380704E+01  0.52390829891E+01  0.51100000000E-03 0. -1.
        -11    1    3    3    0    0  0.25811064431E+02  0.15772333925E+02 -0.18464333538E+02  0.35438808922E+02  0.51100000000E-03 0.  1.
         12    1    3    3    0    0 -0.17307511057E+02 -0.30481225874E+01 -0.61655323810E+01  0.18624037689E+02  0.00000000000E+00 0. -1.
</event>
<event>
 7    1  0.5837204E-012  0.5930197E+02  0.7816164E-02  0.1266605E+00
        -11   -1    0    0    0    0  0.00000000000E+00  0.00000000000E+00  0.45593999997E+02  0.45594000000E+02  0.51100000000E-03 0.  1.
         11   -1    0    0    0    0 -0.00000000000E+00 -0.00000000000E+00 -0.45593999997E+02  0.45594000000E+02  0.51100000000E-03 0. -1.
    9900012    2    1    2    0    0 -0.69836841317E+01  0.30366140498E+02 -0.67708790387E+01  0.59301966447E+02  0.50000040887E+02 0.  0.
         12    1    1    2    0    0  0.69836841317E+01 -0.30366140498E+02  0.67708790387E+01  0.31886033553E+02  0.00000000000E+00 0. -1.
         11    1    3    3    0    0  0.15540973189E+02  0.35071237435E+01 -0.11216474175E+02  0.19484123224E+02  0.51100000000E-03 0. -1.
        -11    1    3    3    0    0 -0.48542426810E+01 -0.23781500879E+01  0.50028288749E+00  0.54285866554E+01  0.51100000000E-03 0.  1.
        -12    1    3    3    0    0 -0.17670414640E+02  0.29237166843E+02  0.39453122491E+01  0.34389256568E+02  0.00000000000E+00 0.  1.
</event>
<event>
 7    1  0.5837204E-012  0.5930191E+02  0.7816164E-02  0.1266605E+00
        -11   -1    0    0    0    0  0.00000000000E+00  0.00000000000E+00  0.45593999997E+02  0.45594000000E+02  0.51100000000E-03 0.  1.
         11   -1    0    0    0    0 -0.00000000000E+00 -0.00000000000E+00 -0.45593999997E+02  0.45594000000E+02  0.51100000000E-03 0. -1.
    9900012    2    1    2    0    0  0.88342257317E+01  0.94296314386E+01  0.29150666049E+02  0.59301908605E+02  0.49999935398E+02 0.  0.
         12    1    1    2    0    0 -0.88342257317E+01 -0.94296314386E+01 -0.29150666049E+02  0.31886091395E+02  0.00000000000E+00 0. -1.
         11    1    3    3    0    0  0.82357676569E+01  0.11264490760E+01 -0.51552800047E-01  0.83126057510E+01  0.51100000000E-03 0. -1.
        -11    1    3    3    0    0  0.42873695571E+01  0.60635618177E+01  0.39306579155E+02  0.40001943512E+02  0.51100000000E-03 0.  1.
         12    1    3    3    0    0 -0.36889114823E+01  0.22396205450E+01 -0.10104360306E+02  0.10987359342E+02  0.00000000000E+00 0. -1.
</event>
<event>
 7    1  0.5837204E-012  0.5930196E+02  0.7816164E-02  0.1266605E+00
        -11   -1    0    0    0    0  0.00000000000E+00  0.00000000000E+00  0.45593999997E+02  0.45594000000E+02  0.51100000000E-03 0. -1.
         11   -1    0    0    0    0 -0.00000000000E+00 -0.00000000000E+00 -0.45593999997E+02  0.45594000000E+02  0.51100000000E-03 0.  1.
    9900012    2    1    2    0    0 -0.26345257089E+02 -0.27566820607E+01 -0.17749576532E+02  0.59301963336E+02  0.50000035214E+02 0.  0.
         12    1    1    2    0    0  0.26345257089E+02  0.27566820607E+01  0.17749576532E+02  0.31886036664E+02  0.00000000000E+00 0. -1.
         11    1    3    3    0    0  0.50847662294E+01  0.14156732245E+02 -0.79150199364E+01  0.16997513239E+02  0.51100000000E-03 0. -1.
        -11    1    3    3    0    0 -0.52027148245E+01 -0.28668956515E+01 -0.11030685151E+02  0.12528501402E+02  0.51100000000E-03 0.  1.
         12    1    3    3    0    0 -0.26227308494E+02 -0.14046518654E+02  0.11961285561E+01  0.29775948695E+02  0.00000000000E+00 0. -1.
</event>
<event>
 7    1  0.5837204E-012  0.5930191E+02  0.7816164E-02  0.1266605E+00
        -11   -1    0    0    0    0  0.00000000000E+00  0.00000000000E+00  0.45593999997E+02  0.45594000000E+02  0.51100000000E-03 0.  1.
         11   -1    0    0    0    0 -0.00000000000E+00 -0.00000000000E+00 -0.45593999997E+02  0.45594000000E+02  0.51100000000E-03 0. -1.
    9900012    2    1    2    0    0  0.17814038002E+02  0.47647198729E+00  0.26441556298E+02  0.59301907814E+02  0.49999933954E+02 0.  0.
         12    1    1    2    0    0 -0.17814038002E+02 -0.47647198729E+00 -0.26441556298E+02  0.31886092186E+02  0.00000000000E+00 0. -1.
         11    1    3    3    0    0 -0.11638200463E+02  0.92252325428E+01  0.19249954308E+02  0.24312823090E+02  0.51100000000E-03 0. -1.
        -11    1    3    3    0    0 -0.12096863788E+01  0.10528592269E+01  0.16937376238E+01  0.23325096112E+01  0.51100000000E-03 0.  1.
        -12    1    3    3    0    0  0.30661924844E+02 -0.98016197824E+01  0.54978643657E+01  0.32656575112E+02  0.00000000000E+00 0.  1.
</event>
<event>
 7    1  0.5837204E-012  0.5930192E+02  0.7816164E-02  0.1266605E+00
        -11   -1    0    0    0    0  0.00000000000E+00  0.00000000000E+00  0.45593999997E+02  0.45594000000E+02  0.51100000000E-03 0. -1.
         11   -1    0    0    0    0 -0.00000000000E+00 -0.00000000000E+00 -0.45593999997E+02  0.45594000000E+02  0.51100000000E-03 0.  1.
    9900012    2    1    2    0    0 -0.28065769902E+02  0.93932461200E+01 -0.11865989204E+02  0.59301918198E+02  0.49999952894E+02 0.  0.
         12    1    1    2    0    0  0.28065769902E+02 -0.93932461200E+01  0.11865989204E+02  0.31886081802E+02  0.00000000000E+00 0. -1.
         11    1    3    3    0    0 -0.13308879188E+02  0.12549062173E+02  0.77059007982E+01  0.19849083959E+02  0.51100000000E-03 0. -1.
        -11    1    3    3    0    0  0.61381808300E+01  0.61879030159E+01  0.87673630683E+00  0.87599129247E+01  0.51100000000E-03 0.  1.
        -12    1    3    3    0    0 -0.20895071544E+02 -0.93437190688E+01 -0.20448626309E+02  0.30692921314E+02  0.00000000000E+00 0.  1.
</event>
<event>
 7    1  0.5837204E-012  0.5930201E+02  0.7816164E-02  0.1266605E+00
        -11   -1    0    0    0    0  0.00000000000E+00  0.00000000000E+00  0.45593999997E+02  0.45594000000E+02  0.51100000000E-03 0. -1.
         11   -1    0    0    0    0 -0.00000000000E+00 -0.00000000000E+00 -0.45593999997E+02  0.45594000000E+02  0.51100000000E-03 0.  1.
    9900012    2    1    2    0    0 -0.14054902578E+02 -0.19775175166E+02 -0.20691025943E+02  0.59302009442E+02  0.50000119299E+02 0.  0.
         12    1    1    2    0    0  0.14054902578E+02  0.19775175166E+02  0.20691025943E+02  0.31885990558E+02  0.00000000000E+00 0. -1.
         11    1    3    3    0    0 -0.33426880987E+01 -0.73466350801E+01  0.62939914789E+01  0.10235279172E+02  0.51100000000E-03 0. -1.
        -11    1    3    3    0    0 -0.28395410020E+01  0.11441045917E+02  0.52986942007E+00  0.11800054519E+02  0.51100000000E-03 0.  1.
        -12    1    3    3    0    0 -0.78726734775E+01 -0.23869586003E+02 -0.27514886842E+02  0.37266675751E+02  0.00000000000E+00 0.  1.
</event>
<event>
 7    1  0.5837204E-012  0.5930195E+02  0.7816164E-02  0.1266605E+00
        -11   -1    0    0    0    0  0.00000000000E+00  0.00000000000E+00  0.45593999997E+02  0.45594000000E+02  0.51100000000E-03 0. -1.
         11   -1    0    0    0    0 -0.00000000000E+00 -0.00000000000E+00 -0.45593999997E+02  0.45594000000E+02  0.51100000000E-03 0.  1.
    9900012    2    1    2    0    0 -0.91494591423E+01 -0.29910706451E+02 -0.61933229833E+01  0.59301949562E+02  0.50000010093E+02 0.  0.
         12    1    1    2    0    0  0.91494591423E+01  0.29910706451E+02  0.61933229833E+01  0.31886050438E+02  0.00000000000E+00 0. -1.
         11    1    3    3    0    0 -0.19295737656E+01  0.32793776367E+01  0.15556607240E+01  0.41106755102E+01  0.51100000000E-03 0. -1.
        -11    1    3    3    0    0 -0.41397873505E+01 -0.43593681239E+02 -0.65018474369E+01  0.44269864508E+02  0.51100000000E-03 0.  1.
         12    1    3    3    0    0 -0.30800980261E+01  0.10403597151E+02 -0.12471362703E+01  0.10921409543E+02  0.00000000000E+00 0. -1.
</event>
<event>
 7    1  0.5837204E-012  0.5930204E+02  0.7816164E-02  0.1266604E+00
        -11   -1    0    0    0    0  0.00000000000E+00  0.00000000000E+00  0.45593999997E+02  0.45594000000E+02  0.51100000000E-03 0. -1.
         11   -1    0    0    0    0 -0.00000000000E+00 -0.00000000000E+00 -0.45593999997E+02  0.45594000000E+02  0.51100000000E-03 0.  1.
    9900012    2    1    2    0    0  0.13731701619E+02 -0.80639087454E+00 -0.28766374818E+02  0.59302043596E+02  0.50000181588E+02 0.  0.
         12    1    1    2    0    0 -0.13731701619E+02  0.80639087454E+00  0.28766374818E+02  0.31885956404E+02  0.00000000000E+00 0. -1.
         11    1    3    3    0    0 -0.69506555597E+01  0.54612054732E+00 -0.36670159405E+01  0.78776180747E+01  0.51100000000E-03 0. -1.
        -11    1    3    3    0    0  0.43930151417E+01  0.68276545176E+01 -0.31171693458E+02  0.32211642640E+02  0.51100000000E-03 0.  1.
         12    1    3    3    0    0  0.16289342037E+02 -0.81801659395E+01  0.60723345799E+01  0.19212782882E+02  0.00000000000E+00 0. -1.
</event>
<event>
 7    1  0.5837204E-012  0.5930194E+02  0.7816164E-02  0.1266605E+00
        -11   -1    0    0    0    0  0.00000000000E+00  0.00000000000E+00  0.45593999997E+02  0.45594000000E+02  0.51100000000E-03 0. -1.
         11   -1    0    0    0    0 -0.00000000000E+00 -0.00000000000E+00 -0.45593999997E+02  0.45594000000E+02  0.51100000000E-03 0.  1.
    9900012    2    1    2    0    0 -0.25297109028E+02  0.50875840132E+01 -0.18732148372E+02  0.59301943189E+02  0.49999998471E+02 0.  0.
         12    1    1    2    0    0  0.25297109028E+02 -0.50875840132E+01  0.18732148372E+02  0.31886056811E+02  0.00000000000E+00 0. -1.
         11    1    3    3    0    0 -0.13694209314E+02  0.71673910736E+00 -0.22018336113E+02  0.25939394926E+02  0.51100000000E-03 0. -1.
        -11    1    3    3    0    0  0.92542454110E+01 -0.46768576325E+01 -0.14591047265E+00  0.10369925051E+02  0.51100000000E-03 0.  1.
         12    1    3    3    0    0 -0.20857145126E+02  0.90477025384E+01  0.34320982134E+01  0.22992623212E+02  0.00000000000E+00 0. -1.
</event>
<event>
 7    1  0.5837204E-012  0.5930195E+02  0.7816164E-02  0.1266605E+00
        -11   -1    0    0    0    0  0.00000000000E+00  0.00000000000E+00  0.45593999997E+02  0.45594000000E+02  0.51100000000E-03 0.  1.
         11   -1    0    0    0    0 -0.00000000000E+00 -0.00000000000E+00 -0.45593999997E+02  0.45594000000E+02  0.51100000000E-03 0. -1.
    9900012    2    1    2    0    0  0.25486032487E+02  0.82936559605E+01  0.17274190425E+02  0.59301949195E+02  0.50000009423E+02 0.  0.
         12    1    1    2    0    0 -0.25486032487E+02 -0.82936559605E+01 -0.17274190425E+02  0.31886050805E+02  0.00000000000E+00 0. -1.
         11    1    3    3    0    0 -0.69437506637E+01  0.12179604073E+02 -0.50209898531E+01  0.14891902767E+02  0.51100000000E-03 0. -1.
        -11    1    3    3    0    0  0.74534273367E+01 -0.61490595414E+01 -0.15719152920E+01  0.97895572041E+01  0.51100000000E-03 0.  1.
        -12    1    3    3    0    0  0.24976355814E+02  0.22631114285E+01  0.23867095570E+02  0.34620489223E+02  0.00000000000E+00 0.  1.
</event>
<event>
 7    1  0.5837204E-012  0.5930193E+02  0.7816164E-02  0.1266605E+00
        -11   -1    0    0    0    0  0.00000000000E+00  0.00000000000E+00  0.45593999997E+02  0.45594000000E+02  0.51100000000E-03 0. -1.
         11   -1    0    0    0    0 -0.00000000000E+00 -0.00000000000E+00 -0.45593999997E+02  0.45594000000E+02  0.51100000000E-03 0.  1.
    9900012    2    1    2    0    0  0.28804731103E+02  0.40274492860E+01  0.13068613081E+02  0.59301928910E+02  0.49999972430E+02 0.  0.
         12    1    1    2    0    0 -0.28804731103E+02 -0.40274492860E+01 -0.13068613081E+02  0.31886071090E+02  0.00000000000E+00 0. -1.
         11    1    3    3    0    0  0.14684801071E+02 -0.25927508533E+01  0.78374346560E+00  0.14932514643E+02  0.51100000000E-03 0.  1.
        -11    1    3    3    0    0  0.97908986596E+01  0.51950515092E+01 -0.13907236278E+02  0.17783741954E+02  0.51100000000E-03 0. -1.
         12    1    3    3    0    0  0.43290313722E+01  0.14251486301E+01  0.26192105893E+02  0.26585672313E+02  0.00000000000E+00 0. -1.
</event>
<event>
 7    1  0.5837204E-012  0.5930195E+02  0.7816164E-02  0.1266605E+00
        -11   -1    0    0    0    0  0.00000000000E+00  0.00000000000E+00  0.45593999997E+02  0.45594000000E+02  0.51100000000E-03 0. -1.
         11   -1    0    0    0    0 -0.00000000000E+00 -0.00000000000E+00 -0.45593999997E+02  0.45594000000E+02  0.51100000000E-03 0.  1.
    9900012    2    1    2    0    0 -0.10395824181E+02 -0.26406819966E+02  0.14537094012E+02  0.59301946569E+02  0.50000004634E+02 0.  0.
         12    1    1    2    0    0  0.10395824181E+02  0.26406819966E+02 -0.14537094012E+02  0.31886053431E+02  0.00000000000E+00 0. -1.
         11    1    3    3    0    0  0.10861346428E+01 -0.10498575418E+02 -0.92222203454E+01  0.14016030915E+02  0.51100000000E-03 0. -1.
        -11    1    3    3    0    0 -0.19046321270E+01 -0.23935343870E+02  0.82945618595E+01  0.25403308178E+02  0.51100000000E-03 0.  1.
         12    1    3    3    0    0 -0.95773266966E+01  0.80270993216E+01  0.15464752498E+02  0.19882607475E+02  0.00000000000E+00 0. -1.
</event>
<event>
 7    1  0.5837204E-012  0.5930196E+02  0.7816164E-02  0.1266605E+00
        -11   -1    0    0    0    0  0.00000000000E+00  0.00000000000E+00  0.45593999997E+02  0.45594000000E+02  0.51100000000E-03 0.  1.
         11   -1    0    0    0    0 -0.00000000000E+00 -0.00000000000E+00 -0.45593999997E+02  0.45594000000E+02  0.51100000000E-03 0. -1.
    9900012    2    1    2    0    0 -0.14619871117E+02  0.28294714690E+02 -0.15454114170E+01  0.59301955917E+02  0.50000021682E+02 0.  0.
         12    1    1    2    0    0  0.14619871117E+02 -0.28294714690E+02  0.15454114170E+01  0.31886044083E+02  0.00000000000E+00 0. -1.
         11    1    3    3    0    0 -0.14781258401E+02 -0.67788201133E+01 -0.51983248324E+01  0.17072216709E+02  0.51100000000E-03 0. -1.
        -11    1    3    3    0    0 -0.57448227493E+01  0.42034002756E+01  0.77624010660E+01  0.10532161833E+02  0.51100000000E-03 0.  1.
        -12    1    3    3    0    0  0.59062100330E+01  0.30870134527E+02 -0.41094876506E+01  0.31697577375E+02  0.00000000000E+00 0.  1.
</event>
<event>
 7    1  0.5837204E-012  0.5930194E+02  0.7816164E-02  0.1266605E+00
        -11   -1    0    0    0    0  0.00000000000E+00  0.00000000000E+00  0.45593999997E+02  0.45594000000E+02  0.51100000000E-03 0.  1.
         11   -1    0    0    0    0 -0.00000000000E+00 -0.00000000000E+00 -0.45593999997E+02  0.45594000000E+02  0.51100000000E-03 0. -1.
    9900012    2    1    2    0    0  0.14697513580E+02  0.23952657174E+02  0.15065653807E+02  0.59301943239E+02  0.49999998561E+02 0.  0.
         12    1    1    2    0    0 -0.14697513580E+02 -0.23952657174E+02 -0.15065653807E+02  0.31886056761E+02  0.00000000000E+00 0. -1.
         11    1    3    3    0    0  0.17872035273E+02  0.11891591641E+02  0.14154440766E+00  0.21467175679E+02  0.51100000000E-03 0. -1.
        -11    1    3    3    0    0  0.11852526389E+02  0.37147780973E+01  0.16410597829E+02  0.20581294407E+02  0.51100000000E-03 0.  1.
        -12    1    3    3    0    0 -0.15027048081E+02  0.83462874361E+01 -0.14864884288E+01  0.17253473153E+02  0.00000000000E+00 0.  1.
</event>
<event>
 7    1  0.5837204E-012  0.5930196E+02  0.7816164E-02  0.1266605E+00
        -11   -1    0    0    0    0  0.00000000000E+00  0.00000000000E+00  0.45593999997E+02  0.45594000000E+02  0.51100000000E-03 0.  1.
         11   -1    0    0    0    0 -0.00000000000E+00 -0.00000000000E+00 -0.45593999997E+02  0.45594000000E+02  0.51100000000E-03 0. -1.
    9900012    2    1    2    0    0 -0.18721380246E+02  0.83762872434E+01  0.24414484849E+02  0.59301963295E+02  0.50000035138E+02 0.  0.
         12    1    1    2    0    0  0.18721380246E+02 -0.83762872434E+01 -0.24414484849E+02  0.31886036705E+02  0.00000000000E+00 0. -1.
         11    1    3    3    0    0 -0.10731681102E+02  0.29360658317E+01 -0.24853687484E+01  0.11400285958E+02  0.51100000000E-03 0. -1.
        -11    1    3    3    0    0 -0.36224129884E+01 -0.84592837515E+01 -0.66308944594E+01  0.11342403583E+02  0.51100000000E-03 0.  1.
         12    1    3    3    0    0 -0.43672861561E+01  0.13899505163E+02  0.33530748057E+02  0.36559273754E+02  0.00000000000E+00 0. -1.
</event>
<event>
 7    1  0.5837204E-012  0.5930194E+02  0.7816164E-02  0.1266605E+00
        -11   -1    0    0    0    0  0.00000000000E+00  0.00000000000E+00  0.45593999997E+02  0.45594000000E+02  0.51100000000E-03 0.  1.
         11   -1    0    0    0    0 -0.00000000000E+00 -0.00000000000E+00 -0.45593999997E+02  0.45594000000E+02  0.51100000000E-03 0. -1.
    9900012    2    1    2    0    0 -0.15989993249E+02  0.58210055808E+01  0.26965850253E+02  0.59301936117E+02  0.49999985573E+02 0.  0.
         12    1    1    2    0    0  0.15989993249E+02 -0.58210055808E+01 -0.26965850253E+02  0.31886063883E+02  0.00000000000E+00 0. -1.
         11    1    3    3    0    0  0.35401603536E+01  0.11446339699E+02 -0.14870433938E+01  0.12073223519E+02  0.51100000000E-03 0. -1.
        -11    1    3    3    0    0  0.16031039770E+01  0.68985171352E+01  0.20052830294E+02  0.21266769480E+02  0.51100000000E-03 0.  1.
         12    1    3    3    0    0 -0.21133257580E+02 -0.12523851253E+02  0.84000633527E+01  0.25961943118E+02  0.00000000000E+00 0. -1.
</event>
<event>
 7    1  0.5837204E-012  0.5930194E+02  0.7816164E-02  0.1266605E+00
        -11   -1    0    0    0    0  0.00000000000E+00  0.00000000000E+00  0.45593999997E+02  0.45594000000E+02  0.51100000000E-03 0.  1.
         11   -1    0    0    0    0 -0.00000000000E+00 -0.00000000000E+00 -0.45593999997E+02  0.45594000000E+02  0.51100000000E-03 0. -1.
    9900012    2    1    2    0    0 -0.30227310889E+02  0.78932259861E+01  0.63817923910E+01  0.59301943264E+02  0.49999998608E+02 0.  0.
         12    1    1    2    0    0  0.30227310889E+02 -0.78932259861E+01 -0.63817923910E+01  0.31886056736E+02  0.00000000000E+00 0. -1.
         11    1    3    3    0    0 -0.23584100298E+02  0.85990187734E+01  0.79570446479E+01  0.26333770534E+02  0.51100000000E-03 0. -1.
        -11    1    3    3    0    0 -0.90237936885E+01  0.70354247387E+01  0.12364417802E+02  0.16846509479E+02  0.51100000000E-03 0.  1.
         12    1    3    3    0    0  0.23805830977E+01 -0.77412175260E+01 -0.13939670059E+02  0.16121663252E+02  0.00000000000E+00 0. -1.
</event>
<event>
 7    1  0.5837204E-012  0.5930195E+02  0.7816164E-02  0.1266605E+00
        -11   -1    0    0    0    0  0.00000000000E+00  0.00000000000E+00  0.45593999997E+02  0.45594000000E+02  0.51100000000E-03 0. -1.
         11   -1    0    0    0    0 -0.00000000000E+00 -0.00000000000E+00 -0.45593999997E+02  0.45594000000E+02  0.51100000000E-03 0.  1.
    9900012    2    1    2    0    0  0.22548593198E+02  0.22461381393E+02  0.19410532499E+01  0.59301946669E+02  0.50000004817E+02 0.  0.
         12    1    1    2    0    0 -0.22548593198E+02 -0.22461381393E+02 -0.19410532499E+01  0.31886053331E+02  0.00000000000E+00 0. -1.
         11    1    3    3    0    0 -0.78833164261E+01  0.66763592877E+01  0.86758093854E+01  0.13490371380E+02  0.51100000000E-03 0. -1.
        -11    1    3    3    0    0  0.14369166938E+02  0.82863343595E+01  0.11652246399E+02  0.20270943294E+02  0.51100000000E-03 0.  1.
         12    1    3    3    0    0  0.16062742687E+02  0.74986877454E+01 -0.18387002535E+02  0.25540631996E+02  0.00000000000E+00 0. -1.
</event>
<event>
 7    1  0.5837204E-012  0.5930198E+02  0.7816164E-02  0.1266605E+00
        -11   -1    0    0    0    0  0.00000000000E+00  0.00000000000E+00  0.45593999997E+02  0.45594000000E+02  0.51100000000E-03 0.  1.
         11   -1    0    0    0    0 -0.00000000000E+00 -0.00000000000E+00 -0.45593999997E+02  0.45594000000E+02  0.51100000000E-03 0. -1.
    9900012    2    1    2    0    0  0.43456814346E+01 -0.12430887439E+02  0.29039740894E+02  0.59301977030E+02  0.50000060188E+02 0.  0.
         12    1    1    2    0    0 -0.43456814346E+01  0.12430887439E+02 -0.29039740894E+02  0.31886022970E+02  0.00000000000E+00 0. -1.
         11    1    3    3    0    0 -0.11778890017E+01  0.41129163429E+01 -0.44068067382E+01  0.61419418128E+01  0.51100000000E-03 0. -1.
        -11    1    3    3    0    0 -0.97148715450E+01 -0.16465209291E+02  0.33269051767E+01  0.19404900011E+02  0.51100000000E-03 0.  1.
         12    1    3    3    0    0  0.15238441981E+02 -0.78594491585E-01  0.30119642456E+02  0.33755135206E+02  0.00000000000E+00 0. -1.
</event>
<event>
 7    1  0.5837204E-012  0.5930195E+02  0.7816164E-02  0.1266605E+00
        -11   -1    0    0    0    0  0.00000000000E+00  0.00000000000E+00  0.45593999997E+02  0.45594000000E+02  0.51100000000E-03 0. -1.
         11   -1    0    0    0    0 -0.00000000000E+00 -0.00000000000E+00 -0.45593999997E+02  0.45594000000E+02  0.51100000000E-03 0.  1.
    9900012    2    1    2    0    0 -0.23142313496E+02  0.21052891219E+02 -0.61586706244E+01  0.59301950911E+02  0.50000012554E+02 0.  0.
         12    1    1    2    0    0  0.23142313496E+02 -0.21052891219E+02  0.61586706244E+01  0.31886049089E+02  0.00000000000E+00 0. -1.
         11    1    3    3    0    0 -0.13209119292E+02  0.11150011199E+02  0.16670450077E+02  0.24014734815E+02  0.51100000000E-03 0. -1.
        -11    1    3    3    0    0 -0.87324190133E+01 -0.21045432428E+01  0.52700737592E+00  0.89978875921E+01  0.51100000000E-03 0.  1.
        -12    1    3    3    0    0 -0.12007751913E+01  0.12007423262E+02 -0.23356128077E+02  0.26289328504E+02  0.00000000000E+00 0.  1.
</event>
<event>
 7    1  0.5837204E-012  0.5930195E+02  0.7816164E-02  0.1266605E+00
        -11   -1    0    0    0    0  0.00000000000E+00  0.00000000000E+00  0.45593999997E+02  0.45594000000E+02  0.51100000000E-03 0.  1.
         11   -1    0    0    0    0 -0.00000000000E+00 -0.00000000000E+00 -0.45593999997E+02  0.45594000000E+02  0.51100000000E-03 0. -1.
    9900012    2    1    2    0    0 -0.21833275590E+02  0.10311608316E+02  0.20825437243E+02  0.59301952496E+02  0.50000015444E+02 0.  0.
         12    1    1    2    0    0  0.21833275590E+02 -0.10311608316E+02 -0.20825437243E+02  0.31886047504E+02  0.00000000000E+00 0. -1.
         11    1    3    3    0    0  0.64670695901E+01  0.14448601565E+02  0.21997106444E+02  0.27100881322E+02  0.51100000000E-03 0. -1.
        -11    1    3    3    0    0 -0.15843423580E+02 -0.49380866839E+01  0.61868776537E+01  0.17710906984E+02  0.51100000000E-03 0.  1.
        -12    1    3    3    0    0 -0.12456921600E+02  0.80109343504E+00 -0.73585468543E+01  0.14490164190E+02  0.00000000000E+00 0.  1.
</event>
<event>
 7    1  0.5837204E-012  0.5930195E+02  0.7816164E-02  0.1266605E+00
        -11   -1    0    0    0    0  0.00000000000E+00  0.00000000000E+00  0.45593999997E+02  0.45594000000E+02  0.51100000000E-03 0.  1.
         11   -1    0    0    0    0 -0.00000000000E+00 -0.00000000000E+00 -0.45593999997E+02  0.45594000000E+02  0.51100000000E-03 0. -1.
    9900012    2    1    2    0    0 -0.23172727215E+02  0.17445302521E+02  0.13244113775E+02  0.59301946367E+02  0.50000004266E+02 0.  0.
         12    1    1    2    0    0  0.23172727215E+02 -0.17445302521E+02 -0.13244113775E+02  0.31886053633E+02  0.00000000000E+00 0. -1.
         11    1    3    3    0    0  0.13186558068E+01  0.63243118165E+01 -0.74926560608E+01  0.98932132392E+01  0.51100000000E-03 0. -1.
        -11    1    3    3    0    0  0.93836839427E+01  0.11988710789E+01  0.31401475489E+01  0.99675143887E+01  0.51100000000E-03 0.  1.
        -12    1    3    3    0    0 -0.33875066964E+02  0.99221196253E+01  0.17596622287E+02  0.39441218739E+02  0.00000000000E+00 0.  1.
</event>
<event>
 7    1  0.5837204E-012  0.5930194E+02  0.7816164E-02  0.1266605E+00
        -11   -1    0    0    0    0  0.00000000000E+00  0.00000000000E+00  0.45593999997E+02  0.45594000000E+02  0.51100000000E-03 0. -1.
         11   -1    0    0    0    0 -0.00000000000E+00 -0.00000000000E+00 -0.45593999997E+02  0.45594000000E+02  0.51100000000E-03 0.  1.
    9900012    2    1    2    0    0  0.14936399171E+02 -0.97040079243E+01 -0.26447251394E+02  0.59301938841E+02  0.49999990540E+02 0.  0.
         12    1    1    2    0    0 -0.14936399171E+02  0.97040079243E+01  0.26447251394E+02  0.31886061159E+02  0.00000000000E+00 0. -1.
         11    1    3    3    0    0 -0.60733605432E+01 -0.94582071846E+01 -0.11435725645E+02  0.16034937254E+02  0.51100000000E-03 0.  1.
        -11    1    3    3    0    0  0.16098381007E+02 -0.31985380959E+01  0.89052202445E+01  0.18673282113E+02  0.51100000000E-03 0. -1.
         12    1    3    3    0    0  0.49113787073E+01  0.29527373562E+01 -0.23916745993E+02  0.24593719474E+02  0.00000000000E+00 0. -1.
</event>
<event>
 7    1  0.5837204E-012  0.5930195E+02  0.7816164E-02  0.1266605E+00
        -11   -1    0    0    0    0  0.00000000000E+00  0.00000000000E+00  0.45593999997E+02  0.45594000000E+02  0.51100000000E-03 0.  1.
         11   -1    0    0    0    0 -0.00000000000E+00 -0.00000000000E+00 -0.45593999997E+02  0.45594000000E+02  0.51100000000E-03 0. -1.
    9900012    2    1    2    0    0 -0.15041755829E+02  0.18267028424E+02  0.21372450740E+02  0.59301946678E+02  0.50000004833E+02 0.  0.
         12    1    1    2    0    0  0.15041755829E+02 -0.18267028424E+02 -0.21372450740E+02  0.31886053322E+02  0.00000000000E+00 0. -1.
         11    1    3    3    0    0  0.65578218967E+01 -0.86874771556E+01  0.15580829448E+02  0.19006302478E+02  0.51100000000E-03 0. -1.
        -11    1    3    3    0    0  0.31685808627E+00  0.44804335462E+01 -0.53502187252E+01  0.69856656431E+01  0.51100000000E-03 0.  1.
        -12    1    3    3    0    0 -0.21916435812E+02  0.22474072034E+02  0.11141840017E+02  0.33309978556E+02  0.00000000000E+00 0.  1.
</event>
<event>
 7    1  0.5837204E-012  0.5930196E+02  0.7816164E-02  0.1266605E+00
        -11   -1    0    0    0    0  0.00000000000E+00  0.00000000000E+00  0.45593999997E+02  0.45594000000E+02  0.51100000000E-03 0. -1.
         11   -1    0    0    0    0 -0.00000000000E+00 -0.00000000000E+00 -0.45593999997E+02  0.45594000000E+02  0.51100000000E-03 0.  1.
    9900012    2    1    2    0    0 -0.31879109970E+02  0.59729865551E+00 -0.29164827292E+00  0.59301961098E+02  0.50000031132E+02 0.  0.
         12    1    1    2    0    0  0.31879109970E+02 -0.59729865551E+00  0.29164827292E+00  0.31886038902E+02  0.00000000000E+00 0. -1.
         11    1    3    3    0    0 -0.39055750199E+01  0.31770975331E+01  0.82766014997E+01  0.96876001991E+01  0.51100000000E-03 0. -1.
        -11    1    3    3    0    0 -0.12248853007E+02  0.67741700117E+01 -0.22581656185E+02  0.26567931339E+02  0.51100000000E-03 0.  1.
         12    1    3    3    0    0 -0.15724681943E+02 -0.93539688893E+01  0.14013406412E+02  0.23046429560E+02  0.00000000000E+00 0. -1.
</event>
<event>
 7    1  0.5837204E-012  0.5930195E+02  0.7816164E-02  0.1266605E+00
        -11   -1    0    0    0    0  0.00000000000E+00  0.00000000000E+00  0.45593999997E+02  0.45594000000E+02  0.51100000000E-03 0.  1.
         11   -1    0    0    0    0 -0.00000000000E+00 -0.00000000000E+00 -0.45593999997E+02  0.45594000000E+02  0.51100000000E-03 0. -1.
    9900012    2    1    2    0    0 -0.17797030517E+02 -0.23239574561E+02 -0.12645486109E+02  0.59301945996E+02  0.50000003590E+02 0.  0.
         12    1    1    2    0    0  0.17797030517E+02  0.23239574561E+02  0.12645486109E+02  0.31886054004E+02  0.00000000000E+00 0. -1.
         11    1    3    3    0    0  0.14348706119E+02 -0.12815816739E+02 -0.11603631024E+02  0.22467193398E+02  0.51100000000E-03 0. -1.
        -11    1    3    3    0    0  0.81444359029E+00 -0.25929698910E+01 -0.11646320347E+01  0.29568867505E+01  0.51100000000E-03 0.  1.
        -12    1    3    3    0    0 -0.32960180227E+02 -0.78307879316E+01  0.12277695059E+00  0.33877865847E+02  0.00000000000E+00 0.  1.
</event>
<event>
 7    1  0.5837204E-012  0.5930193E+02  0.7816164E-02  0.1266605E+00
        -11   -1    0    0    0    0  0.00000000000E+00  0.00000000000E+00  0.45593999997E+02  0.45594000000E+02  0.51100000000E-03 0.  1.
         11   -1    0    0    0    0 -0.00000000000E+00 -0.00000000000E+00 -0.45593999997E+02  0.45594000000E+02  0.51100000000E-03 0. -1.
    9900012    2    1    2    0    0 -0.28265691739E+02  0.48044935203E+01  0.13953090241E+02  0.59301933846E+02  0.49999981431E+02 0.  0.
         12    1    1    2    0    0  0.28265691739E+02 -0.48044935203E+01 -0.13953090241E+02  0.31886066154E+02  0.00000000000E+00 0. -1.
         11    1    3    3    0    0  0.89107968804E+01  0.43395681830E+01 -0.15175621028E+01  0.10026821433E+02  0.51100000000E-03 0. -1.
        -11    1    3    3    0    0  0.12294638020E+00 -0.50040473472E+01  0.99988931245E+01  0.11181836595E+02  0.51100000000E-03 0.  1.
         12    1    3    3    0    0 -0.37299435000E+02  0.54689726845E+01  0.54717592197E+01  0.38093275817E+02  0.00000000000E+00 0. -1.
</event>
<event>
 7    1  0.5837204E-012  0.5930198E+02  0.7816164E-02  0.1266605E+00
        -11   -1    0    0    0    0  0.00000000000E+00  0.00000000000E+00  0.45593999997E+02  0.45594000000E+02  0.51100000000E-03 0. -1.
         11   -1    0    0    0    0 -0.00000000000E+00 -0.00000000000E+00 -0.45593999997E+02  0.45594000000E+02  0.51100000000E-03 0.  1.
    9900012    2    1    2    0    0  0.76647062822E+01  0.16103871334E+02 -0.26431725693E+02  0.59301976143E+02  0.50000058570E+02 0.  0.
         12    1    1    2    0    0 -0.76647062822E+01 -0.16103871334E+02  0.26431725693E+02  0.31886023857E+02  0.00000000000E+00 0. -1.
         11    1    3    3    0    0  0.10871134770E+02  0.13692404269E+02 -0.47745080361E+01  0.18123449813E+02  0.51100000000E-03 0.  1.
        -11    1    3    3    0    0 -0.12420468811E+02  0.59942041703E+01  0.34319580398E+01  0.14211856507E+02  0.51100000000E-03 0. -1.
         12    1    3    3    0    0  0.92140403232E+01 -0.35827371057E+01 -0.25089175696E+02  0.26966669823E+02  0.00000000000E+00 0. -1.
</event>
<event>
 7    1  0.5837204E-012  0.5930194E+02  0.7816164E-02  0.1266605E+00
        -11   -1    0    0    0    0  0.00000000000E+00  0.00000000000E+00  0.45593999997E+02  0.45594000000E+02  0.51100000000E-03 0. -1.
         11   -1    0    0    0    0 -0.00000000000E+00 -0.00000000000E+00 -0.45593999997E+02  0.45594000000E+02  0.51100000000E-03 0.  1.
    9900012    2    1    2    0    0  0.37813987864E+00  0.26569666111E+02 -0.17624708739E+02  0.59301944973E+02  0.50000001725E+02 0.  0.
         12    1    1    2    0    0 -0.37813987864E+00 -0.26569666111E+02  0.17624708739E+02  0.31886055027E+02  0.00000000000E+00 0. -1.
         11    1    3    3    0    0 -0.57785281119E+01  0.21667125271E+02 -0.10388112941E+02  0.24713732931E+02  0.51100000000E-03 0. -1.
        -11    1    3    3    0    0  0.10160790499E+02  0.17041444205E+02 -0.88114487607E+01  0.21709309378E+02  0.51100000000E-03 0.  1.
         12    1    3    3    0    0 -0.40041225087E+01 -0.12138903365E+02  0.15748529629E+01  0.12878902664E+02  0.00000000000E+00 0. -1.
</event>
<event>
 7    1  0.5837204E-012  0.5930196E+02  0.7816164E-02  0.1266605E+00
        -11   -1    0    0    0    0  0.00000000000E+00  0.00000000000E+00  0.45593999997E+02  0.45594000000E+02  0.51100000000E-03 0.  1.
         11   -1    0    0    0    0 -0.00000000000E+00 -0.00000000000E+00 -0.45593999997E+02  0.45594000000E+02  0.51100000000E-03 0. -1.
    9900012    2    1    2    0    0 -0.17220811656E+02  0.10158844865E+01  0.26816618265E+02  0.59301962451E+02  0.50000033599E+02 0.  0.
         12    1    1    2    0    0  0.17220811656E+02 -0.10158844865E+01 -0.26816618265E+02  0.31886037549E+02  0.00000000000E+00 0. -1.
         11    1    3    3    0    0 -0.20122691464E+02  0.17790707423E+02  0.11424023909E+02  0.29188016461E+02  0.51100000000E-03 0. -1.
        -11    1    3    3    0    0  0.23047249167E+01 -0.80686937855E+01 -0.36623566127E+01  0.91557868349E+01  0.51100000000E-03 0.  1.
        -12    1    3    3    0    0  0.59715489106E+00 -0.87061291511E+01  0.19054950969E+02  0.20958159155E+02  0.00000000000E+00 0.  1.
</event>
<event>
 7    1  0.5837204E-012  0.5930196E+02  0.7816164E-02  0.1266605E+00
        -11   -1    0    0    0    0  0.00000000000E+00  0.00000000000E+00  0.45593999997E+02  0.45594000000E+02  0.51100000000E-03 0. -1.
         11   -1    0    0    0    0 -0.00000000000E+00 -0.00000000000E+00 -0.45593999997E+02  0.45594000000E+02  0.51100000000E-03 0.  1.
    9900012    2    1    2    0    0  0.25901493577E+02  0.15958343144E+02 -0.95479715044E+01  0.59301955321E+02  0.50000020595E+02 0.  0.
         12    1    1    2    0    0 -0.25901493577E+02 -0.15958343144E+02  0.95479715044E+01  0.31886044679E+02  0.00000000000E+00 0. -1.
         11    1    3    3    0    0  0.15005089502E+02 -0.76723171774E+01 -0.10781951552E+01  0.16887263452E+02  0.51100000000E-03 0. -1.
        -11    1    3    3    0    0  0.70849889553E+01  0.12393342587E+01 -0.16758005929E+02  0.18236331344E+02  0.51100000000E-03 0.  1.
         12    1    3    3    0    0  0.38114151197E+01  0.22391326063E+02  0.82882295801E+01  0.24178360525E+02  0.00000000000E+00 0. -1.
</event>
<event>
 7    1  0.5837204E-012  0.5930194E+02  0.7816164E-02  0.1266605E+00
        -11   -1    0    0    0    0  0.00000000000E+00  0.00000000000E+00  0.45593999997E+02  0.45594000000E+02  0.51100000000E-03 0.  1.
         11   -1    0    0    0    0 -0.00000000000E+00 -0.00000000000E+00 -0.45593999997E+02  0.45594000000E+02  0.51100000000E-03 0. -1.
    9900012    2    1    2    0    0  0.18984504480E+02 -0.70180713800E+01  0.24638508514E+02  0.59301939754E+02  0.49999992206E+02 0.  0.
         12    1    1    2    0    0 -0.18984504480E+02  0.70180713800E+01 -0.24638508514E+02  0.31886060246E+02  0.00000000000E+00 0. -1.
         11    1    3    3    0    0  0.94716538482E+01  0.51001984889E+01  0.92714998936E+01  0.14201583073E+02  0.51100000000E-03 0. -1.
        -11    1    3    3    0    0  0.98906221786E+01 -0.54599095891E+01  0.28342577671E+02  0.30511255778E+02  0.51100000000E-03 0.  1.
        -12    1    3    3    0    0 -0.37777154695E+00 -0.66583602798E+01 -0.12975569051E+02  0.14589100903E+02  0.00000000000E+00 0.  1.
</event>
<event>
 7    1  0.5837204E-012  0.5930195E+02  0.7816164E-02  0.1266605E+00
        -11   -1    0    0    0    0  0.00000000000E+00  0.00000000000E+00  0.45593999997E+02  0.45594000000E+02  0.51100000000E-03 0. -1.
         11   -1    0    0    0    0 -0.00000000000E+00 -0.00000000000E+00 -0.45593999997E+02  0.45594000000E+02  0.51100000000E-03 0.  1.
    9900012    2    1    2    0    0  0.27273253871E+02  0.15580928567E+02 -0.54885874484E+01  0.59301948129E+02  0.50000007481E+02 0.  0.
         12    1    1    2    0    0 -0.27273253871E+02 -0.15580928567E+02  0.54885874484E+01  0.31886051871E+02  0.00000000000E+00 0. -1.
         11    1    3    3    0    0  0.95820548375E+01 -0.35568846755E+01  0.15988932109E+02  0.18976647590E+02  0.51100000000E-03 0. -1.
        -11    1    3    3    0    0  0.87970679071E+01  0.10095261379E+02  0.20986699893E+01  0.13553860043E+02  0.51100000000E-03 0.  1.
         12    1    3    3    0    0  0.88941311260E+01  0.90425518635E+01 -0.23576189547E+02  0.26771440496E+02  0.00000000000E+00 0. -1.
</event>
<event>
 7    1  0.5837204E-012  0.5930198E+02  0.7816164E-02  0.1266605E+00
        -11   -1    0    0    0    0  0.00000000000E+00  0.00000000000E+00  0.45593999997E+02  0.45594000000E+02  0.51100000000E-03 0. -1.
         11   -1    0    0    0    0 -0.00000000000E+00 -0.00000000000E+00 -0.45593999997E+02  0.45594000000E+02  0.51100000000E-03 0.  1.
    9900012    2    1    2    0    0  0.26239975732E+01  0.25143968853E+02 -0.19432282871E+02  0.59301981896E+02  0.50000069062E+02 0.  0.
         12    1    1    2    0    0 -0.26239975732E+01 -0.25143968853E+02  0.19432282871E+02  0.31886018104E+02  0.00000000000E+00 0. -1.
         11    1    3    3    0    0  0.18489376354E+02  0.20452303689E+02 -0.30548003386E+00  0.27572578452E+02  0.51100000000E-03 0. -1.
        -11    1    3    3    0    0 -0.11083627243E+02  0.12136983075E+02 -0.13180456038E+02  0.21068402234E+02  0.51100000000E-03 0.  1.
        -12    1    3    3    0    0 -0.47817515375E+01 -0.74453179110E+01 -0.59463467990E+01  0.10661001211E+02  0.00000000000E+00 0.  1.
</event>
<event>
 7    1  0.5837204E-012  0.5930195E+02  0.7816164E-02  0.1266605E+00
        -11   -1    0    0    0    0  0.00000000000E+00  0.00000000000E+00  0.45593999997E+02  0.45594000000E+02  0.51100000000E-03 0.  1.
         11   -1    0    0    0    0 -0.00000000000E+00 -0.00000000000E+00 -0.45593999997E+02  0.45594000000E+02  0.51100000000E-03 0. -1.
    9900012    2    1    2    0    0  0.15101159331E+01 -0.31596102535E+02  0.40157278049E+01  0.59301949518E+02  0.50000010013E+02 0.  0.
         12    1    1    2    0    0 -0.15101159331E+01  0.31596102535E+02 -0.40157278049E+01  0.31886050482E+02  0.00000000000E+00 0. -1.
         11    1    3    3    0    0 -0.53820790728E+01 -0.26156092076E+02 -0.10183739861E+02  0.28580001499E+02  0.51100000000E-03 0. -1.
        -11    1    3    3    0    0 -0.81221124834E+01 -0.72686767078E+01  0.10535729856E+02  0.15159286795E+02  0.51100000000E-03 0.  1.
        -12    1    3    3    0    0  0.15014307489E+02  0.18286662490E+01  0.36637378093E+01  0.15562661224E+02  0.00000000000E+00 0.  1.
</event>
<event>
 7    1  0.5837204E-012  0.5930203E+02  0.7816164E-02  0.1266604E+00
        -11   -1    0    0    0    0  0.00000000000E+00  0.00000000000E+00  0.45593999997E+02  0.45594000000E+02  0.51100000000E-03 0.  1.
         11   -1    0    0    0    0 -0.00000000000E+00 -0.00000000000E+00 -0.45593999997E+02  0.45594000000E+02  0.51100000000E-03 0. -1.
    9900012    2    1    2    0    0 -0.39832372484E+01  0.12357614183E+02  0.29122816482E+02  0.59302027424E+02  0.50000152094E+02 0.  0.
         12    1    1    2    0    0  0.39832372484E+01 -0.12357614183E+02 -0.29122816482E+02  0.31885972576E+02  0.00000000000E+00 0. -1.
         11    1    3    3    0    0 -0.65829307834E+01 -0.58917702298E+01 -0.28168913242E+01  0.92726916876E+01  0.51100000000E-03 0. -1.
        -11    1    3    3    0    0  0.17167992102E+01  0.28084832516E+01 -0.72151841972E+01  0.79305649839E+01  0.51100000000E-03 0.  1.
        -12    1    3    3    0    0  0.88289432471E+00  0.15440901162E+02  0.39154892003E+02  0.42098770752E+02  0.00000000000E+00 0.  1.
</event>
<event>
 7    1  0.5837204E-012  0.5930193E+02  0.7816164E-02  0.1266605E+00
        -11   -1    0    0    0    0  0.00000000000E+00  0.00000000000E+00  0.45593999997E+02  0.45594000000E+02  0.51100000000E-03 0. -1.
         11   -1    0    0    0    0 -0.00000000000E+00 -0.00000000000E+00 -0.45593999997E+02  0.45594000000E+02  0.51100000000E-03 0.  1.
    9900012    2    1    2    0    0 -0.25521395759E+02  0.15081193508E+02 -0.11744681476E+02  0.59301928087E+02  0.49999970927E+02 0.  0.
         12    1    1    2    0    0  0.25521395759E+02 -0.15081193508E+02  0.11744681476E+02  0.31886071913E+02  0.00000000000E+00 0. -1.
         11    1    3    3    0    0 -0.65477207259E+01 -0.14347166521E+01  0.11188420569E+02  0.13042691964E+02  0.51100000000E-03 0. -1.
        -11    1    3    3    0    0 -0.22950387225E+02  0.18430225250E+02 -0.77359229894E+01  0.30434158133E+02  0.51100000000E-03 0.  1.
         12    1    3    3    0    0  0.39767121922E+01 -0.19143150897E+01 -0.15197179056E+02  0.15825077990E+02  0.00000000000E+00 0. -1.
</event>
<event>
 7    1  0.5837204E-012  0.5930182E+02  0.7816164E-02  0.1266605E+00
        -11   -1    0    0    0    0  0.00000000000E+00  0.00000000000E+00  0.45593999997E+02  0.45594000000E+02  0.51100000000E-03 0. -1.
         11   -1    0    0    0    0 -0.00000000000E+00 -0.00000000000E+00 -0.45593999997E+02  0.45594000000E+02  0.51100000000E-03 0.  1.
    9900012    2    1    2    0    0  0.57410197670E+01  0.12137671077E+02 -0.28921377379E+02  0.59301820602E+02  0.49999774900E+02 0.  0.
         12    1    1    2    0    0 -0.57410197670E+01 -0.12137671077E+02  0.28921377379E+02  0.31886179398E+02  0.00000000000E+00 0. -1.
         11    1    3    3    0    0  0.91205906830E+01 -0.57163675410E+01 -0.12813859231E+02  0.16734904270E+02  0.51100000000E-03 0. -1.
        -11    1    3    3    0    0  0.10094235035E+02  0.21725808999E+02 -0.15502616712E+02  0.28534811770E+02  0.51100000000E-03 0.  1.
         12    1    3    3    0    0 -0.13473805951E+02 -0.38717703809E+01 -0.60490143574E+00  0.14032104562E+02  0.00000000000E+00 0. -1.
</event>
<event>
 7    1  0.5837204E-012  0.5930193E+02  0.7816164E-02  0.1266605E+00
        -11   -1    0    0    0    0  0.00000000000E+00  0.00000000000E+00  0.45593999997E+02  0.45594000000E+02  0.51100000000E-03 0. -1.
         11   -1    0    0    0    0 -0.00000000000E+00 -0.00000000000E+00 -0.45593999997E+02  0.45594000000E+02  0.51100000000E-03 0.  1.
    9900012    2    1    2    0    0  0.27321386591E+01  0.20024571636E+02 -0.24663200664E+02  0.59301929094E+02  0.49999972765E+02 0.  0.
         12    1    1    2    0    0 -0.27321386591E+01 -0.20024571636E+02  0.24663200664E+02  0.31886070906E+02  0.00000000000E+00 0. -1.
         11    1    3    3    0    0  0.13992105644E+02 -0.15135853844E+00 -0.99301661673E+01  0.17158383669E+02  0.51100000000E-03 0. -1.
        -11    1    3    3    0    0  0.73283385918E+01  0.17597523115E+02 -0.13457175779E+02  0.23333944084E+02  0.51100000000E-03 0.  1.
        -12    1    3    3    0    0 -0.18588305576E+02  0.25784070591E+01 -0.12758587173E+01  0.18809601342E+02  0.00000000000E+00 0.  1.
</event>
<event>
 7    1  0.5837204E-012  0.5930194E+02  0.7816164E-02  0.1266605E+00
        -11   -1    0    0    0    0  0.00000000000E+00  0.00000000000E+00  0.45593999997E+02  0.45594000000E+02  0.51100000000E-03 0.  1.
         11   -1    0    0    0    0 -0.00000000000E+00 -0.00000000000E+00 -0.45593999997E+02  0.45594000000E+02  0.51100000000E-03 0. -1.
    9900012    2    1    2    0    0  0.62922567919E+01  0.16371096892E+02  0.26629225339E+02  0.59301937980E+02  0.49999988970E+02 0.  0.
         12    1    1    2    0    0 -0.62922567919E+01 -0.16371096892E+02 -0.26629225339E+02  0.31886062020E+02  0.00000000000E+00 0. -1.
         11    1    3    3    0    0 -0.61724285515E+01  0.10592410666E+02 -0.45758857957E+01  0.13085746789E+02  0.51100000000E-03 0. -1.
        -11    1    3    3    0    0  0.29353774258E+01  0.11383548572E+02  0.32986005526E+02  0.35018254947E+02  0.51100000000E-03 0.  1.
        -12    1    3    3    0    0  0.95293079176E+01 -0.56048623458E+01 -0.17808943908E+01  0.11197936244E+02  0.00000000000E+00 0.  1.
</event>
<event>
 7    1  0.5837204E-012  0.5930193E+02  0.7816164E-02  0.1266605E+00
        -11   -1    0    0    0    0  0.00000000000E+00  0.00000000000E+00  0.45593999997E+02  0.45594000000E+02  0.51100000000E-03 0. -1.
         11   -1    0    0    0    0 -0.00000000000E+00 -0.00000000000E+00 -0.45593999997E+02  0.45594000000E+02  0.51100000000E-03 0.  1.
    9900012    2    1    2    0    0 -0.16899944961E+02  0.27017812310E+02  0.10728789459E+01  0.59301931083E+02  0.49999976393E+02 0.  0.
         12    1    1    2    0    0  0.16899944961E+02 -0.27017812310E+02 -0.10728789459E+01  0.31886068917E+02  0.00000000000E+00 0. -1.
         11    1    3    3    0    0 -0.82695634820E+01  0.15688100778E+02  0.17395538637E+02  0.24841637445E+02  0.51100000000E-03 0. -1.
        -11    1    3    3    0    0 -0.30529382135E+01  0.18342415200E+02 -0.36655301623E+01  0.18952591874E+02  0.51100000000E-03 0.  1.
        -12    1    3    3    0    0 -0.55774432655E+01 -0.70127036680E+01 -0.12657129529E+02  0.15507701765E+02  0.00000000000E+00 0.  1.
</event>
<event>
 7    1  0.5837204E-012  0.5930192E+02  0.7816164E-02  0.1266605E+00
        -11   -1    0    0    0    0  0.00000000000E+00  0.00000000000E+00  0.45593999997E+02  0.45594000000E+02  0.51100000000E-03 0.  1.
         11   -1    0    0    0    0 -0.00000000000E+00 -0.00000000000E+00 -0.45593999997E+02  0.45594000000E+02  0.51100000000E-03 0. -1.
    9900012    2    1    2    0    0  0.15382947700E+02  0.16427102999E+02  0.22588433357E+02  0.59301919739E+02  0.49999955703E+02 0.  0.
         12    1    1    2    0    0 -0.15382947700E+02 -0.16427102999E+02 -0.22588433357E+02  0.31886080261E+02  0.00000000000E+00 0. -1.
         11    1    3    3    0    0 -0.12030007092E+02  0.13697152390E+02  0.14053874314E+02  0.23018350021E+02  0.51100000000E-03 0. -1.
        -11    1    3    3    0    0  0.53392651641E+01 -0.54046323798E+01  0.10178692749E+02  0.12701322372E+02  0.51100000000E-03 0.  1.
        -12    1    3    3    0    0  0.22073689628E+02  0.81345829895E+01 -0.16441337065E+01  0.23582247345E+02  0.00000000000E+00 0.  1.
</event>
<event>
 7    1  0.5837204E-012  0.5930194E+02  0.7816164E-02  0.1266605E+00
        -11   -1    0    0    0    0  0.00000000000E+00  0.00000000000E+00  0.45593999997E+02  0.45594000000E+02  0.51100000000E-03 0.  1.
         11   -1    0    0    0    0 -0.00000000000E+00 -0.00000000000E+00 -0.45593999997E+02  0.45594000000E+02  0.51100000000E-03 0. -1.
    9900012    2    1    2    0    0  0.57240470806E+01  0.99878993225E+01  0.29735464144E+02  0.59301942299E+02  0.49999996847E+02 0.  0.
         12    1    1    2    0    0 -0.57240470806E+01 -0.99878993225E+01 -0.29735464144E+02  0.31886057701E+02  0.00000000000E+00 0. -1.
         11    1    3    3    0    0 -0.15999471336E+02  0.15899919732E+02  0.10677157256E+02  0.24955805293E+02  0.51100000000E-03 0. -1.
        -11    1    3    3    0    0  0.14001123351E+02  0.50877311005E+01  0.12213832958E+02  0.19263804885E+02  0.51100000000E-03 0.  1.
        -12    1    3    3    0    0  0.77223950655E+01 -0.10999751510E+02  0.68444739301E+01  0.15082332121E+02  0.00000000000E+00 0.  1.
</event>
<event>
 7    1  0.5837204E-012  0.5930195E+02  0.7816164E-02  0.1266605E+00
        -11   -1    0    0    0    0  0.00000000000E+00  0.00000000000E+00  0.45593999997E+02  0.45594000000E+02  0.51100000000E-03 0. -1.
         11   -1    0    0    0    0 -0.00000000000E+00 -0.00000000000E+00 -0.45593999997E+02  0.45594000000E+02  0.51100000000E-03 0.  1.
    9900012    2    1    2    0    0  0.27494250504E+02  0.13632688716E+01 -0.16091234797E+02  0.59301950541E+02  0.50000011878E+02 0.  0.
         12    1    1    2    0    0 -0.27494250504E+02 -0.13632688716E+01  0.16091234797E+02  0.31886049459E+02  0.00000000000E+00 0. -1.
         11    1    3    3    0    0 -0.10360341538E+01  0.38763060821E+01 -0.65915697151E+01  0.77167290467E+01  0.51100000000E-03 0. -1.
        -11    1    3    3    0    0 -0.11050960596E+02 -0.21071486560E+00 -0.22533425080E+01  0.11280322848E+02  0.51100000000E-03 0.  1.
        -12    1    3    3    0    0  0.39581245254E+02 -0.23023223449E+01 -0.72463225742E+01  0.40304898646E+02  0.00000000000E+00 0.  1.
</event>
<event>
 7    1  0.5837204E-012  0.5930194E+02  0.7816164E-02  0.1266605E+00
        -11   -1    0    0    0    0  0.00000000000E+00  0.00000000000E+00  0.45593999997E+02  0.45594000000E+02  0.51100000000E-03 0.  1.
         11   -1    0    0    0    0 -0.00000000000E+00 -0.00000000000E+00 -0.45593999997E+02  0.45594000000E+02  0.51100000000E-03 0. -1.
    9900012    2    1    2    0    0  0.58220652474E+01  0.92024522575E+01  0.29968975773E+02  0.59301935957E+02  0.49999985280E+02 0.  0.
         12    1    1    2    0    0 -0.58220652474E+01 -0.92024522575E+01 -0.29968975773E+02  0.31886064043E+02  0.00000000000E+00 0. -1.
         11    1    3    3    0    0  0.18760818017E+02 -0.95810549901E+01  0.16463812020E+01  0.21129966368E+02  0.51100000000E-03 0. -1.
        -11    1    3    3    0    0 -0.36031629295E+00 -0.12620406714E+01  0.41124438538E+01  0.43168008060E+01  0.51100000000E-03 0.  1.
         12    1    3    3    0    0 -0.12578436476E+02  0.20045547919E+02  0.24210150717E+02  0.33855168783E+02  0.00000000000E+00 0. -1.
</event>
<event>
 7    1  0.5837204E-012  0.5930193E+02  0.7816164E-02  0.1266605E+00
        -11   -1    0    0    0    0  0.00000000000E+00  0.00000000000E+00  0.45593999997E+02  0.45594000000E+02  0.51100000000E-03 0. -1.
         11   -1    0    0    0    0 -0.00000000000E+00 -0.00000000000E+00 -0.45593999997E+02  0.45594000000E+02  0.51100000000E-03 0.  1.
    9900012    2    1    2    0    0 -0.27888290559E+02 -0.13791924643E+02 -0.69819305930E+01  0.59301932659E+02  0.49999979267E+02 0.  0.
         12    1    1    2    0    0  0.27888290559E+02  0.13791924643E+02  0.69819305930E+01  0.31886067341E+02  0.00000000000E+00 0. -1.
         11    1    3    3    0    0 -0.57314417631E+00  0.53517685010E+01  0.24660044640E+01  0.59203968289E+01  0.51100000000E-03 0. -1.
        -11    1    3    3    0    0 -0.29464920828E+02 -0.78474883562E+01 -0.21045516949E+02  0.37049674990E+02  0.51100000000E-03 0.  1.
         12    1    3    3    0    0  0.21497744458E+01 -0.11296204788E+02  0.11597581892E+02  0.16331860841E+02  0.00000000000E+00 0. -1.
</event>
<event>
 7    1  0.5837204E-012  0.5930201E+02  0.7816164E-02  0.1266605E+00
        -11   -1    0    0    0    0  0.00000000000E+00  0.00000000000E+00  0.45593999997E+02  0.45594000000E+02  0.51100000000E-03 0.  1.
         11   -1    0    0    0    0 -0.00000000000E+00 -0.00000000000E+00 -0.45593999997E+02  0.45594000000E+02  0.51100000000E-03 0. -1.
    9900012    2    1    2    0    0  0.95192617474E+01  0.29380042855E+02  0.79317764546E+01  0.59302010285E+02  0.50000120837E+02 0.  0.
         12    1    1    2    0    0 -0.95192617474E+01 -0.29380042855E+02 -0.79317764546E+01  0.31885989715E+02  0.00000000000E+00 0. -1.
         11    1    3    3    0    0  0.37769185896E+01 -0.53591143865E+01  0.78816057107E+01  0.10252069541E+02  0.51100000000E-03 0. -1.
        -11    1    3    3    0    0  0.71922023864E+01  0.27390020491E+02  0.15206827566E+02  0.32143251275E+02  0.51100000000E-03 0.  1.
         12    1    3    3    0    0 -0.14498592286E+01  0.73491367503E+01 -0.15156656822E+02  0.16906689468E+02  0.00000000000E+00 0. -1.
</event>
<event>
 7    1  0.5837204E-012  0.5930198E+02  0.7816164E-02  0.1266605E+00
        -11   -1    0    0    0    0  0.00000000000E+00  0.00000000000E+00  0.45593999997E+02  0.45594000000E+02  0.51100000000E-03 0. -1.
         11   -1    0    0    0    0 -0.00000000000E+00 -0.00000000000E+00 -0.45593999997E+02  0.45594000000E+02  0.51100000000E-03 0.  1.
    9900012    2    1    2    0    0  0.68606393485E+01 -0.69444694368E+01 -0.30354969849E+02  0.59301980766E+02  0.50000067002E+02 0.  0.
         12    1    1    2    0    0 -0.68606393485E+01  0.69444694368E+01  0.30354969849E+02  0.31886019234E+02  0.00000000000E+00 0. -1.
         11    1    3    3    0    0  0.54642769967E+01 -0.39537565819E+01  0.42277355886E+01  0.79601672516E+01  0.51100000000E-03 0. -1.
        -11    1    3    3    0    0 -0.13943182358E+02 -0.11008540711E+02 -0.76846269409E+01  0.19355975675E+02  0.51100000000E-03 0.  1.
         12    1    3    3    0    0  0.15339544710E+02  0.80178278565E+01 -0.26898078497E+02  0.31985837839E+02  0.00000000000E+00 0. -1.
</event>
<event>
 7    1  0.5837204E-012  0.5930194E+02  0.7816164E-02  0.1266605E+00
        -11   -1    0    0    0    0  0.00000000000E+00  0.00000000000E+00  0.45593999997E+02  0.45594000000E+02  0.51100000000E-03 0.  1.
         11   -1    0    0    0    0 -0.00000000000E+00 -0.00000000000E+00 -0.45593999997E+02  0.45594000000E+02  0.51100000000E-03 0. -1.
    9900012    2    1    2    0    0  0.26003932986E+02 -0.88224408637E+00  0.18431985182E+02  0.59301937793E+02  0.49999988628E+02 0.  0.
         12    1    1    2    0    0 -0.26003932986E+02  0.88224408637E+00 -0.18431985182E+02  0.31886062207E+02  0.00000000000E+00 0. -1.
         11    1    3    3    0    0  0.15660866739E+02 -0.34475883426E+01 -0.13259890351E+02  0.20808010592E+02  0.51100000000E-03 0. -1.
        -11    1    3    3    0    0  0.26237210212E+00 -0.41161005747E+01 -0.45301754676E+00  0.41492587555E+01  0.51100000000E-03 0.  1.
        -12    1    3    3    0    0  0.10080694144E+02  0.66814448309E+01  0.32144893080E+02  0.34344668445E+02  0.00000000000E+00 0.  1.
</event>
<event>
 7    1  0.5837204E-012  0.5930195E+02  0.7816164E-02  0.1266605E+00
        -11   -1    0    0    0    0  0.00000000000E+00  0.00000000000E+00  0.45593999997E+02  0.45594000000E+02  0.51100000000E-03 0.  1.
         11   -1    0    0    0    0 -0.00000000000E+00 -0.00000000000E+00 -0.45593999997E+02  0.45594000000E+02  0.51100000000E-03 0. -1.
    9900012    2    1    2    0    0  0.16161227556E+02 -0.10593180188E+02  0.25363746391E+02  0.59301947036E+02  0.50000005487E+02 0.  0.
         12    1    1    2    0    0 -0.16161227556E+02  0.10593180188E+02 -0.25363746391E+02  0.31886052964E+02  0.00000000000E+00 0. -1.
         11    1    3    3    0    0 -0.97797334982E+01 -0.18094413304E+01 -0.84253822475E+01  0.13034735575E+02  0.51100000000E-03 0. -1.
        -11    1    3    3    0    0  0.53775119486E+01  0.69980452027E+00  0.17637454912E+02  0.18452294631E+02  0.51100000000E-03 0.  1.
        -12    1    3    3    0    0  0.20563449105E+02 -0.94835433778E+01  0.16151673727E+02  0.27814916830E+02  0.00000000000E+00 0.  1.
</event>
<event>
 7    1  0.5837204E-012  0.5930195E+02  0.7816164E-02  0.1266605E+00
        -11   -1    0    0    0    0  0.00000000000E+00  0.00000000000E+00  0.45593999997E+02  0.45594000000E+02  0.51100000000E-03 0. -1.
         11   -1    0    0    0    0 -0.00000000000E+00 -0.00000000000E+00 -0.45593999997E+02  0.45594000000E+02  0.51100000000E-03 0.  1.
    9900012    2    1    2    0    0 -0.17496068883E+02  0.11889540305E+02 -0.23858885293E+02  0.59301952857E+02  0.50000016102E+02 0.  0.
         12    1    1    2    0    0  0.17496068883E+02 -0.11889540305E+02  0.23858885293E+02  0.31886047143E+02  0.00000000000E+00 0. -1.
         11    1    3    3    0    0 -0.97990916857E+01  0.26512160476E+02 -0.72012509091E+01  0.29168045288E+02  0.51100000000E-03 0. -1.
        -11    1    3    3    0    0  0.63076791366E+01 -0.35685650693E+01 -0.42399135167E+01  0.83963289379E+01  0.51100000000E-03 0.  1.
        -12    1    3    3    0    0 -0.14004656334E+02 -0.11054055102E+02 -0.12417720867E+02  0.21737578631E+02  0.00000000000E+00 0.  1.
</event>
<event>
 7    1  0.5837204E-012  0.5930196E+02  0.7816164E-02  0.1266605E+00
        -11   -1    0    0    0    0  0.00000000000E+00  0.00000000000E+00  0.45593999997E+02  0.45594000000E+02  0.51100000000E-03 0. -1.
         11   -1    0    0    0    0 -0.00000000000E+00 -0.00000000000E+00 -0.45593999997E+02  0.45594000000E+02  0.51100000000E-03 0.  1.
    9900012    2    1    2    0    0  0.18185123876E+00  0.20637767700E+02 -0.24305740256E+02  0.59301960188E+02  0.50000029473E+02 0.  0.
         12    1    1    2    0    0 -0.18185123876E+00 -0.20637767700E+02  0.24305740256E+02  0.31886039812E+02  0.00000000000E+00 0. -1.
         11    1    3    3    0    0 -0.31485833100E+01  0.14262068544E+02 -0.18192190233E+02  0.23329722710E+02  0.51100000000E-03 0. -1.
        -11    1    3    3    0    0 -0.48417513486E+01  0.19390110356E+02 -0.47652628832E+01  0.20545721363E+02  0.51100000000E-03 0.  1.
         12    1    3    3    0    0  0.81721858974E+01 -0.13014411200E+02 -0.13482871399E+01  0.15426516115E+02  0.00000000000E+00 0. -1.
</event>
<event>
 7    1  0.5837204E-012  0.5930194E+02  0.7816164E-02  0.1266605E+00
        -11   -1    0    0    0    0  0.00000000000E+00  0.00000000000E+00  0.45593999997E+02  0.45594000000E+02  0.51100000000E-03 0.  1.
         11   -1    0    0    0    0 -0.00000000000E+00 -0.00000000000E+00 -0.45593999997E+02  0.45594000000E+02  0.51100000000E-03 0. -1.
    9900012    2    1    2    0    0  0.52369903548E+01  0.17913795250E+02  0.25853258265E+02  0.59301935784E+02  0.49999984966E+02 0.  0.
         12    1    1    2    0    0 -0.52369903548E+01 -0.17913795250E+02 -0.25853258265E+02  0.31886064216E+02  0.00000000000E+00 0. -1.
         11    1    3    3    0    0 -0.44900804419E+01  0.52629782314E+01 -0.35142422619E+01  0.77594884609E+01  0.51100000000E-03 0. -1.
        -11    1    3    3    0    0  0.20503941538E+02  0.16053782463E+02  0.77845577734E+01  0.27179677886E+02  0.51100000000E-03 0.  1.
         12    1    3    3    0    0 -0.10776870741E+02 -0.34029654442E+01  0.21582942753E+02  0.24362769438E+02  0.00000000000E+00 0. -1.
</event>
<event>
 7    1  0.5837204E-012  0.5930181E+02  0.7816164E-02  0.1266605E+00
        -11   -1    0    0    0    0  0.00000000000E+00  0.00000000000E+00  0.45593999997E+02  0.45594000000E+02  0.51100000000E-03 0. -1.
         11   -1    0    0    0    0 -0.00000000000E+00 -0.00000000000E+00 -0.45593999997E+02  0.45594000000E+02  0.51100000000E-03 0.  1.
    9900012    2    1    2    0    0  0.52512115588E+01 -0.11047875467E+02 -0.29446538766E+02  0.59301805174E+02  0.49999746763E+02 0.  0.
         12    1    1    2    0    0 -0.52512115588E+01  0.11047875467E+02  0.29446538766E+02  0.31886194826E+02  0.00000000000E+00 0. -1.
         11    1    3    3    0    0 -0.34851980852E+01  0.90427332533E+01 -0.54038302967E+01  0.11095900708E+02  0.51100000000E-03 0. -1.
        -11    1    3    3    0    0  0.37324273990E+01 -0.13695051778E+02 -0.33115680882E+02  0.36029623617E+02  0.51100000000E-03 0.  1.
         12    1    3    3    0    0  0.50039822451E+01 -0.63955569424E+01  0.90729724120E+01  0.12176280848E+02  0.00000000000E+00 0. -1.
</event>
<event>
 7    1  0.5837204E-012  0.5930193E+02  0.7816164E-02  0.1266605E+00
        -11   -1    0    0    0    0  0.00000000000E+00  0.00000000000E+00  0.45593999997E+02  0.45594000000E+02  0.51100000000E-03 0.  1.
         11   -1    0    0    0    0 -0.00000000000E+00 -0.00000000000E+00 -0.45593999997E+02  0.45594000000E+02  0.51100000000E-03 0. -1.
    9900012    2    1    2    0    0 -0.73553243007E+01  0.94638516102E+01  0.29547520005E+02  0.59301933743E+02  0.49999981244E+02 0.  0.
         12    1    1    2    0    0  0.73553243007E+01 -0.94638516102E+01 -0.29547520005E+02  0.31886066257E+02  0.00000000000E+00 0. -1.
         11    1    3    3    0    0 -0.49288647566E+01  0.20276257161E+00 -0.62834930699E+01  0.79885609386E+01  0.51100000000E-03 0. -1.
        -11    1    3    3    0    0 -0.11328709582E+02 -0.65148053792E+01  0.23953093647E+01  0.13286077568E+02  0.51100000000E-03 0.  1.
         12    1    3    3    0    0  0.89022500378E+01  0.15775894418E+02  0.33435703711E+02  0.38027295237E+02  0.00000000000E+00 0. -1.
</event>
<event>
 7    1  0.5837204E-012  0.5930196E+02  0.7816164E-02  0.1266605E+00
        -11   -1    0    0    0    0  0.00000000000E+00  0.00000000000E+00  0.45593999997E+02  0.45594000000E+02  0.51100000000E-03 0.  1.
         11   -1    0    0    0    0 -0.00000000000E+00 -0.00000000000E+00 -0.45593999997E+02  0.45594000000E+02  0.51100000000E-03 0. -1.
    9900012    2    1    2    0    0  0.22617189782E+02  0.61637594736E+00  0.22467801006E+02  0.59301964264E+02  0.50000036906E+02 0.  0.
         12    1    1    2    0    0 -0.22617189782E+02 -0.61637594736E+00 -0.22467801006E+02  0.31886035736E+02  0.00000000000E+00 0. -1.
         11    1    3    3    0    0  0.93656534128E+01 -0.33609499373E+01  0.80211957662E+01  0.12780885341E+02  0.51100000000E-03 0. -1.
        -11    1    3    3    0    0 -0.97918878875E+01  0.11866165719E+02  0.15895883359E+02  0.22121619862E+02  0.51100000000E-03 0.  1.
         12    1    3    3    0    0  0.23043424257E+02 -0.78888398343E+01 -0.14492781196E+01  0.24399459061E+02  0.00000000000E+00 0. -1.
</event>
<event>
 7    1  0.5837204E-012  0.5930196E+02  0.7816164E-02  0.1266605E+00
        -11   -1    0    0    0    0  0.00000000000E+00  0.00000000000E+00  0.45593999997E+02  0.45594000000E+02  0.51100000000E-03 0. -1.
         11   -1    0    0    0    0 -0.00000000000E+00 -0.00000000000E+00 -0.45593999997E+02  0.45594000000E+02  0.51100000000E-03 0.  1.
    9900012    2    1    2    0    0  0.22147410837E+02  0.19526292705E+02 -0.12038921298E+02  0.59301960114E+02  0.50000029338E+02 0.  0.
         12    1    1    2    0    0 -0.22147410837E+02 -0.19526292705E+02  0.12038921298E+02  0.31886039886E+02  0.00000000000E+00 0. -1.
         11    1    3    3    0    0  0.66307098180E+01  0.45253587168E+01  0.43140136475E+01  0.91135008761E+01  0.51100000000E-03 0. -1.
        -11    1    3    3    0    0  0.12950138048E+02 -0.60376992194E+01  0.91965622790E+01  0.16992252510E+02  0.51100000000E-03 0.  1.
        -12    1    3    3    0    0  0.25665629704E+01  0.21038633208E+02 -0.25549497224E+02  0.33196206728E+02  0.00000000000E+00 0.  1.
</event>
<event>
 7    1  0.5837204E-012  0.5930189E+02  0.7816164E-02  0.1266605E+00
        -11   -1    0    0    0    0  0.00000000000E+00  0.00000000000E+00  0.45593999997E+02  0.45594000000E+02  0.51100000000E-03 0. -1.
         11   -1    0    0    0    0 -0.00000000000E+00 -0.00000000000E+00 -0.45593999997E+02  0.45594000000E+02  0.51100000000E-03 0.  1.
    9900012    2    1    2    0    0 -0.33652211891E+01  0.31614402381E+02  0.24348727803E+01  0.59301893981E+02  0.49999908727E+02 0.  0.
         12    1    1    2    0    0  0.33652211891E+01 -0.31614402381E+02 -0.24348727803E+01  0.31886106019E+02  0.00000000000E+00 0. -1.
         11    1    3    3    0    0 -0.19819229139E+01  0.18107435139E+02  0.20960113294E+02  0.27769291948E+02  0.51100000000E-03 0. -1.
        -11    1    3    3    0    0  0.39974135442E+01  0.14079504120E+02 -0.27986588730E+01  0.14901149051E+02  0.51100000000E-03 0.  1.
         12    1    3    3    0    0 -0.53807118194E+01 -0.57253687708E+00 -0.15726581641E+02  0.16631452981E+02  0.00000000000E+00 0. -1.
</event>
<event>
 7    1  0.5837204E-012  0.5930190E+02  0.7816164E-02  0.1266605E+00
        -11   -1    0    0    0    0  0.00000000000E+00  0.00000000000E+00  0.45593999997E+02  0.45594000000E+02  0.51100000000E-03 0.  1.
         11   -1    0    0    0    0 -0.00000000000E+00 -0.00000000000E+00 -0.45593999997E+02  0.45594000000E+02  0.51100000000E-03 0. -1.
    9900012    2    1    2    0    0  0.13846332619E+02 -0.56560111652E+01  0.28160474026E+02  0.59301895085E+02  0.49999910740E+02 0.  0.
         12    1    1    2    0    0 -0.13846332619E+02  0.56560111652E+01 -0.28160474026E+02  0.31886104915E+02  0.00000000000E+00 0. -1.
         11    1    3    3    0    0  0.15759140898E+02  0.71924936136E+01  0.41472939295E+00  0.17327852924E+02  0.51100000000E-03 0. -1.
        -11    1    3    3    0    0 -0.59671056759E+01  0.80743310028E+01  0.70592582852E+01  0.12273316548E+02  0.51100000000E-03 0.  1.
        -12    1    3    3    0    0  0.40542973968E+01 -0.20922835782E+02  0.20686486348E+02  0.29700725613E+02  0.00000000000E+00 0.  1.
</event>
<event>
 7    1  0.5837204E-012  0.5930199E+02  0.7816164E-02  0.1266605E+00
        -11   -1    0    0    0    0  0.00000000000E+00  0.00000000000E+00  0.45593999997E+02  0.45594000000E+02  0.51100000000E-03 0.  1.
         11   -1    0    0    0    0 -0.00000000000E+00 -0.00000000000E+00 -0.45593999997E+02  0.45594000000E+02  0.51100000000E-03 0. -1.
    9900012    2    1    2    0    0 -0.26162990554E+01 -0.12728644461E+02  0.29117937799E+02  0.59301988769E+02  0.50000081598E+02 0.  0.
         12    1    1    2    0    0  0.26162990554E+01  0.12728644461E+02 -0.29117937799E+02  0.31886011231E+02  0.00000000000E+00 0. -1.
         11    1    3    3    0    0 -0.26895254402E+01  0.48288443573E+01 -0.53580390087E+01  0.76980430760E+01  0.51100000000E-03 0.  1.
        -11    1    3    3    0    0 -0.49267155453E+01 -0.17539882303E+02  0.15322979923E+01  0.18282995779E+02  0.51100000000E-03 0. -1.
        -12    1    3    3    0    0  0.49999419301E+01 -0.17606515680E-01  0.32943678815E+02  0.33320949914E+02  0.00000000000E+00 0.  1.
</event>
<event>
 7    1  0.5837204E-012  0.5930188E+02  0.7816164E-02  0.1266605E+00
        -11   -1    0    0    0    0  0.00000000000E+00  0.00000000000E+00  0.45593999997E+02  0.45594000000E+02  0.51100000000E-03 0.  1.
         11   -1    0    0    0    0 -0.00000000000E+00 -0.00000000000E+00 -0.45593999997E+02  0.45594000000E+02  0.51100000000E-03 0. -1.
    9900012    2    1    2    0    0  0.22971603364E+02 -0.66306422958E+01  0.21096563299E+02  0.59301875096E+02  0.49999874285E+02 0.  0.
         12    1    1    2    0    0 -0.22971603364E+02  0.66306422958E+01 -0.21096563299E+02  0.31886124904E+02  0.00000000000E+00 0. -1.
         11    1    3    3    0    0  0.18791559790E+01  0.11430200405E+02  0.83457769177E+01  0.14276999024E+02  0.51100000000E-03 0. -1.
        -11    1    3    3    0    0  0.97650832869E+01  0.25263544517E+01  0.18286554503E+02  0.20883902755E+02  0.51100000000E-03 0.  1.
         12    1    3    3    0    0  0.11327364098E+02 -0.20587197153E+02 -0.55357681213E+01  0.24140973317E+02  0.00000000000E+00 0. -1.
</event>
<event>
 7    1  0.5837204E-012  0.5930194E+02  0.7816164E-02  0.1266605E+00
        -11   -1    0    0    0    0  0.00000000000E+00  0.00000000000E+00  0.45593999997E+02  0.45594000000E+02  0.51100000000E-03 0.  1.
         11   -1    0    0    0    0 -0.00000000000E+00 -0.00000000000E+00 -0.45593999997E+02  0.45594000000E+02  0.51100000000E-03 0. -1.
    9900012    2    1    2    0    0 -0.43904096374E+01  0.61973499551E+01  0.30968335646E+02  0.59301942609E+02  0.49999997413E+02 0.  0.
         12    1    1    2    0    0  0.43904096374E+01 -0.61973499551E+01 -0.30968335646E+02  0.31886057391E+02  0.00000000000E+00 0. -1.
         11    1    3    3    0    0  0.14891151356E+02  0.10440962457E+02  0.79520907045E+01  0.19849328265E+02  0.51100000000E-03 0. -1.
        -11    1    3    3    0    0 -0.10098189246E+00 -0.87665080041E+01 -0.48736537098E+00  0.87806255583E+01  0.51100000000E-03 0.  1.
        -12    1    3    3    0    0 -0.19180579101E+02  0.45228955026E+01  0.23503610312E+02  0.30671988786E+02  0.00000000000E+00 0.  1.
</event>
<event>
 7    1  0.5837204E-012  0.5930195E+02  0.7816164E-02  0.1266605E+00
        -11   -1    0    0    0    0  0.00000000000E+00  0.00000000000E+00  0.45593999997E+02  0.45594000000E+02  0.51100000000E-03 0.  1.
         11   -1    0    0    0    0 -0.00000000000E+00 -0.00000000000E+00 -0.45593999997E+02  0.45594000000E+02  0.51100000000E-03 0. -1.
    9900012    2    1    2    0    0  0.49489814932E+01  0.22915174325E+02  0.21613023501E+02  0.59301946355E+02  0.50000004245E+02 0.  0.
         12    1    1    2    0    0 -0.49489814932E+01 -0.22915174325E+02 -0.21613023501E+02  0.31886053645E+02  0.00000000000E+00 0. -1.
         11    1    3    3    0    0  0.16720353891E+02 -0.76077771496E+01 -0.21644613344E+01  0.18496848395E+02  0.51100000000E-03 0. -1.
        -11    1    3    3    0    0  0.13447340471E+00  0.11799754774E+01  0.21554538235E+01  0.24609767716E+01  0.51100000000E-03 0.  1.
        -12    1    3    3    0    0 -0.11905845803E+02  0.29342975997E+02  0.21622031012E+02  0.38344121189E+02  0.00000000000E+00 0.  1.
</event>
<event>
 7    1  0.5837204E-012  0.5930194E+02  0.7816164E-02  0.1266605E+00
        -11   -1    0    0    0    0  0.00000000000E+00  0.00000000000E+00  0.45593999997E+02  0.45594000000E+02  0.51100000000E-03 0. -1.
         11   -1    0    0    0    0 -0.00000000000E+00 -0.00000000000E+00 -0.45593999997E+02  0.45594000000E+02  0.51100000000E-03 0.  1.
    9900012    2    1    2    0    0 -0.20530511417E+02  0.24391687714E+02  0.51399734349E+00  0.59301944711E+02  0.50000001247E+02 0.  0.
         12    1    1    2    0    0  0.20530511417E+02 -0.24391687714E+02 -0.51399734349E+00  0.31886055289E+02  0.00000000000E+00 0. -1.
         11    1    3    3    0    0  0.55185318608E+01  0.13292943232E+02  0.40301119135E+01  0.14946515847E+02  0.51100000000E-03 0. -1.
        -11    1    3    3    0    0  0.26653209345E+01  0.16223423009E+00  0.10318183245E+02  0.10658103085E+02  0.51100000000E-03 0.  1.
         12    1    3    3    0    0 -0.28714364212E+02  0.10936510252E+02 -0.13834297816E+02  0.33697325779E+02  0.00000000000E+00 0. -1.
</event>
<event>
 7    1  0.5837204E-012  0.5930204E+02  0.7816164E-02  0.1266604E+00
        -11   -1    0    0    0    0  0.00000000000E+00  0.00000000000E+00  0.45593999997E+02  0.45594000000E+02  0.51100000000E-03 0. -1.
         11   -1    0    0    0    0 -0.00000000000E+00 -0.00000000000E+00 -0.45593999997E+02  0.45594000000E+02  0.51100000000E-03 0.  1.
    9900012    2    1    2    0    0  0.20362706167E+02  0.12355148208E+02 -0.21199638211E+02  0.59302044629E+02  0.50000183471E+02 0.  0.
         12    1    1    2    0    0 -0.20362706167E+02 -0.12355148208E+02  0.21199638211E+02  0.31885955371E+02  0.00000000000E+00 0. -1.
         11    1    3    3    0    0 -0.12503975331E+01  0.34116375914E+01  0.27553559952E+01  0.45601263105E+01  0.51100000000E-03 0. -1.
        -11    1    3    3    0    0  0.25713452348E+02  0.13970536214E+02  0.67556188478E+00  0.29271383601E+02  0.51100000000E-03 0.  1.
        -12    1    3    3    0    0 -0.41003486488E+01 -0.50270255982E+01 -0.24630556091E+02  0.25470534717E+02  0.00000000000E+00 0.  1.
</event>
<event>
 7    1  0.5837204E-012  0.5930195E+02  0.7816164E-02  0.1266605E+00
        -11   -1    0    0    0    0  0.00000000000E+00  0.00000000000E+00  0.45593999997E+02  0.45594000000E+02  0.51100000000E-03 0.  1.
         11   -1    0    0    0    0 -0.00000000000E+00 -0.00000000000E+00 -0.45593999997E+02  0.45594000000E+02  0.51100000000E-03 0. -1.
    9900012    2    1    2    0    0  0.40017950942E+01  0.22833961310E+02 -0.21893284892E+02  0.59301951696E+02  0.50000013985E+02 0.  0.
         12    1    1    2    0    0 -0.40017950942E+01 -0.22833961310E+02  0.21893284892E+02  0.31886048304E+02  0.00000000000E+00 0. -1.
         11    1    3    3    0    0  0.72470483350E+01  0.80736421068E+01 -0.23373940210E+00  0.10851637702E+02  0.51100000000E-03 0. -1.
        -11    1    3    3    0    0  0.53486700566E+01  0.43333833940E+01  0.11073105177E+02  0.13038410238E+02  0.51100000000E-03 0.  1.
        -12    1    3    3    0    0 -0.85939232974E+01  0.10426935809E+02 -0.32732650666E+02  0.35411903757E+02  0.00000000000E+00 0.  1.
</event>
<event>
 7    1  0.5837204E-012  0.5930189E+02  0.7816164E-02  0.1266605E+00
        -11   -1    0    0    0    0  0.00000000000E+00  0.00000000000E+00  0.45593999997E+02  0.45594000000E+02  0.51100000000E-03 0.  1.
         11   -1    0    0    0    0 -0.00000000000E+00 -0.00000000000E+00 -0.45593999997E+02  0.45594000000E+02  0.51100000000E-03 0. -1.
    9900012    2    1    2    0    0  0.29203742022E+02  0.86564012303E+00 -0.12771683890E+02  0.59301893460E+02  0.49999907777E+02 0.  0.
         12    1    1    2    0    0 -0.29203742022E+02 -0.86564012303E+00  0.12771683890E+02  0.31886106540E+02  0.00000000000E+00 0. -1.
         11    1    3    3    0    0  0.14674212556E+02 -0.49375602774E+01 -0.23917034016E+01  0.15666277830E+02  0.51100000000E-03 0. -1.
        -11    1    3    3    0    0  0.28117660484E+02  0.61631041503E+01 -0.67381537879E+01  0.29563311732E+02  0.51100000000E-03 0.  1.
         12    1    3    3    0    0 -0.13588131018E+02 -0.35990374978E+00 -0.36418267004E+01  0.14072303898E+02  0.00000000000E+00 0. -1.
</event>
<event>
 7    1  0.5837204E-012  0.5930194E+02  0.7816164E-02  0.1266605E+00
        -11   -1    0    0    0    0  0.00000000000E+00  0.00000000000E+00  0.45593999997E+02  0.45594000000E+02  0.51100000000E-03 0.  1.
         11   -1    0    0    0    0 -0.00000000000E+00 -0.00000000000E+00 -0.45593999997E+02  0.45594000000E+02  0.51100000000E-03 0. -1.
    9900012    2    1    2    0    0 -0.90541987979E+01  0.23952925802E+02  0.18999982996E+02  0.59301944675E+02  0.50000001180E+02 0.  0.
         12    1    1    2    0    0  0.90541987979E+01 -0.23952925802E+02 -0.18999982996E+02  0.31886055325E+02  0.00000000000E+00 0. -1.
         11    1    3    3    0    0 -0.43782066081E+01  0.10624025418E+02  0.14214572012E+02  0.18278201961E+02  0.51100000000E-03 0.  1.
        -11    1    3    3    0    0 -0.26460182811E+01  0.14371783898E+02  0.20482771291E+02  0.25161349430E+02  0.51100000000E-03 0. -1.
         12    1    3    3    0    0 -0.20299739086E+01 -0.10428835133E+01 -0.15697360306E+02  0.15862393284E+02  0.00000000000E+00 0. -1.
</event>
<event>
 7    1  0.5837204E-012  0.5930195E+02  0.7816164E-02  0.1266605E+00
        -11   -1    0    0    0    0  0.00000000000E+00  0.00000000000E+00  0.45593999997E+02  0.45594000000E+02  0.51100000000E-03 0.  1.
         11   -1    0    0    0    0 -0.00000000000E+00 -0.00000000000E+00 -0.45593999997E+02  0.45594000000E+02  0.51100000000E-03 0. -1.
    9900012    2    1    2    0    0  0.15393488247E+02 -0.23402515361E+02  0.15234278178E+02  0.59301946038E+02  0.50000003667E+02 0.  0.
         12    1    1    2    0    0 -0.15393488247E+02  0.23402515361E+02 -0.15234278178E+02  0.31886053962E+02  0.00000000000E+00 0. -1.
         11    1    3    3    0    0  0.24664820274E+02 -0.79942010065E+01 -0.32518106712E+01  0.26131109464E+02  0.51100000000E-03 0. -1.
        -11    1    3    3    0    0  0.43978861583E+01 -0.70700682292E+01  0.14419523577E+02  0.16650823640E+02  0.51100000000E-03 0.  1.
         12    1    3    3    0    0 -0.13669218186E+02 -0.83382461256E+01  0.40665652720E+01  0.16520012935E+02  0.00000000000E+00 0. -1.
</event>
<event>
 7    1  0.5837204E-012  0.5930196E+02  0.7816164E-02  0.1266605E+00
        -11   -1    0    0    0    0  0.00000000000E+00  0.00000000000E+00  0.45593999997E+02  0.45594000000E+02  0.51100000000E-03 0.  1.
         11   -1    0    0    0    0 -0.00000000000E+00 -0.00000000000E+00 -0.45593999997E+02  0.45594000000E+02  0.51100000000E-03 0. -1.
    9900012    2    1    2    0    0  0.13945744517E+02  0.16693511258E+01  0.28626023067E+02  0.59301957286E+02  0.50000024180E+02 0.  0.
         12    1    1    2    0    0 -0.13945744517E+02 -0.16693511258E+01 -0.28626023067E+02  0.31886042714E+02  0.00000000000E+00 0. -1.
         11    1    3    3    0    0 -0.35509777925E+01 -0.15728389901E+01  0.13491990355E+02  0.14039838666E+02  0.51100000000E-03 0. -1.
        -11    1    3    3    0    0  0.16936633412E+02 -0.75687704153E+01 -0.76272013167E+01  0.20057667789E+02  0.51100000000E-03 0.  1.
         12    1    3    3    0    0  0.56008889750E+00  0.10810960531E+02  0.22761234029E+02  0.25204450831E+02  0.00000000000E+00 0. -1.
</event>
<event>
 7    1  0.5837204E-012  0.5930194E+02  0.7816164E-02  0.1266605E+00
        -11   -1    0    0    0    0  0.00000000000E+00  0.00000000000E+00  0.45593999997E+02  0.45594000000E+02  0.51100000000E-03 0.  1.
         11   -1    0    0    0    0 -0.00000000000E+00 -0.00000000000E+00 -0.45593999997E+02  0.45594000000E+02  0.51100000000E-03 0. -1.
    9900012    2    1    2    0    0 -0.84787261084E+01  0.20861762582E+02  0.22574742380E+02  0.59301938343E+02  0.49999989633E+02 0.  0.
         12    1    1    2    0    0  0.84787261084E+01 -0.20861762582E+02 -0.22574742380E+02  0.31886061657E+02  0.00000000000E+00 0. -1.
         11    1    3    3    0    0 -0.19964006794E+01  0.47648827622E+01 -0.28974008915E+01  0.59232301658E+01  0.51100000000E-03 0. -1.
        -11    1    3    3    0    0  0.16601402323E+02  0.88928364199E+01  0.82701462864E+00  0.18851340858E+02  0.51100000000E-03 0.  1.
        -12    1    3    3    0    0 -0.23083727752E+02  0.72040433995E+01  0.24645128643E+02  0.34527367320E+02  0.00000000000E+00 0.  1.
</event>
<event>
 7    1  0.5837204E-012  0.5930194E+02  0.7816164E-02  0.1266605E+00
        -11   -1    0    0    0    0  0.00000000000E+00  0.00000000000E+00  0.45593999997E+02  0.45594000000E+02  0.51100000000E-03 0.  1.
         11   -1    0    0    0    0 -0.00000000000E+00 -0.00000000000E+00 -0.45593999997E+02  0.45594000000E+02  0.51100000000E-03 0. -1.
    9900012    2    1    2    0    0 -0.15446678063E+02  0.21796744006E+02  0.17407548969E+02  0.59301942333E+02  0.49999996909E+02 0.  0.
         12    1    1    2    0    0  0.15446678063E+02 -0.21796744006E+02 -0.17407548969E+02  0.31886057667E+02  0.00000000000E+00 0. -1.
         11    1    3    3    0    0 -0.41332871946E+01  0.26301159957E+02  0.74679106107E+01  0.27651487614E+02  0.51100000000E-03 0. -1.
        -11    1    3    3    0    0  0.94560888620E-01 -0.41376081803E+01  0.17484937882E+02  0.17968077143E+02  0.51100000000E-03 0.  1.
         12    1    3    3    0    0 -0.11407951757E+02 -0.36680777104E+00 -0.75452995239E+01  0.13682377576E+02  0.00000000000E+00 0. -1.
</event>
<event>
 7    1  0.5837204E-012  0.5930195E+02  0.7816164E-02  0.1266605E+00
        -11   -1    0    0    0    0  0.00000000000E+00  0.00000000000E+00  0.45593999997E+02  0.45594000000E+02  0.51100000000E-03 0. -1.
         11   -1    0    0    0    0 -0.00000000000E+00 -0.00000000000E+00 -0.45593999997E+02  0.45594000000E+02  0.51100000000E-03 0.  1.
    9900012    2    1    2    0    0 -0.10851016637E+02 -0.10059675616E+02 -0.28244968784E+02  0.59301954507E+02  0.50000019112E+02 0.  0.
         12    1    1    2    0    0  0.10851016637E+02  0.10059675616E+02  0.28244968784E+02  0.31886045493E+02  0.00000000000E+00 0. -1.
         11    1    3    3    0    0  0.27473577691E+01 -0.29827722119E+01 -0.18176569746E+02  0.18623442023E+02  0.51100000000E-03 0.  1.
        -11    1    3    3    0    0  0.21146333842E+01 -0.11966557358E+02  0.92713851842E+01  0.15284919131E+02  0.51100000000E-03 0. -1.
         12    1    3    3    0    0 -0.15713007790E+02  0.48896539543E+01 -0.19339784222E+02  0.25393593353E+02  0.00000000000E+00 0. -1.
</event>
<event>
 7    1  0.5837204E-012  0.5930207E+02  0.7816164E-02  0.1266604E+00
        -11   -1    0    0    0    0  0.00000000000E+00  0.00000000000E+00  0.45593999997E+02  0.45594000000E+02  0.51100000000E-03 0. -1.
         11   -1    0    0    0    0 -0.00000000000E+00 -0.00000000000E+00 -0.45593999997E+02  0.45594000000E+02  0.51100000000E-03 0.  1.
    9900012    2    1    2    0    0 -0.27831282925E+02  0.51026007041E+01 -0.14700197376E+02  0.59302068210E+02  0.50000226479E+02 0.  0.
         12    1    1    2    0    0  0.27831282925E+02 -0.51026007041E+01  0.14700197376E+02  0.31885931790E+02  0.00000000000E+00 0. -1.
         11    1    3    3    0    0 -0.12741937131E+02  0.75615044024E+01 -0.22841635280E+02  0.27226340429E+02  0.51100000000E-03 0. -1.
        -11    1    3    3    0    0 -0.84044898006E+01  0.87698360319E+01 -0.53679772715E+01  0.13280084830E+02  0.51100000000E-03 0.  1.
         12    1    3    3    0    0 -0.66848559935E+01 -0.11228739730E+02  0.13509415175E+02  0.18795642951E+02  0.00000000000E+00 0. -1.
</event>
<event>
 7    1  0.5837204E-012  0.5930195E+02  0.7816164E-02  0.1266605E+00
        -11   -1    0    0    0    0  0.00000000000E+00  0.00000000000E+00  0.45593999997E+02  0.45594000000E+02  0.51100000000E-03 0.  1.
         11   -1    0    0    0    0 -0.00000000000E+00 -0.00000000000E+00 -0.45593999997E+02  0.45594000000E+02  0.51100000000E-03 0. -1.
    9900012    2    1    2    0    0  0.73436712803E+01  0.15456977840E+02  0.26904880528E+02  0.59301948692E+02  0.50000008506E+02 0.  0.
         12    1    1    2    0    0 -0.73436712803E+01 -0.15456977840E+02 -0.26904880528E+02  0.31886051308E+02  0.00000000000E+00 0. -1.
         11    1    3    3    0    0  0.38668173727E+01 -0.81491371620E+01  0.11407762894E+02  0.14542962820E+02  0.51100000000E-03 0. -1.
        -11    1    3    3    0    0  0.12089023287E+02  0.27918005544E+01  0.18247506478E+02  0.22066040136E+02  0.51100000000E-03 0.  1.
         12    1    3    3    0    0 -0.86121693797E+01  0.20814314448E+02 -0.27503888445E+01  0.22692945735E+02  0.00000000000E+00 0. -1.
</event>
<event>
 7    1  0.5837204E-012  0.5930194E+02  0.7816164E-02  0.1266605E+00
        -11   -1    0    0    0    0  0.00000000000E+00  0.00000000000E+00  0.45593999997E+02  0.45594000000E+02  0.51100000000E-03 0.  1.
         11   -1    0    0    0    0 -0.00000000000E+00 -0.00000000000E+00 -0.45593999997E+02  0.45594000000E+02  0.51100000000E-03 0. -1.
    9900012    2    1    2    0    0  0.13028289502E+02 -0.34676524500E+01  0.28895672908E+02  0.59301939508E+02  0.49999991758E+02 0.  0.
         12    1    1    2    0    0 -0.13028289502E+02  0.34676524500E+01 -0.28895672908E+02  0.31886060492E+02  0.00000000000E+00 0. -1.
         11    1    3    3    0    0  0.16755921389E+02 -0.56724170836E+01 -0.50461871828E+01  0.18395684888E+02  0.51100000000E-03 0. -1.
        -11    1    3    3    0    0  0.63150068867E+01 -0.65007256979E+01  0.98041050552E+01  0.13351375314E+02  0.51100000000E-03 0.  1.
         12    1    3    3    0    0 -0.10042638773E+02  0.87054903315E+01  0.24137755036E+02  0.27554879307E+02  0.00000000000E+00 0. -1.
</event>
<event>
 7    1  0.5837204E-012  0.5930192E+02  0.7816164E-02  0.1266605E+00
        -11   -1    0    0    0    0  0.00000000000E+00  0.00000000000E+00  0.45593999997E+02  0.45594000000E+02  0.51100000000E-03 0. -1.
         11   -1    0    0    0    0 -0.00000000000E+00 -0.00000000000E+00 -0.45593999997E+02  0.45594000000E+02  0.51100000000E-03 0.  1.
    9900012    2    1    2    0    0 -0.32063040018E+01 -0.26638931848E+02 -0.17228139942E+02  0.59301923395E+02  0.49999962371E+02 0.  0.
         12    1    1    2    0    0  0.32063040018E+01  0.26638931848E+02  0.17228139942E+02  0.31886076605E+02  0.00000000000E+00 0. -1.
         11    1    3    3    0    0  0.51992225552E+01  0.36478193752E+01 -0.10678642998E+02  0.12424649609E+02  0.51100000000E-03 0. -1.
        -11    1    3    3    0    0 -0.18782571414E+02 -0.21256425036E+02 -0.13557157526E+02  0.31439101684E+02  0.51100000000E-03 0.  1.
        -12    1    3    3    0    0  0.10377044857E+02 -0.90303261878E+01  0.70076605820E+01  0.15438172102E+02  0.00000000000E+00 0.  1.
</event>
<event>
 7    1  0.5837204E-012  0.5930194E+02  0.7816164E-02  0.1266605E+00
        -11   -1    0    0    0    0  0.00000000000E+00  0.00000000000E+00  0.45593999997E+02  0.45594000000E+02  0.51100000000E-03 0.  1.
         11   -1    0    0    0    0 -0.00000000000E+00 -0.00000000000E+00 -0.45593999997E+02  0.45594000000E+02  0.51100000000E-03 0. -1.
    9900012    2    1    2    0    0  0.60620962942E+01  0.34280073876E+01  0.31116242165E+02  0.59301940780E+02  0.49999994077E+02 0.  0.
         12    1    1    2    0    0 -0.60620962942E+01 -0.34280073876E+01 -0.31116242165E+02  0.31886059220E+02  0.00000000000E+00 0. -1.
         11    1    3    3    0    0  0.22544724865E+02  0.80956637319E+01  0.16354988973E+02  0.29005000519E+02  0.51100000000E-03 0. -1.
        -11    1    3    3    0    0  0.19192528031E+01 -0.73965593313E+01  0.60936424630E+01  0.97736942858E+01  0.51100000000E-03 0.  1.
         12    1    3    3    0    0 -0.18401881374E+02  0.27289029870E+01  0.86676107288E+01  0.20523245976E+02  0.00000000000E+00 0. -1.
</event>
<event>
 7    1  0.5837204E-012  0.5930195E+02  0.7816164E-02  0.1266605E+00
        -11   -1    0    0    0    0  0.00000000000E+00  0.00000000000E+00  0.45593999997E+02  0.45594000000E+02  0.51100000000E-03 0. -1.
         11   -1    0    0    0    0 -0.00000000000E+00 -0.00000000000E+00 -0.45593999997E+02  0.45594000000E+02  0.51100000000E-03 0.  1.
    9900012    2    1    2    0    0  0.16048966070E+02  0.12740431368E+02 -0.24430144744E+02  0.59301954846E+02  0.50000019730E+02 0.  0.
         12    1    1    2    0    0 -0.16048966070E+02 -0.12740431368E+02  0.24430144744E+02  0.31886045154E+02  0.00000000000E+00 0. -1.
         11    1    3    3    0    0  0.37466309739E+01 -0.16143554101E+01  0.23914117068E+00  0.40866337988E+01  0.51100000000E-03 0.  1.
        -11    1    3    3    0    0 -0.51861583825E+01 -0.14544248275E+02 -0.99466394240E+01  0.18367553804E+02  0.51100000000E-03 0. -1.
        -12    1    3    3    0    0  0.17488493478E+02  0.28899035053E+02 -0.14722646491E+02  0.36847767243E+02  0.00000000000E+00 0.  1.
</event>
<event>
 7    1  0.5837204E-012  0.5930194E+02  0.7816164E-02  0.1266605E+00
        -11   -1    0    0    0    0  0.00000000000E+00  0.00000000000E+00  0.45593999997E+02  0.45594000000E+02  0.51100000000E-03 0. -1.
         11   -1    0    0    0    0 -0.00000000000E+00 -0.00000000000E+00 -0.45593999997E+02  0.45594000000E+02  0.51100000000E-03 0.  1.
    9900012    2    1    2    0    0 -0.10271745432E+02  0.40692570768E+01 -0.29910753874E+02  0.59301940277E+02  0.49999993159E+02 0.  0.
         12    1    1    2    0    0  0.10271745432E+02 -0.40692570768E+01  0.29910753874E+02  0.31886059723E+02  0.00000000000E+00 0. -1.
         11    1    3    3    0    0 -0.15311197876E+02 -0.25615548348E+01 -0.34897847311E+02  0.38194948498E+02  0.51100000000E-03 0.  1.
        -11    1    3    3    0    0 -0.56175267362E+01  0.51077996077E+01 -0.25006915507E+01  0.79937276634E+01  0.51100000000E-03 0. -1.
        -12    1    3    3    0    0  0.10656979181E+02  0.15230123040E+01  0.74877849871E+01  0.13113264115E+02  0.00000000000E+00 0.  1.
</event>
<event>
 7    1  0.5837204E-012  0.5930190E+02  0.7816164E-02  0.1266605E+00
        -11   -1    0    0    0    0  0.00000000000E+00  0.00000000000E+00  0.45593999997E+02  0.45594000000E+02  0.51100000000E-03 0. -1.
         11   -1    0    0    0    0 -0.00000000000E+00 -0.00000000000E+00 -0.45593999997E+02  0.45594000000E+02  0.51100000000E-03 0.  1.
    9900012    2    1    2    0    0 -0.61585197516E+01  0.31225541825E+02  0.19394031548E+01  0.59301904090E+02  0.49999927162E+02 0.  0.
         12    1    1    2    0    0  0.61585197516E+01 -0.31225541825E+02 -0.19394031548E+01  0.31886095910E+02  0.00000000000E+00 0. -1.
         11    1    3    3    0    0  0.28940548633E+01  0.52172674166E+00  0.43506213771E+01  0.52512530859E+01  0.51100000000E-03 0. -1.
        -11    1    3    3    0    0 -0.10565953923E+02  0.34555042940E+02  0.12763187489E+02  0.38322178044E+02  0.51100000000E-03 0.  1.
        -12    1    3    3    0    0  0.15133793076E+01 -0.38512278568E+01 -0.15174405712E+02  0.15728472959E+02  0.00000000000E+00 0.  1.
</event>
<event>
 7    1  0.5837204E-012  0.5930193E+02  0.7816164E-02  0.1266605E+00
        -11   -1    0    0    0    0  0.00000000000E+00  0.00000000000E+00  0.45593999997E+02  0.45594000000E+02  0.51100000000E-03 0. -1.
         11   -1    0    0    0    0 -0.00000000000E+00 -0.00000000000E+00 -0.45593999997E+02  0.45594000000E+02  0.51100000000E-03 0.  1.
    9900012    2    1    2    0    0 -0.20891337892E+02  0.13638927771E+02 -0.19855808450E+02  0.59301929706E+02  0.49999973880E+02 0.  0.
         12    1    1    2    0    0  0.20891337892E+02 -0.13638927771E+02  0.19855808450E+02  0.31886070294E+02  0.00000000000E+00 0. -1.
         11    1    3    3    0    0  0.38907142058E+01 -0.64673604119E+00 -0.15244312810E+02  0.15746269331E+02  0.51100000000E-03 0. -1.
        -11    1    3    3    0    0 -0.14428010315E+02  0.17112642182E+01 -0.17528334918E+02  0.22767047066E+02  0.51100000000E-03 0.  1.
        -12    1    3    3    0    0 -0.10354041782E+02  0.12574399594E+02  0.12916839277E+02  0.20788613309E+02  0.00000000000E+00 0.  1.
</event>
<event>
 7    1  0.5837204E-012  0.5930194E+02  0.7816164E-02  0.1266605E+00
        -11   -1    0    0    0    0  0.00000000000E+00  0.00000000000E+00  0.45593999997E+02  0.45594000000E+02  0.51100000000E-03 0.  1.
         11   -1    0    0    0    0 -0.00000000000E+00 -0.00000000000E+00 -0.45593999997E+02  0.45594000000E+02  0.51100000000E-03 0. -1.
    9900012    2    1    2    0    0 -0.21868257414E+02 -0.38625520573E+01  0.22881884517E+02  0.59301943019E+02  0.49999998160E+02 0.  0.
         12    1    1    2    0    0  0.21868257414E+02  0.38625520573E+01 -0.22881884517E+02  0.31886056981E+02  0.00000000000E+00 0. -1.
         11    1    3    3    0    0 -0.17924677620E+02  0.32119376965E+01 -0.24483998045E+01  0.18374038026E+02  0.51100000000E-03 0. -1.
        -11    1    3    3    0    0 -0.12846235445E+02  0.73190140416E+01  0.84729706521E+01  0.17040685537E+02  0.51100000000E-03 0.  1.
        -12    1    3    3    0    0  0.89026556504E+01 -0.14393503795E+02  0.16857313670E+02  0.23887219455E+02  0.00000000000E+00 0.  1.
</event>
<event>
 7    1  0.5837204E-012  0.5930195E+02  0.7816164E-02  0.1266605E+00
        -11   -1    0    0    0    0  0.00000000000E+00  0.00000000000E+00  0.45593999997E+02  0.45594000000E+02  0.51100000000E-03 0. -1.
         11   -1    0    0    0    0 -0.00000000000E+00 -0.00000000000E+00 -0.45593999997E+02  0.45594000000E+02  0.51100000000E-03 0.  1.
    9900012    2    1    2    0    0  0.71570046235E+01 -0.27066011212E+02 -0.15262000999E+02  0.59301947365E+02  0.50000006087E+02 0.  0.
         12    1    1    2    0    0 -0.71570046235E+01  0.27066011212E+02  0.15262000999E+02  0.31886052635E+02  0.00000000000E+00 0. -1.
         11    1    3    3    0    0  0.25782983735E+01  0.93627712401E+00  0.87581211815E+01  0.91776317341E+01  0.51100000000E-03 0. -1.
        -11    1    3    3    0    0 -0.22253967798E+00 -0.22849421588E+02  0.22175002523E+01  0.22957850475E+02  0.51100000000E-03 0.  1.
         12    1    3    3    0    0  0.48012459280E+01 -0.51528667488E+01 -0.26237622432E+02  0.27166465156E+02  0.00000000000E+00 0. -1.
</event>
<event>
 7    1  0.5837204E-012  0.5930198E+02  0.7816164E-02  0.1266605E+00
        -11   -1    0    0    0    0  0.00000000000E+00  0.00000000000E+00  0.45593999997E+02  0.45594000000E+02  0.51100000000E-03 0. -1.
         11   -1    0    0    0    0 -0.00000000000E+00 -0.00000000000E+00 -0.45593999997E+02  0.45594000000E+02  0.51100000000E-03 0.  1.
    9900012    2    1    2    0    0 -0.19657238588E+01 -0.31788446469E+02  0.15326977351E+01  0.59301975451E+02  0.50000057308E+02 0.  0.
         12    1    1    2    0    0  0.19657238588E+01  0.31788446469E+02 -0.15326977351E+01  0.31886024549E+02  0.00000000000E+00 0. -1.
         11    1    3    3    0    0 -0.58150683679E+01 -0.35669633841E+02 -0.25196364814E+01  0.36228253708E+02  0.51100000000E-03 0. -1.
        -11    1    3    3    0    0  0.61590348650E+01 -0.18610416821E+01 -0.75524814397E+01  0.99215504216E+01  0.51100000000E-03 0.  1.
         12    1    3    3    0    0 -0.23096903559E+01  0.57422290539E+01  0.11604815656E+02  0.13152171321E+02  0.00000000000E+00 0. -1.
</event>
<event>
 7    1  0.5837204E-012  0.5930192E+02  0.7816164E-02  0.1266605E+00
        -11   -1    0    0    0    0  0.00000000000E+00  0.00000000000E+00  0.45593999997E+02  0.45594000000E+02  0.51100000000E-03 0.  1.
         11   -1    0    0    0    0 -0.00000000000E+00 -0.00000000000E+00 -0.45593999997E+02  0.45594000000E+02  0.51100000000E-03 0. -1.
    9900012    2    1    2    0    0 -0.59084309355E+01  0.29245660251E+02  0.11247406222E+02  0.59301916102E+02  0.49999949070E+02 0.  0.
         12    1    1    2    0    0  0.59084309355E+01 -0.29245660251E+02 -0.11247406222E+02  0.31886083898E+02  0.00000000000E+00 0. -1.
         11    1    3    3    0    0 -0.11400437128E+02  0.64196944854E+01  0.24331968926E+01  0.13308001029E+02  0.51100000000E-03 0. -1.
        -11    1    3    3    0    0  0.70207141596E-01  0.30171208470E+02  0.16204999090E+02  0.34247755333E+02  0.51100000000E-03 0.  1.
         12    1    3    3    0    0  0.54217990513E+01 -0.73452427050E+01 -0.73907897607E+01  0.11746159740E+02  0.00000000000E+00 0. -1.
</event>
<event>
 7    1  0.5837204E-012  0.5930195E+02  0.7816164E-02  0.1266605E+00
        -11   -1    0    0    0    0  0.00000000000E+00  0.00000000000E+00  0.45593999997E+02  0.45594000000E+02  0.51100000000E-03 0. -1.
         11   -1    0    0    0    0 -0.00000000000E+00 -0.00000000000E+00 -0.45593999997E+02  0.45594000000E+02  0.51100000000E-03 0.  1.
    9900012    2    1    2    0    0 -0.30647444778E+02  0.78996337422E+01 -0.38794547098E+01  0.59301948919E+02  0.50000008921E+02 0.  0.
         12    1    1    2    0    0  0.30647444778E+02 -0.78996337422E+01  0.38794547098E+01  0.31886051081E+02  0.00000000000E+00 0. -1.
         11    1    3    3    0    0  0.31981842332E+01  0.35823967855E+01 -0.69096430603E+01  0.84145776246E+01  0.51100000000E-03 0.  1.
        -11    1    3    3    0    0 -0.35185146496E+02  0.15794293550E+02 -0.11899453245E+01  0.38585881004E+02  0.51100000000E-03 0. -1.
         12    1    3    3    0    0  0.13395174851E+01 -0.11477056594E+02  0.42201336750E+01  0.12301490291E+02  0.00000000000E+00 0. -1.
</event>
<event>
 7    1  0.5837204E-012  0.5930196E+02  0.7816164E-02  0.1266605E+00
        -11   -1    0    0    0    0  0.00000000000E+00  0.00000000000E+00  0.45593999997E+02  0.45594000000E+02  0.51100000000E-03 0.  1.
         11   -1    0    0    0    0 -0.00000000000E+00 -0.00000000000E+00 -0.45593999997E+02  0.45594000000E+02  0.51100000000E-03 0. -1.
    9900012    2    1    2    0    0  0.13579129648E+02  0.22907933940E+02  0.17537200701E+02  0.59301959044E+02  0.50000027386E+02 0.  0.
         12    1    1    2    0    0 -0.13579129648E+02 -0.22907933940E+02 -0.17537200701E+02  0.31886040956E+02  0.00000000000E+00 0. -1.
         11    1    3    3    0    0  0.96296424600E+01  0.24625835258E+01 -0.13227719967E+02  0.16545903037E+02  0.51100000000E-03 0. -1.
        -11    1    3    3    0    0 -0.10871349646E+00 -0.55487534175E+00 -0.28542753200E+01  0.29097410766E+01  0.51100000000E-03 0.  1.
        -12    1    3    3    0    0  0.40582006843E+01  0.21000225756E+02  0.33619195988E+02  0.39846314930E+02  0.00000000000E+00 0.  1.
</event>
<event>
 7    1  0.5837204E-012  0.5930195E+02  0.7816164E-02  0.1266605E+00
        -11   -1    0    0    0    0  0.00000000000E+00  0.00000000000E+00  0.45593999997E+02  0.45594000000E+02  0.51100000000E-03 0. -1.
         11   -1    0    0    0    0 -0.00000000000E+00 -0.00000000000E+00 -0.45593999997E+02  0.45594000000E+02  0.51100000000E-03 0.  1.
    9900012    2    1    2    0    0 -0.13141002612E+01 -0.60403128403E+01 -0.31281112714E+02  0.59301948953E+02  0.50000008983E+02 0.  0.
         12    1    1    2    0    0  0.13141002612E+01  0.60403128403E+01  0.31281112714E+02  0.31886051047E+02  0.00000000000E+00 0. -1.
         11    1    3    3    0    0 -0.79260975079E+01 -0.77454554173E+01 -0.18647693670E+01  0.11237992097E+02  0.51100000000E-03 0. -1.
        -11    1    3    3    0    0 -0.14794456629E+02 -0.60689675977E+00 -0.19160840290E+02  0.24215327202E+02  0.51100000000E-03 0.  1.
        -12    1    3    3    0    0  0.21406453876E+02  0.23120393368E+01 -0.10255503057E+02  0.23848629654E+02  0.00000000000E+00 0.  1.
</event>
<event>
 7    1  0.5837204E-012  0.5930191E+02  0.7816164E-02  0.1266605E+00
        -11   -1    0    0    0    0  0.00000000000E+00  0.00000000000E+00  0.45593999997E+02  0.45594000000E+02  0.51100000000E-03 0.  1.
         11   -1    0    0    0    0 -0.00000000000E+00 -0.00000000000E+00 -0.45593999997E+02  0.45594000000E+02  0.51100000000E-03 0. -1.
    9900012    2    1    2    0    0  0.13216772453E+02 -0.66248947476E+01  0.28251550786E+02  0.59301914848E+02  0.49999946783E+02 0.  0.
         12    1    1    2    0    0 -0.13216772453E+02  0.66248947476E+01 -0.28251550786E+02  0.31886085152E+02  0.00000000000E+00 0. -1.
         11    1    3    3    0    0 -0.10374818235E+02  0.49448732823E+01  0.49071110755E+01  0.12496734156E+02  0.51100000000E-03 0. -1.
        -11    1    3    3    0    0  0.40031077481E+01 -0.68763123593E+01  0.25343638864E+02  0.26563293742E+02  0.51100000000E-03 0.  1.
         12    1    3    3    0    0  0.19588482940E+02 -0.46934556706E+01 -0.19991991531E+01  0.20241886950E+02  0.00000000000E+00 0. -1.
</event>
<event>
 7    1  0.5837204E-012  0.5930195E+02  0.7816164E-02  0.1266605E+00
        -11   -1    0    0    0    0  0.00000000000E+00  0.00000000000E+00  0.45593999997E+02  0.45594000000E+02  0.51100000000E-03 0.  1.
         11   -1    0    0    0    0 -0.00000000000E+00 -0.00000000000E+00 -0.45593999997E+02  0.45594000000E+02  0.51100000000E-03 0. -1.
    9900012    2    1    2    0    0 -0.20755882638E+02  0.23764680893E+02  0.45992916123E+01  0.59301949674E+02  0.50000010298E+02 0.  0.
         12    1    1    2    0    0  0.20755882638E+02 -0.23764680893E+02 -0.45992916123E+01  0.31886050326E+02  0.00000000000E+00 0. -1.
         11    1    3    3    0    0 -0.14273898391E+02  0.13422874421E+02  0.45303083943E+01  0.20110729162E+02  0.51100000000E-03 0. -1.
        -11    1    3    3    0    0 -0.18247934965E+02  0.38498279490E+01 -0.11112668402E+02  0.21709438155E+02  0.51100000000E-03 0.  1.
         12    1    3    3    0    0  0.11765950719E+02  0.64919785231E+01  0.11181651620E+02  0.17481782358E+02  0.00000000000E+00 0. -1.
</event>
<event>
 7    1  0.5837204E-012  0.5930195E+02  0.7816164E-02  0.1266605E+00
        -11   -1    0    0    0    0  0.00000000000E+00  0.00000000000E+00  0.45593999997E+02  0.45594000000E+02  0.51100000000E-03 0. -1.
         11   -1    0    0    0    0 -0.00000000000E+00 -0.00000000000E+00 -0.45593999997E+02  0.45594000000E+02  0.51100000000E-03 0.  1.
    9900012    2    1    2    0    0 -0.47151251750E+01  0.17571530384E+01 -0.31486510862E+02  0.59301947273E+02  0.50000005919E+02 0.  0.
         12    1    1    2    0    0  0.47151251750E+01 -0.17571530384E+01  0.31486510862E+02  0.31886052727E+02  0.00000000000E+00 0. -1.
         11    1    3    3    0    0  0.19937235135E+01  0.13778228608E+02 -0.10284613415E+02  0.17308604519E+02  0.51100000000E-03 0. -1.
        -11    1    3    3    0    0 -0.95205194132E+01  0.85475095403E+00  0.63333685205E+01  0.11466579532E+02  0.51100000000E-03 0.  1.
        -12    1    3    3    0    0  0.28116707247E+01 -0.12875826523E+02 -0.27535265968E+02  0.30526763222E+02  0.00000000000E+00 0.  1.
</event>
<event>
 7    1  0.5837204E-012  0.5930194E+02  0.7816164E-02  0.1266605E+00
        -11   -1    0    0    0    0  0.00000000000E+00  0.00000000000E+00  0.45593999997E+02  0.45594000000E+02  0.51100000000E-03 0.  1.
         11   -1    0    0    0    0 -0.00000000000E+00 -0.00000000000E+00 -0.45593999997E+02  0.45594000000E+02  0.51100000000E-03 0. -1.
    9900012    2    1    2    0    0  0.12428012826E+02 -0.10245556358E+02  0.27518968311E+02  0.59301944352E+02  0.50000000592E+02 0.  0.
         12    1    1    2    0    0 -0.12428012826E+02  0.10245556358E+02 -0.27518968311E+02  0.31886055648E+02  0.00000000000E+00 0. -1.
         11    1    3    3    0    0  0.37055331501E+01 -0.23963798946E+02  0.15639664382E+02  0.28854700451E+02  0.51100000000E-03 0. -1.
        -11    1    3    3    0    0 -0.28164031523E+01  0.49234480747E+01  0.14620440995E+02  0.15682147902E+02  0.51100000000E-03 0.  1.
        -12    1    3    3    0    0  0.11538882828E+02  0.87947945132E+01 -0.27411370670E+01  0.14765096000E+02  0.00000000000E+00 0.  1.
</event>
<event>
 7    1  0.5837204E-012  0.5930198E+02  0.7816164E-02  0.1266605E+00
        -11   -1    0    0    0    0  0.00000000000E+00  0.00000000000E+00  0.45593999997E+02  0.45594000000E+02  0.51100000000E-03 0. -1.
         11   -1    0    0    0    0 -0.00000000000E+00 -0.00000000000E+00 -0.45593999997E+02  0.45594000000E+02  0.51100000000E-03 0.  1.
    9900012    2    1    2    0    0  0.11988805843E+00 -0.28811516162E+02 -0.13660185194E+02  0.59301976475E+02  0.50000059176E+02 0.  0.
         12    1    1    2    0    0 -0.11988805843E+00  0.28811516162E+02  0.13660185194E+02  0.31886023525E+02  0.00000000000E+00 0. -1.
         11    1    3    3    0    0  0.70534723322E+01 -0.61928500308E+01 -0.11323400508E+02  0.14707897972E+02  0.51100000000E-03 0. -1.
        -11    1    3    3    0    0 -0.41194878714E+01  0.18812003032E+01 -0.15842489087E+02  0.16477061498E+02  0.51100000000E-03 0.  1.
         12    1    3    3    0    0 -0.28140964024E+01 -0.24499866435E+02  0.13505704400E+02  0.28117017004E+02  0.00000000000E+00 0. -1.
</event>
<event>
 7    1  0.5837204E-012  0.5930187E+02  0.7816164E-02  0.1266605E+00
        -11   -1    0    0    0    0  0.00000000000E+00  0.00000000000E+00  0.45593999997E+02  0.45594000000E+02  0.51100000000E-03 0.  1.
         11   -1    0    0    0    0 -0.00000000000E+00 -0.00000000000E+00 -0.45593999997E+02  0.45594000000E+02  0.51100000000E-03 0. -1.
    9900012    2    1    2    0    0 -0.11668181158E+02  0.20099042279E+02  0.21831336693E+02  0.59301871137E+02  0.49999867064E+02 0.  0.
         12    1    1    2    0    0  0.11668181158E+02 -0.20099042279E+02 -0.21831336693E+02  0.31886128863E+02  0.00000000000E+00 0. -1.
         11    1    3    3    0    0 -0.55459789776E+01 -0.35605007022E+01 -0.90108542216E+01  0.11163805002E+02  0.51100000000E-03 0. -1.
        -11    1    3    3    0    0  0.43138327838E+01  0.20196926293E+02  0.68711481787E+01  0.21765515443E+02  0.51100000000E-03 0.  1.
        -12    1    3    3    0    0 -0.10436034964E+02  0.34626166886E+01  0.23971042736E+02  0.26372550691E+02  0.00000000000E+00 0.  1.
</event>
<event>
 7    1  0.5837204E-012  0.5930195E+02  0.7816164E-02  0.1266605E+00
        -11   -1    0    0    0    0  0.00000000000E+00  0.00000000000E+00  0.45593999997E+02  0.45594000000E+02  0.51100000000E-03 0.  1.
         11   -1    0    0    0    0 -0.00000000000E+00 -0.00000000000E+00 -0.45593999997E+02  0.45594000000E+02  0.51100000000E-03 0. -1.
    9900012    2    1    2    0    0  0.26482287569E+02 -0.41579133073E+01  0.17266159006E+02  0.59301952193E+02  0.50000014891E+02 0.  0.
         12    1    1    2    0    0 -0.26482287569E+02  0.41579133073E+01 -0.17266159006E+02  0.31886047807E+02  0.00000000000E+00 0. -1.
         11    1    3    3    0    0 -0.12358007665E+01 -0.20038842042E+02  0.40797732425E+01  0.20487238562E+02  0.51100000000E-03 0. -1.
        -11    1    3    3    0    0  0.12988511603E+02  0.40830541431E+01 -0.30119301943E+01  0.13944335357E+02  0.51100000000E-03 0.  1.
        -12    1    3    3    0    0  0.14729576732E+02  0.11797874592E+02  0.16198315958E+02  0.24870378273E+02  0.00000000000E+00 0.  1.
</event>
<event>
 7    1  0.5837204E-012  0.5930195E+02  0.7816164E-02  0.1266605E+00
        -11   -1    0    0    0    0  0.00000000000E+00  0.00000000000E+00  0.45593999997E+02  0.45594000000E+02  0.51100000000E-03 0.  1.
         11   -1    0    0    0    0 -0.00000000000E+00 -0.00000000000E+00 -0.45593999997E+02  0.45594000000E+02  0.51100000000E-03 0. -1.
    9900012    2    1    2    0    0 -0.10473744564E+02  0.48042350308E+01  0.29731132750E+02  0.59301948911E+02  0.50000008906E+02 0.  0.
         12    1    1    2    0    0  0.10473744564E+02 -0.48042350308E+01 -0.29731132750E+02  0.31886051089E+02  0.00000000000E+00 0. -1.
         11    1    3    3    0    0  0.10900870605E+02  0.83040281303E+01 -0.17924731916E+01  0.13820232398E+02  0.51100000000E-03 0. -1.
        -11    1    3    3    0    0 -0.19058892366E+02  0.27574800043E+01  0.76970206022E+01  0.20738592059E+02  0.51100000000E-03 0.  1.
        -12    1    3    3    0    0 -0.23157228033E+01 -0.62572731039E+01  0.23826585340E+02  0.24743124454E+02  0.00000000000E+00 0.  1.
</event>
<event>
 7    1  0.5837204E-012  0.5930193E+02  0.7816164E-02  0.1266605E+00
        -11   -1    0    0    0    0  0.00000000000E+00  0.00000000000E+00  0.45593999997E+02  0.45594000000E+02  0.51100000000E-03 0.  1.
         11   -1    0    0    0    0 -0.00000000000E+00 -0.00000000000E+00 -0.45593999997E+02  0.45594000000E+02  0.51100000000E-03 0. -1.
    9900012    2    1    2    0    0 -0.64344681864E+00 -0.19472696615E+02  0.25241264050E+02  0.59301931755E+02  0.49999977618E+02 0.  0.
         12    1    1    2    0    0  0.64344681864E+00  0.19472696615E+02 -0.25241264050E+02  0.31886068245E+02  0.00000000000E+00 0. -1.
         11    1    3    3    0    0 -0.18941367960E+02 -0.60654300796E+01  0.24802214449E+01  0.20042863092E+02  0.51100000000E-03 0. -1.
        -11    1    3    3    0    0 -0.18617013534E+01 -0.47669715074E+00  0.13411812091E+02  0.13548796107E+02  0.51100000000E-03 0.  1.
        -12    1    3    3    0    0  0.20159622495E+02 -0.12930569385E+02  0.93492305138E+01  0.25710272557E+02  0.00000000000E+00 0.  1.
</event>
<event>
 7    1  0.5837204E-012  0.5930187E+02  0.7816164E-02  0.1266605E+00
        -11   -1    0    0    0    0  0.00000000000E+00  0.00000000000E+00  0.45593999997E+02  0.45594000000E+02  0.51100000000E-03 0.  1.
         11   -1    0    0    0    0 -0.00000000000E+00 -0.00000000000E+00 -0.45593999997E+02  0.45594000000E+02  0.51100000000E-03 0. -1.
    9900012    2    1    2    0    0 -0.23771029257E+02 -0.84391940383E+01  0.19504958332E+02  0.59301870924E+02  0.49999866675E+02 0.  0.
         12    1    1    2    0    0  0.23771029257E+02  0.84391940383E+01 -0.19504958332E+02  0.31886129076E+02  0.00000000000E+00 0. -1.
         11    1    3    3    0    0  0.26726970776E+01 -0.22032207577E+02  0.14403140749E+02  0.26457738832E+02  0.51100000000E-03 0. -1.
        -11    1    3    3    0    0 -0.11992711411E+02  0.73956627647E+01 -0.40379318188E+01  0.14656938574E+02  0.51100000000E-03 0.  1.
        -12    1    3    3    0    0 -0.14451014923E+02  0.61973507743E+01  0.91397494018E+01  0.18187193518E+02  0.00000000000E+00 0.  1.
</event>
<event>
 7    1  0.5837204E-012  0.5930195E+02  0.7816164E-02  0.1266605E+00
        -11   -1    0    0    0    0  0.00000000000E+00  0.00000000000E+00  0.45593999997E+02  0.45594000000E+02  0.51100000000E-03 0.  1.
         11   -1    0    0    0    0 -0.00000000000E+00 -0.00000000000E+00 -0.45593999997E+02  0.45594000000E+02  0.51100000000E-03 0. -1.
    9900012    2    1    2    0    0  0.16328509773E+02  0.12823745279E+02  0.24200242372E+02  0.59301946540E+02  0.50000004582E+02 0.  0.
         12    1    1    2    0    0 -0.16328509773E+02 -0.12823745279E+02 -0.24200242372E+02  0.31886053460E+02  0.00000000000E+00 0. -1.
         11    1    3    3    0    0  0.19247337574E+01 -0.61486580743E+01  0.14780554368E+01  0.66102378389E+01  0.51100000000E-03 0. -1.
        -11    1    3    3    0    0 -0.12942049792E+01 -0.25890867377E+01 -0.10038417284E+02  0.10447399604E+02  0.51100000000E-03 0.  1.
        -12    1    3    3    0    0  0.15697980995E+02  0.21561490091E+02  0.32760604219E+02  0.42244309097E+02  0.00000000000E+00 0.  1.
</event>
<event>
 7    1  0.5837204E-012  0.5930193E+02  0.7816164E-02  0.1266605E+00
        -11   -1    0    0    0    0  0.00000000000E+00  0.00000000000E+00  0.45593999997E+02  0.45594000000E+02  0.51100000000E-03 0. -1.
         11   -1    0    0    0    0 -0.00000000000E+00 -0.00000000000E+00 -0.45593999997E+02  0.45594000000E+02  0.51100000000E-03 0.  1.
    9900012    2    1    2    0    0  0.16511578571E+01  0.15420802487E+02 -0.27860258575E+02  0.59301929696E+02  0.49999973862E+02 0.  0.
         12    1    1    2    0    0 -0.16511578571E+01 -0.15420802487E+02  0.27860258575E+02  0.31886070304E+02  0.00000000000E+00 0. -1.
         11    1    3    3    0    0  0.11399741689E+02  0.13973645723E+02 -0.27640628281E+01  0.18244367047E+02  0.51100000000E-03 0. -1.
        -11    1    3    3    0    0 -0.13215116054E+00  0.93422421025E+01  0.34166040851E+01  0.99482729740E+01  0.51100000000E-03 0.  1.
        -12    1    3    3    0    0 -0.96164326713E+01 -0.78950853387E+01 -0.28512799832E+02  0.31109289675E+02  0.00000000000E+00 0.  1.
</event>
<event>
 7    1  0.5837204E-012  0.5930198E+02  0.7816164E-02  0.1266605E+00
        -11   -1    0    0    0    0  0.00000000000E+00  0.00000000000E+00  0.45593999997E+02  0.45594000000E+02  0.51100000000E-03 0.  1.
         11   -1    0    0    0    0 -0.00000000000E+00 -0.00000000000E+00 -0.45593999997E+02  0.45594000000E+02  0.51100000000E-03 0. -1.
    9900012    2    1    2    0    0 -0.29874643193E+02 -0.11110496397E+02 -0.88371144905E+00  0.59301978266E+02  0.50000062442E+02 0.  0.
         12    1    1    2    0    0  0.29874643193E+02  0.11110496397E+02  0.88371144905E+00  0.31886021734E+02  0.00000000000E+00 0. -1.
         11    1    3    3    0    0 -0.27465208630E+01 -0.72710702732E+01 -0.10834343179E+02  0.13333972857E+02  0.51100000000E-03 0. -1.
        -11    1    3    3    0    0 -0.24958081095E+02  0.32057532494E+00 -0.89327629934E+01  0.26510428805E+02  0.51100000000E-03 0.  1.
        -12    1    3    3    0    0 -0.21700412353E+01 -0.41600014492E+01  0.18883394723E+02  0.19457576604E+02  0.00000000000E+00 0.  1.
</event>
<event>
 7    1  0.5837204E-012  0.5930195E+02  0.7816164E-02  0.1266605E+00
        -11   -1    0    0    0    0  0.00000000000E+00  0.00000000000E+00  0.45593999997E+02  0.45594000000E+02  0.51100000000E-03 0. -1.
         11   -1    0    0    0    0 -0.00000000000E+00 -0.00000000000E+00 -0.45593999997E+02  0.45594000000E+02  0.51100000000E-03 0.  1.
    9900012    2    1    2    0    0  0.22938060005E+02  0.12713503887E+01 -0.22112202641E+02  0.59301946085E+02  0.50000003752E+02 0.  0.
         12    1    1    2    0    0 -0.22938060005E+02 -0.12713503887E+01  0.22112202641E+02  0.31886053915E+02  0.00000000000E+00 0. -1.
         11    1    3    3    0    0  0.86416060613E+01 -0.15616396354E+02  0.19141472585E+01  0.17950296666E+02  0.51100000000E-03 0. -1.
        -11    1    3    3    0    0  0.17836772367E+02  0.76016506191E+01 -0.52176417069E+01  0.20078827800E+02  0.51100000000E-03 0.  1.
        -12    1    3    3    0    0 -0.35403184228E+01  0.92860961235E+01 -0.18808708193E+02  0.21272821619E+02  0.00000000000E+00 0.  1.
</event>
<event>
 7    1  0.5837204E-012  0.5930194E+02  0.7816164E-02  0.1266605E+00
        -11   -1    0    0    0    0  0.00000000000E+00  0.00000000000E+00  0.45593999997E+02  0.45594000000E+02  0.51100000000E-03 0. -1.
         11   -1    0    0    0    0 -0.00000000000E+00 -0.00000000000E+00 -0.45593999997E+02  0.45594000000E+02  0.51100000000E-03 0.  1.
    9900012    2    1    2    0    0 -0.14733534792E+02 -0.17019743580E+02 -0.22582555965E+02  0.59301944225E+02  0.50000000360E+02 0.  0.
         12    1    1    2    0    0  0.14733534792E+02  0.17019743580E+02  0.22582555965E+02  0.31886055775E+02  0.00000000000E+00 0. -1.
         11    1    3    3    0    0  0.17877778821E+01 -0.37924544856E+00  0.22462954510E+01  0.28958280993E+01  0.51100000000E-03 0. -1.
        -11    1    3    3    0    0  0.12363196166E+02 -0.57834704957E+01  0.39521305656E+01  0.14209732112E+02  0.51100000000E-03 0.  1.
         12    1    3    3    0    0 -0.28884508841E+02 -0.10857027636E+02 -0.28780981981E+02  0.42196384014E+02  0.00000000000E+00 0. -1.
</event>
<event>
 7    1  0.5837204E-012  0.5930196E+02  0.7816164E-02  0.1266605E+00
        -11   -1    0    0    0    0  0.00000000000E+00  0.00000000000E+00  0.45593999997E+02  0.45594000000E+02  0.51100000000E-03 0. -1.
         11   -1    0    0    0    0 -0.00000000000E+00 -0.00000000000E+00 -0.45593999997E+02  0.45594000000E+02  0.51100000000E-03 0.  1.
    9900012    2    1    2    0    0 -0.19239003581E+02 -0.22918990830E+02  0.11013648737E+02  0.59301955122E+02  0.50000020233E+02 0.  0.
         12    1    1    2    0    0  0.19239003581E+02  0.22918990830E+02 -0.11013648737E+02  0.31886044878E+02  0.00000000000E+00 0. -1.
         11    1    3    3    0    0  0.12231238950E+02  0.24867218142E+01 -0.34727231247E+01  0.12955570146E+02  0.51100000000E-03 0. -1.
        -11    1    3    3    0    0 -0.17103090923E+02 -0.11786754137E+02  0.16389848016E+02  0.26458843709E+02  0.51100000000E-03 0.  1.
        -12    1    3    3    0    0 -0.14367151609E+02 -0.13618958507E+02 -0.19034761539E+01  0.19887541267E+02  0.00000000000E+00 0.  1.
</event>
<event>
 7    1  0.5837204E-012  0.5930182E+02  0.7816164E-02  0.1266605E+00
        -11   -1    0    0    0    0  0.00000000000E+00  0.00000000000E+00  0.45593999997E+02  0.45594000000E+02  0.51100000000E-03 0.  1.
         11   -1    0    0    0    0 -0.00000000000E+00 -0.00000000000E+00 -0.45593999997E+02  0.45594000000E+02  0.51100000000E-03 0. -1.
    9900012    2    1    2    0    0 -0.11962556036E+02 -0.46845931522E+01  0.29183563674E+02  0.59301818845E+02  0.49999771696E+02 0.  0.
         12    1    1    2    0    0  0.11962556036E+02  0.46845931522E+01 -0.29183563674E+02  0.31886181155E+02  0.00000000000E+00 0. -1.
         11    1    3    3    0    0 -0.43033579266E+01  0.22192649403E+01 -0.26722604236E+01  0.55303709055E+01  0.51100000000E-03 0. -1.
        -11    1    3    3    0    0  0.10250244083E+02  0.92883847740E+00 -0.54562878292E+01  0.11649091029E+02  0.51100000000E-03 0.  1.
        -12    1    3    3    0    0 -0.17909442192E+02 -0.78326965699E+01  0.37312111927E+02  0.42122356910E+02  0.00000000000E+00 0.  1.
</event>
<event>
 7    1  0.5837204E-012  0.5930196E+02  0.7816164E-02  0.1266605E+00
        -11   -1    0    0    0    0  0.00000000000E+00  0.00000000000E+00  0.45593999997E+02  0.45594000000E+02  0.51100000000E-03 0. -1.
         11   -1    0    0    0    0 -0.00000000000E+00 -0.00000000000E+00 -0.45593999997E+02  0.45594000000E+02  0.51100000000E-03 0.  1.
    9900012    2    1    2    0    0  0.13521897616E+02  0.32654690332E+01 -0.28691715399E+02  0.59301960175E+02  0.50000029450E+02 0.  0.
         12    1    1    2    0    0 -0.13521897616E+02 -0.32654690332E+01  0.28691715399E+02  0.31886039825E+02  0.00000000000E+00 0. -1.
         11    1    3    3    0    0  0.73308959662E+01  0.16940429889E+02 -0.14378438848E+02  0.23397856835E+02  0.51100000000E-03 0. -1.
        -11    1    3    3    0    0  0.10736606080E+02  0.43019625372E+00 -0.17696524044E+02  0.20703302694E+02  0.51100000000E-03 0.  1.
         12    1    3    3    0    0 -0.45456044294E+01 -0.14105157110E+02  0.33832474924E+01  0.15200800647E+02  0.00000000000E+00 0. -1.
</event>
<event>
 7    1  0.5837204E-012  0.5930195E+02  0.7816164E-02  0.1266605E+00
        -11   -1    0    0    0    0  0.00000000000E+00  0.00000000000E+00  0.45593999997E+02  0.45594000000E+02  0.51100000000E-03 0.  1.
         11   -1    0    0    0    0 -0.00000000000E+00 -0.00000000000E+00 -0.45593999997E+02  0.45594000000E+02  0.51100000000E-03 0. -1.
    9900012    2    1    2    0    0 -0.30734853290E+02 -0.78047059778E+01  0.33429980871E+01  0.59301948529E+02  0.50000008210E+02 0.  0.
         12    1    1    2    0    0  0.30734853290E+02  0.78047059778E+01 -0.33429980871E+01  0.31886051471E+02  0.00000000000E+00 0. -1.
         11    1    3    3    0    0 -0.24035834243E+02 -0.93391612292E+01 -0.49036693164E+01  0.26248566308E+02  0.51100000000E-03 0. -1.
        -11    1    3    3    0    0  0.10242095123E+02 -0.71152067094E+01  0.40132724732E+00  0.12477489445E+02  0.51100000000E-03 0.  1.
         12    1    3    3    0    0 -0.16941114170E+02  0.86496619609E+01  0.78453401562E+01  0.20575892776E+02  0.00000000000E+00 0. -1.
</event>
<event>
 7    1  0.5837204E-012  0.5930195E+02  0.7816164E-02  0.1266605E+00
        -11   -1    0    0    0    0  0.00000000000E+00  0.00000000000E+00  0.45593999997E+02  0.45594000000E+02  0.51100000000E-03 0.  1.
         11   -1    0    0    0    0 -0.00000000000E+00 -0.00000000000E+00 -0.45593999997E+02  0.45594000000E+02  0.51100000000E-03 0. -1.
    9900012    2    1    2    0    0 -0.11677725887E+02 -0.50785932677E+01  0.29232835461E+02  0.59301951945E+02  0.50000014440E+02 0.  0.
         12    1    1    2    0    0  0.11677725887E+02  0.50785932677E+01 -0.29232835461E+02  0.31886048055E+02  0.00000000000E+00 0. -1.
         11    1    3    3    0    0 -0.30249594916E+00 -0.61735778615E+01  0.18659881971E+01  0.64565067663E+01  0.51100000000E-03 0. -1.
        -11    1    3    3    0    0 -0.27701256909E+02  0.53332924086E+01  0.19045680704E+02  0.34037355890E+02  0.51100000000E-03 0.  1.
         12    1    3    3    0    0  0.16326026971E+02 -0.42383078148E+01  0.83211665592E+01  0.18808089289E+02  0.00000000000E+00 0. -1.
</event>
<event>
 7    1  0.5837204E-012  0.5930198E+02  0.7816164E-02  0.1266605E+00
        -11   -1    0    0    0    0  0.00000000000E+00  0.00000000000E+00  0.45593999997E+02  0.45594000000E+02  0.51100000000E-03 0.  1.
         11   -1    0    0    0    0 -0.00000000000E+00 -0.00000000000E+00 -0.45593999997E+02  0.45594000000E+02  0.51100000000E-03 0. -1.
    9900012    2    1    2    0    0 -0.19536470594E+02 -0.15901079152E+02  0.19549941077E+02  0.59301981158E+02  0.50000067717E+02 0.  0.
         12    1    1    2    0    0  0.19536470594E+02  0.15901079152E+02 -0.19549941077E+02  0.31886018842E+02  0.00000000000E+00 0. -1.
         11    1    3    3    0    0  0.49882722319E+00 -0.60492247730E+01 -0.12785417722E+02  0.14153051103E+02  0.51100000000E-03 0. -1.
        -11    1    3    3    0    0 -0.38386000307E+01  0.26298301001E+01  0.21518944832E+02  0.22016263159E+02  0.51100000000E-03 0.  1.
        -12    1    3    3    0    0 -0.16196697787E+02 -0.12481684479E+02  0.10816413967E+02  0.23132666896E+02  0.00000000000E+00 0.  1.
</event>
<event>
 7    1  0.5837204E-012  0.5930194E+02  0.7816164E-02  0.1266605E+00
        -11   -1    0    0    0    0  0.00000000000E+00  0.00000000000E+00  0.45593999997E+02  0.45594000000E+02  0.51100000000E-03 0.  1.
         11   -1    0    0    0    0 -0.00000000000E+00 -0.00000000000E+00 -0.45593999997E+02  0.45594000000E+02  0.51100000000E-03 0. -1.
    9900012    2    1    2    0    0  0.18780221957E+01  0.57506420431E+01  0.31306930157E+02  0.59301941493E+02  0.49999995377E+02 0.  0.
         12    1    1    2    0    0 -0.18780221957E+01 -0.57506420431E+01 -0.31306930157E+02  0.31886058507E+02  0.00000000000E+00 0. -1.
         11    1    3    3    0    0 -0.14133801535E+00  0.79402655820E+01  0.11991218533E+02  0.14382528154E+02  0.51100000000E-03 0. -1.
        -11    1    3    3    0    0  0.13941561829E+02 -0.61674488996E+01  0.26404831950E+02  0.30489665835E+02  0.51100000000E-03 0.  1.
         12    1    3    3    0    0 -0.11922201618E+02  0.39778253607E+01 -0.70891203259E+01  0.14429747504E+02  0.00000000000E+00 0. -1.
</event>
<event>
 7    1  0.5837204E-012  0.5930196E+02  0.7816164E-02  0.1266605E+00
        -11   -1    0    0    0    0  0.00000000000E+00  0.00000000000E+00  0.45593999997E+02  0.45594000000E+02  0.51100000000E-03 0.  1.
         11   -1    0    0    0    0 -0.00000000000E+00 -0.00000000000E+00 -0.45593999997E+02  0.45594000000E+02  0.51100000000E-03 0. -1.
    9900012    2    1    2    0    0 -0.81773598809E+01 -0.62232475669E+01  0.30184786902E+02  0.59301962535E+02  0.50000033752E+02 0.  0.
         12    1    1    2    0    0  0.81773598809E+01  0.62232475669E+01 -0.30184786902E+02  0.31886037465E+02  0.00000000000E+00 0. -1.
         11    1    3    3    0    0 -0.78079581011E+01 -0.12564906559E+02 -0.24464285801E+01  0.14994202199E+02  0.51100000000E-03 0. -1.
        -11    1    3    3    0    0  0.54924120222E+00  0.59657795709E+01 -0.42929101080E+01  0.73702964149E+01  0.51100000000E-03 0.  1.
        -12    1    3    3    0    0 -0.91864298198E+00  0.37587942101E+00  0.36924125590E+02  0.36937463920E+02  0.00000000000E+00 0.  1.
</event>
<event>
 7    1  0.5837204E-012  0.5930194E+02  0.7816164E-02  0.1266605E+00
        -11   -1    0    0    0    0  0.00000000000E+00  0.00000000000E+00  0.45593999997E+02  0.45594000000E+02  0.51100000000E-03 0.  1.
         11   -1    0    0    0    0 -0.00000000000E+00 -0.00000000000E+00 -0.45593999997E+02  0.45594000000E+02  0.51100000000E-03 0. -1.
    9900012    2    1    2    0    0  0.19380239427E+02  0.37225951255E+01  0.25045343467E+02  0.59301943109E+02  0.49999998324E+02 0.  0.
         12    1    1    2    0    0 -0.19380239427E+02 -0.37225951255E+01 -0.25045343467E+02  0.31886056891E+02  0.00000000000E+00 0. -1.
         11    1    3    3    0    0 -0.45533937681E+01 -0.38570143217E+01  0.24835135017E+01  0.64635743872E+01  0.51100000000E-03 0. -1.
        -11    1    3    3    0    0 -0.45737896536E+00  0.99574022430E+01  0.26228683091E+02  0.28058917867E+02  0.51100000000E-03 0.  1.
        -12    1    3    3    0    0  0.24391012160E+02 -0.23777927958E+01 -0.36668531259E+01  0.24779450854E+02  0.00000000000E+00 0.  1.
</event>
<event>
 7    1  0.5837204E-012  0.5930195E+02  0.7816164E-02  0.1266605E+00
        -11   -1    0    0    0    0  0.00000000000E+00  0.00000000000E+00  0.45593999997E+02  0.45594000000E+02  0.51100000000E-03 0.  1.
         11   -1    0    0    0    0 -0.00000000000E+00 -0.00000000000E+00 -0.45593999997E+02  0.45594000000E+02  0.51100000000E-03 0. -1.
    9900012    2    1    2    0    0 -0.20867849698E+02 -0.11995297961E+02  0.20913296752E+02  0.59301948109E+02  0.50000007443E+02 0.  0.
         12    1    1    2    0    0  0.20867849698E+02  0.11995297961E+02 -0.20913296752E+02  0.31886051891E+02  0.00000000000E+00 0. -1.
         11    1    3    3    0    0  0.94212564952E+01 -0.33742796639E+01  0.29537449895E+01  0.10434100197E+02  0.51100000000E-03 0. -1.
        -11    1    3    3    0    0 -0.39369168636E+01  0.11558002122E+02  0.58248617266E+01  0.13528331081E+02  0.51100000000E-03 0.  1.
        -12    1    3    3    0    0 -0.26352189329E+02 -0.20179020419E+02  0.12134690036E+02  0.35339516830E+02  0.00000000000E+00 0.  1.
</event>
<event>
 7    1  0.5837204E-012  0.5930193E+02  0.7816164E-02  0.1266605E+00
        -11   -1    0    0    0    0  0.00000000000E+00  0.00000000000E+00  0.45593999997E+02  0.45594000000E+02  0.51100000000E-03 0.  1.
         11   -1    0    0    0    0 -0.00000000000E+00 -0.00000000000E+00 -0.45593999997E+02  0.45594000000E+02  0.51100000000E-03 0. -1.
    9900012    2    1    2    0    0  0.28618768204E+02 -0.37091432692E+01  0.13562068713E+02  0.59301931803E+02  0.49999977704E+02 0.  0.
         12    1    1    2    0    0 -0.28618768204E+02  0.37091432692E+01 -0.13562068713E+02  0.31886068197E+02  0.00000000000E+00 0. -1.
         11    1    3    3    0    0  0.25582510274E+01  0.21137342288E+01  0.15120396544E+01  0.36467499074E+01  0.51100000000E-03 0. -1.
        -11    1    3    3    0    0  0.31933581782E+02 -0.11897480916E+02  0.23521851160E+02  0.41407501492E+02  0.51100000000E-03 0.  1.
         12    1    3    3    0    0 -0.58730646053E+01  0.60746034181E+01 -0.11471822101E+02  0.14247680403E+02  0.00000000000E+00 0. -1.
</event>
<event>
 7    1  0.5837204E-012  0.5930192E+02  0.7816164E-02  0.1266605E+00
        -11   -1    0    0    0    0  0.00000000000E+00  0.00000000000E+00  0.45593999997E+02  0.45594000000E+02  0.51100000000E-03 0.  1.
         11   -1    0    0    0    0 -0.00000000000E+00 -0.00000000000E+00 -0.45593999997E+02  0.45594000000E+02  0.51100000000E-03 0. -1.
    9900012    2    1    2    0    0  0.14562020213E+01 -0.10387531601E+02  0.30111467604E+02  0.59301924382E+02  0.49999964170E+02 0.  0.
         12    1    1    2    0    0 -0.14562020213E+01  0.10387531601E+02 -0.30111467604E+02  0.31886075618E+02  0.00000000000E+00 0. -1.
         11    1    3    3    0    0 -0.17331199825E+02  0.32624927443E+01  0.11986433233E+02  0.21323436126E+02  0.51100000000E-03 0. -1.
        -11    1    3    3    0    0 -0.57315430275E+00  0.19804458330E+00  0.13765923521E+02  0.13779273498E+02  0.51100000000E-03 0.  1.
         12    1    3    3    0    0  0.19360556149E+02 -0.13848068929E+02  0.43591108500E+01  0.24199214757E+02  0.00000000000E+00 0. -1.
</event>
<event>
 7    1  0.5837204E-012  0.5930191E+02  0.7816164E-02  0.1266605E+00
        -11   -1    0    0    0    0  0.00000000000E+00  0.00000000000E+00  0.45593999997E+02  0.45594000000E+02  0.51100000000E-03 0.  1.
         11   -1    0    0    0    0 -0.00000000000E+00 -0.00000000000E+00 -0.45593999997E+02  0.45594000000E+02  0.51100000000E-03 0. -1.
    9900012    2    1    2    0    0 -0.90805869971E+01 -0.21650918546E+02 -0.21575534959E+02  0.59301905180E+02  0.49999929151E+02 0.  0.
         12    1    1    2    0    0  0.90805869971E+01  0.21650918546E+02  0.21575534959E+02  0.31886094820E+02  0.00000000000E+00 0. -1.
         11    1    3    3    0    0 -0.21578722693E+02 -0.24117312291E+02 -0.62222270982E+01  0.32954546508E+02  0.51100000000E-03 0. -1.
        -11    1    3    3    0    0  0.39778025606E+01 -0.25487760887E+01  0.29320953593E+01  0.55602478558E+01  0.51100000000E-03 0.  1.
         12    1    3    3    0    0  0.85203331349E+01  0.50151698336E+01 -0.18285403220E+02  0.20787110817E+02  0.00000000000E+00 0. -1.
</event>
<event>
 7    1  0.5837204E-012  0.5930194E+02  0.7816164E-02  0.1266605E+00
        -11   -1    0    0    0    0  0.00000000000E+00  0.00000000000E+00  0.45593999997E+02  0.45594000000E+02  0.51100000000E-03 0.  1.
         11   -1    0    0    0    0 -0.00000000000E+00 -0.00000000000E+00 -0.45593999997E+02  0.45594000000E+02  0.51100000000E-03 0. -1.
    9900012    2    1    2    0    0  0.95185770476E+01 -0.99147196108E+01  0.28771783639E+02  0.59301944933E+02  0.50000001651E+02 0.  0.
         12    1    1    2    0    0 -0.95185770476E+01  0.99147196108E+01 -0.28771783639E+02  0.31886055067E+02  0.00000000000E+00 0. -1.
         11    1    3    3    0    0  0.51388603480E+01 -0.12761902744E+02  0.84240331234E+01  0.16131905704E+02  0.51100000000E-03 0. -1.
        -11    1    3    3    0    0  0.10966981327E+02 -0.61714522647E+01  0.27267927035E+02  0.30031672406E+02  0.51100000000E-03 0.  1.
        -12    1    3    3    0    0 -0.65872646278E+01  0.90186353977E+01 -0.69201765194E+01  0.13138366823E+02  0.00000000000E+00 0.  1.
</event>
<event>
 7    1  0.5837204E-012  0.5930195E+02  0.7816164E-02  0.1266605E+00
        -11   -1    0    0    0    0  0.00000000000E+00  0.00000000000E+00  0.45593999997E+02  0.45594000000E+02  0.51100000000E-03 0.  1.
         11   -1    0    0    0    0 -0.00000000000E+00 -0.00000000000E+00 -0.45593999997E+02  0.45594000000E+02  0.51100000000E-03 0. -1.
    9900012    2    1    2    0    0  0.19738843357E+02 -0.23174804490E+02  0.94882309013E+01  0.59301952489E+02  0.50000015432E+02 0.  0.
         12    1    1    2    0    0 -0.19738843357E+02  0.23174804490E+02 -0.94882309013E+01  0.31886047511E+02  0.00000000000E+00 0. -1.
         11    1    3    3    0    0 -0.49517692560E+01  0.33772971196E+01 -0.11734228524E+01  0.61076244195E+01  0.51100000000E-03 0. -1.
        -11    1    3    3    0    0 -0.51631420143E+01 -0.16066865354E+02  0.13237105357E+02  0.21448150416E+02  0.51100000000E-03 0.  1.
        -12    1    3    3    0    0  0.29853754627E+02 -0.10485236255E+02 -0.25754516036E+01  0.31746177654E+02  0.00000000000E+00 0.  1.
</event>
<event>
 7    1  0.5837204E-012  0.5930195E+02  0.7816164E-02  0.1266605E+00
        -11   -1    0    0    0    0  0.00000000000E+00  0.00000000000E+00  0.45593999997E+02  0.45594000000E+02  0.51100000000E-03 0.  1.
         11   -1    0    0    0    0 -0.00000000000E+00 -0.00000000000E+00 -0.45593999997E+02  0.45594000000E+02  0.51100000000E-03 0. -1.
    9900012    2    1    2    0    0 -0.31792171762E+02  0.72988245849E+00  0.23335480684E+01  0.59301947244E+02  0.50000005866E+02 0.  0.
         12    1    1    2    0    0  0.31792171762E+02 -0.72988245849E+00 -0.23335480684E+01  0.31886052756E+02  0.00000000000E+00 0. -1.
         11    1    3    3    0    0 -0.23867219513E+02 -0.37430994944E+00 -0.90291868187E+01  0.25520785452E+02  0.51100000000E-03 0. -1.
        -11    1    3    3    0    0 -0.15649133914E+02  0.10497775039E+02  0.31480278463E+01  0.19105202240E+02  0.51100000000E-03 0.  1.
         12    1    3    3    0    0  0.77241816647E+01 -0.93935826312E+01  0.82147070408E+01  0.14675959553E+02  0.00000000000E+00 0. -1.
</event>
<event>
 7    1  0.5837204E-012  0.5930191E+02  0.7816164E-02  0.1266605E+00
        -11   -1    0    0    0    0  0.00000000000E+00  0.00000000000E+00  0.45593999997E+02  0.45594000000E+02  0.51100000000E-03 0.  1.
         11   -1    0    0    0    0 -0.00000000000E+00 -0.00000000000E+00 -0.45593999997E+02  0.45594000000E+02  0.51100000000E-03 0. -1.
    9900012    2    1    2    0    0  0.77835163312E+01 -0.10592940695E+02  0.29050455217E+02  0.59301914204E+02  0.49999945609E+02 0.  0.
         12    1    1    2    0    0 -0.77835163312E+01  0.10592940695E+02 -0.29050455217E+02  0.31886085796E+02  0.00000000000E+00 0. -1.
         11    1    3    3    0    0 -0.13280642803E+01 -0.14235301190E+02  0.15769212436E+01  0.14383818532E+02  0.51100000000E-03 0. -1.
        -11    1    3    3    0    0  0.12083181863E+02 -0.13232494071E+02  0.17724053873E+02  0.25204052635E+02  0.51100000000E-03 0.  1.
        -12    1    3    3    0    0 -0.29716012514E+01  0.16874854566E+02  0.97494801001E+01  0.19714043037E+02  0.00000000000E+00 0.  1.
</event>
<event>
 7    1  0.5837204E-012  0.5930192E+02  0.7816164E-02  0.1266605E+00
        -11   -1    0    0    0    0  0.00000000000E+00  0.00000000000E+00  0.45593999997E+02  0.45594000000E+02  0.51100000000E-03 0.  1.
         11   -1    0    0    0    0 -0.00000000000E+00 -0.00000000000E+00 -0.45593999997E+02  0.45594000000E+02  0.51100000000E-03 0. -1.
    9900012    2    1    2    0    0 -0.40693068493E+01  0.25752550797E+01  0.31520320209E+02  0.59301924935E+02  0.49999965179E+02 0.  0.
         12    1    1    2    0    0  0.40693068493E+01 -0.25752550797E+01 -0.31520320209E+02  0.31886075065E+02  0.00000000000E+00 0. -1.
         11    1    3    3    0    0 -0.87232204415E+01 -0.36022286260E+01 -0.18472324216E+01  0.96168026821E+01  0.51100000000E-03 0. -1.
        -11    1    3    3    0    0 -0.46230416152E+01  0.57778088378E+01 -0.58188898604E+01  0.94135576809E+01  0.51100000000E-03 0.  1.
        -12    1    3    3    0    0  0.92769552074E+01  0.39967486798E+00  0.39186442492E+02  0.40271564572E+02  0.00000000000E+00 0.  1.
</event>
<event>
 7    1  0.5837204E-012  0.5930194E+02  0.7816164E-02  0.1266605E+00
        -11   -1    0    0    0    0  0.00000000000E+00  0.00000000000E+00  0.45593999997E+02  0.45594000000E+02  0.51100000000E-03 0. -1.
         11   -1    0    0    0    0 -0.00000000000E+00 -0.00000000000E+00 -0.45593999997E+02  0.45594000000E+02  0.51100000000E-03 0.  1.
    9900012    2    1    2    0    0 -0.59958729610E+01  0.24387191484E+01 -0.31222156568E+02  0.59301938713E+02  0.49999990307E+02 0.  0.
         12    1    1    2    0    0  0.59958729610E+01 -0.24387191484E+01  0.31222156568E+02  0.31886061287E+02  0.00000000000E+00 0. -1.
         11    1    3    3    0    0  0.26838093387E+01  0.90888531732E+00  0.57101205595E+01  0.63745103460E+01  0.51100000000E-03 0. -1.
        -11    1    3    3    0    0 -0.10976474815E+02  0.12474155458E+02 -0.25977930354E+01  0.16817731198E+02  0.51100000000E-03 0.  1.
        -12    1    3    3    0    0  0.22967925149E+01 -0.10944321627E+02 -0.34334484092E+02  0.36109697169E+02  0.00000000000E+00 0.  1.
</event>
<event>
 7    1  0.5837204E-012  0.5930195E+02  0.7816164E-02  0.1266605E+00
        -11   -1    0    0    0    0  0.00000000000E+00  0.00000000000E+00  0.45593999997E+02  0.45594000000E+02  0.51100000000E-03 0.  1.
         11   -1    0    0    0    0 -0.00000000000E+00 -0.00000000000E+00 -0.45593999997E+02  0.45594000000E+02  0.51100000000E-03 0. -1.
    9900012    2    1    2    0    0  0.21152266076E+02  0.77153327444E+01  0.22578211842E+02  0.59301947101E+02  0.50000005604E+02 0.  0.
         12    1    1    2    0    0 -0.21152266076E+02 -0.77153327444E+01 -0.22578211842E+02  0.31886052899E+02  0.00000000000E+00 0. -1.
         11    1    3    3    0    0 -0.25321567915E+01  0.10386194691E+01  0.13029243599E+02  0.13313592206E+02  0.51100000000E-03 0. -1.
        -11    1    3    3    0    0  0.57970166511E+01 -0.12545264584E+02  0.13636284823E+02  0.19414873926E+02  0.51100000000E-03 0.  1.
         12    1    3    3    0    0  0.17887406217E+02  0.19221977859E+02 -0.40873165795E+01  0.26573480969E+02  0.00000000000E+00 0. -1.
</event>
<event>
 7    1  0.5837204E-012  0.5930193E+02  0.7816164E-02  0.1266605E+00
        -11   -1    0    0    0    0  0.00000000000E+00  0.00000000000E+00  0.45593999997E+02  0.45594000000E+02  0.51100000000E-03 0.  1.
         11   -1    0    0    0    0 -0.00000000000E+00 -0.00000000000E+00 -0.45593999997E+02  0.45594000000E+02  0.51100000000E-03 0. -1.
    9900012    2    1    2    0    0 -0.78021969524E+01  0.12709295257E+02  0.28183696712E+02  0.59301933708E+02  0.49999981180E+02 0.  0.
         12    1    1    2    0    0  0.78021969524E+01 -0.12709295257E+02 -0.28183696712E+02  0.31886066292E+02  0.00000000000E+00 0. -1.
         11    1    3    3    0    0  0.78613143702E+01 -0.15801091040E+00  0.27608821167E+01  0.83335287483E+01  0.51100000000E-03 0.  1.
        -11    1    3    3    0    0  0.86106999290E+01  0.99075636447E+01  0.22885992643E+02  0.26383188400E+02  0.51100000000E-03 0. -1.
        -12    1    3    3    0    0 -0.24274211252E+02  0.29597425223E+01  0.25368219529E+01  0.24585216560E+02  0.00000000000E+00 0.  1.
</event>
<event>
 7    1  0.5837204E-012  0.5930195E+02  0.7816164E-02  0.1266605E+00
        -11   -1    0    0    0    0  0.00000000000E+00  0.00000000000E+00  0.45593999997E+02  0.45594000000E+02  0.51100000000E-03 0.  1.
         11   -1    0    0    0    0 -0.00000000000E+00 -0.00000000000E+00 -0.45593999997E+02  0.45594000000E+02  0.51100000000E-03 0. -1.
    9900012    2    1    2    0    0  0.28950837419E+02 -0.19516318473E+01 -0.13219703445E+02  0.59301946414E+02  0.50000004352E+02 0.  0.
         12    1    1    2    0    0 -0.28950837419E+02  0.19516318473E+01  0.13219703445E+02  0.31886053586E+02  0.00000000000E+00 0. -1.
         11    1    3    3    0    0  0.12173318594E+02 -0.89136299156E+01 -0.95640603976E+01  0.17863754796E+02  0.51100000000E-03 0. -1.
        -11    1    3    3    0    0 -0.45366019536E+01  0.61118637751E+01 -0.15334218137E+02  0.17119400756E+02  0.51100000000E-03 0.  1.
        -12    1    3    3    0    0  0.21314120778E+02  0.85013429329E+00  0.11678575089E+02  0.24318790862E+02  0.00000000000E+00 0.  1.
</event>
<event>
 7    1  0.5837204E-012  0.5930196E+02  0.7816164E-02  0.1266605E+00
        -11   -1    0    0    0    0  0.00000000000E+00  0.00000000000E+00  0.45593999997E+02  0.45594000000E+02  0.51100000000E-03 0. -1.
         11   -1    0    0    0    0 -0.00000000000E+00 -0.00000000000E+00 -0.45593999997E+02  0.45594000000E+02  0.51100000000E-03 0.  1.
    9900012    2    1    2    0    0  0.26286736468E+02  0.17202440287E+02 -0.54592193698E+01  0.59301960075E+02  0.50000029266E+02 0.  0.
         12    1    1    2    0    0 -0.26286736468E+02 -0.17202440287E+02  0.54592193698E+01  0.31886039925E+02  0.00000000000E+00 0. -1.
         11    1    3    3    0    0  0.25604086773E+02 -0.92710027724E-02  0.35616053674E+01  0.25850616598E+02  0.51100000000E-03 0. -1.
        -11    1    3    3    0    0  0.70169832652E+01  0.19227317089E+02  0.20165805558E+01  0.20566827028E+02  0.51100000000E-03 0.  1.
        -12    1    3    3    0    0 -0.63343335704E+01 -0.20156057996E+01 -0.11037405293E+02  0.12884516449E+02  0.00000000000E+00 0.  1.
</event>
<event>
 7    1  0.5837204E-012  0.5930193E+02  0.7816164E-02  0.1266605E+00
        -11   -1    0    0    0    0  0.00000000000E+00  0.00000000000E+00  0.45593999997E+02  0.45594000000E+02  0.51100000000E-03 0.  1.
         11   -1    0    0    0    0 -0.00000000000E+00 -0.00000000000E+00 -0.45593999997E+02  0.45594000000E+02  0.51100000000E-03 0. -1.
    9900012    2    1    2    0    0 -0.11118648259E+02 -0.97729722881E+01  0.28241571212E+02  0.59301926692E+02  0.49999968384E+02 0.  0.
         12    1    1    2    0    0  0.11118648259E+02  0.97729722881E+01 -0.28241571212E+02  0.31886073308E+02  0.00000000000E+00 0. -1.
         11    1    3    3    0    0 -0.48625335573E+01 -0.18273927431E+02 -0.50277246196E+00  0.18916485846E+02  0.51100000000E-03 0. -1.
        -11    1    3    3    0    0 -0.98273796002E+01  0.41562901275E+01 -0.42524708520E+00  0.10678622232E+02  0.51100000000E-03 0.  1.
        -12    1    3    3    0    0  0.35712648986E+01  0.43446650156E+01  0.29169590760E+02  0.29706818614E+02  0.00000000000E+00 0.  1.
</event>
<event>
 7    1  0.5837204E-012  0.5930194E+02  0.7816164E-02  0.1266605E+00
        -11   -1    0    0    0    0  0.00000000000E+00  0.00000000000E+00  0.45593999997E+02  0.45594000000E+02  0.51100000000E-03 0.  1.
         11   -1    0    0    0    0 -0.00000000000E+00 -0.00000000000E+00 -0.45593999997E+02  0.45594000000E+02  0.51100000000E-03 0. -1.
    9900012    2    1    2    0    0 -0.10674645743E+02 -0.30023930615E+02 -0.11559867830E+01  0.59301940715E+02  0.49999993958E+02 0.  0.
         12    1    1    2    0    0  0.10674645743E+02  0.30023930615E+02  0.11559867830E+01  0.31886059285E+02  0.00000000000E+00 0. -1.
         11    1    3    3    0    0  0.93547056323E+01 -0.10383652947E+02 -0.16686081760E+02  0.21765938775E+02  0.51100000000E-03 0. -1.
        -11    1    3    3    0    0 -0.12668864005E+02 -0.12731674923E+02 -0.11948695034E+01  0.18000649292E+02  0.51100000000E-03 0.  1.
        -12    1    3    3    0    0 -0.73604873699E+01 -0.69086027449E+01  0.16724964480E+02  0.19535352648E+02  0.00000000000E+00 0.  1.
</event>
<event>
 7    1  0.5837204E-012  0.5930196E+02  0.7816164E-02  0.1266605E+00
        -11   -1    0    0    0    0  0.00000000000E+00  0.00000000000E+00  0.45593999997E+02  0.45594000000E+02  0.51100000000E-03 0.  1.
         11   -1    0    0    0    0 -0.00000000000E+00 -0.00000000000E+00 -0.45593999997E+02  0.45594000000E+02  0.51100000000E-03 0. -1.
    9900012    2    1    2    0    0 -0.13647126419E+01  0.27892676372E-02  0.31856820631E+02  0.59301961220E+02  0.50000031355E+02 0.  0.
         12    1    1    2    0    0  0.13647126419E+01 -0.27892676372E-02 -0.31856820631E+02  0.31886038780E+02  0.00000000000E+00 0. -1.
         11    1    3    3    0    0 -0.53981101979E+01 -0.42908865394E+00 -0.28523461622E+01  0.61204239781E+01  0.51100000000E-03 0. -1.
        -11    1    3    3    0    0 -0.15248150308E+02 -0.41779766274E+01  0.28174564987E+02  0.32307393720E+02  0.51100000000E-03 0.  1.
         12    1    3    3    0    0  0.19281547865E+02  0.46098545490E+01  0.65346018057E+01  0.20874143522E+02  0.00000000000E+00 0. -1.
</event>
<event>
 7    1  0.5837204E-012  0.5930195E+02  0.7816164E-02  0.1266605E+00
        -11   -1    0    0    0    0  0.00000000000E+00  0.00000000000E+00  0.45593999997E+02  0.45594000000E+02  0.51100000000E-03 0. -1.
         11   -1    0    0    0    0 -0.00000000000E+00 -0.00000000000E+00 -0.45593999997E+02  0.45594000000E+02  0.51100000000E-03 0.  1.
    9900012    2    1    2    0    0  0.74146856215E+01  0.18938227897E+02 -0.24557808134E+02  0.59301953223E+02  0.50000016769E+02 0.  0.
         12    1    1    2    0    0 -0.74146856215E+01 -0.18938227897E+02  0.24557808134E+02  0.31886046777E+02  0.00000000000E+00 0. -1.
         11    1    3    3    0    0  0.64307073696E+01  0.79080692836E+01 -0.12847345197E+02  0.16399568164E+02  0.51100000000E-03 0.  1.
        -11    1    3    3    0    0 -0.70636605236E+01 -0.93419771432E+00  0.12693734076E+02  0.14556747934E+02  0.51100000000E-03 0. -1.
         12    1    3    3    0    0  0.80476387755E+01  0.11964356328E+02 -0.24404197012E+02  0.28345637125E+02  0.00000000000E+00 0. -1.
</event>
<event>
 7    1  0.5837204E-012  0.5930197E+02  0.7816164E-02  0.1266605E+00
        -11   -1    0    0    0    0  0.00000000000E+00  0.00000000000E+00  0.45593999997E+02  0.45594000000E+02  0.51100000000E-03 0. -1.
         11   -1    0    0    0    0 -0.00000000000E+00 -0.00000000000E+00 -0.45593999997E+02  0.45594000000E+02  0.51100000000E-03 0.  1.
    9900012    2    1    2    0    0  0.21995010541E+02  0.20569675268E+02  0.10479833721E+02  0.59301969451E+02  0.50000046366E+02 0.  0.
         12    1    1    2    0    0 -0.21995010541E+02 -0.20569675268E+02 -0.10479833721E+02  0.31886030549E+02  0.00000000000E+00 0. -1.
         11    1    3    3    0    0 -0.33486518672E+01 -0.31447066678E+01 -0.59607966129E+01  0.75255395738E+01  0.51100000000E-03 0. -1.
        -11    1    3    3    0    0  0.97618589731E+01  0.14712587810E+02 -0.96195181640E+01  0.20106945582E+02  0.51100000000E-03 0.  1.
         12    1    3    3    0    0  0.15581803436E+02  0.90017941257E+01  0.26060148498E+02  0.31669484295E+02  0.00000000000E+00 0. -1.
</event>
<event>
 7    1  0.5837204E-012  0.5930200E+02  0.7816164E-02  0.1266605E+00
        -11   -1    0    0    0    0  0.00000000000E+00  0.00000000000E+00  0.45593999997E+02  0.45594000000E+02  0.51100000000E-03 0. -1.
         11   -1    0    0    0    0 -0.00000000000E+00 -0.00000000000E+00 -0.45593999997E+02  0.45594000000E+02  0.51100000000E-03 0.  1.
    9900012    2    1    2    0    0  0.18158503613E+02 -0.26135213766E+02 -0.19840485531E+01  0.59301998358E+02  0.50000099085E+02 0.  0.
         12    1    1    2    0    0 -0.18158503613E+02  0.26135213766E+02  0.19840485531E+01  0.31886001642E+02  0.00000000000E+00 0. -1.
         11    1    3    3    0    0  0.15533842321E+02  0.29063675134E+01 -0.17368599805E+01  0.15898550633E+02  0.51100000000E-03 0.  1.
        -11    1    3    3    0    0 -0.91511981853E+01  0.11465519547E+01 -0.52555371029E+01  0.10615068540E+02  0.51100000000E-03 0. -1.
         12    1    3    3    0    0  0.11775859477E+02 -0.30188133234E+02  0.50083485302E+01  0.32788379185E+02  0.00000000000E+00 0. -1.
</event>
<event>
 7    1  0.5837204E-012  0.5930194E+02  0.7816164E-02  0.1266605E+00
        -11   -1    0    0    0    0  0.00000000000E+00  0.00000000000E+00  0.45593999997E+02  0.45594000000E+02  0.51100000000E-03 0.  1.
         11   -1    0    0    0    0 -0.00000000000E+00 -0.00000000000E+00 -0.45593999997E+02  0.45594000000E+02  0.51100000000E-03 0. -1.
    9900012    2    1    2    0    0 -0.10514949183E+02 -0.30038130953E+02  0.19665698225E+01  0.59301939341E+02  0.49999991453E+02 0.  0.
         12    1    1    2    0    0  0.10514949183E+02  0.30038130953E+02 -0.19665698225E+01  0.31886060659E+02  0.00000000000E+00 0. -1.
         11    1    3    3    0    0 -0.43960351086E+01 -0.31230685995E+01  0.17655384225E+01  0.56741350298E+01  0.51100000000E-03 0. -1.
        -11    1    3    3    0    0 -0.15317577679E+02 -0.50156253671E+01 -0.17659563834E+02  0.23909096153E+02  0.51100000000E-03 0.  1.
         12    1    3    3    0    0  0.91986636050E+01 -0.21899436987E+02  0.17860595234E+02  0.29718708158E+02  0.00000000000E+00 0. -1.
</event>
<event>
 7    1  0.5837204E-012  0.5930193E+02  0.7816164E-02  0.1266605E+00
        -11   -1    0    0    0    0  0.00000000000E+00  0.00000000000E+00  0.45593999997E+02  0.45594000000E+02  0.51100000000E-03 0.  1.
         11   -1    0    0    0    0 -0.00000000000E+00 -0.00000000000E+00 -0.45593999997E+02  0.45594000000E+02  0.51100000000E-03 0. -1.
    9900012    2    1    2    0    0  0.12089052181E+02  0.15343576283E+02  0.25202203480E+02  0.59301928181E+02  0.49999971099E+02 0.  0.
         12    1    1    2    0    0 -0.12089052181E+02 -0.15343576283E+02 -0.25202203480E+02  0.31886071819E+02  0.00000000000E+00 0. -1.
         11    1    3    3    0    0  0.16009469880E+01 -0.10954961874E+02  0.62889865392E+00  0.11089171957E+02  0.51100000000E-03 0. -1.
        -11    1    3    3    0    0  0.38160457691E+01 -0.13582517684E+01 -0.54894688308E+01  0.68221200139E+01  0.51100000000E-03 0.  1.
        -12    1    3    3    0    0  0.66720594243E+01  0.27656789925E+02  0.30062773657E+02  0.41390636210E+02  0.00000000000E+00 0.  1.
</event>
<event>
 7    1  0.5837204E-012  0.5930195E+02  0.7816164E-02  0.1266605E+00
        -11   -1    0    0    0    0  0.00000000000E+00  0.00000000000E+00  0.45593999997E+02  0.45594000000E+02  0.51100000000E-03 0. -1.
         11   -1    0    0    0    0 -0.00000000000E+00 -0.00000000000E+00 -0.45593999997E+02  0.45594000000E+02  0.51100000000E-03 0.  1.
    9900012    2    1    2    0    0 -0.83591095856E+01  0.30363417603E+02  0.49908288787E+01  0.59301949531E+02  0.50000010036E+02 0.  0.
         12    1    1    2    0    0  0.83591095856E+01 -0.30363417603E+02 -0.49908288787E+01  0.31886050469E+02  0.00000000000E+00 0. -1.
         11    1    3    3    0    0 -0.29863299336E+01 -0.45340882612E+01 -0.41961296559E+01  0.68617510289E+01  0.51100000000E-03 0. -1.
        -11    1    3    3    0    0  0.90244274396E+01 -0.24083282537E+01 -0.42413818452E+01  0.10258150701E+02  0.51100000000E-03 0.  1.
        -12    1    3    3    0    0 -0.14397207092E+02  0.37305834118E+02  0.13428340380E+02  0.42182047801E+02  0.00000000000E+00 0.  1.
</event>
<event>
 7    1  0.5837204E-012  0.5930192E+02  0.7816164E-02  0.1266605E+00
        -11   -1    0    0    0    0  0.00000000000E+00  0.00000000000E+00  0.45593999997E+02  0.45594000000E+02  0.51100000000E-03 0.  1.
         11   -1    0    0    0    0 -0.00000000000E+00 -0.00000000000E+00 -0.45593999997E+02  0.45594000000E+02  0.51100000000E-03 0. -1.
    9900012    2    1    2    0    0 -0.18760899597E+02 -0.13056094989E+02  0.22232610787E+02  0.59301922279E+02  0.49999960335E+02 0.  0.
         12    1    1    2    0    0  0.18760899597E+02  0.13056094989E+02 -0.22232610787E+02  0.31886077721E+02  0.00000000000E+00 0. -1.
         11    1    3    3    0    0 -0.21162393886E+02 -0.59631513835E+01  0.21296850099E+02  0.30609833612E+02  0.51100000000E-03 0. -1.
        -11    1    3    3    0    0 -0.50940343093E+00 -0.13627468398E+02  0.10169632998E+02  0.17011432108E+02  0.51100000000E-03 0.  1.
        -12    1    3    3    0    0  0.29108977200E+01  0.65345247930E+01 -0.92338723094E+01  0.11680656558E+02  0.00000000000E+00 0.  1.
</event>
<event>
 7    1  0.5837204E-012  0.5930198E+02  0.7816164E-02  0.1266605E+00
        -11   -1    0    0    0    0  0.00000000000E+00  0.00000000000E+00  0.45593999997E+02  0.45594000000E+02  0.51100000000E-03 0. -1.
         11   -1    0    0    0    0 -0.00000000000E+00 -0.00000000000E+00 -0.45593999997E+02  0.45594000000E+02  0.51100000000E-03 0.  1.
    9900012    2    1    2    0    0  0.98938375955E+01  0.78841818338E+01 -0.29268919633E+02  0.59301984224E+02  0.50000073309E+02 0.  0.
         12    1    1    2    0    0 -0.98938375955E+01 -0.78841818338E+01  0.29268919633E+02  0.31886015776E+02  0.00000000000E+00 0. -1.
         11    1    3    3    0    0 -0.10565590288E+02 -0.22219869151E+01 -0.12488528688E+02  0.16508551513E+02  0.51100000000E-03 0. -1.
        -11    1    3    3    0    0 -0.49297086431E+01  0.12608153009E+02 -0.32793824946E+01  0.13929174398E+02  0.51100000000E-03 0.  1.
         12    1    3    3    0    0  0.25389136527E+02 -0.25019842601E+01 -0.13501008450E+02  0.28864258314E+02  0.00000000000E+00 0. -1.
</event>
<event>
 7    1  0.5837204E-012  0.5930194E+02  0.7816164E-02  0.1266605E+00
        -11   -1    0    0    0    0  0.00000000000E+00  0.00000000000E+00  0.45593999997E+02  0.45594000000E+02  0.51100000000E-03 0. -1.
         11   -1    0    0    0    0 -0.00000000000E+00 -0.00000000000E+00 -0.45593999997E+02  0.45594000000E+02  0.51100000000E-03 0.  1.
    9900012    2    1    2    0    0  0.26169658405E+02  0.28112592914E+00 -0.18215123465E+02  0.59301940732E+02  0.49999993990E+02 0.  0.
         12    1    1    2    0    0 -0.26169658405E+02 -0.28112592914E+00  0.18215123465E+02  0.31886059268E+02  0.00000000000E+00 0. -1.
         11    1    3    3    0    0 -0.32358949779E+01 -0.64111790944E+00  0.49957245995E+01  0.59865944423E+01  0.51100000000E-03 0. -1.
        -11    1    3    3    0    0 -0.40103487641E-01  0.13365207645E+02  0.71810497611E+00  0.13384545517E+02  0.51100000000E-03 0.  1.
        -12    1    3    3    0    0  0.29445656870E+02 -0.12442963806E+02 -0.23928953040E+02  0.39930800773E+02  0.00000000000E+00 0.  1.
</event>
<event>
 7    1  0.5837204E-012  0.5930192E+02  0.7816164E-02  0.1266605E+00
        -11   -1    0    0    0    0  0.00000000000E+00  0.00000000000E+00  0.45593999997E+02  0.45594000000E+02  0.51100000000E-03 0.  1.
         11   -1    0    0    0    0 -0.00000000000E+00 -0.00000000000E+00 -0.45593999997E+02  0.45594000000E+02  0.51100000000E-03 0. -1.
    9900012    2    1    2    0    0  0.26417638984E+02  0.14521575533E+02  0.10390110030E+02  0.59301918524E+02  0.49999953487E+02 0.  0.
         12    1    1    2    0    0 -0.26417638984E+02 -0.14521575533E+02 -0.10390110030E+02  0.31886081476E+02  0.00000000000E+00 0. -1.
         11    1    3    3    0    0 -0.58955015769E+01 -0.10077307412E+01  0.20041673904E+01  0.63078639237E+01  0.51100000000E-03 0. -1.
        -11    1    3    3    0    0 -0.25232235080E+01  0.96081070772E+01  0.14049863675E+02  0.17207005783E+02  0.51100000000E-03 0.  1.
        -12    1    3    3    0    0  0.34836364069E+02  0.59211991972E+01 -0.56639210352E+01  0.35787048816E+02  0.00000000000E+00 0.  1.
</event>
<event>
 7    1  0.5837204E-012  0.5930193E+02  0.7816164E-02  0.1266605E+00
        -11   -1    0    0    0    0  0.00000000000E+00  0.00000000000E+00  0.45593999997E+02  0.45594000000E+02  0.51100000000E-03 0. -1.
         11   -1    0    0    0    0 -0.00000000000E+00 -0.00000000000E+00 -0.45593999997E+02  0.45594000000E+02  0.51100000000E-03 0.  1.
    9900012    2    1    2    0    0 -0.27587220626E+02 -0.96606938917E+00 -0.15960364892E+02  0.59301932832E+02  0.49999979582E+02 0.  0.
         12    1    1    2    0    0  0.27587220626E+02  0.96606938917E+00  0.15960364892E+02  0.31886067168E+02  0.00000000000E+00 0. -1.
         11    1    3    3    0    0  0.64365841158E+01  0.31265507236E+01 -0.98116169762E+00  0.72227150744E+01  0.51100000000E-03 0. -1.
        -11    1    3    3    0    0 -0.10893316063E+02 -0.16048437183E+02 -0.17230612730E+02  0.25944376774E+02  0.51100000000E-03 0.  1.
        -12    1    3    3    0    0 -0.23130488679E+02  0.11955817070E+02  0.22514095358E+01  0.26134840984E+02  0.00000000000E+00 0.  1.
</event>
<event>
 7    1  0.5837204E-012  0.5930195E+02  0.7816164E-02  0.1266605E+00
        -11   -1    0    0    0    0  0.00000000000E+00  0.00000000000E+00  0.45593999997E+02  0.45594000000E+02  0.51100000000E-03 0.  1.
         11   -1    0    0    0    0 -0.00000000000E+00 -0.00000000000E+00 -0.45593999997E+02  0.45594000000E+02  0.51100000000E-03 0. -1.
    9900012    2    1    2    0    0 -0.23886093413E+02  0.52779717985E+01  0.20452818103E+02  0.59301949552E+02  0.50000010074E+02 0.  0.
         12    1    1    2    0    0  0.23886093413E+02 -0.52779717985E+01 -0.20452818103E+02  0.31886050448E+02  0.00000000000E+00 0. -1.
         11    1    3    3    0    0  0.79075566806E+01 -0.18223721204E+01 -0.63774681686E+01  0.10320978311E+02  0.51100000000E-03 0. -1.
        -11    1    3    3    0    0 -0.65756193304E+01  0.14444293056E+01 -0.47010920874E+01  0.82112978677E+01  0.51100000000E-03 0.  1.
        -12    1    3    3    0    0 -0.25218030763E+02  0.56559146132E+01  0.31531378359E+02  0.40769673373E+02  0.00000000000E+00 0.  1.
</event>
<event>
 7    1  0.5837204E-012  0.5930194E+02  0.7816164E-02  0.1266605E+00
        -11   -1    0    0    0    0  0.00000000000E+00  0.00000000000E+00  0.45593999997E+02  0.45594000000E+02  0.51100000000E-03 0.  1.
         11   -1    0    0    0    0 -0.00000000000E+00 -0.00000000000E+00 -0.45593999997E+02  0.45594000000E+02  0.51100000000E-03 0. -1.
    9900012    2    1    2    0    0 -0.17299066271E+02  0.18971359626E+02  0.18909003664E+02  0.59301943495E+02  0.49999999028E+02 0.  0.
         12    1    1    2    0    0  0.17299066271E+02 -0.18971359626E+02 -0.18909003664E+02  0.31886056505E+02  0.00000000000E+00 0. -1.
         11    1    3    3    0    0  0.28585069837E+01  0.98931527386E+00  0.22997360372E+02  0.23195439018E+02  0.51100000000E-03 0. -1.
        -11    1    3    3    0    0  0.49835831581E+01  0.62727392116E+01 -0.22003409732E+01  0.83081200623E+01  0.51100000000E-03 0.  1.
        -12    1    3    3    0    0 -0.25141156413E+02  0.11709305141E+02 -0.18880157354E+01  0.27798384415E+02  0.00000000000E+00 0.  1.
</event>
<event>
 7    1  0.5837204E-012  0.5930196E+02  0.7816164E-02  0.1266605E+00
        -11   -1    0    0    0    0  0.00000000000E+00  0.00000000000E+00  0.45593999997E+02  0.45594000000E+02  0.51100000000E-03 0.  1.
         11   -1    0    0    0    0 -0.00000000000E+00 -0.00000000000E+00 -0.45593999997E+02  0.45594000000E+02  0.51100000000E-03 0. -1.
    9900012    2    1    2    0    0  0.18327150831E+02 -0.62876184882E+01  0.25323919607E+02  0.59301960608E+02  0.50000030238E+02 0.  0.
         12    1    1    2    0    0 -0.18327150831E+02  0.62876184882E+01 -0.25323919607E+02  0.31886039392E+02  0.00000000000E+00 0. -1.
         11    1    3    3    0    0  0.24870308799E+00 -0.11146587218E+01  0.74781281862E+01  0.75648343486E+01  0.51100000000E-03 0. -1.
        -11    1    3    3    0    0  0.23689080644E+02  0.24767149022E+01  0.28716694451E+02  0.37308915810E+02  0.51100000000E-03 0.  1.
         12    1    3    3    0    0 -0.56106329003E+01 -0.76496746686E+01 -0.10870903030E+02  0.14428210449E+02  0.00000000000E+00 0. -1.
</event>
<event>
 7    1  0.5837204E-012  0.5930193E+02  0.7816164E-02  0.1266605E+00
        -11   -1    0    0    0    0  0.00000000000E+00  0.00000000000E+00  0.45593999997E+02  0.45594000000E+02  0.51100000000E-03 0.  1.
         11   -1    0    0    0    0 -0.00000000000E+00 -0.00000000000E+00 -0.45593999997E+02  0.45594000000E+02  0.51100000000E-03 0. -1.
    9900012    2    1    2    0    0 -0.84225336901E+01 -0.16321466113E+02  0.26065148684E+02  0.59301932419E+02  0.49999978829E+02 0.  0.
         12    1    1    2    0    0  0.84225336901E+01  0.16321466113E+02 -0.26065148684E+02  0.31886067581E+02  0.00000000000E+00 0. -1.
         11    1    3    3    0    0  0.91033145394E+01 -0.15199397385E+02 -0.58819422181E+01  0.18667867071E+02  0.51100000000E-03 0. -1.
        -11    1    3    3    0    0 -0.76260286955E+01  0.65926213215E+01  0.57983990705E+01  0.11629290675E+02  0.51100000000E-03 0.  1.
        -12    1    3    3    0    0 -0.98998195341E+01 -0.77146900495E+01  0.26148691832E+02  0.29004774674E+02  0.00000000000E+00 0.  1.
</event>
<event>
 7    1  0.5837204E-012  0.5930193E+02  0.7816164E-02  0.1266605E+00
        -11   -1    0    0    0    0  0.00000000000E+00  0.00000000000E+00  0.45593999997E+02  0.45594000000E+02  0.51100000000E-03 0.  1.
         11   -1    0    0    0    0 -0.00000000000E+00 -0.00000000000E+00 -0.45593999997E+02  0.45594000000E+02  0.51100000000E-03 0. -1.
    9900012    2    1    2    0    0 -0.10029750223E+02  0.85578065545E+01  0.29032554703E+02  0.59301934467E+02  0.49999982564E+02 0.  0.
         12    1    1    2    0    0  0.10029750223E+02 -0.85578065545E+01 -0.29032554703E+02  0.31886065533E+02  0.00000000000E+00 0. -1.
         11    1    3    3    0    0 -0.31469212926E+01 -0.71547108998E+01 -0.20814556132E+01  0.80886005843E+01  0.51100000000E-03 0. -1.
        -11    1    3    3    0    0 -0.94423520424E+01 -0.78654912025E+01  0.23124652324E+02  0.26187277623E+02  0.51100000000E-03 0.  1.
        -12    1    3    3    0    0  0.25595231118E+01  0.23578008657E+02  0.79893579921E+01  0.25026056260E+02  0.00000000000E+00 0.  1.
</event>
<event>
 7    1  0.5837204E-012  0.5930193E+02  0.7816164E-02  0.1266605E+00
        -11   -1    0    0    0    0  0.00000000000E+00  0.00000000000E+00  0.45593999997E+02  0.45594000000E+02  0.51100000000E-03 0.  1.
         11   -1    0    0    0    0 -0.00000000000E+00 -0.00000000000E+00 -0.45593999997E+02  0.45594000000E+02  0.51100000000E-03 0. -1.
    9900012    2    1    2    0    0  0.10248301555E+02  0.13607486470E+02  0.26954217354E+02  0.59301933985E+02  0.49999981684E+02 0.  0.
         12    1    1    2    0    0 -0.10248301555E+02 -0.13607486470E+02 -0.26954217354E+02  0.31886066015E+02  0.00000000000E+00 0. -1.
         11    1    3    3    0    0 -0.11983177519E+02  0.13008425067E+02  0.23215078662E+02  0.29184851271E+02  0.51100000000E-03 0. -1.
        -11    1    3    3    0    0  0.37779389172E+01 -0.84695204916E+01  0.36872267559E+00  0.92812475720E+01  0.51100000000E-03 0.  1.
        -12    1    3    3    0    0  0.18453540157E+02  0.90685818948E+01  0.33704160160E+01  0.20835835141E+02  0.00000000000E+00 0.  1.
</event>
<event>
 7    1  0.5837204E-012  0.5930194E+02  0.7816164E-02  0.1266605E+00
        -11   -1    0    0    0    0  0.00000000000E+00  0.00000000000E+00  0.45593999997E+02  0.45594000000E+02  0.51100000000E-03 0.  1.
         11   -1    0    0    0    0 -0.00000000000E+00 -0.00000000000E+00 -0.45593999997E+02  0.45594000000E+02  0.51100000000E-03 0. -1.
    9900012    2    1    2    0    0 -0.26312085702E+02  0.68135881097E+01  0.16672427457E+02  0.59301942322E+02  0.49999996889E+02 0.  0.
         12    1    1    2    0    0  0.26312085702E+02 -0.68135881097E+01 -0.16672427457E+02  0.31886057678E+02  0.00000000000E+00 0. -1.
         11    1    3    3    0    0  0.11919800464E+01  0.36221411864E+01  0.36691725653E+01  0.52918381287E+01  0.51100000000E-03 0. -1.
        -11    1    3    3    0    0  0.61527898047E+01 -0.59924675434E+01  0.16848638904E+02  0.18911454805E+02  0.51100000000E-03 0.  1.
        -12    1    3    3    0    0 -0.33656855554E+02  0.91839144667E+01 -0.38453840123E+01  0.35098649388E+02  0.00000000000E+00 0.  1.
</event>
<event>
 7    1  0.5837204E-012  0.5930197E+02  0.7816164E-02  0.1266605E+00
        -11   -1    0    0    0    0  0.00000000000E+00  0.00000000000E+00  0.45593999997E+02  0.45594000000E+02  0.51100000000E-03 0. -1.
         11   -1    0    0    0    0 -0.00000000000E+00 -0.00000000000E+00 -0.45593999997E+02  0.45594000000E+02  0.51100000000E-03 0.  1.
    9900012    2    1    2    0    0  0.60451523702E+01 -0.30483573989E+02 -0.71362974220E+01  0.59301970281E+02  0.50000047880E+02 0.  0.
         12    1    1    2    0    0 -0.60451523702E+01  0.30483573989E+02  0.71362974220E+01  0.31886029719E+02  0.00000000000E+00 0. -1.
         11    1    3    3    0    0  0.58342889191E+01  0.92977392211E+01 -0.31210349317E+01  0.11411736990E+02  0.51100000000E-03 0. -1.
        -11    1    3    3    0    0 -0.69254177103E+01 -0.68299547405E+01  0.74788036923E+01  0.12269563853E+02  0.51100000000E-03 0.  1.
        -12    1    3    3    0    0  0.71362811613E+01 -0.32951358470E+02 -0.11494066183E+02  0.35620669438E+02  0.00000000000E+00 0.  1.
</event>
<event>
 7    1  0.5837204E-012  0.5930204E+02  0.7816164E-02  0.1266604E+00
        -11   -1    0    0    0    0  0.00000000000E+00  0.00000000000E+00  0.45593999997E+02  0.45594000000E+02  0.51100000000E-03 0.  1.
         11   -1    0    0    0    0 -0.00000000000E+00 -0.00000000000E+00 -0.45593999997E+02  0.45594000000E+02  0.51100000000E-03 0. -1.
    9900012    2    1    2    0    0 -0.11076340670E+01 -0.20974650617E+02  0.23990657428E+02  0.59302039679E+02  0.50000174446E+02 0.  0.
         12    1    1    2    0    0  0.11076340670E+01  0.20974650617E+02 -0.23990657428E+02  0.31885960321E+02  0.00000000000E+00 0. -1.
         11    1    3    3    0    0  0.78893325433E+01  0.17969186068E+00 -0.99381626688E+01  0.12690190489E+02  0.51100000000E-03 0. -1.
        -11    1    3    3    0    0 -0.31878759346E+01  0.25850407462E+01  0.15413165260E+02  0.15950255554E+02  0.51100000000E-03 0.  1.
        -12    1    3    3    0    0 -0.58090906757E+01 -0.23739383224E+02  0.18515654836E+02  0.30661593637E+02  0.00000000000E+00 0.  1.
</event>
<event>
 7    1  0.5837204E-012  0.5930194E+02  0.7816164E-02  0.1266605E+00
        -11   -1    0    0    0    0  0.00000000000E+00  0.00000000000E+00  0.45593999997E+02  0.45594000000E+02  0.51100000000E-03 0.  1.
         11   -1    0    0    0    0 -0.00000000000E+00 -0.00000000000E+00 -0.45593999997E+02  0.45594000000E+02  0.51100000000E-03 0. -1.
    9900012    2    1    2    0    0 -0.16134591450E+02  0.19779248002E+01  0.27431436367E+02  0.59301938328E+02  0.49999989606E+02 0.  0.
         12    1    1    2    0    0  0.16134591450E+02 -0.19779248002E+01 -0.27431436367E+02  0.31886061672E+02  0.00000000000E+00 0. -1.
         11    1    3    3    0    0  0.12446744298E+01  0.97241290649E+01 -0.48912147578E+01  0.10955906287E+02  0.51100000000E-03 0. -1.
        -11    1    3    3    0    0  0.86628460434E+01 -0.42846462047E+01  0.80435394634E+01  0.12573846748E+02  0.51100000000E-03 0.  1.
        -12    1    3    3    0    0 -0.26042111923E+02 -0.34615580601E+01  0.24279111661E+02  0.35772185294E+02  0.00000000000E+00 0.  1.
</event>
<event>
 7    1  0.5837204E-012  0.5930189E+02  0.7816164E-02  0.1266605E+00
        -11   -1    0    0    0    0  0.00000000000E+00  0.00000000000E+00  0.45593999997E+02  0.45594000000E+02  0.51100000000E-03 0.  1.
         11   -1    0    0    0    0 -0.00000000000E+00 -0.00000000000E+00 -0.45593999997E+02  0.45594000000E+02  0.51100000000E-03 0. -1.
    9900012    2    1    2    0    0  0.31754734621E+02  0.28630551827E+01 -0.40444728253E+00  0.59301892784E+02  0.49999906543E+02 0.  0.
         12    1    1    2    0    0 -0.31754734621E+02 -0.28630551827E+01  0.40444728253E+00  0.31886107216E+02  0.00000000000E+00 0. -1.
         11    1    3    3    0    0  0.12925520638E+02  0.16066265751E+02 -0.19536126786E+02  0.28405179616E+02  0.51100000000E-03 0. -1.
        -11    1    3    3    0    0  0.49562580624E+00 -0.33342694502E+01  0.18970722388E+01  0.38680590800E+01  0.51100000000E-03 0.  1.
        -12    1    3    3    0    0  0.18333588176E+02 -0.98689411180E+01  0.17234607265E+02  0.27028654088E+02  0.00000000000E+00 0.  1.
</event>
<event>
 7    1  0.5837204E-012  0.5930195E+02  0.7816164E-02  0.1266605E+00
        -11   -1    0    0    0    0  0.00000000000E+00  0.00000000000E+00  0.45593999997E+02  0.45594000000E+02  0.51100000000E-03 0.  1.
         11   -1    0    0    0    0 -0.00000000000E+00 -0.00000000000E+00 -0.45593999997E+02  0.45594000000E+02  0.51100000000E-03 0. -1.
    9900012    2    1    2    0    0 -0.19415066525E+02 -0.25153506361E+02 -0.26601921670E+01  0.59301947990E+02  0.50000007227E+02 0.  0.
         12    1    1    2    0    0  0.19415066525E+02  0.25153506361E+02  0.26601921670E+01  0.31886052010E+02  0.00000000000E+00 0. -1.
         11    1    3    3    0    0  0.90232552348E+01 -0.11322228787E+02 -0.51135374107E+01  0.15354486799E+02  0.51100000000E-03 0. -1.
        -11    1    3    3    0    0 -0.11186375392E+02 -0.21459446712E+02 -0.28128719095E+01  0.24362986193E+02  0.51100000000E-03 0.  1.
         12    1    3    3    0    0 -0.17251946368E+02  0.76281691382E+01  0.52662171533E+01  0.19584474999E+02  0.00000000000E+00 0. -1.
</event>
<event>
 7    1  0.5837204E-012  0.5930225E+02  0.7816164E-02  0.1266604E+00
        -11   -1    0    0    0    0  0.00000000000E+00  0.00000000000E+00  0.45593999997E+02  0.45594000000E+02  0.51100000000E-03 0.  1.
         11   -1    0    0    0    0 -0.00000000000E+00 -0.00000000000E+00 -0.45593999997E+02  0.45594000000E+02  0.51100000000E-03 0. -1.
    9900012    2    1    2    0    0  0.15507271239E+02  0.26705994575E+02  0.79382305678E+01  0.59302249074E+02  0.50000556329E+02 0.  0.
         12    1    1    2    0    0 -0.15507271239E+02 -0.26705994575E+02 -0.79382305678E+01  0.31885750926E+02  0.00000000000E+00 0. -1.
         11    1    3    3    0    0  0.27594289872E+01  0.18702636571E+02  0.20625332161E+00  0.18906231875E+02  0.51100000000E-03 0. -1.
        -11    1    3    3    0    0 -0.12357484517E+02 -0.21134880484E+01  0.33472091378E+01  0.12976057360E+02  0.51100000000E-03 0.  1.
         12    1    3    3    0    0  0.25105326769E+02  0.10116846053E+02  0.43847681084E+01  0.27419959840E+02  0.00000000000E+00 0. -1.
</event>
<event>
 7    1  0.5837204E-012  0.5930194E+02  0.7816164E-02  0.1266605E+00
        -11   -1    0    0    0    0  0.00000000000E+00  0.00000000000E+00  0.45593999997E+02  0.45594000000E+02  0.51100000000E-03 0.  1.
         11   -1    0    0    0    0 -0.00000000000E+00 -0.00000000000E+00 -0.45593999997E+02  0.45594000000E+02  0.51100000000E-03 0. -1.
    9900012    2    1    2    0    0 -0.26968710843E+02  0.34233245972E+01  0.16664051356E+02  0.59301935279E+02  0.49999984044E+02 0.  0.
         12    1    1    2    0    0  0.26968710843E+02 -0.34233245972E+01 -0.16664051356E+02  0.31886064721E+02  0.00000000000E+00 0. -1.
         11    1    3    3    0    0 -0.13018128089E+02  0.14026625295E+02 -0.53780530113E+00  0.19144375438E+02  0.51100000000E-03 0. -1.
        -11    1    3    3    0    0 -0.22952632760E+02 -0.34003155100E+01  0.57446016974E+01  0.23903680577E+02  0.51100000000E-03 0.  1.
         12    1    3    3    0    0  0.90020500064E+01 -0.72029851874E+01  0.11457254960E+02  0.16253879264E+02  0.00000000000E+00 0. -1.
</event>
<event>
 7    1  0.5837204E-012  0.5930194E+02  0.7816164E-02  0.1266605E+00
        -11   -1    0    0    0    0  0.00000000000E+00  0.00000000000E+00  0.45593999997E+02  0.45594000000E+02  0.51100000000E-03 0.  1.
         11   -1    0    0    0    0 -0.00000000000E+00 -0.00000000000E+00 -0.45593999997E+02  0.45594000000E+02  0.51100000000E-03 0. -1.
    9900012    2    1    2    0    0  0.29870167118E+01 -0.19207316150E+02 -0.25276030842E+02  0.59301937250E+02  0.49999987640E+02 0.  0.
         12    1    1    2    0    0 -0.29870167118E+01  0.19207316150E+02  0.25276030842E+02  0.31886062750E+02  0.00000000000E+00 0. -1.
         11    1    3    3    0    0  0.19206809320E+01 -0.90178049605E+01 -0.24952695416E+02  0.26601632099E+02  0.51100000000E-03 0. -1.
        -11    1    3    3    0    0 -0.76148969855E+00  0.47557190088E+01 -0.12461783986E+02  0.13360119394E+02  0.51100000000E-03 0.  1.
        -12    1    3    3    0    0  0.18278254783E+01 -0.14945230199E+02  0.12138448560E+02  0.19340185757E+02  0.00000000000E+00 0.  1.
</event>
<event>
 7    1  0.5837204E-012  0.5930195E+02  0.7816164E-02  0.1266605E+00
        -11   -1    0    0    0    0  0.00000000000E+00  0.00000000000E+00  0.45593999997E+02  0.45594000000E+02  0.51100000000E-03 0.  1.
         11   -1    0    0    0    0 -0.00000000000E+00 -0.00000000000E+00 -0.45593999997E+02  0.45594000000E+02  0.51100000000E-03 0. -1.
    9900012    2    1    2    0    0 -0.46085274468E+00  0.13287018341E+02  0.28982112718E+02  0.59301951339E+02  0.50000013333E+02 0.  0.
         12    1    1    2    0    0  0.46085274468E+00 -0.13287018341E+02 -0.28982112718E+02  0.31886048661E+02  0.00000000000E+00 0. -1.
         11    1    3    3    0    0  0.83371411275E+01  0.63195549525E+01  0.18980175144E+02  0.21672372868E+02  0.51100000000E-03 0. -1.
        -11    1    3    3    0    0  0.49167045810E+00  0.39964207340E+01  0.21887361172E+02  0.22254655644E+02  0.51100000000E-03 0.  1.
        -12    1    3    3    0    0 -0.92896643303E+01  0.29710426546E+01 -0.11885423598E+02  0.15374922827E+02  0.00000000000E+00 0.  1.
</event>
<event>
 7    1  0.5837204E-012  0.5930186E+02  0.7816164E-02  0.1266605E+00
        -11   -1    0    0    0    0  0.00000000000E+00  0.00000000000E+00  0.45593999997E+02  0.45594000000E+02  0.51100000000E-03 0. -1.
         11   -1    0    0    0    0 -0.00000000000E+00 -0.00000000000E+00 -0.45593999997E+02  0.45594000000E+02  0.51100000000E-03 0.  1.
    9900012    2    1    2    0    0  0.11999455996E+02 -0.29440526001E+02  0.24483433188E+01  0.59301860372E+02  0.49999847432E+02 0.  0.
         12    1    1    2    0    0 -0.11999455996E+02  0.29440526001E+02 -0.24483433188E+01  0.31886139628E+02  0.00000000000E+00 0. -1.
         11    1    3    3    0    0 -0.32193609599E+01 -0.62785365939E+01  0.83272972436E+01  0.10914585947E+02  0.51100000000E-03 0. -1.
        -11    1    3    3    0    0  0.14072992212E+02 -0.38021803115E+01  0.14285369283E+02  0.20410229317E+02  0.51100000000E-03 0.  1.
        -12    1    3    3    0    0  0.11458247430E+01 -0.19359809095E+02 -0.20164323208E+02  0.27977045108E+02  0.00000000000E+00 0.  1.
</event>
<event>
 7    1  0.5837204E-012  0.5930193E+02  0.7816164E-02  0.1266605E+00
        -11   -1    0    0    0    0  0.00000000000E+00  0.00000000000E+00  0.45593999997E+02  0.45594000000E+02  0.51100000000E-03 0. -1.
         11   -1    0    0    0    0 -0.00000000000E+00 -0.00000000000E+00 -0.45593999997E+02  0.45594000000E+02  0.51100000000E-03 0.  1.
    9900012    2    1    2    0    0 -0.13601099341E+02 -0.13317071010E+02 -0.25580986535E+02  0.59301934773E+02  0.49999983121E+02 0.  0.
         12    1    1    2    0    0  0.13601099341E+02  0.13317071010E+02  0.25580986535E+02  0.31886065227E+02  0.00000000000E+00 0. -1.
         11    1    3    3    0    0  0.64864575760E+01  0.73387463601E+01 -0.20176306916E+01  0.10000108194E+02  0.51100000000E-03 0. -1.
        -11    1    3    3    0    0  0.11918771302E+01 -0.21131602698E+01 -0.20801085867E+02  0.20942091369E+02  0.51100000000E-03 0.  1.
         12    1    3    3    0    0 -0.21279434047E+02 -0.18542657100E+02 -0.27622699767E+01  0.28359735209E+02  0.00000000000E+00 0. -1.
</event>
<event>
 7    1  0.5837204E-012  0.5930194E+02  0.7816164E-02  0.1266605E+00
        -11   -1    0    0    0    0  0.00000000000E+00  0.00000000000E+00  0.45593999997E+02  0.45594000000E+02  0.51100000000E-03 0. -1.
         11   -1    0    0    0    0 -0.00000000000E+00 -0.00000000000E+00 -0.45593999997E+02  0.45594000000E+02  0.51100000000E-03 0.  1.
    9900012    2    1    2    0    0  0.22752500731E+02  0.44188665616E+01 -0.21897899283E+02  0.59301942479E+02  0.49999997176E+02 0.  0.
         12    1    1    2    0    0 -0.22752500731E+02 -0.44188665616E+01  0.21897899283E+02  0.31886057521E+02  0.00000000000E+00 0. -1.
         11    1    3    3    0    0 -0.75628892065E+00  0.13606176882E+02 -0.10076211582E+02  0.16947863062E+02  0.51100000000E-03 0. -1.
        -11    1    3    3    0    0  0.19604067447E+01 -0.14033978529E+01 -0.18368370012E+02  0.18525920687E+02  0.51100000000E-03 0.  1.
         12    1    3    3    0    0  0.21548382907E+02 -0.77839124672E+01  0.65466823106E+01  0.23828158731E+02  0.00000000000E+00 0. -1.
</event>
<event>
 7    1  0.5837204E-012  0.5930192E+02  0.7816164E-02  0.1266605E+00
        -11   -1    0    0    0    0  0.00000000000E+00  0.00000000000E+00  0.45593999997E+02  0.45594000000E+02  0.51100000000E-03 0.  1.
         11   -1    0    0    0    0 -0.00000000000E+00 -0.00000000000E+00 -0.45593999997E+02  0.45594000000E+02  0.51100000000E-03 0. -1.
    9900012    2    1    2    0    0  0.29845610370E+02 -0.23979558267E+01  0.10964108654E+02  0.59301916373E+02  0.49999949565E+02 0.  0.
         12    1    1    2    0    0 -0.29845610370E+02  0.23979558267E+01 -0.10964108654E+02  0.31886083627E+02  0.00000000000E+00 0. -1.
         11    1    3    3    0    0  0.36325067354E+01 -0.52708151080E+01  0.29673537930E+01  0.70556208713E+01  0.51100000000E-03 0. -1.
        -11    1    3    3    0    0 -0.35688573949E+01 -0.12264030897E+02 -0.81392071131E+01  0.15145622788E+02  0.51100000000E-03 0.  1.
         12    1    3    3    0    0  0.29781961029E+02  0.15136890178E+02  0.16135961974E+02  0.37100672714E+02  0.00000000000E+00 0. -1.
</event>
<event>
 7    1  0.5837204E-012  0.5930195E+02  0.7816164E-02  0.1266605E+00
        -11   -1    0    0    0    0  0.00000000000E+00  0.00000000000E+00  0.45593999997E+02  0.45594000000E+02  0.51100000000E-03 0. -1.
         11   -1    0    0    0    0 -0.00000000000E+00 -0.00000000000E+00 -0.45593999997E+02  0.45594000000E+02  0.51100000000E-03 0.  1.
    9900012    2    1    2    0    0  0.10796925889E+02 -0.18890400994E+02 -0.23308784261E+02  0.59301948471E+02  0.50000008104E+02 0.  0.
         12    1    1    2    0    0 -0.10796925889E+02  0.18890400994E+02  0.23308784261E+02  0.31886051529E+02  0.00000000000E+00 0. -1.
         11    1    3    3    0    0 -0.81561687498E+01 -0.89738170908E+01 -0.86022540643E+01  0.14867792610E+02  0.51100000000E-03 0. -1.
        -11    1    3    3    0    0  0.15104653068E+02 -0.19934358092E+02 -0.20409641753E+02  0.32281305017E+02  0.51100000000E-03 0.  1.
         12    1    3    3    0    0  0.38484415701E+01  0.10017774188E+02  0.57031115572E+01  0.12152850844E+02  0.00000000000E+00 0. -1.
</event>
<event>
 7    1  0.5837204E-012  0.5930195E+02  0.7816164E-02  0.1266605E+00
        -11   -1    0    0    0    0  0.00000000000E+00  0.00000000000E+00  0.45593999997E+02  0.45594000000E+02  0.51100000000E-03 0.  1.
         11   -1    0    0    0    0 -0.00000000000E+00 -0.00000000000E+00 -0.45593999997E+02  0.45594000000E+02  0.51100000000E-03 0. -1.
    9900012    2    1    2    0    0 -0.37453895271E+01 -0.64321495979E+01  0.31005160022E+02  0.59301946009E+02  0.50000003613E+02 0.  0.
         12    1    1    2    0    0  0.37453895271E+01  0.64321495979E+01 -0.31005160022E+02  0.31886053991E+02  0.00000000000E+00 0. -1.
         11    1    3    3    0    0  0.30532876753E+00 -0.12113461708E+02 -0.70579849805E-01  0.12117514678E+02  0.51100000000E-03 0. -1.
        -11    1    3    3    0    0  0.56942159265E+01 -0.13093578796E+02  0.11037128874E+02  0.18046720332E+02  0.51100000000E-03 0.  1.
         12    1    3    3    0    0 -0.97449342211E+01  0.18774890906E+02  0.20038610997E+02  0.29137710998E+02  0.00000000000E+00 0. -1.
</event>
<event>
 7    1  0.5837204E-012  0.5930198E+02  0.7816164E-02  0.1266605E+00
        -11   -1    0    0    0    0  0.00000000000E+00  0.00000000000E+00  0.45593999997E+02  0.45594000000E+02  0.51100000000E-03 0.  1.
         11   -1    0    0    0    0 -0.00000000000E+00 -0.00000000000E+00 -0.45593999997E+02  0.45594000000E+02  0.51100000000E-03 0. -1.
    9900012    2    1    2    0    0  0.54670961316E+01  0.15350201131E+02  0.27408035569E+02  0.59301980671E+02  0.50000066829E+02 0.  0.
         12    1    1    2    0    0 -0.54670961316E+01 -0.15350201131E+02 -0.27408035569E+02  0.31886019329E+02  0.00000000000E+00 0. -1.
         11    1    3    3    0    0  0.25226975308E+01  0.27396672486E+02  0.10684605232E+02  0.29514444860E+02  0.51100000000E-03 0. -1.
        -11    1    3    3    0    0 -0.17826674955E+01  0.39504837471E+01  0.11528950644E+02  0.12316693081E+02  0.51100000000E-03 0.  1.
         12    1    3    3    0    0  0.47270660963E+01 -0.15996955103E+02  0.51944796934E+01  0.17470842731E+02  0.00000000000E+00 0. -1.
</event>
<event>
 7    1  0.5837204E-012  0.5930190E+02  0.7816164E-02  0.1266605E+00
        -11   -1    0    0    0    0  0.00000000000E+00  0.00000000000E+00  0.45593999997E+02  0.45594000000E+02  0.51100000000E-03 0. -1.
         11   -1    0    0    0    0 -0.00000000000E+00 -0.00000000000E+00 -0.45593999997E+02  0.45594000000E+02  0.51100000000E-03 0.  1.
    9900012    2    1    2    0    0 -0.12089387702E+02  0.17827664792E+02 -0.23510519329E+02  0.59301898858E+02  0.49999917621E+02 0.  0.
         12    1    1    2    0    0  0.12089387702E+02 -0.17827664792E+02  0.23510519329E+02  0.31886101142E+02  0.00000000000E+00 0. -1.
         11    1    3    3    0    0 -0.20319207517E+02  0.80019383853E+01 -0.61567223553E+01  0.22689346453E+02  0.51100000000E-03 0. -1.
        -11    1    3    3    0    0 -0.70983629576E+01  0.24767127512E+01 -0.18098001648E+02  0.19597411223E+02  0.51100000000E-03 0.  1.
        -12    1    3    3    0    0  0.15328182773E+02  0.73490136552E+01  0.74420467482E+00  0.17015141181E+02  0.00000000000E+00 0.  1.
</event>
<event>
 7    1  0.5837204E-012  0.5930196E+02  0.7816164E-02  0.1266605E+00
        -11   -1    0    0    0    0  0.00000000000E+00  0.00000000000E+00  0.45593999997E+02  0.45594000000E+02  0.51100000000E-03 0.  1.
         11   -1    0    0    0    0 -0.00000000000E+00 -0.00000000000E+00 -0.45593999997E+02  0.45594000000E+02  0.51100000000E-03 0. -1.
    9900012    2    1    2    0    0  0.19114718915E+02 -0.16540182788E+02  0.19436298124E+02  0.59301955864E+02  0.50000021587E+02 0.  0.
         12    1    1    2    0    0 -0.19114718915E+02  0.16540182788E+02 -0.19436298124E+02  0.31886044136E+02  0.00000000000E+00 0. -1.
         11    1    3    3    0    0 -0.10773938556E+02 -0.71067669493E+01 -0.66213682475E+00  0.12923711306E+02  0.51100000000E-03 0. -1.
        -11    1    3    3    0    0  0.32241189105E+01 -0.73353868831E+01 -0.52083100086E+01  0.95566383672E+01  0.51100000000E-03 0.  1.
        -12    1    3    3    0    0  0.26664538561E+02 -0.20980289557E+01  0.25306744957E+02  0.36821606191E+02  0.00000000000E+00 0.  1.
</event>
<event>
 7    1  0.5837204E-012  0.5930193E+02  0.7816164E-02  0.1266605E+00
        -11   -1    0    0    0    0  0.00000000000E+00  0.00000000000E+00  0.45593999997E+02  0.45594000000E+02  0.51100000000E-03 0.  1.
         11   -1    0    0    0    0 -0.00000000000E+00 -0.00000000000E+00 -0.45593999997E+02  0.45594000000E+02  0.51100000000E-03 0. -1.
    9900012    2    1    2    0    0 -0.20672830411E+02  0.23123587933E+02  0.73929174022E+01  0.59301929941E+02  0.49999974309E+02 0.  0.
         12    1    1    2    0    0  0.20672830411E+02 -0.23123587933E+02 -0.73929174022E+01  0.31886070059E+02  0.00000000000E+00 0. -1.
         11    1    3    3    0    0 -0.33953118160E+01  0.35772279688E+01  0.11805415857E+02  0.12794238785E+02  0.51100000000E-03 0. -1.
        -11    1    3    3    0    0 -0.26019733948E+02  0.24786836901E+02 -0.50787179962E+01  0.36293349460E+02  0.51100000000E-03 0.  1.
         12    1    3    3    0    0  0.87422153530E+01 -0.52404769372E+01  0.66621954149E+00  0.10214341696E+02  0.00000000000E+00 0. -1.
</event>
<event>
 7    1  0.5837204E-012  0.5930198E+02  0.7816164E-02  0.1266605E+00
        -11   -1    0    0    0    0  0.00000000000E+00  0.00000000000E+00  0.45593999997E+02  0.45594000000E+02  0.51100000000E-03 0.  1.
         11   -1    0    0    0    0 -0.00000000000E+00 -0.00000000000E+00 -0.45593999997E+02  0.45594000000E+02  0.51100000000E-03 0. -1.
    9900012    2    1    2    0    0  0.13177338623E+01 -0.15107701760E+02  0.28048868111E+02  0.59301983044E+02  0.50000071156E+02 0.  0.
         12    1    1    2    0    0 -0.13177338623E+01  0.15107701760E+02 -0.28048868111E+02  0.31886016956E+02  0.00000000000E+00 0. -1.
         11    1    3    3    0    0  0.17967231208E+02 -0.18915952672E+02  0.16321902978E+02  0.30774001688E+02  0.51100000000E-03 0. -1.
        -11    1    3    3    0    0 -0.34492376003E+01 -0.74140408427E+01  0.12267288347E+01  0.82686217434E+01  0.51100000000E-03 0.  1.
        -12    1    3    3    0    0 -0.13200259746E+02  0.11222291755E+02  0.10500236299E+02  0.20259359613E+02  0.00000000000E+00 0.  1.
</event>
<event>
 7    1  0.5837204E-012  0.5930188E+02  0.7816164E-02  0.1266605E+00
        -11   -1    0    0    0    0  0.00000000000E+00  0.00000000000E+00  0.45593999997E+02  0.45594000000E+02  0.51100000000E-03 0. -1.
         11   -1    0    0    0    0 -0.00000000000E+00 -0.00000000000E+00 -0.45593999997E+02  0.45594000000E+02  0.51100000000E-03 0.  1.
    9900012    2    1    2    0    0  0.99543450177E+01  0.16004436075E+02 -0.25719517532E+02  0.59301881690E+02  0.49999886311E+02 0.  0.
         12    1    1    2    0    0 -0.99543450177E+01 -0.16004436075E+02  0.25719517532E+02  0.31886118310E+02  0.00000000000E+00 0. -1.
         11    1    3    3    0    0  0.16817588054E+02  0.10595041487E+02 -0.69241539573E+01  0.21048279748E+02  0.51100000000E-03 0. -1.
        -11    1    3    3    0    0  0.72857413455E+01  0.11134602122E+02 -0.18747907296E+02  0.22990115694E+02  0.51100000000E-03 0.  1.
         12    1    3    3    0    0 -0.14148984382E+02 -0.57252075339E+01 -0.47456278315E-01  0.15263486248E+02  0.00000000000E+00 0. -1.
</event>
<event>
 7    1  0.5837204E-012  0.5930193E+02  0.7816164E-02  0.1266605E+00
        -11   -1    0    0    0    0  0.00000000000E+00  0.00000000000E+00  0.45593999997E+02  0.45594000000E+02  0.51100000000E-03 0. -1.
         11   -1    0    0    0    0 -0.00000000000E+00 -0.00000000000E+00 -0.45593999997E+02  0.45594000000E+02  0.51100000000E-03 0.  1.
    9900012    2    1    2    0    0  0.25583471772E+02  0.14222423313E+02 -0.12646353223E+02  0.59301927764E+02  0.49999970339E+02 0.  0.
         12    1    1    2    0    0 -0.25583471772E+02 -0.14222423313E+02  0.12646353223E+02  0.31886072236E+02  0.00000000000E+00 0. -1.
         11    1    3    3    0    0  0.14200419450E+02 -0.58522492778E+01 -0.16477503590E+01  0.15447194427E+02  0.51100000000E-03 0. -1.
        -11    1    3    3    0    0  0.10120541988E+02  0.68285918709E+01 -0.22933214472E+02  0.25980518920E+02  0.51100000000E-03 0.  1.
        -12    1    3    3    0    0  0.12625103337E+01  0.13246080720E+02  0.11934611608E+02  0.17874214417E+02  0.00000000000E+00 0.  1.
</event>
<event>
 7    1  0.6087428E-012  0.5930193E+02  0.7816164E-02  0.1266605E+00
        -11   -1    0    0    0    0  0.00000000000E+00  0.00000000000E+00  0.45593999997E+02  0.45594000000E+02  0.51100000000E-03 0. -1.
         11   -1    0    0    0    0 -0.00000000000E+00 -0.00000000000E+00 -0.45593999997E+02  0.45594000000E+02  0.51100000000E-03 0.  1.
    9900012    2    1    2    0    0  0.12659893838E+02  0.16089005430E+02 -0.24445699618E+02  0.59301933489E+02  0.49999980779E+02 0.  0.
         12    1    1    2    0    0 -0.12659893838E+02 -0.16089005430E+02  0.24445699618E+02  0.31886066511E+02  0.00000000000E+00 0. -1.
         11    1    3    3    0    0  0.43104088936E+01  0.80898670850E+01  0.49340842199E+01  0.10410127839E+02  0.51100000000E-03 0. -1.
        -11    1    3    3    0    0 -0.38091480784E+01  0.79404655357E+00  0.80181624610E+01  0.89124098046E+01  0.51100000000E-03 0.  1.
        -12    1    3    3    0    0  0.12158633023E+02  0.72050917917E+01 -0.37397946299E+02  0.39979395845E+02  0.00000000000E+00 0.  1.
</event>
<event>
 7    1  0.5837204E-012  0.5930193E+02  0.7816164E-02  0.1266605E+00
        -11   -1    0    0    0    0  0.00000000000E+00  0.00000000000E+00  0.45593999997E+02  0.45594000000E+02  0.51100000000E-03 0.  1.
         11   -1    0    0    0    0 -0.00000000000E+00 -0.00000000000E+00 -0.45593999997E+02  0.45594000000E+02  0.51100000000E-03 0. -1.
    9900012    2    1    2    0    0 -0.29251984246E+02  0.57047557746E+01  0.11335711702E+02  0.59301934383E+02  0.49999982410E+02 0.  0.
         12    1    1    2    0    0  0.29251984246E+02 -0.57047557746E+01 -0.11335711702E+02  0.31886065617E+02  0.00000000000E+00 0. -1.
         11    1    3    3    0    0  0.65169945372E+01  0.62693810969E+01  0.13630946339E+01  0.91451836711E+01  0.51100000000E-03 0. -1.
        -11    1    3    3    0    0 -0.39058893606E+01  0.13291574302E+02 -0.51432564940E+00  0.13863132772E+02  0.51100000000E-03 0.  1.
         12    1    3    3    0    0 -0.31863089422E+02 -0.13856199624E+02  0.10486942718E+02  0.36293617939E+02  0.00000000000E+00 0. -1.
</event>
<event>
 7    1  0.5837204E-012  0.5930194E+02  0.7816164E-02  0.1266605E+00
        -11   -1    0    0    0    0  0.00000000000E+00  0.00000000000E+00  0.45593999997E+02  0.45594000000E+02  0.51100000000E-03 0.  1.
         11   -1    0    0    0    0 -0.00000000000E+00 -0.00000000000E+00 -0.45593999997E+02  0.45594000000E+02  0.51100000000E-03 0. -1.
    9900012    2    1    2    0    0  0.20047787954E+02  0.22452018779E+02 -0.10522061261E+02  0.59301941568E+02  0.49999995515E+02 0.  0.
         12    1    1    2    0    0 -0.20047787954E+02 -0.22452018779E+02  0.10522061261E+02  0.31886058432E+02  0.00000000000E+00 0. -1.
         11    1    3    3    0    0 -0.50595905775E+01 -0.49814479986E+01  0.43845135686E+01  0.83449529938E+01  0.51100000000E-03 0. -1.
        -11    1    3    3    0    0 -0.32276000401E+01 -0.10481774285E+01 -0.99063389234E+01  0.10471467379E+02  0.51100000000E-03 0.  1.
        -12    1    3    3    0    0  0.28334978572E+02  0.28481644207E+02 -0.50002359059E+01  0.40485521196E+02  0.00000000000E+00 0.  1.
</event>
<event>
 7    1  0.5837204E-012  0.5930200E+02  0.7816164E-02  0.1266605E+00
        -11   -1    0    0    0    0  0.00000000000E+00  0.00000000000E+00  0.45593999997E+02  0.45594000000E+02  0.51100000000E-03 0. -1.
         11   -1    0    0    0    0 -0.00000000000E+00 -0.00000000000E+00 -0.45593999997E+02  0.45594000000E+02  0.51100000000E-03 0.  1.
    9900012    2    1    2    0    0 -0.28022264849E+02 -0.15155899778E+02 -0.13297888939E+01  0.59302000504E+02  0.50000102999E+02 0.  0.
         12    1    1    2    0    0  0.28022264849E+02  0.15155899778E+02  0.13297888939E+01  0.31885999496E+02  0.00000000000E+00 0. -1.
         11    1    3    3    0    0  0.92111355011E+01 -0.10203607528E+02  0.92499819639E+00  0.13777309089E+02  0.51100000000E-03 0. -1.
        -11    1    3    3    0    0 -0.12115314919E+02 -0.85355742338E+01  0.94562021198E+01  0.17580006879E+02  0.51100000000E-03 0.  1.
         12    1    3    3    0    0 -0.25118085432E+02  0.35832819836E+01 -0.11710989210E+02  0.27944684536E+02  0.00000000000E+00 0. -1.
</event>
<event>
 7    1  0.5837204E-012  0.5930206E+02  0.7816164E-02  0.1266604E+00
        -11   -1    0    0    0    0  0.00000000000E+00  0.00000000000E+00  0.45593999997E+02  0.45594000000E+02  0.51100000000E-03 0. -1.
         11   -1    0    0    0    0 -0.00000000000E+00 -0.00000000000E+00 -0.45593999997E+02  0.45594000000E+02  0.51100000000E-03 0.  1.
    9900012    2    1    2    0    0  0.69411500269E+01  0.30252626609E+02 -0.73015112340E+01  0.59302061928E+02  0.50000215021E+02 0.  0.
         12    1    1    2    0    0 -0.69411500269E+01 -0.30252626609E+02  0.73015112340E+01  0.31885938072E+02  0.00000000000E+00 0. -1.
         11    1    3    3    0    0  0.44662934042E+01  0.90751083882E+01  0.62690067215E+01  0.11899824140E+02  0.51100000000E-03 0. -1.
        -11    1    3    3    0    0  0.12362627502E+02 -0.69331758947E+01  0.10439844682E+01  0.14212437883E+02  0.51100000000E-03 0.  1.
        -12    1    3    3    0    0 -0.98877708794E+01  0.28110694116E+02 -0.14614502424E+02  0.33189799905E+02  0.00000000000E+00 0.  1.
</event>
<event>
 7    1  0.5837204E-012  0.5930195E+02  0.7816164E-02  0.1266605E+00
        -11   -1    0    0    0    0  0.00000000000E+00  0.00000000000E+00  0.45593999997E+02  0.45594000000E+02  0.51100000000E-03 0.  1.
         11   -1    0    0    0    0 -0.00000000000E+00 -0.00000000000E+00 -0.45593999997E+02  0.45594000000E+02  0.51100000000E-03 0. -1.
    9900012    2    1    2    0    0  0.19715960345E+02  0.20230442175E+02  0.14789526690E+02  0.59301953167E+02  0.50000016667E+02 0.  0.
         12    1    1    2    0    0 -0.19715960345E+02 -0.20230442175E+02 -0.14789526690E+02  0.31886046833E+02  0.00000000000E+00 0. -1.
         11    1    3    3    0    0 -0.35623483829E+01  0.26914384255E+00  0.58703827259E+01  0.68719835579E+01  0.51100000000E-03 0. -1.
        -11    1    3    3    0    0 -0.48413974110E+01  0.22446930304E+02  0.75310320016E+01  0.24166510966E+02  0.51100000000E-03 0.  1.
         12    1    3    3    0    0  0.28119706139E+02 -0.24856319719E+01  0.13881119625E+01  0.28263458643E+02  0.00000000000E+00 0. -1.
</event>
<event>
 7    1  0.5837204E-012  0.5930195E+02  0.7816164E-02  0.1266605E+00
        -11   -1    0    0    0    0  0.00000000000E+00  0.00000000000E+00  0.45593999997E+02  0.45594000000E+02  0.51100000000E-03 0. -1.
         11   -1    0    0    0    0 -0.00000000000E+00 -0.00000000000E+00 -0.45593999997E+02  0.45594000000E+02  0.51100000000E-03 0.  1.
    9900012    2    1    2    0    0  0.15842612611E+00  0.29828363149E+02 -0.11267833299E+02  0.59301946399E+02  0.50000004325E+02 0.  0.
         12    1    1    2    0    0 -0.15842612611E+00 -0.29828363149E+02  0.11267833299E+02  0.31886053601E+02  0.00000000000E+00 0. -1.
         11    1    3    3    0    0  0.23382315876E+01 -0.39674176195E+01  0.34486616077E+01  0.57533465627E+01  0.51100000000E-03 0. -1.
        -11    1    3    3    0    0 -0.19381270087E+02  0.13152651589E+02 -0.11587793159E+01  0.23451410273E+02  0.51100000000E-03 0.  1.
        -12    1    3    3    0    0  0.17201464626E+02  0.20643129180E+02 -0.13557715591E+02  0.30097189564E+02  0.00000000000E+00 0.  1.
</event>
<event>
 7    1  0.5837204E-012  0.5930196E+02  0.7816164E-02  0.1266605E+00
        -11   -1    0    0    0    0  0.00000000000E+00  0.00000000000E+00  0.45593999997E+02  0.45594000000E+02  0.51100000000E-03 0.  1.
         11   -1    0    0    0    0 -0.00000000000E+00 -0.00000000000E+00 -0.45593999997E+02  0.45594000000E+02  0.51100000000E-03 0. -1.
    9900012    2    1    2    0    0 -0.23763972629E+02  0.13427581171E+02  0.16483112517E+02  0.59301963409E+02  0.50000035348E+02 0.  0.
         12    1    1    2    0    0  0.23763972629E+02 -0.13427581171E+02 -0.16483112517E+02  0.31886036591E+02  0.00000000000E+00 0. -1.
         11    1    3    3    0    0 -0.23114760690E+02  0.67231084109E+01  0.14560158401E-01  0.24072651717E+02  0.51100000000E-03 0. -1.
        -11    1    3    3    0    0  0.79932247338E+01 -0.92065412135E+01  0.27137609502E+01  0.12490658170E+02  0.51100000000E-03 0.  1.
         12    1    3    3    0    0 -0.86424366729E+01  0.15911013974E+02  0.13754791408E+02  0.22738653522E+02  0.00000000000E+00 0. -1.
</event>
<event>
 7    1  0.5837204E-012  0.5930193E+02  0.7816164E-02  0.1266605E+00
        -11   -1    0    0    0    0  0.00000000000E+00  0.00000000000E+00  0.45593999997E+02  0.45594000000E+02  0.51100000000E-03 0.  1.
         11   -1    0    0    0    0 -0.00000000000E+00 -0.00000000000E+00 -0.45593999997E+02  0.45594000000E+02  0.51100000000E-03 0. -1.
    9900012    2    1    2    0    0  0.19890218810E+02  0.21245292530E+02  0.13028351083E+02  0.59301934220E+02  0.49999982114E+02 0.  0.
         12    1    1    2    0    0 -0.19890218810E+02 -0.21245292530E+02 -0.13028351083E+02  0.31886065780E+02  0.00000000000E+00 0. -1.
         11    1    3    3    0    0  0.10637792661E+02  0.16893379289E+02  0.78826879527E+01  0.21463589311E+02  0.51100000000E-03 0. -1.
        -11    1    3    3    0    0  0.18606011612E+02  0.13492033265E+02 -0.17579334378E+01  0.23050140129E+02  0.51100000000E-03 0.  1.
        -12    1    3    3    0    0 -0.93535854626E+01 -0.91401200244E+01  0.69035965677E+01  0.14788204781E+02  0.00000000000E+00 0.  1.
</event>
<event>
 7    1  0.5837204E-012  0.5930198E+02  0.7816164E-02  0.1266605E+00
        -11   -1    0    0    0    0  0.00000000000E+00  0.00000000000E+00  0.45593999997E+02  0.45594000000E+02  0.51100000000E-03 0. -1.
         11   -1    0    0    0    0 -0.00000000000E+00 -0.00000000000E+00 -0.45593999997E+02  0.45594000000E+02  0.51100000000E-03 0.  1.
    9900012    2    1    2    0    0  0.27953550410E+01  0.31584488819E+02  0.33651985724E+01  0.59301976335E+02  0.50000058920E+02 0.  0.
         12    1    1    2    0    0 -0.27953550410E+01 -0.31584488819E+02 -0.33651985724E+01  0.31886023665E+02  0.00000000000E+00 0. -1.
         11    1    3    3    0    0  0.90421562060E+00 -0.47380730466E+01 -0.13828196236E+02  0.14645338968E+02  0.51100000000E-03 0. -1.
        -11    1    3    3    0    0 -0.19382343935E+01  0.21362424849E+01  0.87812943595E+01  0.92429116304E+01  0.51100000000E-03 0.  1.
        -12    1    3    3    0    0  0.38293738139E+01  0.34186319381E+02  0.84121004485E+01  0.35413725737E+02  0.00000000000E+00 0.  1.
</event>
<event>
 7    1  0.5837204E-012  0.5930197E+02  0.7816164E-02  0.1266605E+00
        -11   -1    0    0    0    0  0.00000000000E+00  0.00000000000E+00  0.45593999997E+02  0.45594000000E+02  0.51100000000E-03 0.  1.
         11   -1    0    0    0    0 -0.00000000000E+00 -0.00000000000E+00 -0.45593999997E+02  0.45594000000E+02  0.51100000000E-03 0. -1.
    9900012    2    1    2    0    0 -0.21011088296E+02  0.10457936863E+02  0.21584355949E+02  0.59301973334E+02  0.50000053448E+02 0.  0.
         12    1    1    2    0    0  0.21011088296E+02 -0.10457936863E+02 -0.21584355949E+02  0.31886026666E+02  0.00000000000E+00 0. -1.
         11    1    3    3    0    0  0.11097745823E+00  0.11860099255E+02  0.38368668357E+01  0.12465785884E+02  0.51100000000E-03 0. -1.
        -11    1    3    3    0    0 -0.71336289314E+01  0.74984789701E+00 -0.11950659513E+02  0.13938048524E+02  0.51100000000E-03 0.  1.
         12    1    3    3    0    0 -0.13988436823E+02 -0.21520102884E+01  0.29698148626E+02  0.32898138927E+02  0.00000000000E+00 0. -1.
</event>
<event>
 7    1  0.5837204E-012  0.5930196E+02  0.7816164E-02  0.1266605E+00
        -11   -1    0    0    0    0  0.00000000000E+00  0.00000000000E+00  0.45593999997E+02  0.45594000000E+02  0.51100000000E-03 0.  1.
         11   -1    0    0    0    0 -0.00000000000E+00 -0.00000000000E+00 -0.45593999997E+02  0.45594000000E+02  0.51100000000E-03 0. -1.
    9900012    2    1    2    0    0 -0.12349528234E+02  0.17693370334E+02  0.23476655873E+02  0.59301959600E+02  0.50000028401E+02 0.  0.
         12    1    1    2    0    0  0.12349528234E+02 -0.17693370334E+02 -0.23476655873E+02  0.31886040400E+02  0.00000000000E+00 0. -1.
         11    1    3    3    0    0 -0.24333665999E+02  0.71891883593E+01  0.98929967838E+01  0.27233859731E+02  0.51100000000E-03 0. -1.
        -11    1    3    3    0    0  0.76807121195E+01  0.17423607367E+02  0.39435007810E+01  0.19445478421E+02  0.51100000000E-03 0.  1.
        -12    1    3    3    0    0  0.43034256452E+01 -0.69194253919E+01  0.96401583081E+01  0.12622621449E+02  0.00000000000E+00 0.  1.
</event>
<event>
 7    1  0.5837204E-012  0.5930194E+02  0.7816164E-02  0.1266605E+00
        -11   -1    0    0    0    0  0.00000000000E+00  0.00000000000E+00  0.45593999997E+02  0.45594000000E+02  0.51100000000E-03 0.  1.
         11   -1    0    0    0    0 -0.00000000000E+00 -0.00000000000E+00 -0.45593999997E+02  0.45594000000E+02  0.51100000000E-03 0. -1.
    9900012    2    1    2    0    0 -0.11017022518E+02 -0.10451418337E+02  0.28037725026E+02  0.59301937918E+02  0.49999988858E+02 0.  0.
         12    1    1    2    0    0  0.11017022518E+02  0.10451418337E+02 -0.28037725026E+02  0.31886062082E+02  0.00000000000E+00 0. -1.
         11    1    3    3    0    0 -0.59696916862E+01  0.23568855877E+01 -0.11455523019E+02  0.13130922908E+02  0.51100000000E-03 0. -1.
        -11    1    3    3    0    0  0.31253220720E+01  0.35684642727E+01  0.14045533356E+02  0.14824931124E+02  0.51100000000E-03 0.  1.
         12    1    3    3    0    0 -0.81726529036E+01 -0.16376768197E+02  0.25447714690E+02  0.31346083887E+02  0.00000000000E+00 0. -1.
</event>
<event>
 7    1  0.5837204E-012  0.5930195E+02  0.7816164E-02  0.1266605E+00
        -11   -1    0    0    0    0  0.00000000000E+00  0.00000000000E+00  0.45593999997E+02  0.45594000000E+02  0.51100000000E-03 0. -1.
         11   -1    0    0    0    0 -0.00000000000E+00 -0.00000000000E+00 -0.45593999997E+02  0.45594000000E+02  0.51100000000E-03 0.  1.
    9900012    2    1    2    0    0  0.73561462530E+01 -0.30359525472E+02 -0.63958309460E+01  0.59301947751E+02  0.50000006790E+02 0.  0.
         12    1    1    2    0    0 -0.73561462530E+01  0.30359525472E+02  0.63958309460E+01  0.31886052249E+02  0.00000000000E+00 0. -1.
         11    1    3    3    0    0 -0.29216669121E+01  0.67030693652E+01 -0.10500101315E+02  0.12795288365E+02  0.51100000000E-03 0. -1.
        -11    1    3    3    0    0  0.21216635238E+01 -0.90414558644E-01  0.81573250415E+01  0.84292101050E+01  0.51100000000E-03 0.  1.
        -12    1    3    3    0    0  0.81561496413E+01 -0.36972180278E+02 -0.40530546721E+01  0.38077449280E+02  0.00000000000E+00 0.  1.
</event>
<event>
 7    1  0.5837204E-012  0.5930195E+02  0.7816164E-02  0.1266605E+00
        -11   -1    0    0    0    0  0.00000000000E+00  0.00000000000E+00  0.45593999997E+02  0.45594000000E+02  0.51100000000E-03 0.  1.
         11   -1    0    0    0    0 -0.00000000000E+00 -0.00000000000E+00 -0.45593999997E+02  0.45594000000E+02  0.51100000000E-03 0. -1.
    9900012    2    1    2    0    0 -0.12243685502E+02  0.28778685710E+02  0.62128497079E+01  0.59301951525E+02  0.50000013674E+02 0.  0.
         12    1    1    2    0    0  0.12243685502E+02 -0.28778685710E+02 -0.62128497079E+01  0.31886048475E+02  0.00000000000E+00 0. -1.
         11    1    3    3    0    0  0.10190925915E+02 -0.13589169633E+01  0.71359935340E+01  0.12514952269E+02  0.51100000000E-03 0.  1.
        -11    1    3    3    0    0  0.45416720630E+01  0.20476425868E+01 -0.56761394292E+01  0.75523628337E+01  0.51100000000E-03 0. -1.
         12    1    3    3    0    0 -0.26976283480E+02  0.28089960086E+02  0.47529956031E+01  0.39234636423E+02  0.00000000000E+00 0. -1.
</event>
<event>
 7    1  0.5837204E-012  0.5930196E+02  0.7816164E-02  0.1266605E+00
        -11   -1    0    0    0    0  0.00000000000E+00  0.00000000000E+00  0.45593999997E+02  0.45594000000E+02  0.51100000000E-03 0.  1.
         11   -1    0    0    0    0 -0.00000000000E+00 -0.00000000000E+00 -0.45593999997E+02  0.45594000000E+02  0.51100000000E-03 0. -1.
    9900012    2    1    2    0    0 -0.27027674260E+02 -0.16323591449E+02  0.44457868799E+01  0.59301955488E+02  0.50000020900E+02 0.  0.
         12    1    1    2    0    0  0.27027674260E+02  0.16323591449E+02 -0.44457868799E+01  0.31886044512E+02  0.00000000000E+00 0. -1.
         11    1    3    3    0    0 -0.12609934630E+02 -0.11292875236E+02  0.16687474463E+02  0.23769966064E+02  0.51100000000E-03 0. -1.
        -11    1    3    3    0    0 -0.82051798824E+01 -0.17382712030E+02 -0.47235937380E+01  0.19793837235E+02  0.51100000000E-03 0.  1.
         12    1    3    3    0    0 -0.62125597470E+01  0.12351995817E+02 -0.75180938449E+01  0.15738152189E+02  0.00000000000E+00 0. -1.
</event>
<event>
 7    1  0.5837204E-012  0.5930197E+02  0.7816164E-02  0.1266605E+00
        -11   -1    0    0    0    0  0.00000000000E+00  0.00000000000E+00  0.45593999997E+02  0.45594000000E+02  0.51100000000E-03 0.  1.
         11   -1    0    0    0    0 -0.00000000000E+00 -0.00000000000E+00 -0.45593999997E+02  0.45594000000E+02  0.51100000000E-03 0. -1.
    9900012    2    1    2    0    0 -0.15517534746E+02  0.10445961299E+02  0.25822605409E+02  0.59301969483E+02  0.50000046424E+02 0.  0.
         12    1    1    2    0    0  0.15517534746E+02 -0.10445961299E+02 -0.25822605409E+02  0.31886030517E+02  0.00000000000E+00 0. -1.
         11    1    3    3    0    0 -0.16585179804E+02  0.45830724844E+01  0.14214318765E+02  0.22318593162E+02  0.51100000000E-03 0. -1.
        -11    1    3    3    0    0  0.74738431365E+01 -0.10691040300E+02  0.13927498178E+02  0.19082239902E+02  0.51100000000E-03 0.  1.
         12    1    3    3    0    0 -0.64061980781E+01  0.16553929114E+02 -0.23192115335E+01  0.17901136418E+02  0.00000000000E+00 0. -1.
</event>
<event>
 7    1  0.5837204E-012  0.5930194E+02  0.7816164E-02  0.1266605E+00
        -11   -1    0    0    0    0  0.00000000000E+00  0.00000000000E+00  0.45593999997E+02  0.45594000000E+02  0.51100000000E-03 0.  1.
         11   -1    0    0    0    0 -0.00000000000E+00 -0.00000000000E+00 -0.45593999997E+02  0.45594000000E+02  0.51100000000E-03 0. -1.
    9900012    2    1    2    0    0  0.22904386030E+02 -0.21706782637E+02 -0.45744079956E+01  0.59301944735E+02  0.50000001289E+02 0.  0.
         12    1    1    2    0    0 -0.22904386030E+02  0.21706782637E+02  0.45744079956E+01  0.31886055265E+02  0.00000000000E+00 0. -1.
         11    1    3    3    0    0 -0.34872556038E+01  0.35500651394E+01  0.12462125228E+02  0.13418959706E+02  0.51100000000E-03 0. -1.
        -11    1    3    3    0    0  0.69391003493E+01  0.24684922136E+01  0.11274513041E+01  0.74508868043E+01  0.51100000000E-03 0.  1.
         12    1    3    3    0    0  0.19452541285E+02 -0.27725339990E+02 -0.18163984527E+02  0.38432098224E+02  0.00000000000E+00 0. -1.
</event>
<event>
 7    1  0.5837204E-012  0.5930193E+02  0.7816164E-02  0.1266605E+00
        -11   -1    0    0    0    0  0.00000000000E+00  0.00000000000E+00  0.45593999997E+02  0.45594000000E+02  0.51100000000E-03 0. -1.
         11   -1    0    0    0    0 -0.00000000000E+00 -0.00000000000E+00 -0.45593999997E+02  0.45594000000E+02  0.51100000000E-03 0.  1.
    9900012    2    1    2    0    0  0.57854136502E+01  0.24694572733E+02 -0.19324297781E+02  0.59301930655E+02  0.49999975611E+02 0.  0.
         12    1    1    2    0    0 -0.57854136502E+01 -0.24694572733E+02  0.19324297781E+02  0.31886069345E+02  0.00000000000E+00 0. -1.
         11    1    3    3    0    0  0.13623314245E+02  0.22402645879E+02  0.25076727507E+01  0.26339355654E+02  0.51100000000E-03 0. -1.
        -11    1    3    3    0    0  0.74565995759E+01  0.16629042851E+01 -0.19760761287E+01  0.78911979460E+01  0.51100000000E-03 0.  1.
        -12    1    3    3    0    0 -0.15294500170E+02  0.62902256870E+00 -0.19855894403E+02  0.25071377054E+02  0.00000000000E+00 0.  1.
</event>
<event>
 7    1  0.5837204E-012  0.5930193E+02  0.7816164E-02  0.1266605E+00
        -11   -1    0    0    0    0  0.00000000000E+00  0.00000000000E+00  0.45593999997E+02  0.45594000000E+02  0.51100000000E-03 0. -1.
         11   -1    0    0    0    0 -0.00000000000E+00 -0.00000000000E+00 -0.45593999997E+02  0.45594000000E+02  0.51100000000E-03 0.  1.
    9900012    2    1    2    0    0 -0.19942043610E+01 -0.12635570162E+02 -0.29207647274E+02  0.59301934961E+02  0.49999983465E+02 0.  0.
         12    1    1    2    0    0  0.19942043610E+01  0.12635570162E+02  0.29207647274E+02  0.31886065039E+02  0.00000000000E+00 0. -1.
         11    1    3    3    0    0  0.12491182723E+02  0.43881236303E+01  0.20014796603E+01  0.13389966239E+02  0.51100000000E-03 0. -1.
        -11    1    3    3    0    0  0.31998413918E+01  0.33063197345E+01  0.10239617396E+00  0.46023059825E+01  0.51100000000E-03 0.  1.
        -12    1    3    3    0    0 -0.17685228475E+02 -0.20330013527E+02 -0.31311523109E+02  0.41309662739E+02  0.00000000000E+00 0.  1.
</event>
<event>
 7    1  0.5837204E-012  0.5930193E+02  0.7816164E-02  0.1266605E+00
        -11   -1    0    0    0    0  0.00000000000E+00  0.00000000000E+00  0.45593999997E+02  0.45594000000E+02  0.51100000000E-03 0.  1.
         11   -1    0    0    0    0 -0.00000000000E+00 -0.00000000000E+00 -0.45593999997E+02  0.45594000000E+02  0.51100000000E-03 0. -1.
    9900012    2    1    2    0    0 -0.26541349936E+02  0.13706328876E+02 -0.11154132682E+02  0.59301931199E+02  0.49999976603E+02 0.  0.
         12    1    1    2    0    0  0.26541349936E+02 -0.13706328876E+02  0.11154132682E+02  0.31886068801E+02  0.00000000000E+00 0. -1.
         11    1    3    3    0    0 -0.46796054427E+01  0.11216485903E+01 -0.92255286192E+01  0.10405151667E+02  0.51100000000E-03 0. -1.
        -11    1    3    3    0    0 -0.33290272560E+02  0.15901669678E+02 -0.25436238236E+01  0.36980743206E+02  0.51100000000E-03 0.  1.
        -12    1    3    3    0    0  0.11428528067E+02 -0.33169893923E+01  0.61501976087E+00  0.11916036325E+02  0.00000000000E+00 0.  1.
</event>
<event>
 7    1  0.5837204E-012  0.5930194E+02  0.7816164E-02  0.1266605E+00
        -11   -1    0    0    0    0  0.00000000000E+00  0.00000000000E+00  0.45593999997E+02  0.45594000000E+02  0.51100000000E-03 0.  1.
         11   -1    0    0    0    0 -0.00000000000E+00 -0.00000000000E+00 -0.45593999997E+02  0.45594000000E+02  0.51100000000E-03 0. -1.
    9900012    2    1    2    0    0  0.17196084085E+02  0.80789164202E+01  0.25607547742E+02  0.59301941923E+02  0.49999996161E+02 0.  0.
         12    1    1    2    0    0 -0.17196084085E+02 -0.80789164202E+01 -0.25607547742E+02  0.31886058077E+02  0.00000000000E+00 0. -1.
         11    1    3    3    0    0  0.17130156703E+02 -0.14746235752E+02  0.11665026616E+02  0.25435537811E+02  0.51100000000E-03 0. -1.
        -11    1    3    3    0    0  0.60066483647E+01  0.48099824422E+01  0.12708742521E+02  0.14856913960E+02  0.51100000000E-03 0.  1.
         12    1    3    3    0    0 -0.59407209829E+01  0.18015169730E+02  0.12337786043E+01  0.19009490152E+02  0.00000000000E+00 0. -1.
</event>
<event>
 7    1  0.5837204E-012  0.5930196E+02  0.7816164E-02  0.1266605E+00
        -11   -1    0    0    0    0  0.00000000000E+00  0.00000000000E+00  0.45593999997E+02  0.45594000000E+02  0.51100000000E-03 0. -1.
         11   -1    0    0    0    0 -0.00000000000E+00 -0.00000000000E+00 -0.45593999997E+02  0.45594000000E+02  0.51100000000E-03 0.  1.
    9900012    2    1    2    0    0  0.24618915600E+02 -0.16928672200E+02  0.11137698407E+02  0.59301964286E+02  0.50000036946E+02 0.  0.
         12    1    1    2    0    0 -0.24618915600E+02  0.16928672200E+02 -0.11137698407E+02  0.31886035714E+02  0.00000000000E+00 0. -1.
         11    1    3    3    0    0  0.13858342161E+02 -0.19699654756E+02  0.15334353411E+02  0.28552976023E+02  0.51100000000E-03 0. -1.
        -11    1    3    3    0    0 -0.67922590833E+00 -0.87659366805E+01  0.68129881645E+01  0.11122940336E+02  0.51100000000E-03 0.  1.
         12    1    3    3    0    0  0.11439799347E+02  0.11536919236E+02 -0.11009643169E+02  0.19626047928E+02  0.00000000000E+00 0. -1.
</event>
<event>
 7    1  0.5837204E-012  0.5930195E+02  0.7816164E-02  0.1266605E+00
        -11   -1    0    0    0    0  0.00000000000E+00  0.00000000000E+00  0.45593999997E+02  0.45594000000E+02  0.51100000000E-03 0. -1.
         11   -1    0    0    0    0 -0.00000000000E+00 -0.00000000000E+00 -0.45593999997E+02  0.45594000000E+02  0.51100000000E-03 0.  1.
    9900012    2    1    2    0    0 -0.12425449739E+02 -0.29223544509E+02  0.28832083655E+01  0.59301949048E+02  0.50000009155E+02 0.  0.
         12    1    1    2    0    0  0.12425449739E+02  0.29223544509E+02 -0.28832083655E+01  0.31886050952E+02  0.00000000000E+00 0. -1.
         11    1    3    3    0    0 -0.15627845227E+02 -0.68974071787E+00  0.29013788317E+01  0.15909848777E+02  0.51100000000E-03 0.  1.
        -11    1    3    3    0    0  0.52534467543E+01 -0.32778724708E+02 -0.79767658130E+01  0.34141943257E+02  0.51100000000E-03 0. -1.
         12    1    3    3    0    0 -0.20510512659E+01  0.42449209173E+01  0.79585953469E+01  0.92501570141E+01  0.00000000000E+00 0. -1.
</event>
<event>
 7    1  0.5837204E-012  0.5930201E+02  0.7816164E-02  0.1266605E+00
        -11   -1    0    0    0    0  0.00000000000E+00  0.00000000000E+00  0.45593999997E+02  0.45594000000E+02  0.51100000000E-03 0. -1.
         11   -1    0    0    0    0 -0.00000000000E+00 -0.00000000000E+00 -0.45593999997E+02  0.45594000000E+02  0.51100000000E-03 0.  1.
    9900012    2    1    2    0    0 -0.72679497987E+01 -0.21275334304E+02 -0.22610910933E+02  0.59302011898E+02  0.50000123779E+02 0.  0.
         12    1    1    2    0    0  0.72679497987E+01  0.21275334304E+02  0.22610910933E+02  0.31885988102E+02  0.00000000000E+00 0. -1.
         11    1    3    3    0    0 -0.18236007616E+01 -0.41809605166E+01 -0.13869717363E+02  0.14600514051E+02  0.51100000000E-03 0. -1.
        -11    1    3    3    0    0  0.16339186367E+02 -0.13893385108E+02 -0.72255875106E+01  0.22631930453E+02  0.51100000000E-03 0.  1.
         12    1    3    3    0    0 -0.21783535404E+02 -0.32009886793E+01 -0.15156060597E+01  0.22069567394E+02  0.00000000000E+00 0. -1.
</event>
<event>
 7    1  0.5837204E-012  0.5930202E+02  0.7816164E-02  0.1266605E+00
        -11   -1    0    0    0    0  0.00000000000E+00  0.00000000000E+00  0.45593999997E+02  0.45594000000E+02  0.51100000000E-03 0.  1.
         11   -1    0    0    0    0 -0.00000000000E+00 -0.00000000000E+00 -0.45593999997E+02  0.45594000000E+02  0.51100000000E-03 0. -1.
    9900012    2    1    2    0    0  0.13986244684E+02  0.10508087914E+02  0.26658599181E+02  0.59302017778E+02  0.50000134503E+02 0.  0.
         12    1    1    2    0    0 -0.13986244684E+02 -0.10508087914E+02 -0.26658599181E+02  0.31885982222E+02  0.00000000000E+00 0. -1.
         11    1    3    3    0    0  0.15671990286E+02  0.16868887219E+02  0.92221906215E+01  0.24803617391E+02  0.51100000000E-03 0. -1.
        -11    1    3    3    0    0  0.48740640708E+01 -0.21081894065E+01 -0.70317365574E+01  0.88117127968E+01  0.51100000000E-03 0.  1.
        -12    1    3    3    0    0 -0.65598096734E+01 -0.42526098983E+01  0.24468145117E+02  0.25686687590E+02  0.00000000000E+00 0.  1.
</event>
<event>
 7    1  0.5837204E-012  0.5930198E+02  0.7816164E-02  0.1266605E+00
        -11   -1    0    0    0    0  0.00000000000E+00  0.00000000000E+00  0.45593999997E+02  0.45594000000E+02  0.51100000000E-03 0. -1.
         11   -1    0    0    0    0 -0.00000000000E+00 -0.00000000000E+00 -0.45593999997E+02  0.45594000000E+02  0.51100000000E-03 0.  1.
    9900012    2    1    2    0    0 -0.26573624211E+02 -0.17157493271E+02  0.40226209559E+01  0.59301975500E+02  0.50000057398E+02 0.  0.
         12    1    1    2    0    0  0.26573624211E+02  0.17157493271E+02 -0.40226209559E+01  0.31886024500E+02  0.00000000000E+00 0. -1.
         11    1    3    3    0    0  0.35600809883E+01  0.34005495132E+01  0.15609004420E+02  0.16367007451E+02  0.51100000000E-03 0. -1.
        -11    1    3    3    0    0 -0.23192248194E+02 -0.81226472766E+01  0.32654441452E-02  0.24573517982E+02  0.51100000000E-03 0.  1.
        -12    1    3    3    0    0 -0.69414570055E+01 -0.12435395507E+02 -0.11589648909E+02  0.18361450068E+02  0.00000000000E+00 0.  1.
</event>
<event>
 7    1  0.5837204E-012  0.5930193E+02  0.7816164E-02  0.1266605E+00
        -11   -1    0    0    0    0  0.00000000000E+00  0.00000000000E+00  0.45593999997E+02  0.45594000000E+02  0.51100000000E-03 0.  1.
         11   -1    0    0    0    0 -0.00000000000E+00 -0.00000000000E+00 -0.45593999997E+02  0.45594000000E+02  0.51100000000E-03 0. -1.
    9900012    2    1    2    0    0 -0.17502598559E+02 -0.26504098269E+02  0.28130173935E+01  0.59301933322E+02  0.49999980475E+02 0.  0.
         12    1    1    2    0    0  0.17502598559E+02  0.26504098269E+02 -0.28130173935E+01  0.31886066678E+02  0.00000000000E+00 0. -1.
         11    1    3    3    0    0 -0.16338413186E+01  0.18681852024E+01 -0.45941055216E+01  0.52216241927E+01  0.51100000000E-03 0. -1.
        -11    1    3    3    0    0  0.11438343802E+02 -0.57254455194E+01 -0.83361203303E+01  0.15267853082E+02  0.51100000000E-03 0.  1.
        -12    1    3    3    0    0 -0.27307101042E+02 -0.22646837952E+02  0.15743243245E+02  0.38812456047E+02  0.00000000000E+00 0.  1.
</event>
<event>
 7    1  0.5837204E-012  0.5930193E+02  0.7816164E-02  0.1266605E+00
        -11   -1    0    0    0    0  0.00000000000E+00  0.00000000000E+00  0.45593999997E+02  0.45594000000E+02  0.51100000000E-03 0. -1.
         11   -1    0    0    0    0 -0.00000000000E+00 -0.00000000000E+00 -0.45593999997E+02  0.45594000000E+02  0.51100000000E-03 0.  1.
    9900012    2    1    2    0    0 -0.25146958574E+01 -0.26413585743E+01 -0.31676822150E+02  0.59301928873E+02  0.49999972362E+02 0.  0.
         12    1    1    2    0    0  0.25146958574E+01  0.26413585743E+01  0.31676822150E+02  0.31886071127E+02  0.00000000000E+00 0. -1.
         11    1    3    3    0    0  0.13065443616E+02  0.38095267977E+01 -0.28552207401E+01  0.13905775672E+02  0.51100000000E-03 0. -1.
        -11    1    3    3    0    0  0.90231451601E+01 -0.49713656563E+01 -0.10273157397E+02  0.14548862094E+02  0.51100000000E-03 0.  1.
        -12    1    3    3    0    0 -0.24603284633E+02 -0.14795197157E+01 -0.18548444013E+02  0.30847291107E+02  0.00000000000E+00 0.  1.
</event>
<event>
 7    1  0.5837204E-012  0.5930197E+02  0.7816164E-02  0.1266605E+00
        -11   -1    0    0    0    0  0.00000000000E+00  0.00000000000E+00  0.45593999997E+02  0.45594000000E+02  0.51100000000E-03 0. -1.
         11   -1    0    0    0    0 -0.00000000000E+00 -0.00000000000E+00 -0.45593999997E+02  0.45594000000E+02  0.51100000000E-03 0.  1.
    9900012    2    1    2    0    0 -0.20392420165E+02  0.24497408802E+02 -0.86322015288E+00  0.59301968776E+02  0.50000045135E+02 0.  0.
         12    1    1    2    0    0  0.20392420165E+02 -0.24497408802E+02  0.86322015288E+00  0.31886031224E+02  0.00000000000E+00 0. -1.
         11    1    3    3    0    0  0.18337127445E+01  0.11649962512E+02  0.61048394079E+01  0.13279803968E+02  0.51100000000E-03 0. -1.
        -11    1    3    3    0    0 -0.45400020238E+01  0.23932554925E+02 -0.13032838026E+01  0.24394207356E+02  0.51100000000E-03 0.  1.
         12    1    3    3    0    0 -0.17686130886E+02 -0.11085108635E+02 -0.56647757582E+01  0.21627957452E+02  0.00000000000E+00 0. -1.
</event>
<event>
 7    1  0.5837204E-012  0.5930195E+02  0.7816164E-02  0.1266605E+00
        -11   -1    0    0    0    0  0.00000000000E+00  0.00000000000E+00  0.45593999997E+02  0.45594000000E+02  0.51100000000E-03 0.  1.
         11   -1    0    0    0    0 -0.00000000000E+00 -0.00000000000E+00 -0.45593999997E+02  0.45594000000E+02  0.51100000000E-03 0. -1.
    9900012    2    1    2    0    0 -0.11798092272E+02 -0.39538970868E+01  0.29357992656E+02  0.59301952640E+02  0.50000015707E+02 0.  0.
         12    1    1    2    0    0  0.11798092272E+02  0.39538970868E+01 -0.29357992656E+02  0.31886047360E+02  0.00000000000E+00 0. -1.
         11    1    3    3    0    0 -0.35944176541E+01 -0.16144674264E+01 -0.10163528595E+02  0.10900626455E+02  0.51100000000E-03 0. -1.
        -11    1    3    3    0    0 -0.98093243684E+01 -0.21983744748E+01  0.12891222849E+01  0.10134965783E+02  0.51100000000E-03 0.  1.
        -12    1    3    3    0    0  0.16056497502E+01 -0.14105518549E+00  0.38232398967E+02  0.38266360402E+02  0.00000000000E+00 0.  1.
</event>
<event>
 7    1  0.5837204E-012  0.5930196E+02  0.7816164E-02  0.1266605E+00
        -11   -1    0    0    0    0  0.00000000000E+00  0.00000000000E+00  0.45593999997E+02  0.45594000000E+02  0.51100000000E-03 0.  1.
         11   -1    0    0    0    0 -0.00000000000E+00 -0.00000000000E+00 -0.45593999997E+02  0.45594000000E+02  0.51100000000E-03 0. -1.
    9900012    2    1    2    0    0  0.18717365606E+02  0.95453947843E+01  0.23984690847E+02  0.59301957099E+02  0.50000023839E+02 0.  0.
         12    1    1    2    0    0 -0.18717365606E+02 -0.95453947843E+01 -0.23984690847E+02  0.31886042901E+02  0.00000000000E+00 0. -1.
         11    1    3    3    0    0  0.23102944012E+02  0.44104198551E+01  0.26663004571E+02  0.35554375797E+02  0.51100000000E-03 0.  1.
        -11    1    3    3    0    0  0.88823522084E+01  0.48283255130E+01  0.42253440381E+00  0.10118668074E+02  0.51100000000E-03 0. -1.
         12    1    3    3    0    0 -0.13267930614E+02  0.30664941618E+00 -0.31008481276E+01  0.13628913227E+02  0.00000000000E+00 0. -1.
</event>
<event>
 7    1  0.5837204E-012  0.5930195E+02  0.7816164E-02  0.1266605E+00
        -11   -1    0    0    0    0  0.00000000000E+00  0.00000000000E+00  0.45593999997E+02  0.45594000000E+02  0.51100000000E-03 0.  1.
         11   -1    0    0    0    0 -0.00000000000E+00 -0.00000000000E+00 -0.45593999997E+02  0.45594000000E+02  0.51100000000E-03 0. -1.
    9900012    2    1    2    0    0 -0.19449425008E+02 -0.17367697772E+01  0.25207611689E+02  0.59301949924E+02  0.50000010754E+02 0.  0.
         12    1    1    2    0    0  0.19449425008E+02  0.17367697772E+01 -0.25207611689E+02  0.31886050076E+02  0.00000000000E+00 0. -1.
         11    1    3    3    0    0  0.18297780305E+01 -0.53563128803E+01  0.94194817696E+00  0.57380695309E+01  0.51100000000E-03 0. -1.
        -11    1    3    3    0    0  0.35635154127E+01  0.97613008627E+01 -0.74685843399E+01  0.12796928887E+02  0.51100000000E-03 0.  1.
        -12    1    3    3    0    0 -0.24842718451E+02 -0.61417577596E+01  0.31734247852E+02  0.40766951506E+02  0.00000000000E+00 0.  1.
</event>
<event>
 7    1  0.5837204E-012  0.5930195E+02  0.7816164E-02  0.1266605E+00
        -11   -1    0    0    0    0  0.00000000000E+00  0.00000000000E+00  0.45593999997E+02  0.45594000000E+02  0.51100000000E-03 0. -1.
         11   -1    0    0    0    0 -0.00000000000E+00 -0.00000000000E+00 -0.45593999997E+02  0.45594000000E+02  0.51100000000E-03 0.  1.
    9900012    2    1    2    0    0  0.22885138568E+02 -0.16578822291E+02  0.14769333923E+02  0.59301950694E+02  0.50000012158E+02 0.  0.
         12    1    1    2    0    0 -0.22885138568E+02  0.16578822291E+02 -0.14769333923E+02  0.31886049306E+02  0.00000000000E+00 0. -1.
         11    1    3    3    0    0 -0.22602974695E+01 -0.22432641127E+00  0.15134638008E+01  0.27294394895E+01  0.51100000000E-03 0. -1.
        -11    1    3    3    0    0 -0.72098770538E+01 -0.50642052120E+01 -0.11362087077E+02  0.14377952725E+02  0.51100000000E-03 0.  1.
         12    1    3    3    0    0  0.32355313091E+02 -0.11290290668E+02  0.24617957200E+02  0.42194558479E+02  0.00000000000E+00 0. -1.
</event>
<event>
 7    1  0.5837204E-012  0.5930188E+02  0.7816164E-02  0.1266605E+00
        -11   -1    0    0    0    0  0.00000000000E+00  0.00000000000E+00  0.45593999997E+02  0.45594000000E+02  0.51100000000E-03 0.  1.
         11   -1    0    0    0    0 -0.00000000000E+00 -0.00000000000E+00 -0.45593999997E+02  0.45594000000E+02  0.51100000000E-03 0. -1.
    9900012    2    1    2    0    0  0.19262862771E+02  0.16532158941E+02  0.19296486079E+02  0.59301881760E+02  0.49999886439E+02 0.  0.
         12    1    1    2    0    0 -0.19262862771E+02 -0.16532158941E+02 -0.19296486079E+02  0.31886118240E+02  0.00000000000E+00 0. -1.
         11    1    3    3    0    0 -0.32668641116E+01  0.68600639471E+01  0.18697794848E+02  0.20182676010E+02  0.51100000000E-03 0. -1.
        -11    1    3    3    0    0  0.47676507063E+01  0.12134479294E+02  0.12123394727E+02  0.17803167723E+02  0.51100000000E-03 0.  1.
         12    1    3    3    0    0  0.17762076176E+02 -0.24623842997E+01 -0.11524703496E+02  0.21316038028E+02  0.00000000000E+00 0. -1.
</event>
<event>
 7    1  0.5837204E-012  0.5930195E+02  0.7816164E-02  0.1266605E+00
        -11   -1    0    0    0    0  0.00000000000E+00  0.00000000000E+00  0.45593999997E+02  0.45594000000E+02  0.51100000000E-03 0.  1.
         11   -1    0    0    0    0 -0.00000000000E+00 -0.00000000000E+00 -0.45593999997E+02  0.45594000000E+02  0.51100000000E-03 0. -1.
    9900012    2    1    2    0    0 -0.18927274263E+02 -0.22903937698E+02 -0.11571005547E+02  0.59301949093E+02  0.50000009237E+02 0.  0.
         12    1    1    2    0    0  0.18927274263E+02  0.22903937698E+02  0.11571005547E+02  0.31886050907E+02  0.00000000000E+00 0. -1.
         11    1    3    3    0    0 -0.62640689309E+01 -0.23234669656E+01 -0.24610514920E+02  0.25501264738E+02  0.51100000000E-03 0. -1.
        -11    1    3    3    0    0 -0.10190389098E+02  0.45039407043E-01  0.24354937862E+01  0.10477484849E+02  0.51100000000E-03 0.  1.
        -12    1    3    3    0    0 -0.24728162346E+01 -0.20625510139E+02  0.10604015587E+02  0.23323199506E+02  0.00000000000E+00 0.  1.
</event>
<event>
 7    1  0.5837204E-012  0.5930197E+02  0.7816164E-02  0.1266605E+00
        -11   -1    0    0    0    0  0.00000000000E+00  0.00000000000E+00  0.45593999997E+02  0.45594000000E+02  0.51100000000E-03 0.  1.
         11   -1    0    0    0    0 -0.00000000000E+00 -0.00000000000E+00 -0.45593999997E+02  0.45594000000E+02  0.51100000000E-03 0. -1.
    9900012    2    1    2    0    0 -0.26831975403E+02 -0.16276459486E+02  0.56427451142E+01  0.59301974693E+02  0.50000055926E+02 0.  0.
         12    1    1    2    0    0  0.26831975403E+02  0.16276459486E+02 -0.56427451142E+01  0.31886025307E+02  0.00000000000E+00 0. -1.
         11    1    3    3    0    0  0.19827228950E+01 -0.14197943470E+01 -0.13956799230E+00  0.24426390548E+01  0.51100000000E-03 0. -1.
        -11    1    3    3    0    0 -0.20076322746E+02 -0.31736878290E+02  0.35700332158E+01  0.37723113816E+02  0.51100000000E-03 0.  1.
        -12    1    3    3    0    0 -0.87383755525E+01  0.16880213151E+02  0.22122798907E+01  0.19136221822E+02  0.00000000000E+00 0.  1.
</event>
<event>
 7    1  0.5837204E-012  0.5930192E+02  0.7816164E-02  0.1266605E+00
        -11   -1    0    0    0    0  0.00000000000E+00  0.00000000000E+00  0.45593999997E+02  0.45594000000E+02  0.51100000000E-03 0. -1.
         11   -1    0    0    0    0 -0.00000000000E+00 -0.00000000000E+00 -0.45593999997E+02  0.45594000000E+02  0.51100000000E-03 0.  1.
    9900012    2    1    2    0    0  0.22580574263E+02 -0.18783551143E+02 -0.12410390029E+02  0.59301922971E+02  0.49999961598E+02 0.  0.
         12    1    1    2    0    0 -0.22580574263E+02  0.18783551143E+02  0.12410390029E+02  0.31886077029E+02  0.00000000000E+00 0. -1.
         11    1    3    3    0    0 -0.57857817009E+01  0.68229612893E+01  0.41853654528E+01  0.98765051957E+01  0.51100000000E-03 0. -1.
        -11    1    3    3    0    0  0.76936208232E+01  0.73187752842E+00  0.53431559773E+01  0.93955714114E+01  0.51100000000E-03 0.  1.
        -12    1    3    3    0    0  0.20672735141E+02 -0.26338389961E+02 -0.21938911459E+02  0.40029846364E+02  0.00000000000E+00 0.  1.
</event>
<event>
 7    1  0.5837204E-012  0.5930195E+02  0.7816164E-02  0.1266605E+00
        -11   -1    0    0    0    0  0.00000000000E+00  0.00000000000E+00  0.45593999997E+02  0.45594000000E+02  0.51100000000E-03 0. -1.
         11   -1    0    0    0    0 -0.00000000000E+00 -0.00000000000E+00 -0.45593999997E+02  0.45594000000E+02  0.51100000000E-03 0.  1.
    9900012    2    1    2    0    0 -0.10458853902E+01  0.22599293947E+02 -0.22469944912E+02  0.59301946819E+02  0.50000005090E+02 0.  0.
         12    1    1    2    0    0  0.10458853902E+01 -0.22599293947E+02  0.22469944912E+02  0.31886053181E+02  0.00000000000E+00 0. -1.
         11    1    3    3    0    0 -0.32830408059E+01  0.26702588967E+01 -0.14549794697E+02  0.15152727989E+02  0.51100000000E-03 0. -1.
        -11    1    3    3    0    0  0.12320055248E+02  0.21863280370E+02 -0.17107513979E+02  0.30371924941E+02  0.51100000000E-03 0.  1.
        -12    1    3    3    0    0 -0.10082899832E+02 -0.19342453200E+01  0.91873637639E+01  0.13777293889E+02  0.00000000000E+00 0.  1.
</event>
<event>
 7    1  0.5837204E-012  0.5930200E+02  0.7816164E-02  0.1266605E+00
        -11   -1    0    0    0    0  0.00000000000E+00  0.00000000000E+00  0.45593999997E+02  0.45594000000E+02  0.51100000000E-03 0.  1.
         11   -1    0    0    0    0 -0.00000000000E+00 -0.00000000000E+00 -0.45593999997E+02  0.45594000000E+02  0.51100000000E-03 0. -1.
    9900012    2    1    2    0    0 -0.13109565003E+02 -0.28808353681E+02  0.38645534423E+01  0.59302004489E+02  0.50000110267E+02 0.  0.
         12    1    1    2    0    0  0.13109565003E+02  0.28808353681E+02 -0.38645534423E+01  0.31885995511E+02  0.00000000000E+00 0. -1.
         11    1    3    3    0    0 -0.15242781360E+02 -0.17408385271E+02  0.47643762464E+01  0.23624003526E+02  0.51100000000E-03 0. -1.
        -11    1    3    3    0    0 -0.15153736314E+02 -0.66881174595E+01  0.41235008656E+01  0.17069560600E+02  0.51100000000E-03 0.  1.
         12    1    3    3    0    0  0.17286952671E+02 -0.47118509510E+01 -0.50233236698E+01  0.18608440363E+02  0.00000000000E+00 0. -1.
</event>
<event>
 7    1  0.5837204E-012  0.5930219E+02  0.7816164E-02  0.1266604E+00
        -11   -1    0    0    0    0  0.00000000000E+00  0.00000000000E+00  0.45593999997E+02  0.45594000000E+02  0.51100000000E-03 0. -1.
         11   -1    0    0    0    0 -0.00000000000E+00 -0.00000000000E+00 -0.45593999997E+02  0.45594000000E+02  0.51100000000E-03 0.  1.
    9900012    2    1    2    0    0  0.13697698286E+02 -0.20449266424E+02 -0.20270808907E+02  0.59302186080E+02  0.50000441444E+02 0.  0.
         12    1    1    2    0    0 -0.13697698286E+02  0.20449266424E+02  0.20270808907E+02  0.31885813920E+02  0.00000000000E+00 0. -1.
         11    1    3    3    0    0  0.15740490084E+02 -0.49545781392E+01  0.41836563551E+01  0.17023920036E+02  0.51100000000E-03 0. -1.
        -11    1    3    3    0    0 -0.59547864964E+01 -0.24103933459E+02 -0.15594132719E+02  0.29319550916E+02  0.51100000000E-03 0.  1.
         12    1    3    3    0    0  0.39119946974E+01  0.86092451748E+01 -0.88603325429E+01  0.12958715128E+02  0.00000000000E+00 0. -1.
</event>
<event>
 7    1  0.5837204E-012  0.5930195E+02  0.7816164E-02  0.1266605E+00
        -11   -1    0    0    0    0  0.00000000000E+00  0.00000000000E+00  0.45593999997E+02  0.45594000000E+02  0.51100000000E-03 0. -1.
         11   -1    0    0    0    0 -0.00000000000E+00 -0.00000000000E+00 -0.45593999997E+02  0.45594000000E+02  0.51100000000E-03 0.  1.
    9900012    2    1    2    0    0  0.24092254217E+02  0.20798790393E+02  0.19219497808E+01  0.59301948409E+02  0.50000007991E+02 0.  0.
         12    1    1    2    0    0 -0.24092254217E+02 -0.20798790393E+02 -0.19219497808E+01  0.31886051591E+02  0.00000000000E+00 0. -1.
         11    1    3    3    0    0  0.69914419702E+01  0.10944489460E+02  0.18590682769E+01  0.13119384341E+02  0.51100000000E-03 0.  1.
        -11    1    3    3    0    0  0.28868316687E+02  0.91171083209E+01  0.87779724259E+01  0.31520694356E+02  0.51100000000E-03 0. -1.
         12    1    3    3    0    0 -0.11767504440E+02  0.73719261203E+00 -0.87150909220E+01  0.14661869713E+02  0.00000000000E+00 0. -1.
</event>
<event>
 7    1  0.5837204E-012  0.5930201E+02  0.7816164E-02  0.1266605E+00
        -11   -1    0    0    0    0  0.00000000000E+00  0.00000000000E+00  0.45593999997E+02  0.45594000000E+02  0.51100000000E-03 0.  1.
         11   -1    0    0    0    0 -0.00000000000E+00 -0.00000000000E+00 -0.45593999997E+02  0.45594000000E+02  0.51100000000E-03 0. -1.
    9900012    2    1    2    0    0  0.20377293526E+02  0.24207655547E+02  0.39334315456E+01  0.59302006801E+02  0.50000114484E+02 0.  0.
         12    1    1    2    0    0 -0.20377293526E+02 -0.24207655547E+02 -0.39334315456E+01  0.31885993199E+02  0.00000000000E+00 0. -1.
         11    1    3    3    0    0  0.51223547335E+01  0.55988369837E+00  0.16732205460E+02  0.17507675106E+02  0.51100000000E-03 0. -1.
        -11    1    3    3    0    0  0.80746332534E+01  0.14435127835E+02  0.76665227635E+01  0.18230419340E+02  0.51100000000E-03 0.  1.
         12    1    3    3    0    0  0.71803055388E+01  0.92126440143E+01 -0.20465296678E+02  0.23563912355E+02  0.00000000000E+00 0. -1.
</event>
<event>
 7    1  0.5837204E-012  0.5930195E+02  0.7816164E-02  0.1266605E+00
        -11   -1    0    0    0    0  0.00000000000E+00  0.00000000000E+00  0.45593999997E+02  0.45594000000E+02  0.51100000000E-03 0.  1.
         11   -1    0    0    0    0 -0.00000000000E+00 -0.00000000000E+00 -0.45593999997E+02  0.45594000000E+02  0.51100000000E-03 0. -1.
    9900012    2    1    2    0    0 -0.24995122477E+02 -0.82159065158E+00  0.19781021980E+02  0.59301953060E+02  0.50000016474E+02 0.  0.
         12    1    1    2    0    0  0.24995122477E+02  0.82159065158E+00 -0.19781021980E+02  0.31886046940E+02  0.00000000000E+00 0. -1.
         11    1    3    3    0    0 -0.73014646611E-01 -0.59083377716E+01 -0.12281342261E+02  0.13628835400E+02  0.51100000000E-03 0. -1.
        -11    1    3    3    0    0  0.23553600204E+01 -0.31205102001E+01  0.53169568191E+01  0.65996465672E+01  0.51100000000E-03 0.  1.
        -12    1    3    3    0    0 -0.27277467851E+02  0.82072573202E+01  0.26745407422E+02  0.39073471093E+02  0.00000000000E+00 0.  1.
</event>
<event>
 7    1  0.5837204E-012  0.5930192E+02  0.7816164E-02  0.1266605E+00
        -11   -1    0    0    0    0  0.00000000000E+00  0.00000000000E+00  0.45593999997E+02  0.45594000000E+02  0.51100000000E-03 0. -1.
         11   -1    0    0    0    0 -0.00000000000E+00 -0.00000000000E+00 -0.45593999997E+02  0.45594000000E+02  0.51100000000E-03 0.  1.
    9900012    2    1    2    0    0  0.16382890353E+02  0.76707044785E+01 -0.26258010425E+02  0.59301922866E+02  0.49999961406E+02 0.  0.
         12    1    1    2    0    0 -0.16382890353E+02 -0.76707044785E+01  0.26258010425E+02  0.31886077134E+02  0.00000000000E+00 0. -1.
         11    1    3    3    0    0  0.83077764205E+01  0.13511353154E+02  0.27742419225E+01  0.16101932543E+02  0.51100000000E-03 0. -1.
        -11    1    3    3    0    0 -0.10250452911E+02 -0.17063026942E+00 -0.18910626251E+02  0.21510757426E+02  0.51100000000E-03 0.  1.
         12    1    3    3    0    0  0.18325566843E+02 -0.56700184063E+01 -0.10121626097E+02  0.21689232898E+02  0.00000000000E+00 0. -1.
</event>
<event>
 7    1  0.5837204E-012  0.5930190E+02  0.7816164E-02  0.1266605E+00
        -11   -1    0    0    0    0  0.00000000000E+00  0.00000000000E+00  0.45593999997E+02  0.45594000000E+02  0.51100000000E-03 0. -1.
         11   -1    0    0    0    0 -0.00000000000E+00 -0.00000000000E+00 -0.45593999997E+02  0.45594000000E+02  0.51100000000E-03 0.  1.
    9900012    2    1    2    0    0 -0.25243402985E+01  0.10704184817E+02 -0.29929437746E+02  0.59301904122E+02  0.49999927222E+02 0.  0.
         12    1    1    2    0    0  0.25243402985E+01 -0.10704184817E+02  0.29929437746E+02  0.31886095878E+02  0.00000000000E+00 0. -1.
         11    1    3    3    0    0  0.35412866390E+01 -0.15229782090E+01  0.38514908159E+01  0.54492343912E+01  0.51100000000E-03 0. -1.
        -11    1    3    3    0    0 -0.11873057884E+02 -0.10555474672E+02 -0.49279553474E+01  0.16633469068E+02  0.51100000000E-03 0.  1.
        -12    1    3    3    0    0  0.58074309467E+01  0.22782637697E+02 -0.28852973215E+02  0.37219200663E+02  0.00000000000E+00 0.  1.
</event>
<event>
 7    1  0.5837204E-012  0.5930185E+02  0.7816164E-02  0.1266605E+00
        -11   -1    0    0    0    0  0.00000000000E+00  0.00000000000E+00  0.45593999997E+02  0.45594000000E+02  0.51100000000E-03 0.  1.
         11   -1    0    0    0    0 -0.00000000000E+00 -0.00000000000E+00 -0.45593999997E+02  0.45594000000E+02  0.51100000000E-03 0. -1.
    9900012    2    1    2    0    0  0.92881983169E+00 -0.29681161713E+02  0.11614333096E+02  0.59301846262E+02  0.49999821699E+02 0.  0.
         12    1    1    2    0    0 -0.92881983169E+00  0.29681161713E+02 -0.11614333096E+02  0.31886153738E+02  0.00000000000E+00 0. -1.
         11    1    3    3    0    0  0.15135977269E+02 -0.12235900720E+02  0.98509699531E+00  0.19488085864E+02  0.51100000000E-03 0. -1.
        -11    1    3    3    0    0  0.40580558911E+01 -0.88286016120E+01  0.16176250664E+02  0.18870164542E+02  0.51100000000E-03 0.  1.
        -12    1    3    3    0    0 -0.18265213328E+02 -0.86166593810E+01 -0.55470145635E+01  0.20943595856E+02  0.00000000000E+00 0.  1.
</event>
<event>
 7    1  0.5837204E-012  0.5930196E+02  0.7816164E-02  0.1266605E+00
        -11   -1    0    0    0    0  0.00000000000E+00  0.00000000000E+00  0.45593999997E+02  0.45594000000E+02  0.51100000000E-03 0.  1.
         11   -1    0    0    0    0 -0.00000000000E+00 -0.00000000000E+00 -0.45593999997E+02  0.45594000000E+02  0.51100000000E-03 0. -1.
    9900012    2    1    2    0    0  0.16966331962E+02 -0.26758547131E+02  0.35837510084E+01  0.59301960169E+02  0.50000029438E+02 0.  0.
         12    1    1    2    0    0 -0.16966331962E+02  0.26758547131E+02 -0.35837510084E+01  0.31886039831E+02  0.00000000000E+00 0. -1.
         11    1    3    3    0    0 -0.97122555040E+01 -0.28010358571E+01  0.51986356393E+01  0.11366596747E+02  0.51100000000E-03 0. -1.
        -11    1    3    3    0    0  0.25049721077E+02 -0.12641307713E+02  0.11687058650E+02  0.30395370155E+02  0.51100000000E-03 0.  1.
         12    1    3    3    0    0  0.16288663894E+01 -0.11316203561E+02 -0.13301943280E+02  0.17539993266E+02  0.00000000000E+00 0. -1.
</event>
<event>
 7    1  0.5837204E-012  0.5930193E+02  0.7816164E-02  0.1266605E+00
        -11   -1    0    0    0    0  0.00000000000E+00  0.00000000000E+00  0.45593999997E+02  0.45594000000E+02  0.51100000000E-03 0. -1.
         11   -1    0    0    0    0 -0.00000000000E+00 -0.00000000000E+00 -0.45593999997E+02  0.45594000000E+02  0.51100000000E-03 0.  1.
    9900012    2    1    2    0    0 -0.16293795267E+02 -0.70488475698E+01 -0.26486735398E+02  0.59301934575E+02  0.49999982760E+02 0.  0.
         12    1    1    2    0    0  0.16293795267E+02  0.70488475698E+01  0.26486735398E+02  0.31886065425E+02  0.00000000000E+00 0. -1.
         11    1    3    3    0    0 -0.76264517187E+00  0.14531236777E+02 -0.21475959208E+01  0.14708862581E+02  0.51100000000E-03 0. -1.
        -11    1    3    3    0    0 -0.32014397878E+01  0.29219674559E+01 -0.15005759837E+02  0.15619216981E+02  0.51100000000E-03 0.  1.
        -12    1    3    3    0    0 -0.12329710307E+02 -0.24502051803E+02 -0.93333796398E+01  0.28973855013E+02  0.00000000000E+00 0.  1.
</event>
<event>
 7    1  0.5837204E-012  0.5930195E+02  0.7816164E-02  0.1266605E+00
        -11   -1    0    0    0    0  0.00000000000E+00  0.00000000000E+00  0.45593999997E+02  0.45594000000E+02  0.51100000000E-03 0. -1.
         11   -1    0    0    0    0 -0.00000000000E+00 -0.00000000000E+00 -0.45593999997E+02  0.45594000000E+02  0.51100000000E-03 0.  1.
    9900012    2    1    2    0    0 -0.34065661908E+01 -0.50746259680E+01 -0.31294785975E+02  0.59301950525E+02  0.50000011849E+02 0.  0.
         12    1    1    2    0    0  0.34065661908E+01  0.50746259680E+01  0.31294785975E+02  0.31886049475E+02  0.00000000000E+00 0. -1.
         11    1    3    3    0    0  0.29680247353E+01 -0.70674945439E+01 -0.31913843270E+02  0.32821517979E+02  0.51100000000E-03 0. -1.
        -11    1    3    3    0    0 -0.12128711456E+02 -0.95511978593E-01 -0.89828482686E+01  0.15093254367E+02  0.51100000000E-03 0.  1.
         12    1    3    3    0    0  0.57541205294E+01  0.20883805545E+01  0.96019055636E+01  0.11387178178E+02  0.00000000000E+00 0. -1.
</event>
<event>
 7    1  0.5837204E-012  0.5930194E+02  0.7816164E-02  0.1266605E+00
        -11   -1    0    0    0    0  0.00000000000E+00  0.00000000000E+00  0.45593999997E+02  0.45594000000E+02  0.51100000000E-03 0. -1.
         11   -1    0    0    0    0 -0.00000000000E+00 -0.00000000000E+00 -0.45593999997E+02  0.45594000000E+02  0.51100000000E-03 0.  1.
    9900012    2    1    2    0    0 -0.28702763447E+01  0.19107000542E+02 -0.25365421471E+02  0.59301944076E+02  0.50000000088E+02 0.  0.
         12    1    1    2    0    0  0.28702763447E+01 -0.19107000542E+02  0.25365421471E+02  0.31886055924E+02  0.00000000000E+00 0. -1.
         11    1    3    3    0    0 -0.29581324868E+01 -0.31303823899E+01  0.64603083066E+01  0.77643689630E+01  0.51100000000E-03 0. -1.
        -11    1    3    3    0    0  0.45154146694E+01 -0.64208390291E+01 -0.17529587248E+02  0.19206836617E+02  0.51100000000E-03 0.  1.
         12    1    3    3    0    0 -0.44275585274E+01  0.28658221961E+02 -0.14296142530E+02  0.32330738496E+02  0.00000000000E+00 0. -1.
</event>
<event>
 7    1  0.5837204E-012  0.5930200E+02  0.7816164E-02  0.1266605E+00
        -11   -1    0    0    0    0  0.00000000000E+00  0.00000000000E+00  0.45593999997E+02  0.45594000000E+02  0.51100000000E-03 0. -1.
         11   -1    0    0    0    0 -0.00000000000E+00 -0.00000000000E+00 -0.45593999997E+02  0.45594000000E+02  0.51100000000E-03 0.  1.
    9900012    2    1    2    0    0 -0.31088928145E+02 -0.67976329314E+01 -0.19970014568E+01  0.59301995523E+02  0.50000093916E+02 0.  0.
         12    1    1    2    0    0  0.31088928145E+02  0.67976329314E+01  0.19970014568E+01  0.31886004477E+02  0.00000000000E+00 0. -1.
         11    1    3    3    0    0  0.36094938481E+01  0.70570527987E+01  0.29637590512E+01  0.84625237381E+01  0.51100000000E-03 0. -1.
        -11    1    3    3    0    0 -0.20712757307E+02  0.99481738159E+01 -0.17153136249E+01  0.23041848420E+02  0.51100000000E-03 0.  1.
        -12    1    3    3    0    0 -0.13985664686E+02 -0.23802859546E+02 -0.32454468831E+01  0.27797623365E+02  0.00000000000E+00 0.  1.
</event>
<event>
 7    1  0.5837204E-012  0.5930191E+02  0.7816164E-02  0.1266605E+00
        -11   -1    0    0    0    0  0.00000000000E+00  0.00000000000E+00  0.45593999997E+02  0.45594000000E+02  0.51100000000E-03 0. -1.
         11   -1    0    0    0    0 -0.00000000000E+00 -0.00000000000E+00 -0.45593999997E+02  0.45594000000E+02  0.51100000000E-03 0.  1.
    9900012    2    1    2    0    0 -0.26967772868E+02 -0.13232693670E+02 -0.10693821037E+02  0.59301909559E+02  0.49999937138E+02 0.  0.
         12    1    1    2    0    0  0.26967772868E+02  0.13232693670E+02  0.10693821037E+02  0.31886090441E+02  0.00000000000E+00 0. -1.
         11    1    3    3    0    0 -0.21156587773E+01 -0.50619769999E+01 -0.35834437296E+01  0.65529148044E+01  0.51100000000E-03 0. -1.
        -11    1    3    3    0    0 -0.30533581986E+02 -0.21516925212E+02 -0.21355326994E+01  0.37414411658E+02  0.51100000000E-03 0.  1.
        -12    1    3    3    0    0  0.56814678962E+01  0.13346208542E+02 -0.49748446081E+01  0.15334583097E+02  0.00000000000E+00 0.  1.
</event>
<event>
 7    1  0.5837204E-012  0.5930186E+02  0.7816164E-02  0.1266605E+00
        -11   -1    0    0    0    0  0.00000000000E+00  0.00000000000E+00  0.45593999997E+02  0.45594000000E+02  0.51100000000E-03 0. -1.
         11   -1    0    0    0    0 -0.00000000000E+00 -0.00000000000E+00 -0.45593999997E+02  0.45594000000E+02  0.51100000000E-03 0.  1.
    9900012    2    1    2    0    0  0.90110034914E+01 -0.37777963392E+01 -0.30352195712E+02  0.59301863300E+02  0.49999852772E+02 0.  0.
         12    1    1    2    0    0 -0.90110034914E+01  0.37777963392E+01  0.30352195712E+02  0.31886136700E+02  0.00000000000E+00 0. -1.
         11    1    3    3    0    0 -0.16316871991E+01 -0.19707426198E+02 -0.37562440743E+01  0.20128448034E+02  0.51100000000E-03 0. -1.
        -11    1    3    3    0    0 -0.54373980414E+01  0.63113014971E+00 -0.15099783184E+01  0.56783498932E+01  0.51100000000E-03 0.  1.
        -12    1    3    3    0    0  0.16080088732E+02  0.15298499709E+02 -0.25085973319E+02  0.33495065373E+02  0.00000000000E+00 0.  1.
</event>
<event>
 7    1  0.5837204E-012  0.5930172E+02  0.7816164E-02  0.1266606E+00
        -11   -1    0    0    0    0  0.00000000000E+00  0.00000000000E+00  0.45593999997E+02  0.45594000000E+02  0.51100000000E-03 0.  1.
         11   -1    0    0    0    0 -0.00000000000E+00 -0.00000000000E+00 -0.45593999997E+02  0.45594000000E+02  0.51100000000E-03 0. -1.
    9900012    2    1    2    0    0 -0.40703010822E+00  0.21700318087E+02  0.23359474918E+02  0.59301724786E+02  0.49999600154E+02 0.  0.
         12    1    1    2    0    0  0.40703010822E+00 -0.21700318087E+02 -0.23359474918E+02  0.31886275214E+02  0.00000000000E+00 0. -1.
         11    1    3    3    0    0  0.13217723837E+02  0.94421635831E+01  0.84580783806E+00  0.16265855887E+02  0.51100000000E-03 0. -1.
        -11    1    3    3    0    0 -0.21660309183E+02  0.13859126157E+02  0.90226091588E+01  0.27251639364E+02  0.51100000000E-03 0.  1.
         12    1    3    3    0    0  0.80355552376E+01 -0.16009716529E+01  0.13491057921E+02  0.15784229536E+02  0.00000000000E+00 0. -1.
</event>
<event>
 7    1  0.5837204E-012  0.5930202E+02  0.7816164E-02  0.1266604E+00
        -11   -1    0    0    0    0  0.00000000000E+00  0.00000000000E+00  0.45593999997E+02  0.45594000000E+02  0.51100000000E-03 0. -1.
         11   -1    0    0    0    0 -0.00000000000E+00 -0.00000000000E+00 -0.45593999997E+02  0.45594000000E+02  0.51100000000E-03 0.  1.
    9900012    2    1    2    0    0  0.74246542731E+01  0.30977107481E+02 -0.14173080992E+01  0.59302024380E+02  0.50000146544E+02 0.  0.
         12    1    1    2    0    0 -0.74246542731E+01 -0.30977107481E+02  0.14173080992E+01  0.31885975620E+02  0.00000000000E+00 0. -1.
         11    1    3    3    0    0  0.12514564190E+02  0.24304683011E+02  0.61199674290E+01  0.28014031033E+02  0.51100000000E-03 0. -1.
        -11    1    3    3    0    0  0.64747080720E+01  0.78552686859E+01 -0.14515610422E+02  0.17729355232E+02  0.51100000000E-03 0.  1.
         12    1    3    3    0    0 -0.11564617989E+02 -0.11828442157E+01  0.69783348938E+01  0.13558638116E+02  0.00000000000E+00 0. -1.
</event>
<event>
 7    1  0.5837204E-012  0.5930193E+02  0.7816164E-02  0.1266605E+00
        -11   -1    0    0    0    0  0.00000000000E+00  0.00000000000E+00  0.45593999997E+02  0.45594000000E+02  0.51100000000E-03 0. -1.
         11   -1    0    0    0    0 -0.00000000000E+00 -0.00000000000E+00 -0.45593999997E+02  0.45594000000E+02  0.51100000000E-03 0.  1.
    9900012    2    1    2    0    0 -0.68704405373E+01  0.55598961029E+01 -0.30636678386E+02  0.59301929995E+02  0.49999974408E+02 0.  0.
         12    1    1    2    0    0  0.68704405373E+01 -0.55598961029E+01  0.30636678386E+02  0.31886070005E+02  0.00000000000E+00 0. -1.
         11    1    3    3    0    0 -0.12221487503E+02 -0.12281337182E+01 -0.74978218386E+01  0.14390635907E+02  0.51100000000E-03 0.  1.
        -11    1    3    3    0    0 -0.88303560600E+01 -0.10568074973E+02 -0.16589582930E+02  0.21560928988E+02  0.51100000000E-03 0. -1.
         12    1    3    3    0    0  0.14181403026E+02  0.17356104794E+02 -0.65492736165E+01  0.23350365100E+02  0.00000000000E+00 0. -1.
</event>
<event>
 7    1  0.5837204E-012  0.5930195E+02  0.7816164E-02  0.1266605E+00
        -11   -1    0    0    0    0  0.00000000000E+00  0.00000000000E+00  0.45593999997E+02  0.45594000000E+02  0.51100000000E-03 0.  1.
         11   -1    0    0    0    0 -0.00000000000E+00 -0.00000000000E+00 -0.45593999997E+02  0.45594000000E+02  0.51100000000E-03 0. -1.
    9900012    2    1    2    0    0 -0.22637069370E+01 -0.98876113095E+01  0.30229634327E+02  0.59301952612E+02  0.50000015655E+02 0.  0.
         12    1    1    2    0    0  0.22637069370E+01  0.98876113095E+01 -0.30229634327E+02  0.31886047388E+02  0.00000000000E+00 0. -1.
         11    1    3    3    0    0 -0.16581035922E+01 -0.64657540716E+01 -0.63078305185E+01  0.91838994631E+01  0.51100000000E-03 0. -1.
        -11    1    3    3    0    0 -0.13311537061E+02  0.51527345164E+01  0.51269027081E+01  0.15166833011E+02  0.51100000000E-03 0.  1.
        -12    1    3    3    0    0  0.12705933717E+02 -0.85745917543E+01  0.31410562137E+02  0.34951220138E+02  0.00000000000E+00 0.  1.
</event>
<event>
 7    1  0.5837204E-012  0.5930188E+02  0.7816164E-02  0.1266605E+00
        -11   -1    0    0    0    0  0.00000000000E+00  0.00000000000E+00  0.45593999997E+02  0.45594000000E+02  0.51100000000E-03 0. -1.
         11   -1    0    0    0    0 -0.00000000000E+00 -0.00000000000E+00 -0.45593999997E+02  0.45594000000E+02  0.51100000000E-03 0.  1.
    9900012    2    1    2    0    0 -0.30389979703E+02 -0.14977043889E+00  0.96514819553E+01  0.59301883876E+02  0.49999890298E+02 0.  0.
         12    1    1    2    0    0  0.30389979703E+02  0.14977043889E+00 -0.96514819553E+01  0.31886116124E+02  0.00000000000E+00 0. -1.
         11    1    3    3    0    0 -0.40126963507E+01 -0.92397097571E+01  0.44096061700E+01  0.10996299161E+02  0.51100000000E-03 0. -1.
        -11    1    3    3    0    0 -0.23767516685E+02  0.18475285346E+02  0.15751526882E+02  0.33975603267E+02  0.51100000000E-03 0.  1.
         12    1    3    3    0    0 -0.26097666671E+01 -0.93853460279E+01 -0.10509651097E+02  0.14329981448E+02  0.00000000000E+00 0. -1.
</event>
<event>
 7    1  0.5837204E-012  0.5930210E+02  0.7816164E-02  0.1266604E+00
        -11   -1    0    0    0    0  0.00000000000E+00  0.00000000000E+00  0.45593999997E+02  0.45594000000E+02  0.51100000000E-03 0.  1.
         11   -1    0    0    0    0 -0.00000000000E+00 -0.00000000000E+00 -0.45593999997E+02  0.45594000000E+02  0.51100000000E-03 0. -1.
    9900012    2    1    2    0    0  0.23932989514E+02 -0.19246013432E+02  0.85739903160E+01  0.59302104528E+02  0.50000292713E+02 0.  0.
         12    1    1    2    0    0 -0.23932989514E+02  0.19246013432E+02 -0.85739903160E+01  0.31885895472E+02  0.00000000000E+00 0. -1.
         11    1    3    3    0    0  0.30564846488E+01  0.20627254816E+00  0.16227137786E+02  0.16513771457E+02  0.51100000000E-03 0. -1.
        -11    1    3    3    0    0  0.83886850493E+01 -0.10141064715E+02  0.11931460431E+02  0.17764317569E+02  0.51100000000E-03 0.  1.
        -12    1    3    3    0    0  0.12487819816E+02 -0.93112212653E+01 -0.19584607900E+02  0.25024015502E+02  0.00000000000E+00 0.  1.
</event>
<event>
 7    1  0.5837204E-012  0.5930201E+02  0.7816164E-02  0.1266605E+00
        -11   -1    0    0    0    0  0.00000000000E+00  0.00000000000E+00  0.45593999997E+02  0.45594000000E+02  0.51100000000E-03 0.  1.
         11   -1    0    0    0    0 -0.00000000000E+00 -0.00000000000E+00 -0.45593999997E+02  0.45594000000E+02  0.51100000000E-03 0. -1.
    9900012    2    1    2    0    0  0.31330425469E+02  0.59187100332E+01  0.29947882315E+00  0.59302009721E+02  0.50000119808E+02 0.  0.
         12    1    1    2    0    0 -0.31330425469E+02 -0.59187100332E+01 -0.29947882315E+00  0.31885990279E+02  0.00000000000E+00 0. -1.
         11    1    3    3    0    0  0.55886842853E+00  0.51749383383E+01 -0.45180884980E+01  0.68924193621E+01  0.51100000000E-03 0. -1.
        -11    1    3    3    0    0  0.29121494152E+02  0.16680921346E+02 -0.45220016574E+01  0.33863890176E+02  0.51100000000E-03 0.  1.
         12    1    3    3    0    0  0.16500628879E+01 -0.15937149652E+02  0.93395689785E+01  0.18545700182E+02  0.00000000000E+00 0. -1.
</event>
<event>
 7    1  0.5837204E-012  0.5930196E+02  0.7816164E-02  0.1266605E+00
        -11   -1    0    0    0    0  0.00000000000E+00  0.00000000000E+00  0.45593999997E+02  0.45594000000E+02  0.51100000000E-03 0. -1.
         11   -1    0    0    0    0 -0.00000000000E+00 -0.00000000000E+00 -0.45593999997E+02  0.45594000000E+02  0.51100000000E-03 0.  1.
    9900012    2    1    2    0    0 -0.74554197709E+01 -0.69637160779E+01 -0.30209981139E+02  0.59301959386E+02  0.50000028010E+02 0.  0.
         12    1    1    2    0    0  0.74554197709E+01  0.69637160779E+01  0.30209981139E+02  0.31886040614E+02  0.00000000000E+00 0. -1.
         11    1    3    3    0    0 -0.10537803342E+02  0.76732045824E+01 -0.40687091887E+01  0.13655686089E+02  0.51100000000E-03 0. -1.
        -11    1    3    3    0    0 -0.14515736396E+00  0.10239105474E+02 -0.12643632758E+01  0.10317895441E+02  0.51100000000E-03 0.  1.
         12    1    3    3    0    0  0.32275409355E+01 -0.24876026134E+02 -0.24876908675E+02  0.35328377856E+02  0.00000000000E+00 0. -1.
</event>
<event>
 7    1  0.5837204E-012  0.5930193E+02  0.7816164E-02  0.1266605E+00
        -11   -1    0    0    0    0  0.00000000000E+00  0.00000000000E+00  0.45593999997E+02  0.45594000000E+02  0.51100000000E-03 0.  1.
         11   -1    0    0    0    0 -0.00000000000E+00 -0.00000000000E+00 -0.45593999997E+02  0.45594000000E+02  0.51100000000E-03 0. -1.
    9900012    2    1    2    0    0  0.67399069740E+01 -0.22989652718E+02  0.21042120646E+02  0.59301932206E+02  0.49999978439E+02 0.  0.
         12    1    1    2    0    0 -0.67399069740E+01  0.22989652718E+02 -0.21042120646E+02  0.31886067794E+02  0.00000000000E+00 0. -1.
         11    1    3    3    0    0  0.18304051433E+02  0.76294133185E+01  0.64132285905E+00  0.19840804967E+02  0.51100000000E-03 0. -1.
        -11    1    3    3    0    0 -0.27276162784E+01 -0.15951976783E+02  0.66359569726E+01  0.17491180036E+02  0.51100000000E-03 0.  1.
        -12    1    3    3    0    0 -0.88365281806E+01 -0.14667089253E+02  0.13764840814E+02  0.21969947203E+02  0.00000000000E+00 0.  1.
</event>
<event>
 7    1  0.5837204E-012  0.5930194E+02  0.7816164E-02  0.1266605E+00
        -11   -1    0    0    0    0  0.00000000000E+00  0.00000000000E+00  0.45593999997E+02  0.45594000000E+02  0.51100000000E-03 0.  1.
         11   -1    0    0    0    0 -0.00000000000E+00 -0.00000000000E+00 -0.45593999997E+02  0.45594000000E+02  0.51100000000E-03 0. -1.
    9900012    2    1    2    0    0  0.21469887988E+02 -0.11746876561E+02  0.20439567587E+02  0.59301935296E+02  0.49999984075E+02 0.  0.
         12    1    1    2    0    0 -0.21469887988E+02  0.11746876561E+02 -0.20439567587E+02  0.31886064704E+02  0.00000000000E+00 0. -1.
         11    1    3    3    0    0  0.52329243923E+01 -0.12860533057E+02 -0.54791076205E+01  0.14926400396E+02  0.51100000000E-03 0. -1.
        -11    1    3    3    0    0  0.18561042737E+02 -0.11455419351E+02  0.22063257919E+02  0.31024607817E+02  0.51100000000E-03 0.  1.
        -12    1    3    3    0    0 -0.23240791406E+01  0.12569075847E+02  0.38554172892E+01  0.13350927083E+02  0.00000000000E+00 0.  1.
</event>
<event>
 7    1  0.5837204E-012  0.5930194E+02  0.7816164E-02  0.1266605E+00
        -11   -1    0    0    0    0  0.00000000000E+00  0.00000000000E+00  0.45593999997E+02  0.45594000000E+02  0.51100000000E-03 0. -1.
         11   -1    0    0    0    0 -0.00000000000E+00 -0.00000000000E+00 -0.45593999997E+02  0.45594000000E+02  0.51100000000E-03 0.  1.
    9900012    2    1    2    0    0  0.24854650836E+02 -0.70956248663E+01  0.18671350532E+02  0.59301938921E+02  0.49999990687E+02 0.  0.
         12    1    1    2    0    0 -0.24854650836E+02  0.70956248663E+01 -0.18671350532E+02  0.31886061079E+02  0.00000000000E+00 0. -1.
         11    1    3    3    0    0 -0.47431391686E+01 -0.73587050907E+01  0.15983504818E+02  0.18224169016E+02  0.51100000000E-03 0. -1.
        -11    1    3    3    0    0  0.95124356991E+01  0.13803018761E+02  0.13610497595E+01  0.16818508155E+02  0.51100000000E-03 0.  1.
         12    1    3    3    0    0  0.20085354306E+02 -0.13539938537E+02  0.13267959544E+01  0.24259261750E+02  0.00000000000E+00 0. -1.
</event>
<event>
 7    1  0.5837204E-012  0.5930197E+02  0.7816164E-02  0.1266605E+00
        -11   -1    0    0    0    0  0.00000000000E+00  0.00000000000E+00  0.45593999997E+02  0.45594000000E+02  0.51100000000E-03 0.  1.
         11   -1    0    0    0    0 -0.00000000000E+00 -0.00000000000E+00 -0.45593999997E+02  0.45594000000E+02  0.51100000000E-03 0. -1.
    9900012    2    1    2    0    0 -0.13065555658E+02 -0.26049518974E+01 -0.28969368267E+02  0.59301971447E+02  0.50000050007E+02 0.  0.
         12    1    1    2    0    0  0.13065555658E+02  0.26049518974E+01  0.28969368267E+02  0.31886028553E+02  0.00000000000E+00 0. -1.
         11    1    3    3    0    0 -0.42984125253E+01 -0.87398590455E+00 -0.66599181952E+01  0.79746292846E+01  0.51100000000E-03 0. -1.
        -11    1    3    3    0    0 -0.21247018824E+02  0.14479836748E+02 -0.13667642926E+02  0.29118824574E+02  0.51100000000E-03 0.  1.
        -12    1    3    3    0    0  0.12479875691E+02 -0.16210802741E+02 -0.86418071464E+01  0.22208517589E+02  0.00000000000E+00 0.  1.
</event>
<event>
 7    1  0.5837204E-012  0.5930194E+02  0.7816164E-02  0.1266605E+00
        -11   -1    0    0    0    0  0.00000000000E+00  0.00000000000E+00  0.45593999997E+02  0.45594000000E+02  0.51100000000E-03 0. -1.
         11   -1    0    0    0    0 -0.00000000000E+00 -0.00000000000E+00 -0.45593999997E+02  0.45594000000E+02  0.51100000000E-03 0.  1.
    9900012    2    1    2    0    0  0.31877973272E+02 -0.45906969850E+00 -0.55220734947E+00  0.59301939442E+02  0.49999991637E+02 0.  0.
         12    1    1    2    0    0 -0.31877973272E+02  0.45906969850E+00  0.55220734947E+00  0.31886060558E+02  0.00000000000E+00 0. -1.
         11    1    3    3    0    0  0.18919237988E+02 -0.56312362615E+01 -0.10093635792E+02  0.22170472969E+02  0.51100000000E-03 0. -1.
        -11    1    3    3    0    0  0.15544488079E+02 -0.10133854453E+02  0.10948037094E+02  0.21544967676E+02  0.51100000000E-03 0.  1.
         12    1    3    3    0    0 -0.25857527943E+01  0.15306021016E+02 -0.14066086508E+01  0.15586498797E+02  0.00000000000E+00 0. -1.
</event>
<event>
 7    1  0.5837204E-012  0.5930192E+02  0.7816164E-02  0.1266605E+00
        -11   -1    0    0    0    0  0.00000000000E+00  0.00000000000E+00  0.45593999997E+02  0.45594000000E+02  0.51100000000E-03 0.  1.
         11   -1    0    0    0    0 -0.00000000000E+00 -0.00000000000E+00 -0.45593999997E+02  0.45594000000E+02  0.51100000000E-03 0. -1.
    9900012    2    1    2    0    0 -0.97733549933E+01 -0.18695260399E+02  0.23910053024E+02  0.59301923653E+02  0.49999962840E+02 0.  0.
         12    1    1    2    0    0  0.97733549933E+01  0.18695260399E+02 -0.23910053024E+02  0.31886076347E+02  0.00000000000E+00 0. -1.
         11    1    3    3    0    0 -0.16811805652E+02 -0.10564744676E+02 -0.15030242786E+01  0.19912551860E+02  0.51100000000E-03 0. -1.
        -11    1    3    3    0    0 -0.93853236000E+01 -0.23406771555E+01  0.18057881499E+02  0.20485364364E+02  0.51100000000E-03 0.  1.
         12    1    3    3    0    0  0.16423774259E+02 -0.57898385675E+01  0.73551958039E+01  0.18904007428E+02  0.00000000000E+00 0. -1.
</event>
<event>
 7    1  0.5837204E-012  0.5930195E+02  0.7816164E-02  0.1266605E+00
        -11   -1    0    0    0    0  0.00000000000E+00  0.00000000000E+00  0.45593999997E+02  0.45594000000E+02  0.51100000000E-03 0. -1.
         11   -1    0    0    0    0 -0.00000000000E+00 -0.00000000000E+00 -0.45593999997E+02  0.45594000000E+02  0.51100000000E-03 0.  1.
    9900012    2    1    2    0    0 -0.13540627404E+02  0.19350908552E+02  0.21422283763E+02  0.59301945150E+02  0.50000002047E+02 0.  0.
         12    1    1    2    0    0  0.13540627404E+02 -0.19350908552E+02 -0.21422283763E+02  0.31886054850E+02  0.00000000000E+00 0. -1.
         11    1    3    3    0    0  0.55767072966E+01  0.11651211305E+02 -0.47097816903E+01  0.13748906610E+02  0.51100000000E-03 0. -1.
        -11    1    3    3    0    0  0.19315850106E+01  0.94128343504E+01 -0.25436961052E+01  0.99399628418E+01  0.51100000000E-03 0.  1.
         12    1    3    3    0    0 -0.21048919711E+02 -0.17131371031E+01  0.28675761558E+02  0.35613075698E+02  0.00000000000E+00 0. -1.
</event>
<event>
 7    1  0.5837204E-012  0.5930193E+02  0.7816164E-02  0.1266605E+00
        -11   -1    0    0    0    0  0.00000000000E+00  0.00000000000E+00  0.45593999997E+02  0.45594000000E+02  0.51100000000E-03 0. -1.
         11   -1    0    0    0    0 -0.00000000000E+00 -0.00000000000E+00 -0.45593999997E+02  0.45594000000E+02  0.51100000000E-03 0.  1.
    9900012    2    1    2    0    0 -0.22873312250E+02  0.11652285976E+02 -0.18914466607E+02  0.59301933626E+02  0.49999981031E+02 0.  0.
         12    1    1    2    0    0  0.22873312250E+02 -0.11652285976E+02  0.18914466607E+02  0.31886066374E+02  0.00000000000E+00 0. -1.
         11    1    3    3    0    0 -0.10354493190E+02  0.74306844203E+01  0.90878184001E+01  0.15653084160E+02  0.51100000000E-03 0. -1.
        -11    1    3    3    0    0 -0.25625415366E+01 -0.74884999324E+01  0.34558989877E+01  0.86364048330E+01  0.51100000000E-03 0.  1.
        -12    1    3    3    0    0 -0.99562775233E+01  0.11710101488E+02 -0.31458183995E+02  0.35012444634E+02  0.00000000000E+00 0.  1.
</event>
<event>
 7    1  0.5837204E-012  0.5930195E+02  0.7816164E-02  0.1266605E+00
        -11   -1    0    0    0    0  0.00000000000E+00  0.00000000000E+00  0.45593999997E+02  0.45594000000E+02  0.51100000000E-03 0. -1.
         11   -1    0    0    0    0 -0.00000000000E+00 -0.00000000000E+00 -0.45593999997E+02  0.45594000000E+02  0.51100000000E-03 0.  1.
    9900012    2    1    2    0    0  0.12523997627E+02  0.56788998679E+01 -0.28768377983E+02  0.59301953019E+02  0.50000016398E+02 0.  0.
         12    1    1    2    0    0 -0.12523997627E+02 -0.56788998679E+01  0.28768377983E+02  0.31886046981E+02  0.00000000000E+00 0. -1.
         11    1    3    3    0    0 -0.29629061524E+01  0.10554072013E+02 -0.19826976121E+02  0.22655600440E+02  0.51100000000E-03 0. -1.
        -11    1    3    3    0    0  0.49978105702E+01  0.67820849191E+00 -0.19877626545E+02  0.20507513613E+02  0.51100000000E-03 0.  1.
         12    1    3    3    0    0  0.10489093210E+02 -0.55533806367E+01  0.10936224683E+02  0.16138838966E+02  0.00000000000E+00 0. -1.
</event>
<event>
 7    1  0.5837204E-012  0.5930193E+02  0.7816164E-02  0.1266605E+00
        -11   -1    0    0    0    0  0.00000000000E+00  0.00000000000E+00  0.45593999997E+02  0.45594000000E+02  0.51100000000E-03 0.  1.
         11   -1    0    0    0    0 -0.00000000000E+00 -0.00000000000E+00 -0.45593999997E+02  0.45594000000E+02  0.51100000000E-03 0. -1.
    9900012    2    1    2    0    0 -0.29460934422E+02 -0.12109031132E+02  0.14649870518E+01  0.59301929702E+02  0.49999973873E+02 0.  0.
         12    1    1    2    0    0  0.29460934422E+02  0.12109031132E+02 -0.14649870518E+01  0.31886070298E+02  0.00000000000E+00 0. -1.
         11    1    3    3    0    0 -0.12113365166E+02  0.64586180259E+01  0.40046628813E+01  0.14299814247E+02  0.51100000000E-03 0. -1.
        -11    1    3    3    0    0  0.16390761109E+01  0.74423294570E+01  0.80672751338E+01  0.11097556785E+02  0.51100000000E-03 0.  1.
         12    1    3    3    0    0 -0.18986645367E+02 -0.26009978615E+02 -0.10606950963E+02  0.33904558670E+02  0.00000000000E+00 0. -1.
</event>
<event>
 7    1  0.5837204E-012  0.5930190E+02  0.7816164E-02  0.1266605E+00
        -11   -1    0    0    0    0  0.00000000000E+00  0.00000000000E+00  0.45593999997E+02  0.45594000000E+02  0.51100000000E-03 0. -1.
         11   -1    0    0    0    0 -0.00000000000E+00 -0.00000000000E+00 -0.45593999997E+02  0.45594000000E+02  0.51100000000E-03 0.  1.
    9900012    2    1    2    0    0  0.30768920534E+02 -0.72170249728E+01 -0.42322290974E+01  0.59301895135E+02  0.49999910832E+02 0.  0.
         12    1    1    2    0    0 -0.30768920534E+02  0.72170249728E+01  0.42322290974E+01  0.31886104865E+02  0.00000000000E+00 0. -1.
         11    1    3    3    0    0  0.15204899415E+02 -0.82949666203E+01  0.17046777208E+02  0.24302017424E+02  0.51100000000E-03 0. -1.
        -11    1    3    3    0    0  0.11319651108E+02  0.75303610086E+00  0.18394133625E+01  0.11492824124E+02  0.51100000000E-03 0.  1.
        -12    1    3    3    0    0  0.42443700124E+01  0.32490554669E+00 -0.23118419668E+02  0.23507053587E+02  0.00000000000E+00 0.  1.
</event>
<event>
 7    1  0.5837204E-012  0.5930196E+02  0.7816164E-02  0.1266605E+00
        -11   -1    0    0    0    0  0.00000000000E+00  0.00000000000E+00  0.45593999997E+02  0.45594000000E+02  0.51100000000E-03 0.  1.
         11   -1    0    0    0    0 -0.00000000000E+00 -0.00000000000E+00 -0.45593999997E+02  0.45594000000E+02  0.51100000000E-03 0. -1.
    9900012    2    1    2    0    0  0.48985224702E+01 -0.26838820133E+02  0.16504607540E+02  0.59301955113E+02  0.50000020216E+02 0.  0.
         12    1    1    2    0    0 -0.48985224702E+01  0.26838820133E+02 -0.16504607540E+02  0.31886044887E+02  0.00000000000E+00 0. -1.
         11    1    3    3    0    0 -0.42910558126E+01  0.64794282785E+00 -0.74078367794E+01  0.85853966656E+01  0.51100000000E-03 0. -1.
        -11    1    3    3    0    0 -0.11022106626E+02 -0.17830057000E+02  0.53729299937E+01  0.21639458036E+02  0.51100000000E-03 0.  1.
        -12    1    3    3    0    0  0.20211684909E+02 -0.96567059606E+01  0.18539514326E+02  0.29077100411E+02  0.00000000000E+00 0.  1.
</event>
<event>
 7    1  0.5837204E-012  0.5930195E+02  0.7816164E-02  0.1266605E+00
        -11   -1    0    0    0    0  0.00000000000E+00  0.00000000000E+00  0.45593999997E+02  0.45594000000E+02  0.51100000000E-03 0. -1.
         11   -1    0    0    0    0 -0.00000000000E+00 -0.00000000000E+00 -0.45593999997E+02  0.45594000000E+02  0.51100000000E-03 0.  1.
    9900012    2    1    2    0    0  0.18720144454E+02  0.36896587491E+01 -0.25547259851E+02  0.59301954840E+02  0.50000019719E+02 0.  0.
         12    1    1    2    0    0 -0.18720144454E+02 -0.36896587491E+01  0.25547259851E+02  0.31886045160E+02  0.00000000000E+00 0. -1.
         11    1    3    3    0    0 -0.32705094270E+01  0.59709923340E+01 -0.36742405424E+01  0.77362151721E+01  0.51100000000E-03 0. -1.
        -11    1    3    3    0    0  0.93447208796E+01  0.18754847529E+02 -0.43310769336E+01  0.21396876918E+02  0.51100000000E-03 0.  1.
         12    1    3    3    0    0  0.12645933002E+02 -0.21036181114E+02 -0.17541942375E+02  0.30168862750E+02  0.00000000000E+00 0. -1.
</event>
<event>
 7    1  0.5837204E-012  0.5930194E+02  0.7816164E-02  0.1266605E+00
        -11   -1    0    0    0    0  0.00000000000E+00  0.00000000000E+00  0.45593999997E+02  0.45594000000E+02  0.51100000000E-03 0.  1.
         11   -1    0    0    0    0 -0.00000000000E+00 -0.00000000000E+00 -0.45593999997E+02  0.45594000000E+02  0.51100000000E-03 0. -1.
    9900012    2    1    2    0    0  0.19635185968E+02 -0.25117490053E+02  0.54015213049E+00  0.59301943503E+02  0.49999999044E+02 0.  0.
         12    1    1    2    0    0 -0.19635185968E+02  0.25117490053E+02 -0.54015213049E+00  0.31886056497E+02  0.00000000000E+00 0. -1.
         11    1    3    3    0    0  0.42969240282E+01 -0.94622428946E+01  0.47713920409E+01  0.11435199122E+02  0.51100000000E-03 0. -1.
        -11    1    3    3    0    0  0.26120710688E+02 -0.94765990545E+01  0.94823085964E+01  0.29360034623E+02  0.51100000000E-03 0.  1.
         12    1    3    3    0    0 -0.10782448748E+02 -0.61786481043E+01 -0.13713548507E+02  0.18506709758E+02  0.00000000000E+00 0. -1.
</event>
<event>
 7    1  0.5837204E-012  0.5930194E+02  0.7816164E-02  0.1266605E+00
        -11   -1    0    0    0    0  0.00000000000E+00  0.00000000000E+00  0.45593999997E+02  0.45594000000E+02  0.51100000000E-03 0.  1.
         11   -1    0    0    0    0 -0.00000000000E+00 -0.00000000000E+00 -0.45593999997E+02  0.45594000000E+02  0.51100000000E-03 0. -1.
    9900012    2    1    2    0    0 -0.21534463451E+02 -0.22911923534E+02  0.52944586725E+01  0.59301942721E+02  0.49999997617E+02 0.  0.
         12    1    1    2    0    0  0.21534463451E+02  0.22911923534E+02 -0.52944586725E+01  0.31886057279E+02  0.00000000000E+00 0. -1.
         11    1    3    3    0    0 -0.15139867347E+02  0.81866312712E+01 -0.89799293968E+01  0.19413285324E+02  0.51100000000E-03 0. -1.
        -11    1    3    3    0    0 -0.10493887337E+02 -0.66313197648E+01  0.54568652825E+01  0.13559994552E+02  0.51100000000E-03 0.  1.
        -12    1    3    3    0    0  0.40992912330E+01 -0.24467235040E+02  0.88175227868E+01  0.26328662846E+02  0.00000000000E+00 0.  1.
</event>
<event>
 7    1  0.5837204E-012  0.5930192E+02  0.7816164E-02  0.1266605E+00
        -11   -1    0    0    0    0  0.00000000000E+00  0.00000000000E+00  0.45593999997E+02  0.45594000000E+02  0.51100000000E-03 0.  1.
         11   -1    0    0    0    0 -0.00000000000E+00 -0.00000000000E+00 -0.45593999997E+02  0.45594000000E+02  0.51100000000E-03 0. -1.
    9900012    2    1    2    0    0 -0.31032356502E+02  0.73023653502E+01 -0.62469990091E+00  0.59301922478E+02  0.49999960698E+02 0.  0.
         12    1    1    2    0    0  0.31032356502E+02 -0.73023653502E+01  0.62469990091E+00  0.31886077522E+02  0.00000000000E+00 0. -1.
         11    1    3    3    0    0 -0.20547502371E+02  0.91889001706E+01 -0.19302567776E+02  0.29651726140E+02  0.51100000000E-03 0. -1.
        -11    1    3    3    0    0  0.18091610351E+01  0.35743950135E+01 -0.23817944528E+01  0.46607197342E+01  0.51100000000E-03 0.  1.
        -12    1    3    3    0    0 -0.12294015166E+02 -0.54609298339E+01  0.21059662328E+02  0.24989476604E+02  0.00000000000E+00 0.  1.
</event>
<event>
 7    1  0.5837204E-012  0.5930187E+02  0.7816164E-02  0.1266605E+00
        -11   -1    0    0    0    0  0.00000000000E+00  0.00000000000E+00  0.45593999997E+02  0.45594000000E+02  0.51100000000E-03 0.  1.
         11   -1    0    0    0    0 -0.00000000000E+00 -0.00000000000E+00 -0.45593999997E+02  0.45594000000E+02  0.51100000000E-03 0. -1.
    9900012    2    1    2    0    0 -0.22658291019E+02  0.17822875260E+02  0.13626157982E+02  0.59301871107E+02  0.49999867010E+02 0.  0.
         12    1    1    2    0    0  0.22658291019E+02 -0.17822875260E+02 -0.13626157982E+02  0.31886128893E+02  0.00000000000E+00 0. -1.
         11    1    3    3    0    0 -0.55523082027E+01  0.19433144945E+02 -0.66461555927E+01  0.21275493725E+02  0.51100000000E-03 0.  1.
        -11    1    3    3    0    0 -0.56698145839E+01 -0.35007055929E+01 -0.62161425285E+01  0.91127474046E+01  0.51100000000E-03 0. -1.
         12    1    3    3    0    0 -0.11436168232E+02  0.18904359081E+01  0.26488456103E+02  0.28913629978E+02  0.00000000000E+00 0. -1.
</event>
<event>
 7    1  0.5837204E-012  0.5930193E+02  0.7816164E-02  0.1266605E+00
        -11   -1    0    0    0    0  0.00000000000E+00  0.00000000000E+00  0.45593999997E+02  0.45594000000E+02  0.51100000000E-03 0. -1.
         11   -1    0    0    0    0 -0.00000000000E+00 -0.00000000000E+00 -0.45593999997E+02  0.45594000000E+02  0.51100000000E-03 0.  1.
    9900012    2    1    2    0    0 -0.68680192824E+01 -0.27743993042E+02 -0.14135851956E+02  0.59301934873E+02  0.49999983303E+02 0.  0.
         12    1    1    2    0    0  0.68680192824E+01  0.27743993042E+02  0.14135851956E+02  0.31886065127E+02  0.00000000000E+00 0. -1.
         11    1    3    3    0    0 -0.11519418552E+01  0.31792407530E+01 -0.10408719241E+02  0.10944221229E+02  0.51100000000E-03 0. -1.
        -11    1    3    3    0    0  0.70781465635E+01 -0.74907976680E+01 -0.15954082653E+02  0.18993287289E+02  0.51100000000E-03 0.  1.
         12    1    3    3    0    0 -0.12794223991E+02 -0.23432436127E+02  0.12226949938E+02  0.29364426355E+02  0.00000000000E+00 0. -1.
</event>
<event>
 7    1  0.5837204E-012  0.5930195E+02  0.7816164E-02  0.1266605E+00
        -11   -1    0    0    0    0  0.00000000000E+00  0.00000000000E+00  0.45593999997E+02  0.45594000000E+02  0.51100000000E-03 0.  1.
         11   -1    0    0    0    0 -0.00000000000E+00 -0.00000000000E+00 -0.45593999997E+02  0.45594000000E+02  0.51100000000E-03 0. -1.
    9900012    2    1    2    0    0 -0.21203720334E+02  0.21096866503E+02  0.11047375430E+02  0.59301952328E+02  0.50000015138E+02 0.  0.
         12    1    1    2    0    0  0.21203720334E+02 -0.21096866503E+02 -0.11047375430E+02  0.31886047672E+02  0.00000000000E+00 0. -1.
         11    1    3    3    0    0 -0.16970057478E+02  0.12867600572E+01  0.27020482643E+01  0.17231937422E+02  0.51100000000E-03 0. -1.
        -11    1    3    3    0    0 -0.27224998073E+01 -0.10253825139E+02  0.51680258917E+01  0.11800907891E+02  0.51100000000E-03 0.  1.
         12    1    3    3    0    0 -0.15111630489E+01  0.30063931585E+02  0.31773012738E+01  0.30269107015E+02  0.00000000000E+00 0. -1.
</event>
<event>
 7    1  0.5837204E-012  0.5930195E+02  0.7816164E-02  0.1266605E+00
        -11   -1    0    0    0    0  0.00000000000E+00  0.00000000000E+00  0.45593999997E+02  0.45594000000E+02  0.51100000000E-03 0. -1.
         11   -1    0    0    0    0 -0.00000000000E+00 -0.00000000000E+00 -0.45593999997E+02  0.45594000000E+02  0.51100000000E-03 0.  1.
    9900012    2    1    2    0    0 -0.21997949662E+02  0.16265872972E+02 -0.16377778650E+02  0.59301952168E+02  0.50000014846E+02 0.  0.
         12    1    1    2    0    0  0.21997949662E+02 -0.16265872972E+02  0.16377778650E+02  0.31886047832E+02  0.00000000000E+00 0. -1.
         11    1    3    3    0    0 -0.97389774472E+01  0.12201922101E+02  0.13757797488E+02  0.20808930214E+02  0.51100000000E-03 0. -1.
        -11    1    3    3    0    0 -0.72696487091E+01  0.91192358868E+01 -0.55754873300E+01  0.12926496615E+02  0.51100000000E-03 0.  1.
         12    1    3    3    0    0 -0.49893235053E+01 -0.50552850165E+01 -0.24560088808E+02  0.25566525339E+02  0.00000000000E+00 0. -1.
</event>
<event>
 7    1  0.5837204E-012  0.5930195E+02  0.7816164E-02  0.1266605E+00
        -11   -1    0    0    0    0  0.00000000000E+00  0.00000000000E+00  0.45593999997E+02  0.45594000000E+02  0.51100000000E-03 0. -1.
         11   -1    0    0    0    0 -0.00000000000E+00 -0.00000000000E+00 -0.45593999997E+02  0.45594000000E+02  0.51100000000E-03 0.  1.
    9900012    2    1    2    0    0  0.26017699526E+02 -0.18252670503E+02 -0.25767862374E+01  0.59301945111E+02  0.50000001975E+02 0.  0.
         12    1    1    2    0    0 -0.26017699526E+02  0.18252670503E+02  0.25767862374E+01  0.31886054889E+02  0.00000000000E+00 0. -1.
         11    1    3    3    0    0  0.16026481877E+02 -0.19448072201E+02  0.52489630467E+01  0.25741547099E+02  0.51100000000E-03 0. -1.
        -11    1    3    3    0    0 -0.10610549381E+02 -0.40269303093E+00  0.17916277313E+01  0.10768279809E+02  0.51100000000E-03 0.  1.
        -12    1    3    3    0    0  0.20601767030E+02  0.15980947299E+01 -0.96173770154E+01  0.22792118203E+02  0.00000000000E+00 0.  1.
</event>
<event>
 7    1  0.5837204E-012  0.5930194E+02  0.7816164E-02  0.1266605E+00
        -11   -1    0    0    0    0  0.00000000000E+00  0.00000000000E+00  0.45593999997E+02  0.45594000000E+02  0.51100000000E-03 0.  1.
         11   -1    0    0    0    0 -0.00000000000E+00 -0.00000000000E+00 -0.45593999997E+02  0.45594000000E+02  0.51100000000E-03 0. -1.
    9900012    2    1    2    0    0 -0.23762411624E+02 -0.16990905869E+02  0.12781938498E+02  0.59301936584E+02  0.49999986424E+02 0.  0.
         12    1    1    2    0    0  0.23762411624E+02  0.16990905869E+02 -0.12781938498E+02  0.31886063416E+02  0.00000000000E+00 0. -1.
         11    1    3    3    0    0 -0.21690697600E+02  0.13192368861E+01 -0.68277205895E+00  0.21741502393E+02  0.51100000000E-03 0. -1.
        -11    1    3    3    0    0 -0.14043778998E+02 -0.15763107638E+02  0.27440251171E+01  0.21289268777E+02  0.51100000000E-03 0.  1.
        -12    1    3    3    0    0  0.11972064974E+02 -0.25470351170E+01  0.10720685439E+02  0.16271165414E+02  0.00000000000E+00 0.  1.
</event>
<event>
 7    1  0.5837204E-012  0.5930193E+02  0.7816164E-02  0.1266605E+00
        -11   -1    0    0    0    0  0.00000000000E+00  0.00000000000E+00  0.45593999997E+02  0.45594000000E+02  0.51100000000E-03 0.  1.
         11   -1    0    0    0    0 -0.00000000000E+00 -0.00000000000E+00 -0.45593999997E+02  0.45594000000E+02  0.51100000000E-03 0. -1.
    9900012    2    1    2    0    0 -0.83966609694E+01  0.21579350481E+02  0.21921426310E+02  0.59301933857E+02  0.49999981451E+02 0.  0.
         12    1    1    2    0    0  0.83966609694E+01 -0.21579350481E+02 -0.21921426310E+02  0.31886066143E+02  0.00000000000E+00 0. -1.
         11    1    3    3    0    0 -0.10656135312E+02  0.22748131185E+02 -0.47198396484E+01  0.25559882213E+02  0.51100000000E-03 0. -1.
        -11    1    3    3    0    0  0.26038916102E+01  0.42149462990E+01 -0.14303710220E+01  0.51567417371E+01  0.51100000000E-03 0.  1.
        -12    1    3    3    0    0 -0.34441726792E+00 -0.53837270031E+01  0.28071636980E+02  0.28585309907E+02  0.00000000000E+00 0.  1.
</event>
<event>
 7    1  0.5837204E-012  0.5930192E+02  0.7816164E-02  0.1266605E+00
        -11   -1    0    0    0    0  0.00000000000E+00  0.00000000000E+00  0.45593999997E+02  0.45594000000E+02  0.51100000000E-03 0. -1.
         11   -1    0    0    0    0 -0.00000000000E+00 -0.00000000000E+00 -0.45593999997E+02  0.45594000000E+02  0.51100000000E-03 0.  1.
    9900012    2    1    2    0    0  0.99440798529E+01  0.20886230183E+02 -0.21945448505E+02  0.59301920820E+02  0.49999957675E+02 0.  0.
         12    1    1    2    0    0 -0.99440798529E+01 -0.20886230183E+02  0.21945448505E+02  0.31886079180E+02  0.00000000000E+00 0. -1.
         11    1    3    3    0    0  0.22132266690E+02  0.30599387786E+00 -0.20902637280E+02  0.30444229446E+02  0.51100000000E-03 0. -1.
        -11    1    3    3    0    0  0.72774394792E+00 -0.22237269102E+01 -0.12425786845E+01  0.26492592687E+01  0.51100000000E-03 0.  1.
        -12    1    3    3    0    0 -0.12915930785E+02  0.22803963216E+02  0.19976745939E+00  0.26208432105E+02  0.00000000000E+00 0.  1.
</event>
<event>
 7    1  0.5837204E-012  0.5930195E+02  0.7816164E-02  0.1266605E+00
        -11   -1    0    0    0    0  0.00000000000E+00  0.00000000000E+00  0.45593999997E+02  0.45594000000E+02  0.51100000000E-03 0.  1.
         11   -1    0    0    0    0 -0.00000000000E+00 -0.00000000000E+00 -0.45593999997E+02  0.45594000000E+02  0.51100000000E-03 0. -1.
    9900012    2    1    2    0    0  0.24792120858E+02 -0.18480449167E+02 -0.77809846122E+01  0.59301953215E+02  0.50000016755E+02 0.  0.
         12    1    1    2    0    0 -0.24792120858E+02  0.18480449167E+02  0.77809846122E+01  0.31886046785E+02  0.00000000000E+00 0. -1.
         11    1    3    3    0    0  0.56099328837E+01 -0.14812010681E+02 -0.16583570125E+02  0.22932112979E+02  0.51100000000E-03 0. -1.
        -11    1    3    3    0    0  0.21551417473E+02 -0.79648035906E+01 -0.33921097505E+01  0.23225160928E+02  0.51100000000E-03 0.  1.
         12    1    3    3    0    0 -0.23692294984E+01  0.42963651046E+01  0.12194695263E+02  0.13144679307E+02  0.00000000000E+00 0. -1.
</event>
<event>
 7    1  0.5837204E-012  0.5930194E+02  0.7816164E-02  0.1266605E+00
        -11   -1    0    0    0    0  0.00000000000E+00  0.00000000000E+00  0.45593999997E+02  0.45594000000E+02  0.51100000000E-03 0.  1.
         11   -1    0    0    0    0 -0.00000000000E+00 -0.00000000000E+00 -0.45593999997E+02  0.45594000000E+02  0.51100000000E-03 0. -1.
    9900012    2    1    2    0    0  0.25022826289E+02 -0.15354947216E+02 -0.12442037098E+02  0.59301944637E+02  0.50000001111E+02 0.  0.
         12    1    1    2    0    0 -0.25022826289E+02  0.15354947216E+02  0.12442037098E+02  0.31886055363E+02  0.00000000000E+00 0. -1.
         11    1    3    3    0    0 -0.83519220845E+01  0.26623714713E+01  0.44139731923E+01  0.98145801724E+01  0.51100000000E-03 0. -1.
        -11    1    3    3    0    0  0.26051616555E+02  0.10248087192E+01 -0.82632675768E+01  0.27349927776E+02  0.51100000000E-03 0.  1.
         12    1    3    3    0    0  0.73231318180E+01 -0.19042127406E+02 -0.85927427139E+01  0.22137436688E+02  0.00000000000E+00 0. -1.
</event>
<event>
 7    1  0.5837204E-012  0.5930192E+02  0.7816164E-02  0.1266605E+00
        -11   -1    0    0    0    0  0.00000000000E+00  0.00000000000E+00  0.45593999997E+02  0.45594000000E+02  0.51100000000E-03 0. -1.
         11   -1    0    0    0    0 -0.00000000000E+00 -0.00000000000E+00 -0.45593999997E+02  0.45594000000E+02  0.51100000000E-03 0.  1.
    9900012    2    1    2    0    0 -0.13864098086E+02  0.26682314090E+02  0.10609561503E+02  0.59301923160E+02  0.49999961943E+02 0.  0.
         12    1    1    2    0    0  0.13864098086E+02 -0.26682314090E+02 -0.10609561503E+02  0.31886076840E+02  0.00000000000E+00 0. -1.
         11    1    3    3    0    0  0.92161611244E+00  0.87110676419E+01  0.24279218619E+01  0.90899329232E+01  0.51100000000E-03 0. -1.
        -11    1    3    3    0    0 -0.23466501099E+02  0.12381459609E+02 -0.10766210698E+02  0.28633695342E+02  0.51100000000E-03 0.  1.
         12    1    3    3    0    0  0.86807869006E+01  0.55897868395E+01  0.18947850338E+02  0.21578294895E+02  0.00000000000E+00 0. -1.
</event>
<event>
 7    1  0.5837204E-012  0.5930193E+02  0.7816164E-02  0.1266605E+00
        -11   -1    0    0    0    0  0.00000000000E+00  0.00000000000E+00  0.45593999997E+02  0.45594000000E+02  0.51100000000E-03 0.  1.
         11   -1    0    0    0    0 -0.00000000000E+00 -0.00000000000E+00 -0.45593999997E+02  0.45594000000E+02  0.51100000000E-03 0. -1.
    9900012    2    1    2    0    0 -0.27354859798E+02  0.17702805387E+01  0.16287999949E+02  0.59301934232E+02  0.49999982136E+02 0.  0.
         12    1    1    2    0    0  0.27354859798E+02 -0.17702805387E+01 -0.16287999949E+02  0.31886065768E+02  0.00000000000E+00 0. -1.
         11    1    3    3    0    0  0.97595478785E+01 -0.27408831913E+01  0.85136863671E+01  0.13237978368E+02  0.51100000000E-03 0. -1.
        -11    1    3    3    0    0 -0.25196722744E+02  0.34494445862E+01  0.17310217146E+02  0.30763893169E+02  0.51100000000E-03 0.  1.
        -12    1    3    3    0    0 -0.11917684933E+02  0.10617191438E+01 -0.95359035639E+01  0.15300062695E+02  0.00000000000E+00 0.  1.
</event>
<event>
 7    1  0.5837204E-012  0.5930200E+02  0.7816164E-02  0.1266605E+00
        -11   -1    0    0    0    0  0.00000000000E+00  0.00000000000E+00  0.45593999997E+02  0.45594000000E+02  0.51100000000E-03 0.  1.
         11   -1    0    0    0    0 -0.00000000000E+00 -0.00000000000E+00 -0.45593999997E+02  0.45594000000E+02  0.51100000000E-03 0. -1.
    9900012    2    1    2    0    0 -0.11554130148E+02 -0.22117541865E+02  0.19850267067E+02  0.59302004888E+02  0.50000110995E+02 0.  0.
         12    1    1    2    0    0  0.11554130148E+02  0.22117541865E+02 -0.19850267067E+02  0.31885995112E+02  0.00000000000E+00 0. -1.
         11    1    3    3    0    0  0.10148463588E+02  0.14808747397E+01  0.68099332323E+01  0.12310950169E+02  0.51100000000E-03 0. -1.
        -11    1    3    3    0    0 -0.37549092908E+01 -0.25048493077E+02  0.14035813533E+02  0.28957389575E+02  0.51100000000E-03 0.  1.
        -12    1    3    3    0    0 -0.17947684445E+02  0.14500764718E+01 -0.99547969755E+00  0.18033665144E+02  0.00000000000E+00 0.  1.
</event>
<event>
 7    1  0.5837204E-012  0.5930192E+02  0.7816164E-02  0.1266605E+00
        -11   -1    0    0    0    0  0.00000000000E+00  0.00000000000E+00  0.45593999997E+02  0.45594000000E+02  0.51100000000E-03 0.  1.
         11   -1    0    0    0    0 -0.00000000000E+00 -0.00000000000E+00 -0.45593999997E+02  0.45594000000E+02  0.51100000000E-03 0. -1.
    9900012    2    1    2    0    0 -0.18969341498E+02 -0.24765987825E+02  0.65978756507E+01  0.59301921017E+02  0.49999958034E+02 0.  0.
         12    1    1    2    0    0  0.18969341498E+02  0.24765987825E+02 -0.65978756507E+01  0.31886078983E+02  0.00000000000E+00 0. -1.
         11    1    3    3    0    0 -0.51125035914E+01 -0.10154412555E+02 -0.15395977773E+01  0.11472582485E+02  0.51100000000E-03 0. -1.
        -11    1    3    3    0    0  0.10758470950E+02 -0.17137162265E+02  0.10810064900E+02  0.22940892116E+02  0.51100000000E-03 0.  1.
         12    1    3    3    0    0 -0.24615308857E+02  0.25255869954E+01 -0.26725914718E+01  0.24888446415E+02  0.00000000000E+00 0. -1.
</event>
<event>
 7    1  0.5837204E-012  0.5930193E+02  0.7816164E-02  0.1266605E+00
        -11   -1    0    0    0    0  0.00000000000E+00  0.00000000000E+00  0.45593999997E+02  0.45594000000E+02  0.51100000000E-03 0.  1.
         11   -1    0    0    0    0 -0.00000000000E+00 -0.00000000000E+00 -0.45593999997E+02  0.45594000000E+02  0.51100000000E-03 0. -1.
    9900012    2    1    2    0    0 -0.93549851307E+00 -0.18054694021E+02  0.26265455701E+02  0.59301932559E+02  0.49999979084E+02 0.  0.
         12    1    1    2    0    0  0.93549851307E+00  0.18054694021E+02 -0.26265455701E+02  0.31886067441E+02  0.00000000000E+00 0. -1.
         11    1    3    3    0    0  0.62315435704E+01 -0.52487221040E+01 -0.89122713208E+01  0.12075172850E+02  0.51100000000E-03 0. -1.
        -11    1    3    3    0    0 -0.79857695113E+01 -0.18244138491E+02  0.11666483394E+02  0.23080899874E+02  0.51100000000E-03 0.  1.
         12    1    3    3    0    0  0.81872742777E+00  0.54381665735E+01  0.23511243627E+02  0.24145859835E+02  0.00000000000E+00 0. -1.
</event>
<event>
 7    1  0.5837204E-012  0.5930217E+02  0.7816164E-02  0.1266604E+00
        -11   -1    0    0    0    0  0.00000000000E+00  0.00000000000E+00  0.45593999997E+02  0.45594000000E+02  0.51100000000E-03 0.  1.
         11   -1    0    0    0    0 -0.00000000000E+00 -0.00000000000E+00 -0.45593999997E+02  0.45594000000E+02  0.51100000000E-03 0. -1.
    9900012    2    1    2    0    0  0.16612314742E+01  0.26730438397E+02  0.17304048994E+02  0.59302170256E+02  0.50000412584E+02 0.  0.
         12    1    1    2    0    0 -0.16612314742E+01 -0.26730438397E+02 -0.17304048994E+02  0.31885829744E+02  0.00000000000E+00 0. -1.
         11    1    3    3    0    0 -0.11595287849E+02  0.25956422784E+01  0.79875032579E+01  0.14317411348E+02  0.51100000000E-03 0. -1.
        -11    1    3    3    0    0 -0.41747466381E+01  0.25215422058E+02  0.84203863937E+00  0.25572544816E+02  0.51100000000E-03 0.  1.
         12    1    3    3    0    0  0.17431265961E+02 -0.10806259393E+01  0.84745070963E+01  0.19412214092E+02  0.00000000000E+00 0. -1.
</event>
<event>
 7    1  0.5837204E-012  0.5930194E+02  0.7816164E-02  0.1266605E+00
        -11   -1    0    0    0    0  0.00000000000E+00  0.00000000000E+00  0.45593999997E+02  0.45594000000E+02  0.51100000000E-03 0. -1.
         11   -1    0    0    0    0 -0.00000000000E+00 -0.00000000000E+00 -0.45593999997E+02  0.45594000000E+02  0.51100000000E-03 0.  1.
    9900012    2    1    2    0    0 -0.38830316686E+01  0.18586881554E+02 -0.25615832866E+02  0.59301937304E+02  0.49999987737E+02 0.  0.
         12    1    1    2    0    0  0.38830316686E+01 -0.18586881554E+02  0.25615832866E+02  0.31886062696E+02  0.00000000000E+00 0. -1.
         11    1    3    3    0    0 -0.48041563675E+00  0.13664873716E+02 -0.21904513163E+01  0.13847658650E+02  0.51100000000E-03 0. -1.
        -11    1    3    3    0    0 -0.21609358240E+01  0.19766904113E+02 -0.23200420844E+02  0.30555845095E+02  0.51100000000E-03 0.  1.
        -12    1    3    3    0    0 -0.12416802079E+01 -0.14844896276E+02 -0.22496070575E+00  0.14898433558E+02  0.00000000000E+00 0.  1.
</event>
<event>
 7    1  0.5837204E-012  0.5930195E+02  0.7816164E-02  0.1266605E+00
        -11   -1    0    0    0    0  0.00000000000E+00  0.00000000000E+00  0.45593999997E+02  0.45594000000E+02  0.51100000000E-03 0.  1.
         11   -1    0    0    0    0 -0.00000000000E+00 -0.00000000000E+00 -0.45593999997E+02  0.45594000000E+02  0.51100000000E-03 0. -1.
    9900012    2    1    2    0    0  0.16363874006E+02 -0.25012501208E+02  0.11104891588E+02  0.59301949659E+02  0.50000010271E+02 0.  0.
         12    1    1    2    0    0 -0.16363874006E+02  0.25012501208E+02 -0.11104891588E+02  0.31886050341E+02  0.00000000000E+00 0. -1.
         11    1    3    3    0    0  0.18841143328E+01 -0.24391963424E+01 -0.80076525866E+00  0.31844608455E+01  0.51100000000E-03 0. -1.
        -11    1    3    3    0    0 -0.12079094914E+02  0.66475045159E+00  0.16574804508E+02  0.20520004187E+02  0.51100000000E-03 0.  1.
         12    1    3    3    0    0  0.26558854587E+02 -0.23238055317E+02 -0.46691476612E+01  0.35597484627E+02  0.00000000000E+00 0. -1.
</event>
<event>
 7    1  0.5837204E-012  0.5930196E+02  0.7816164E-02  0.1266605E+00
        -11   -1    0    0    0    0  0.00000000000E+00  0.00000000000E+00  0.45593999997E+02  0.45594000000E+02  0.51100000000E-03 0. -1.
         11   -1    0    0    0    0 -0.00000000000E+00 -0.00000000000E+00 -0.45593999997E+02  0.45594000000E+02  0.51100000000E-03 0.  1.
    9900012    2    1    2    0    0  0.29405748043E+02 -0.11358260353E+02 -0.47970382386E+01  0.59301958037E+02  0.50000025549E+02 0.  0.
         12    1    1    2    0    0 -0.29405748043E+02  0.11358260353E+02  0.47970382386E+01  0.31886041963E+02  0.00000000000E+00 0. -1.
         11    1    3    3    0    0  0.13564278118E+02 -0.46544906747E+01  0.18280886216E+02  0.23234558859E+02  0.51100000000E-03 0. -1.
        -11    1    3    3    0    0  0.10861720996E+02  0.71445152559E+01 -0.10921150947E+02  0.16979181945E+02  0.51100000000E-03 0.  1.
        -12    1    3    3    0    0  0.49797489292E+01 -0.13848284934E+02 -0.12156773507E+02  0.19088217233E+02  0.00000000000E+00 0.  1.
</event>
<event>
 7    1  0.5837204E-012  0.5930191E+02  0.7816164E-02  0.1266605E+00
        -11   -1    0    0    0    0  0.00000000000E+00  0.00000000000E+00  0.45593999997E+02  0.45594000000E+02  0.51100000000E-03 0.  1.
         11   -1    0    0    0    0 -0.00000000000E+00 -0.00000000000E+00 -0.45593999997E+02  0.45594000000E+02  0.51100000000E-03 0. -1.
    9900012    2    1    2    0    0  0.19696942964E+02  0.25069948053E+02 -0.50075486651E+00  0.59301911921E+02  0.49999941446E+02 0.  0.
         12    1    1    2    0    0 -0.19696942964E+02 -0.25069948053E+02  0.50075486651E+00  0.31886088079E+02  0.00000000000E+00 0. -1.
         11    1    3    3    0    0  0.51731978479E+01 -0.64997402132E+01  0.11675555324E+02  0.14329242520E+02  0.51100000000E-03 0. -1.
        -11    1    3    3    0    0  0.31593231581E+01  0.11805604992E+02  0.79352681976E+01  0.14571277009E+02  0.51100000000E-03 0.  1.
         12    1    3    3    0    0  0.11364421958E+02  0.19764083275E+02 -0.20111578388E+02  0.30401392392E+02  0.00000000000E+00 0. -1.
</event>
<event>
 7    1  0.5837204E-012  0.5930194E+02  0.7816164E-02  0.1266605E+00
        -11   -1    0    0    0    0  0.00000000000E+00  0.00000000000E+00  0.45593999997E+02  0.45594000000E+02  0.51100000000E-03 0.  1.
         11   -1    0    0    0    0 -0.00000000000E+00 -0.00000000000E+00 -0.45593999997E+02  0.45594000000E+02  0.51100000000E-03 0. -1.
    9900012    2    1    2    0    0  0.20579276032E+02  0.11901794418E+02  0.21249974512E+02  0.59301941461E+02  0.49999995319E+02 0.  0.
         12    1    1    2    0    0 -0.20579276032E+02 -0.11901794418E+02 -0.21249974512E+02  0.31886058539E+02  0.00000000000E+00 0. -1.
         11    1    3    3    0    0  0.95268276405E+01 -0.51042626996E+01 -0.13162715296E+01  0.10887906759E+02  0.51100000000E-03 0. -1.
        -11    1    3    3    0    0  0.88891559360E+01  0.18942322975E+02 -0.43248795650E+01  0.21366639335E+02  0.51100000000E-03 0.  1.
        -12    1    3    3    0    0  0.21632924556E+01 -0.19362658574E+01  0.26891125607E+02  0.27047395367E+02  0.00000000000E+00 0.  1.
</event>
<event>
 7    1  0.5837204E-012  0.5930196E+02  0.7816164E-02  0.1266605E+00
        -11   -1    0    0    0    0  0.00000000000E+00  0.00000000000E+00  0.45593999997E+02  0.45594000000E+02  0.51100000000E-03 0. -1.
         11   -1    0    0    0    0 -0.00000000000E+00 -0.00000000000E+00 -0.45593999997E+02  0.45594000000E+02  0.51100000000E-03 0.  1.
    9900012    2    1    2    0    0  0.24662529532E+02 -0.10297254568E+02 -0.17390961437E+02  0.59301963021E+02  0.50000034638E+02 0.  0.
         12    1    1    2    0    0 -0.24662529532E+02  0.10297254568E+02  0.17390961437E+02  0.31886036979E+02  0.00000000000E+00 0. -1.
         11    1    3    3    0    0  0.22128919501E+02 -0.24718295343E+02 -0.37220189412E+01  0.33384676548E+02  0.51100000000E-03 0. -1.
        -11    1    3    3    0    0  0.34906038338E+01  0.89661292016E+01  0.15284025728E+01  0.97422688667E+01  0.51100000000E-03 0.  1.
        -12    1    3    3    0    0 -0.95699380349E+00  0.54549115732E+01 -0.15197345069E+02  0.16175017606E+02  0.00000000000E+00 0.  1.
</event>
<event>
 7    1  0.5837204E-012  0.5930197E+02  0.7816164E-02  0.1266605E+00
        -11   -1    0    0    0    0  0.00000000000E+00  0.00000000000E+00  0.45593999997E+02  0.45594000000E+02  0.51100000000E-03 0.  1.
         11   -1    0    0    0    0 -0.00000000000E+00 -0.00000000000E+00 -0.45593999997E+02  0.45594000000E+02  0.51100000000E-03 0. -1.
    9900012    2    1    2    0    0  0.23430192932E+02  0.21604534928E+02 -0.99452778187E+00  0.59301969269E+02  0.50000046034E+02 0.  0.
         12    1    1    2    0    0 -0.23430192932E+02 -0.21604534928E+02  0.99452778187E+00  0.31886030731E+02  0.00000000000E+00 0. -1.
         11    1    3    3    0    0  0.63632447194E+01  0.92297692492E+01  0.13478984364E+02  0.17531758141E+02  0.51100000000E-03 0.  1.
        -11    1    3    3    0    0  0.77180111586E+01 -0.10762454426E+02 -0.68946663604E+00  0.13261730130E+02  0.51100000000E-03 0. -1.
        -12    1    3    3    0    0  0.93489370537E+01  0.23137220105E+02 -0.13784045510E+02  0.28508480999E+02  0.00000000000E+00 0.  1.
</event>
<event>
 7    1  0.5837204E-012  0.5930196E+02  0.7816164E-02  0.1266605E+00
        -11   -1    0    0    0    0  0.00000000000E+00  0.00000000000E+00  0.45593999997E+02  0.45594000000E+02  0.51100000000E-03 0. -1.
         11   -1    0    0    0    0 -0.00000000000E+00 -0.00000000000E+00 -0.45593999997E+02  0.45594000000E+02  0.51100000000E-03 0.  1.
    9900012    2    1    2    0    0 -0.19301979743E+02  0.22345025640E+02  0.12035475299E+02  0.59301964522E+02  0.50000037376E+02 0.  0.
         12    1    1    2    0    0  0.19301979743E+02 -0.22345025640E+02 -0.12035475299E+02  0.31886035478E+02  0.00000000000E+00 0. -1.
         11    1    3    3    0    0  0.83497489539E+00  0.44351531602E+01 -0.13674008418E+02  0.14399523364E+02  0.51100000000E-03 0. -1.
        -11    1    3    3    0    0 -0.11989476942E+02  0.10325367189E+02 -0.11130329585E+01  0.15861891676E+02  0.51100000000E-03 0.  1.
         12    1    3    3    0    0 -0.81474776967E+01  0.75845052909E+01  0.26822516676E+02  0.29040549481E+02  0.00000000000E+00 0. -1.
</event>
<event>
 7    1  0.5837204E-012  0.5930193E+02  0.7816164E-02  0.1266605E+00
        -11   -1    0    0    0    0  0.00000000000E+00  0.00000000000E+00  0.45593999997E+02  0.45594000000E+02  0.51100000000E-03 0. -1.
         11   -1    0    0    0    0 -0.00000000000E+00 -0.00000000000E+00 -0.45593999997E+02  0.45594000000E+02  0.51100000000E-03 0.  1.
    9900012    2    1    2    0    0  0.28432273156E+02 -0.14262879531E+02 -0.22130769205E+01  0.59301927825E+02  0.49999970450E+02 0.  0.
         12    1    1    2    0    0 -0.28432273156E+02  0.14262879531E+02  0.22130769205E+01  0.31886072175E+02  0.00000000000E+00 0. -1.
         11    1    3    3    0    0 -0.57804569385E+00  0.70656946409E+01 -0.47564446925E+01  0.85370922425E+01  0.51100000000E-03 0. -1.
        -11    1    3    3    0    0  0.12940442058E+02  0.91595824168E+01 -0.20880010535E+01  0.15991020586E+02  0.51100000000E-03 0.  1.
         12    1    3    3    0    0  0.16069876791E+02 -0.30488156588E+02  0.46313688256E+01  0.34773814997E+02  0.00000000000E+00 0. -1.
</event>
<event>
 7    1  0.5837204E-012  0.5930198E+02  0.7816164E-02  0.1266605E+00
        -11   -1    0    0    0    0  0.00000000000E+00  0.00000000000E+00  0.45593999997E+02  0.45594000000E+02  0.51100000000E-03 0.  1.
         11   -1    0    0    0    0 -0.00000000000E+00 -0.00000000000E+00 -0.45593999997E+02  0.45594000000E+02  0.51100000000E-03 0. -1.
    9900012    2    1    2    0    0  0.31191627306E+02 -0.34272551470E+01  0.56616978124E+01  0.59301976197E+02  0.50000058669E+02 0.  0.
         12    1    1    2    0    0 -0.31191627306E+02  0.34272551470E+01 -0.56616978124E+01  0.31886023803E+02  0.00000000000E+00 0. -1.
         11    1    3    3    0    0  0.15111050387E+02  0.66862360743E+01  0.66865819156E+00  0.16537735658E+02  0.51100000000E-03 0. -1.
        -11    1    3    3    0    0  0.19772919120E+02  0.30149011800E+01  0.15698649596E+02  0.25426473586E+02  0.51100000000E-03 0.  1.
         12    1    3    3    0    0 -0.36923422013E+01 -0.13128392401E+02 -0.10705609975E+02  0.17337766953E+02  0.00000000000E+00 0. -1.
</event>
<event>
 7    1  0.5837204E-012  0.5930197E+02  0.7816164E-02  0.1266605E+00
        -11   -1    0    0    0    0  0.00000000000E+00  0.00000000000E+00  0.45593999997E+02  0.45594000000E+02  0.51100000000E-03 0.  1.
         11   -1    0    0    0    0 -0.00000000000E+00 -0.00000000000E+00 -0.45593999997E+02  0.45594000000E+02  0.51100000000E-03 0. -1.
    9900012    2    1    2    0    0  0.25792388802E+02 -0.13498828970E+02  0.13009738895E+02  0.59301968422E+02  0.50000044489E+02 0.  0.
         12    1    1    2    0    0 -0.25792388802E+02  0.13498828970E+02 -0.13009738895E+02  0.31886031578E+02  0.00000000000E+00 0. -1.
         11    1    3    3    0    0  0.30392130855E+02 -0.11744670319E+02  0.82584764692E+01  0.33612815006E+02  0.51100000000E-03 0. -1.
        -11    1    3    3    0    0  0.68501838265E+01  0.74518332484E+01 -0.37416938263E+00  0.10128911107E+02  0.51100000000E-03 0.  1.
         12    1    3    3    0    0 -0.11449925879E+02 -0.92059919000E+01  0.51254318085E+01  0.15560242309E+02  0.00000000000E+00 0. -1.
</event>
<event>
 7    1  0.5837204E-012  0.5930204E+02  0.7816164E-02  0.1266604E+00
        -11   -1    0    0    0    0  0.00000000000E+00  0.00000000000E+00  0.45593999997E+02  0.45594000000E+02  0.51100000000E-03 0. -1.
         11   -1    0    0    0    0 -0.00000000000E+00 -0.00000000000E+00 -0.45593999997E+02  0.45594000000E+02  0.51100000000E-03 0.  1.
    9900012    2    1    2    0    0 -0.14865852641E+02 -0.28018719597E+02  0.32668028755E+01  0.59302043474E+02  0.50000181365E+02 0.  0.
         12    1    1    2    0    0  0.14865852641E+02  0.28018719597E+02 -0.32668028755E+01  0.31885956526E+02  0.00000000000E+00 0. -1.
         11    1    3    3    0    0  0.70776012478E+00  0.26288616612E+01  0.11480278092E+01  0.29546245344E+01  0.51100000000E-03 0. -1.
        -11    1    3    3    0    0 -0.18307322924E+02 -0.14239125799E+02  0.20926900380E+02  0.31238532871E+02  0.51100000000E-03 0.  1.
        -12    1    3    3    0    0  0.27337101583E+01 -0.16408455458E+02 -0.18808125314E+02  0.25108886068E+02  0.00000000000E+00 0.  1.
</event>
<event>
 7    1  0.5837204E-012  0.5930195E+02  0.7816164E-02  0.1266605E+00
        -11   -1    0    0    0    0  0.00000000000E+00  0.00000000000E+00  0.45593999997E+02  0.45594000000E+02  0.51100000000E-03 0. -1.
         11   -1    0    0    0    0 -0.00000000000E+00 -0.00000000000E+00 -0.45593999997E+02  0.45594000000E+02  0.51100000000E-03 0.  1.
    9900012    2    1    2    0    0 -0.20073308395E+01 -0.12302845127E+02 -0.29348436971E+02  0.59301950888E+02  0.50000012512E+02 0.  0.
         12    1    1    2    0    0  0.20073308395E+01  0.12302845127E+02  0.29348436971E+02  0.31886049112E+02  0.00000000000E+00 0. -1.
         11    1    3    3    0    0 -0.77575306146E+01  0.11827766543E+02 -0.52104676602E+01  0.15073961528E+02  0.51100000000E-03 0. -1.
        -11    1    3    3    0    0 -0.60035216965E+01 -0.17517401863E+02 -0.24363899360E+01  0.18677195640E+02  0.51100000000E-03 0.  1.
        -12    1    3    3    0    0  0.11753721472E+02 -0.66132098070E+01 -0.21701579375E+02  0.25550793721E+02  0.00000000000E+00 0.  1.
</event>
<event>
 7    1  0.5837204E-012  0.5930195E+02  0.7816164E-02  0.1266605E+00
        -11   -1    0    0    0    0  0.00000000000E+00  0.00000000000E+00  0.45593999997E+02  0.45594000000E+02  0.51100000000E-03 0. -1.
         11   -1    0    0    0    0 -0.00000000000E+00 -0.00000000000E+00 -0.45593999997E+02  0.45594000000E+02  0.51100000000E-03 0.  1.
    9900012    2    1    2    0    0 -0.31144547180E+02 -0.15168898711E+01 -0.66660858726E+01  0.59301945450E+02  0.50000002594E+02 0.  0.
         12    1    1    2    0    0  0.31144547180E+02  0.15168898711E+01  0.66660858726E+01  0.31886054550E+02  0.00000000000E+00 0. -1.
         11    1    3    3    0    0 -0.64799273762E+01  0.49692267272E+01  0.10356130030E+02  0.13188332060E+02  0.51100000000E-03 0. -1.
        -11    1    3    3    0    0 -0.22434074782E+02 -0.11150503032E+02  0.31862943556E+01  0.25254185814E+02  0.51100000000E-03 0.  1.
        -12    1    3    3    0    0 -0.22305450220E+01  0.46643864336E+01 -0.20208510258E+02  0.20859427575E+02  0.00000000000E+00 0.  1.
</event>
<event>
 7    1  0.5837204E-012  0.5930189E+02  0.7816164E-02  0.1266605E+00
        -11   -1    0    0    0    0  0.00000000000E+00  0.00000000000E+00  0.45593999997E+02  0.45594000000E+02  0.51100000000E-03 0.  1.
         11   -1    0    0    0    0 -0.00000000000E+00 -0.00000000000E+00 -0.45593999997E+02  0.45594000000E+02  0.51100000000E-03 0. -1.
    9900012    2    1    2    0    0 -0.11892946387E+01  0.71011569482E+01  0.31062567518E+02  0.59301890916E+02  0.49999903137E+02 0.  0.
         12    1    1    2    0    0  0.11892946387E+01 -0.71011569482E+01 -0.31062567518E+02  0.31886109084E+02  0.00000000000E+00 0. -1.
         11    1    3    3    0    0 -0.14261434254E+02 -0.19056952579E+01  0.85621156936E+01  0.16743058466E+02  0.51100000000E-03 0.  1.
        -11    1    3    3    0    0  0.48669481590E+01  0.20124633303E+02  0.71481637891E+01  0.21903978994E+02  0.51100000000E-03 0. -1.
         12    1    3    3    0    0  0.82051914563E+01 -0.11117781097E+02  0.15352288035E+02  0.20654853455E+02  0.00000000000E+00 0. -1.
</event>
<event>
 7    1  0.5837204E-012  0.5930194E+02  0.7816164E-02  0.1266605E+00
        -11   -1    0    0    0    0  0.00000000000E+00  0.00000000000E+00  0.45593999997E+02  0.45594000000E+02  0.51100000000E-03 0.  1.
         11   -1    0    0    0    0 -0.00000000000E+00 -0.00000000000E+00 -0.45593999997E+02  0.45594000000E+02  0.51100000000E-03 0. -1.
    9900012    2    1    2    0    0 -0.18435955158E+02  0.18074254526E+02  0.18712498717E+02  0.59301941487E+02  0.49999995367E+02 0.  0.
         12    1    1    2    0    0  0.18435955158E+02 -0.18074254526E+02 -0.18712498717E+02  0.31886058513E+02  0.00000000000E+00 0. -1.
         11    1    3    3    0    0  0.54062998429E+00 -0.11852001996E+02  0.56703881228E+01  0.13149735123E+02  0.51100000000E-03 0. -1.
        -11    1    3    3    0    0 -0.97766863870E+01  0.14023945149E+02  0.20175305621E+02  0.26444235505E+02  0.51100000000E-03 0.  1.
         12    1    3    3    0    0 -0.91998987554E+01  0.15902311373E+02 -0.71331950273E+01  0.19707970859E+02  0.00000000000E+00 0. -1.
</event>
<event>
 7    1  0.5837204E-012  0.5930194E+02  0.7816164E-02  0.1266605E+00
        -11   -1    0    0    0    0  0.00000000000E+00  0.00000000000E+00  0.45593999997E+02  0.45594000000E+02  0.51100000000E-03 0.  1.
         11   -1    0    0    0    0 -0.00000000000E+00 -0.00000000000E+00 -0.45593999997E+02  0.45594000000E+02  0.51100000000E-03 0. -1.
    9900012    2    1    2    0    0 -0.13163424717E+02  0.19469724195E+02  0.21549359952E+02  0.59301939961E+02  0.49999992583E+02 0.  0.
         12    1    1    2    0    0  0.13163424717E+02 -0.19469724195E+02 -0.21549359952E+02  0.31886060039E+02  0.00000000000E+00 0. -1.
         11    1    3    3    0    0 -0.14060772269E+02  0.11125542396E+02  0.40100508682E+01  0.18372901748E+02  0.51100000000E-03 0. -1.
        -11    1    3    3    0    0 -0.58626878847E+01  0.50716621194E+01 -0.98466226358E+01  0.12531913002E+02  0.51100000000E-03 0.  1.
        -12    1    3    3    0    0  0.67600354367E+01  0.32725196792E+01  0.27385931719E+02  0.28397125212E+02  0.00000000000E+00 0.  1.
</event>
<event>
 7    1  0.5837204E-012  0.5930187E+02  0.7816164E-02  0.1266605E+00
        -11   -1    0    0    0    0  0.00000000000E+00  0.00000000000E+00  0.45593999997E+02  0.45594000000E+02  0.51100000000E-03 0. -1.
         11   -1    0    0    0    0 -0.00000000000E+00 -0.00000000000E+00 -0.45593999997E+02  0.45594000000E+02  0.51100000000E-03 0.  1.
    9900012    2    1    2    0    0 -0.30082671903E+02  0.96087440452E+01  0.44079369071E+01  0.59301874197E+02  0.49999872646E+02 0.  0.
         12    1    1    2    0    0  0.30082671903E+02 -0.96087440452E+01 -0.44079369071E+01  0.31886125803E+02  0.00000000000E+00 0. -1.
         11    1    3    3    0    0 -0.16699035512E+02 -0.35621780664E+01 -0.54150250361E+00  0.17083328857E+02  0.51100000000E-03 0. -1.
        -11    1    3    3    0    0 -0.67604575561E+01 -0.12651460884E+02  0.59784835707E+01  0.15540447707E+02  0.51100000000E-03 0.  1.
        -12    1    3    3    0    0 -0.66231788346E+01  0.25822382996E+02 -0.10290441600E+01  0.26678097633E+02  0.00000000000E+00 0.  1.
</event>
<event>
 7    1  0.5837204E-012  0.5930197E+02  0.7816164E-02  0.1266605E+00
        -11   -1    0    0    0    0  0.00000000000E+00  0.00000000000E+00  0.45593999997E+02  0.45594000000E+02  0.51100000000E-03 0.  1.
         11   -1    0    0    0    0 -0.00000000000E+00 -0.00000000000E+00 -0.45593999997E+02  0.45594000000E+02  0.51100000000E-03 0. -1.
    9900012    2    1    2    0    0  0.59007544242E+01  0.69817679579E+01  0.30547584134E+02  0.59301970409E+02  0.50000048114E+02 0.  0.
         12    1    1    2    0    0 -0.59007544242E+01 -0.69817679579E+01 -0.30547584134E+02  0.31886029591E+02  0.00000000000E+00 0. -1.
         11    1    3    3    0    0  0.20739069809E+02  0.11667265667E+02  0.24807734151E+01  0.23924638799E+02  0.51100000000E-03 0.  1.
        -11    1    3    3    0    0 -0.11466474278E+01 -0.87745724700E-01 -0.18375947366E+01  0.21677763521E+01  0.51100000000E-03 0. -1.
        -12    1    3    3    0    0 -0.13691667957E+02 -0.45977519844E+01  0.29904405456E+02  0.33209555258E+02  0.00000000000E+00 0.  1.
</event>
<event>
 7    1  0.5837204E-012  0.5930195E+02  0.7816164E-02  0.1266605E+00
        -11   -1    0    0    0    0  0.00000000000E+00  0.00000000000E+00  0.45593999997E+02  0.45594000000E+02  0.51100000000E-03 0.  1.
         11   -1    0    0    0    0 -0.00000000000E+00 -0.00000000000E+00 -0.45593999997E+02  0.45594000000E+02  0.51100000000E-03 0. -1.
    9900012    2    1    2    0    0  0.13934537594E+02  0.69185383135E+01  0.27833126369E+02  0.59301946092E+02  0.50000003765E+02 0.  0.
         12    1    1    2    0    0 -0.13934537594E+02 -0.69185383135E+01 -0.27833126369E+02  0.31886053908E+02  0.00000000000E+00 0. -1.
         11    1    3    3    0    0  0.37955204117E+00 -0.30049268364E+01  0.81917432860E+00  0.31376251984E+01  0.51100000000E-03 0. -1.
        -11    1    3    3    0    0 -0.36352924843E+01 -0.12823992560E+02  0.24052050675E+02  0.27498568663E+02  0.51100000000E-03 0.  1.
         12    1    3    3    0    0  0.17190278037E+02  0.22747457709E+02  0.29619013661E+01  0.28665752230E+02  0.00000000000E+00 0. -1.
</event>
<event>
 7    1  0.5837204E-012  0.5930193E+02  0.7816164E-02  0.1266605E+00
        -11   -1    0    0    0    0  0.00000000000E+00  0.00000000000E+00  0.45593999997E+02  0.45594000000E+02  0.51100000000E-03 0. -1.
         11   -1    0    0    0    0 -0.00000000000E+00 -0.00000000000E+00 -0.45593999997E+02  0.45594000000E+02  0.51100000000E-03 0.  1.
    9900012    2    1    2    0    0  0.30859747042E+02 -0.51907995388E+01 -0.61198892992E+01  0.59301930434E+02  0.49999975208E+02 0.  0.
         12    1    1    2    0    0 -0.30859747042E+02  0.51907995388E+01  0.61198892992E+01  0.31886069566E+02  0.00000000000E+00 0. -1.
         11    1    3    3    0    0 -0.56675387357E+01 -0.28154234704E+01  0.12317072125E+02  0.13847666613E+02  0.51100000000E-03 0. -1.
        -11    1    3    3    0    0  0.24296145434E+02 -0.10614449869E+02 -0.92567059165E+01  0.28083016819E+02  0.51100000000E-03 0.  1.
        -12    1    3    3    0    0  0.12231140344E+02  0.82390738006E+01 -0.91802555077E+01  0.17371247001E+02  0.00000000000E+00 0.  1.
</event>
<event>
 7    1  0.5837204E-012  0.5930195E+02  0.7816164E-02  0.1266605E+00
        -11   -1    0    0    0    0  0.00000000000E+00  0.00000000000E+00  0.45593999997E+02  0.45594000000E+02  0.51100000000E-03 0. -1.
         11   -1    0    0    0    0 -0.00000000000E+00 -0.00000000000E+00 -0.45593999997E+02  0.45594000000E+02  0.51100000000E-03 0.  1.
    9900012    2    1    2    0    0  0.27113398473E+02 -0.84327018043E+01 -0.14507705722E+02  0.59301947221E+02  0.50000005824E+02 0.  0.
         12    1    1    2    0    0 -0.27113398473E+02  0.84327018043E+01  0.14507705722E+02  0.31886052779E+02  0.00000000000E+00 0. -1.
         11    1    3    3    0    0 -0.99793247117E+01  0.12641340378E+01 -0.12747131418E+02  0.16238051491E+02  0.51100000000E-03 0. -1.
        -11    1    3    3    0    0  0.78655239072E+01  0.37892678021E+01 -0.60053273853E+01  0.10596649191E+02  0.51100000000E-03 0.  1.
        -12    1    3    3    0    0  0.29227199278E+02 -0.13486103644E+02  0.42447530810E+01  0.32467246539E+02  0.00000000000E+00 0.  1.
</event>
<event>
 7    1  0.5837204E-012  0.5930196E+02  0.7816164E-02  0.1266605E+00
        -11   -1    0    0    0    0  0.00000000000E+00  0.00000000000E+00  0.45593999997E+02  0.45594000000E+02  0.51100000000E-03 0. -1.
         11   -1    0    0    0    0 -0.00000000000E+00 -0.00000000000E+00 -0.45593999997E+02  0.45594000000E+02  0.51100000000E-03 0.  1.
    9900012    2    1    2    0    0  0.17930240197E+02 -0.17553449159E+02 -0.19674916205E+02  0.59301962012E+02  0.50000032799E+02 0.  0.
         12    1    1    2    0    0 -0.17930240197E+02  0.17553449159E+02  0.19674916205E+02  0.31886037988E+02  0.00000000000E+00 0. -1.
         11    1    3    3    0    0  0.10365076134E+02 -0.20998104668E+02 -0.39166080109E+01  0.23742262350E+02  0.51100000000E-03 0. -1.
        -11    1    3    3    0    0  0.17960246992E+02 -0.39855317056E+01 -0.12892030073E+02  0.22464624961E+02  0.51100000000E-03 0.  1.
         12    1    3    3    0    0 -0.10395082929E+02  0.74301872147E+01 -0.28662781213E+01  0.13095074701E+02  0.00000000000E+00 0. -1.
</event>
<event>
 7    1  0.5837204E-012  0.5930194E+02  0.7816164E-02  0.1266605E+00
        -11   -1    0    0    0    0  0.00000000000E+00  0.00000000000E+00  0.45593999997E+02  0.45594000000E+02  0.51100000000E-03 0. -1.
         11   -1    0    0    0    0 -0.00000000000E+00 -0.00000000000E+00 -0.45593999997E+02  0.45594000000E+02  0.51100000000E-03 0.  1.
    9900012    2    1    2    0    0  0.16669009482E+02  0.24800490365E+02 -0.11126585641E+02  0.59301935528E+02  0.49999984499E+02 0.  0.
         12    1    1    2    0    0 -0.16669009482E+02 -0.24800490365E+02  0.11126585641E+02  0.31886064472E+02  0.00000000000E+00 0. -1.
         11    1    3    3    0    0 -0.31420038627E+01  0.57593572328E+00  0.89097985413E+01  0.94651149247E+01  0.51100000000E-03 0. -1.
        -11    1    3    3    0    0 -0.90480337462E+01  0.22694008787E+01 -0.32455864268E+01  0.98767872578E+01  0.51100000000E-03 0.  1.
        -12    1    3    3    0    0  0.28859047090E+02  0.21955153763E+02 -0.16790797755E+02  0.39960033346E+02  0.00000000000E+00 0.  1.
</event>
<event>
 7    1  0.5837204E-012  0.5930196E+02  0.7816164E-02  0.1266605E+00
        -11   -1    0    0    0    0  0.00000000000E+00  0.00000000000E+00  0.45593999997E+02  0.45594000000E+02  0.51100000000E-03 0. -1.
         11   -1    0    0    0    0 -0.00000000000E+00 -0.00000000000E+00 -0.45593999997E+02  0.45594000000E+02  0.51100000000E-03 0.  1.
    9900012    2    1    2    0    0 -0.37625224935E+01  0.50081229622E+01 -0.31264708081E+02  0.59301955364E+02  0.50000020674E+02 0.  0.
         12    1    1    2    0    0  0.37625224935E+01 -0.50081229622E+01  0.31264708081E+02  0.31886044636E+02  0.00000000000E+00 0. -1.
         11    1    3    3    0    0 -0.33355464147E+00  0.27193149056E+01 -0.12834457485E+02  0.13123613505E+02  0.51100000000E-03 0.  1.
        -11    1    3    3    0    0 -0.29962329814E+00 -0.15373414400E+02 -0.23001532432E+02  0.27667709318E+02  0.51100000000E-03 0. -1.
        -12    1    3    3    0    0 -0.31293445539E+01  0.17662222456E+02  0.45712818350E+01  0.18510632541E+02  0.00000000000E+00 0.  1.
</event>
<event>
 7    1  0.5837204E-012  0.5930194E+02  0.7816164E-02  0.1266605E+00
        -11   -1    0    0    0    0  0.00000000000E+00  0.00000000000E+00  0.45593999997E+02  0.45594000000E+02  0.51100000000E-03 0.  1.
         11   -1    0    0    0    0 -0.00000000000E+00 -0.00000000000E+00 -0.45593999997E+02  0.45594000000E+02  0.51100000000E-03 0. -1.
    9900012    2    1    2    0    0 -0.22543220324E+02  0.21932458885E+02  0.52432294345E+01  0.59301937367E+02  0.49999987853E+02 0.  0.
         12    1    1    2    0    0  0.22543220324E+02 -0.21932458885E+02 -0.52432294345E+01  0.31886062633E+02  0.00000000000E+00 0. -1.
         11    1    3    3    0    0 -0.14369836995E+01  0.85733535797E+01 -0.93137845918E+01  0.12740247150E+02  0.51100000000E-03 0. -1.
        -11    1    3    3    0    0  0.28449095359E+01  0.18973208353E+02  0.96547721059E+01  0.21477680744E+02  0.51100000000E-03 0.  1.
         12    1    3    3    0    0 -0.23951146160E+02 -0.56141030475E+01  0.49022419204E+01  0.25084009473E+02  0.00000000000E+00 0. -1.
</event>
<event>
 7    1  0.5837204E-012  0.5930189E+02  0.7816164E-02  0.1266605E+00
        -11   -1    0    0    0    0  0.00000000000E+00  0.00000000000E+00  0.45593999997E+02  0.45594000000E+02  0.51100000000E-03 0. -1.
         11   -1    0    0    0    0 -0.00000000000E+00 -0.00000000000E+00 -0.45593999997E+02  0.45594000000E+02  0.51100000000E-03 0.  1.
    9900012    2    1    2    0    0 -0.27009677784E+02  0.94843954851E+01 -0.14044492339E+02  0.59301886772E+02  0.49999895580E+02 0.  0.
         12    1    1    2    0    0  0.27009677784E+02 -0.94843954851E+01  0.14044492339E+02  0.31886113228E+02  0.00000000000E+00 0. -1.
         11    1    3    3    0    0 -0.13188006315E+02 -0.75204189715E+00 -0.12021562848E+02  0.17860768493E+02  0.51100000000E-03 0. -1.
        -11    1    3    3    0    0 -0.75225690303E+01 -0.11421325658E+02 -0.10607328955E+02  0.17307546112E+02  0.51100000000E-03 0.  1.
         12    1    3    3    0    0 -0.62991024383E+01  0.21657763040E+02  0.85843994637E+01  0.24133572168E+02  0.00000000000E+00 0. -1.
</event>
<event>
 7    1  0.5837204E-012  0.5930194E+02  0.7816164E-02  0.1266605E+00
        -11   -1    0    0    0    0  0.00000000000E+00  0.00000000000E+00  0.45593999997E+02  0.45594000000E+02  0.51100000000E-03 0. -1.
         11   -1    0    0    0    0 -0.00000000000E+00 -0.00000000000E+00 -0.45593999997E+02  0.45594000000E+02  0.51100000000E-03 0.  1.
    9900012    2    1    2    0    0  0.13014967331E+01  0.28567853423E+02  0.14103353905E+02  0.59301941380E+02  0.49999995172E+02 0.  0.
         12    1    1    2    0    0 -0.13014967331E+01 -0.28567853423E+02 -0.14103353905E+02  0.31886058620E+02  0.00000000000E+00 0. -1.
         11    1    3    3    0    0 -0.23527263001E+01  0.12339679527E+02 -0.29663238910E+00  0.12565468670E+02  0.51100000000E-03 0. -1.
        -11    1    3    3    0    0  0.21833984553E+02  0.96961001004E+01  0.24358500978E+01  0.24013966865E+02  0.51100000000E-03 0.  1.
         12    1    3    3    0    0 -0.18179761520E+02  0.65320737957E+01  0.11964136196E+02  0.22722505846E+02  0.00000000000E+00 0. -1.
</event>
<event>
 7    1  0.5837204E-012  0.5930193E+02  0.7816164E-02  0.1266605E+00
        -11   -1    0    0    0    0  0.00000000000E+00  0.00000000000E+00  0.45593999997E+02  0.45594000000E+02  0.51100000000E-03 0. -1.
         11   -1    0    0    0    0 -0.00000000000E+00 -0.00000000000E+00 -0.45593999997E+02  0.45594000000E+02  0.51100000000E-03 0.  1.
    9900012    2    1    2    0    0 -0.79689578940E+01 -0.98999491304E-01 -0.30874052452E+02  0.59301933990E+02  0.49999981693E+02 0.  0.
         12    1    1    2    0    0  0.79689578940E+01  0.98999491304E-01  0.30874052452E+02  0.31886066010E+02  0.00000000000E+00 0. -1.
         11    1    3    3    0    0 -0.17708072800E+01  0.93094268317E+01 -0.56055353644E+01  0.11010141386E+02  0.51100000000E-03 0. -1.
        -11    1    3    3    0    0  0.11032205710E+02  0.86401552021E+01 -0.16942694052E+02  0.21986739793E+02  0.51100000000E-03 0.  1.
        -12    1    3    3    0    0 -0.17230356324E+02 -0.18048581525E+02 -0.83258230359E+01  0.26305052810E+02  0.00000000000E+00 0.  1.
</event>
<event>
 7    1  0.5837204E-012  0.5930194E+02  0.7816164E-02  0.1266605E+00
        -11   -1    0    0    0    0  0.00000000000E+00  0.00000000000E+00  0.45593999997E+02  0.45594000000E+02  0.51100000000E-03 0. -1.
         11   -1    0    0    0    0 -0.00000000000E+00 -0.00000000000E+00 -0.45593999997E+02  0.45594000000E+02  0.51100000000E-03 0.  1.
    9900012    2    1    2    0    0  0.21866513874E+02 -0.19786767855E+02  0.12126841212E+02  0.59301938955E+02  0.49999990749E+02 0.  0.
         12    1    1    2    0    0 -0.21866513874E+02  0.19786767855E+02 -0.12126841212E+02  0.31886061045E+02  0.00000000000E+00 0. -1.
         11    1    3    3    0    0  0.85047898894E+01 -0.20603090923E+02 -0.77948363117E+01  0.23613095520E+02  0.51100000000E-03 0. -1.
        -11    1    3    3    0    0  0.88483934963E+01 -0.12594570899E+02  0.91609092682E+01  0.17911994375E+02  0.51100000000E-03 0.  1.
         12    1    3    3    0    0  0.45133304882E+01  0.13410893967E+02  0.10760768256E+02  0.17776849061E+02  0.00000000000E+00 0. -1.
</event>
<event>
 7    1  0.5837204E-012  0.5930185E+02  0.7816164E-02  0.1266605E+00
        -11   -1    0    0    0    0  0.00000000000E+00  0.00000000000E+00  0.45593999997E+02  0.45594000000E+02  0.51100000000E-03 0.  1.
         11   -1    0    0    0    0 -0.00000000000E+00 -0.00000000000E+00 -0.45593999997E+02  0.45594000000E+02  0.51100000000E-03 0. -1.
    9900012    2    1    2    0    0  0.15918396562E+02  0.93691644085E+01  0.25991345416E+02  0.59301848973E+02  0.49999826642E+02 0.  0.
         12    1    1    2    0    0 -0.15918396562E+02 -0.93691644085E+01 -0.25991345416E+02  0.31886151027E+02  0.00000000000E+00 0. -1.
         11    1    3    3    0    0  0.11352888735E+02 -0.32903335877E+01  0.22173102280E+01  0.12026256385E+02  0.51100000000E-03 0. -1.
        -11    1    3    3    0    0  0.99050551416E+01  0.20460180106E+02  0.11553953506E+01  0.22761019881E+02  0.51100000000E-03 0.  1.
         12    1    3    3    0    0 -0.53395473148E+01 -0.78006821099E+01  0.22618639837E+02  0.24514572707E+02  0.00000000000E+00 0. -1.
</event>
<event>
 7    1  0.5837204E-012  0.5930196E+02  0.7816164E-02  0.1266605E+00
        -11   -1    0    0    0    0  0.00000000000E+00  0.00000000000E+00  0.45593999997E+02  0.45594000000E+02  0.51100000000E-03 0.  1.
         11   -1    0    0    0    0 -0.00000000000E+00 -0.00000000000E+00 -0.45593999997E+02  0.45594000000E+02  0.51100000000E-03 0. -1.
    9900012    2    1    2    0    0 -0.26089411352E+02  0.90648835696E+01  0.15933924342E+02  0.59301961617E+02  0.50000032078E+02 0.  0.
         12    1    1    2    0    0  0.26089411352E+02 -0.90648835696E+01 -0.15933924342E+02  0.31886038383E+02  0.00000000000E+00 0. -1.
         11    1    3    3    0    0 -0.12553371026E+02 -0.86371172597E+01  0.17237390919E+02  0.23006837346E+02  0.51100000000E-03 0.  1.
        -11    1    3    3    0    0  0.29738596654E+01 -0.12805980508E+01 -0.93396439962E+01  0.98849746036E+01  0.51100000000E-03 0. -1.
        -12    1    3    3    0    0 -0.16509899991E+02  0.18982598880E+02  0.80361774191E+01  0.26410149668E+02  0.00000000000E+00 0.  1.
</event>
<event>
 7    1  0.5837204E-012  0.5930195E+02  0.7816164E-02  0.1266605E+00
        -11   -1    0    0    0    0  0.00000000000E+00  0.00000000000E+00  0.45593999997E+02  0.45594000000E+02  0.51100000000E-03 0.  1.
         11   -1    0    0    0    0 -0.00000000000E+00 -0.00000000000E+00 -0.45593999997E+02  0.45594000000E+02  0.51100000000E-03 0. -1.
    9900012    2    1    2    0    0  0.17430639562E+02 -0.17161714054E+02  0.20454061735E+02  0.59301948719E+02  0.50000008556E+02 0.  0.
         12    1    1    2    0    0 -0.17430639562E+02  0.17161714054E+02 -0.20454061735E+02  0.31886051281E+02  0.00000000000E+00 0. -1.
         11    1    3    3    0    0 -0.22044678217E+01  0.31383184453E+00 -0.90544087596E+01  0.93241882783E+01  0.51100000000E-03 0. -1.
        -11    1    3    3    0    0  0.53921366138E+01  0.50102448294E+01  0.20654177408E+02  0.21926530395E+02  0.51100000000E-03 0.  1.
         12    1    3    3    0    0  0.14242970770E+02 -0.22485790728E+02  0.88542930872E+01  0.28051230046E+02  0.00000000000E+00 0. -1.
</event>
<event>
 7    1  0.5837204E-012  0.5930195E+02  0.7816164E-02  0.1266605E+00
        -11   -1    0    0    0    0  0.00000000000E+00  0.00000000000E+00  0.45593999997E+02  0.45594000000E+02  0.51100000000E-03 0.  1.
         11   -1    0    0    0    0 -0.00000000000E+00 -0.00000000000E+00 -0.45593999997E+02  0.45594000000E+02  0.51100000000E-03 0. -1.
    9900012    2    1    2    0    0 -0.11178925966E+02  0.26846736395E+02 -0.13076877770E+02  0.59301947046E+02  0.50000005504E+02 0.  0.
         12    1    1    2    0    0  0.11178925966E+02 -0.26846736395E+02  0.13076877770E+02  0.31886052954E+02  0.00000000000E+00 0. -1.
         11    1    3    3    0    0 -0.12259030595E+02  0.24826484469E-01  0.68964949844E+01  0.14065777292E+02  0.51100000000E-03 0. -1.
        -11    1    3    3    0    0  0.71403925376E+01 -0.45370458675E+01 -0.60138515753E+01  0.10379614724E+02  0.51100000000E-03 0.  1.
        -12    1    3    3    0    0 -0.60602879079E+01  0.31358955778E+02 -0.13959521179E+02  0.34856555030E+02  0.00000000000E+00 0.  1.
</event>
<event>
 7    1  0.5837204E-012  0.5930196E+02  0.7816164E-02  0.1266605E+00
        -11   -1    0    0    0    0  0.00000000000E+00  0.00000000000E+00  0.45593999997E+02  0.45594000000E+02  0.51100000000E-03 0. -1.
         11   -1    0    0    0    0 -0.00000000000E+00 -0.00000000000E+00 -0.45593999997E+02  0.45594000000E+02  0.51100000000E-03 0.  1.
    9900012    2    1    2    0    0  0.15860976869E+02  0.21367427564E+02  0.17566497416E+02  0.59301962626E+02  0.50000033918E+02 0.  0.
         12    1    1    2    0    0 -0.15860976869E+02 -0.21367427564E+02 -0.17566497416E+02  0.31886037374E+02  0.00000000000E+00 0. -1.
         11    1    3    3    0    0  0.26099320286E+02  0.19213915064E+02  0.14016459837E+02  0.35310199633E+02  0.51100000000E-03 0. -1.
        -11    1    3    3    0    0 -0.22475745428E+01  0.10629024102E+02 -0.20682458139E+01  0.11059176538E+02  0.51100000000E-03 0.  1.
         12    1    3    3    0    0 -0.79907688743E+01 -0.84755116023E+01  0.56182833935E+01  0.12932586455E+02  0.00000000000E+00 0. -1.
</event>
<event>
 7    1  0.5837204E-012  0.5930208E+02  0.7816164E-02  0.1266604E+00
        -11   -1    0    0    0    0  0.00000000000E+00  0.00000000000E+00  0.45593999997E+02  0.45594000000E+02  0.51100000000E-03 0.  1.
         11   -1    0    0    0    0 -0.00000000000E+00 -0.00000000000E+00 -0.45593999997E+02  0.45594000000E+02  0.51100000000E-03 0. -1.
    9900012    2    1    2    0    0 -0.14758267398E+02 -0.27236861120E+02 -0.75537098919E+01  0.59302084717E+02  0.50000256583E+02 0.  0.
         12    1    1    2    0    0  0.14758267398E+02  0.27236861120E+02  0.75537098919E+01  0.31885915283E+02  0.00000000000E+00 0. -1.
         11    1    3    3    0    0 -0.16453659773E+01  0.68777535541E+01 -0.31287342019E+00  0.70787437578E+01  0.51100000000E-03 0. -1.
        -11    1    3    3    0    0 -0.18230070996E+02 -0.71464542644E+01 -0.13856874097E+02  0.23987918982E+02  0.51100000000E-03 0.  1.
         12    1    3    3    0    0  0.51171695751E+01 -0.26968160410E+02  0.66160376254E+01  0.28235421977E+02  0.00000000000E+00 0. -1.
</event>
<event>
 7    1  0.5837204E-012  0.5930194E+02  0.7816164E-02  0.1266605E+00
        -11   -1    0    0    0    0  0.00000000000E+00  0.00000000000E+00  0.45593999997E+02  0.45594000000E+02  0.51100000000E-03 0. -1.
         11   -1    0    0    0    0 -0.00000000000E+00 -0.00000000000E+00 -0.45593999997E+02  0.45594000000E+02  0.51100000000E-03 0.  1.
    9900012    2    1    2    0    0 -0.18731298845E+02 -0.18976170167E+01 -0.25734383512E+02  0.59301937190E+02  0.49999987530E+02 0.  0.
         12    1    1    2    0    0  0.18731298845E+02  0.18976170167E+01  0.25734383512E+02  0.31886062810E+02  0.00000000000E+00 0. -1.
         11    1    3    3    0    0 -0.24493332694E+02 -0.83154619441E+01 -0.46535659496E+01  0.26281665284E+02  0.51100000000E-03 0. -1.
        -11    1    3    3    0    0 -0.88685351349E+01  0.35931278741E+01 -0.40486603914E+01  0.10390049787E+02  0.51100000000E-03 0.  1.
         12    1    3    3    0    0  0.14630568984E+02  0.28247170533E+01 -0.17032157171E+02  0.22630222118E+02  0.00000000000E+00 0. -1.
</event>
<event>
 7    1  0.5837204E-012  0.5930193E+02  0.7816164E-02  0.1266605E+00
        -11   -1    0    0    0    0  0.00000000000E+00  0.00000000000E+00  0.45593999997E+02  0.45594000000E+02  0.51100000000E-03 0. -1.
         11   -1    0    0    0    0 -0.00000000000E+00 -0.00000000000E+00 -0.45593999997E+02  0.45594000000E+02  0.51100000000E-03 0.  1.
    9900012    2    1    2    0    0 -0.16960051664E+02 -0.26381963583E+02  0.57506412155E+01  0.59301933618E+02  0.49999981015E+02 0.  0.
         12    1    1    2    0    0  0.16960051664E+02  0.26381963583E+02 -0.57506412155E+01  0.31886066382E+02  0.00000000000E+00 0. -1.
         11    1    3    3    0    0 -0.95011797905E+01 -0.27538242586E+01  0.56824142623E+01  0.11408146106E+02  0.51100000000E-03 0. -1.
        -11    1    3    3    0    0 -0.21760528580E+02 -0.24164492711E+02 -0.45952750560E+01  0.32841435187E+02  0.51100000000E-03 0.  1.
        -12    1    3    3    0    0  0.14301656707E+02  0.53635338621E+00  0.46635020092E+01  0.15052352325E+02  0.00000000000E+00 0.  1.
</event>
<event>
 7    1  0.5837204E-012  0.5930194E+02  0.7816164E-02  0.1266605E+00
        -11   -1    0    0    0    0  0.00000000000E+00  0.00000000000E+00  0.45593999997E+02  0.45594000000E+02  0.51100000000E-03 0.  1.
         11   -1    0    0    0    0 -0.00000000000E+00 -0.00000000000E+00 -0.45593999997E+02  0.45594000000E+02  0.51100000000E-03 0. -1.
    9900012    2    1    2    0    0  0.10186326901E+02 -0.29688353621E+02  0.56179456972E+01  0.59301938620E+02  0.49999990137E+02 0.  0.
         12    1    1    2    0    0 -0.10186326901E+02  0.29688353621E+02 -0.56179456972E+01  0.31886061380E+02  0.00000000000E+00 0. -1.
         11    1    3    3    0    0  0.15561040298E+02 -0.18189230888E+02 -0.47114657737E+01  0.24396557246E+02  0.51100000000E-03 0. -1.
        -11    1    3    3    0    0 -0.17391811550E+02 -0.26578459302E+01  0.17131157581E+01  0.17676934684E+02  0.51100000000E-03 0.  1.
         12    1    3    3    0    0  0.12017098153E+02 -0.88412768034E+01  0.86162957127E+01  0.17228446690E+02  0.00000000000E+00 0. -1.
</event>
<event>
 7    1  0.5837204E-012  0.5930194E+02  0.7816164E-02  0.1266605E+00
        -11   -1    0    0    0    0  0.00000000000E+00  0.00000000000E+00  0.45593999997E+02  0.45594000000E+02  0.51100000000E-03 0.  1.
         11   -1    0    0    0    0 -0.00000000000E+00 -0.00000000000E+00 -0.45593999997E+02  0.45594000000E+02  0.51100000000E-03 0. -1.
    9900012    2    1    2    0    0 -0.19756543875E+02 -0.20651831498E+02  0.14138647657E+02  0.59301944620E+02  0.50000001080E+02 0.  0.
         12    1    1    2    0    0  0.19756543875E+02  0.20651831498E+02 -0.14138647657E+02  0.31886055380E+02  0.00000000000E+00 0. -1.
         11    1    3    3    0    0 -0.11791466167E+02  0.93909653707E+00  0.31854972976E+01  0.12250223262E+02  0.51100000000E-03 0. -1.
        -11    1    3    3    0    0 -0.47613952337E+01  0.11488091939E+02  0.43027142366E+01  0.13159045977E+02  0.51100000000E-03 0.  1.
        -12    1    3    3    0    0 -0.32036824742E+01 -0.33079019974E+02  0.66504361224E+01  0.33892675381E+02  0.00000000000E+00 0.  1.
</event>
<event>
 7    1  0.5837204E-012  0.5930198E+02  0.7816164E-02  0.1266605E+00
        -11   -1    0    0    0    0  0.00000000000E+00  0.00000000000E+00  0.45593999997E+02  0.45594000000E+02  0.51100000000E-03 0.  1.
         11   -1    0    0    0    0 -0.00000000000E+00 -0.00000000000E+00 -0.45593999997E+02  0.45594000000E+02  0.51100000000E-03 0. -1.
    9900012    2    1    2    0    0  0.19875902870E+02 -0.24792515414E+02 -0.26453944239E+01  0.59301977245E+02  0.50000060580E+02 0.  0.
         12    1    1    2    0    0 -0.19875902870E+02  0.24792515414E+02  0.26453944239E+01  0.31886022755E+02  0.00000000000E+00 0. -1.
         11    1    3    3    0    0  0.16467343879E+02 -0.26039651020E+02  0.93299791924E+01  0.32191386296E+02  0.51100000000E-03 0. -1.
        -11    1    3    3    0    0 -0.11445970847E+01 -0.41969774743E+01  0.62141402838E+01  0.75855297859E+01  0.51100000000E-03 0.  1.
         12    1    3    3    0    0  0.45531560761E+01  0.54441130801E+01 -0.18189513900E+02  0.19525061163E+02  0.00000000000E+00 0. -1.
</event>
<event>
 7    1  0.5837204E-012  0.5930196E+02  0.7816164E-02  0.1266605E+00
        -11   -1    0    0    0    0  0.00000000000E+00  0.00000000000E+00  0.45593999997E+02  0.45594000000E+02  0.51100000000E-03 0.  1.
         11   -1    0    0    0    0 -0.00000000000E+00 -0.00000000000E+00 -0.45593999997E+02  0.45594000000E+02  0.51100000000E-03 0. -1.
    9900012    2    1    2    0    0 -0.61991824973E+01 -0.79028379601E+01  0.30262759203E+02  0.59301963777E+02  0.50000036018E+02 0.  0.
         12    1    1    2    0    0  0.61991824973E+01  0.79028379601E+01 -0.30262759203E+02  0.31886036223E+02  0.00000000000E+00 0. -1.
         11    1    3    3    0    0  0.11033774552E+02  0.21544319073E+01 -0.44942068877E+01  0.12107173639E+02  0.51100000000E-03 0. -1.
        -11    1    3    3    0    0  0.32244023975E+01 -0.90310874382E+01  0.19241801298E+02  0.21498935523E+02  0.51100000000E-03 0.  1.
         12    1    3    3    0    0 -0.20457359447E+02 -0.10261824292E+01  0.15515164792E+02  0.25695854616E+02  0.00000000000E+00 0. -1.
</event>
<event>
 7    1  0.5837204E-012  0.5930194E+02  0.7816164E-02  0.1266605E+00
        -11   -1    0    0    0    0  0.00000000000E+00  0.00000000000E+00  0.45593999997E+02  0.45594000000E+02  0.51100000000E-03 0. -1.
         11   -1    0    0    0    0 -0.00000000000E+00 -0.00000000000E+00 -0.45593999997E+02  0.45594000000E+02  0.51100000000E-03 0.  1.
    9900012    2    1    2    0    0  0.21277429728E+02 -0.30211757230E+01 -0.23555554812E+02  0.59301942215E+02  0.49999996694E+02 0.  0.
         12    1    1    2    0    0 -0.21277429728E+02  0.30211757230E+01  0.23555554812E+02  0.31886057785E+02  0.00000000000E+00 0. -1.
         11    1    3    3    0    0  0.24379361611E+02  0.12675427436E+01 -0.25402252470E+01  0.24544096678E+02  0.51100000000E-03 0. -1.
        -11    1    3    3    0    0  0.86936991931E+01  0.57540286164E+01 -0.14715239268E+02  0.18034065486E+02  0.51100000000E-03 0.  1.
        -12    1    3    3    0    0 -0.11795631076E+02 -0.10042747083E+02 -0.63000902965E+01  0.16723780051E+02  0.00000000000E+00 0.  1.
</event>
<event>
 7    1  0.5837204E-012  0.5930198E+02  0.7816164E-02  0.1266605E+00
        -11   -1    0    0    0    0  0.00000000000E+00  0.00000000000E+00  0.45593999997E+02  0.45594000000E+02  0.51100000000E-03 0.  1.
         11   -1    0    0    0    0 -0.00000000000E+00 -0.00000000000E+00 -0.45593999997E+02  0.45594000000E+02  0.51100000000E-03 0. -1.
    9900012    2    1    2    0    0  0.30692119225E+02  0.79873485341E+01 -0.33037161824E+01  0.59301977047E+02  0.50000060219E+02 0.  0.
         12    1    1    2    0    0 -0.30692119225E+02 -0.79873485341E+01  0.33037161824E+01  0.31886022953E+02  0.00000000000E+00 0. -1.
         11    1    3    3    0    0  0.15051737851E+02  0.16281867795E+02  0.53749402731E+01  0.22815433689E+02  0.51100000000E-03 0. -1.
        -11    1    3    3    0    0  0.24481234432E+02 -0.75766793718E+01 -0.26538220097E+01  0.25763922084E+02  0.51100000000E-03 0.  1.
         12    1    3    3    0    0 -0.88408530573E+01 -0.71783988929E+00 -0.60248344458E+01  0.10722621274E+02  0.00000000000E+00 0. -1.
</event>
<event>
 7    1  0.5837204E-012  0.5930202E+02  0.7816164E-02  0.1266605E+00
        -11   -1    0    0    0    0  0.00000000000E+00  0.00000000000E+00  0.45593999997E+02  0.45594000000E+02  0.51100000000E-03 0.  1.
         11   -1    0    0    0    0 -0.00000000000E+00 -0.00000000000E+00 -0.45593999997E+02  0.45594000000E+02  0.51100000000E-03 0. -1.
    9900012    2    1    2    0    0  0.45775087339E+00 -0.26296412244E+02  0.18027898601E+02  0.59302016234E+02  0.50000131686E+02 0.  0.
         12    1    1    2    0    0 -0.45775087339E+00  0.26296412244E+02 -0.18027898601E+02  0.31885983766E+02  0.00000000000E+00 0. -1.
         11    1    3    3    0    0  0.25028899111E+01  0.13309016935E+01  0.43902672250E+01  0.52259165505E+01  0.51100000000E-03 0.  1.
        -11    1    3    3    0    0  0.61373503625E+01  0.83880006436E+01 -0.62508440325E+01  0.12128424286E+02  0.51100000000E-03 0. -1.
         12    1    3    3    0    0 -0.81824894002E+01 -0.36015314582E+02  0.19888475408E+02  0.41947675398E+02  0.00000000000E+00 0. -1.
</event>
<event>
 7    1  0.5837204E-012  0.5930194E+02  0.7816164E-02  0.1266605E+00
        -11   -1    0    0    0    0  0.00000000000E+00  0.00000000000E+00  0.45593999997E+02  0.45594000000E+02  0.51100000000E-03 0.  1.
         11   -1    0    0    0    0 -0.00000000000E+00 -0.00000000000E+00 -0.45593999997E+02  0.45594000000E+02  0.51100000000E-03 0. -1.
    9900012    2    1    2    0    0 -0.30644193857E+02  0.56666379674E+01 -0.67485650820E+01  0.59301944526E+02  0.50000000909E+02 0.  0.
         12    1    1    2    0    0  0.30644193857E+02 -0.56666379674E+01  0.67485650820E+01  0.31886055474E+02  0.00000000000E+00 0. -1.
         11    1    3    3    0    0 -0.18154296515E+02  0.39097992429E+01 -0.18054156287E+02  0.25900146169E+02  0.51100000000E-03 0. -1.
        -11    1    3    3    0    0  0.55986614957E+00  0.13717176676E+02  0.48924372175E+01  0.14574303697E+02  0.51100000000E-03 0.  1.
         12    1    3    3    0    0 -0.13049763491E+02 -0.11960337952E+02  0.64131539877E+01  0.18827494660E+02  0.00000000000E+00 0. -1.
</event>
<event>
 7    1  0.5837204E-012  0.5930198E+02  0.7816164E-02  0.1266605E+00
        -11   -1    0    0    0    0  0.00000000000E+00  0.00000000000E+00  0.45593999997E+02  0.45594000000E+02  0.51100000000E-03 0.  1.
         11   -1    0    0    0    0 -0.00000000000E+00 -0.00000000000E+00 -0.45593999997E+02  0.45594000000E+02  0.51100000000E-03 0. -1.
    9900012    2    1    2    0    0  0.71410277671E+01 -0.29582174452E+02  0.95194013016E+01  0.59301979176E+02  0.50000064102E+02 0.  0.
         12    1    1    2    0    0 -0.71410277671E+01  0.29582174452E+02 -0.95194013016E+01  0.31886020824E+02  0.00000000000E+00 0. -1.
         11    1    3    3    0    0  0.68543844669E+00 -0.24208467872E-01 -0.65900551975E+01  0.66256501327E+01  0.51100000000E-03 0. -1.
        -11    1    3    3    0    0  0.64322536233E+01 -0.17364566041E+02 -0.11979658900E+02  0.22054801474E+02  0.51100000000E-03 0.  1.
        -12    1    3    3    0    0  0.23335697084E-01 -0.12193399943E+02  0.28089115399E+02  0.30621527569E+02  0.00000000000E+00 0.  1.
</event>
<event>
 7    1  0.5837204E-012  0.5930196E+02  0.7816164E-02  0.1266605E+00
        -11   -1    0    0    0    0  0.00000000000E+00  0.00000000000E+00  0.45593999997E+02  0.45594000000E+02  0.51100000000E-03 0. -1.
         11   -1    0    0    0    0 -0.00000000000E+00 -0.00000000000E+00 -0.45593999997E+02  0.45594000000E+02  0.51100000000E-03 0.  1.
    9900012    2    1    2    0    0 -0.89690572201E+01 -0.21767952313E+02 -0.21504229054E+02  0.59301959128E+02  0.50000027539E+02 0.  0.
         12    1    1    2    0    0  0.89690572201E+01  0.21767952313E+02  0.21504229054E+02  0.31886040872E+02  0.00000000000E+00 0. -1.
         11    1    3    3    0    0 -0.60914105225E+01 -0.42150280662E+01  0.12128572940E+02  0.14211756597E+02  0.51100000000E-03 0. -1.
        -11    1    3    3    0    0  0.92792605800E+01 -0.16338067875E+01 -0.68644655795E+01  0.11657396342E+02  0.51100000000E-03 0.  1.
         12    1    3    3    0    0 -0.12156907278E+02 -0.15919117459E+02 -0.26768336414E+02  0.33432806188E+02  0.00000000000E+00 0. -1.
</event>
<event>
 7    1  0.5837204E-012  0.5930194E+02  0.7816164E-02  0.1266605E+00
        -11   -1    0    0    0    0  0.00000000000E+00  0.00000000000E+00  0.45593999997E+02  0.45594000000E+02  0.51100000000E-03 0.  1.
         11   -1    0    0    0    0 -0.00000000000E+00 -0.00000000000E+00 -0.45593999997E+02  0.45594000000E+02  0.51100000000E-03 0. -1.
    9900012    2    1    2    0    0  0.27161470480E+02  0.76249506876E+01 -0.14860526560E+02  0.59301943466E+02  0.49999998976E+02 0.  0.
         12    1    1    2    0    0 -0.27161470480E+02 -0.76249506876E+01  0.14860526560E+02  0.31886056534E+02  0.00000000000E+00 0. -1.
         11    1    3    3    0    0  0.38741802987E+01  0.10199616611E+02 -0.14542778580E+02  0.18180590229E+02  0.51100000000E-03 0. -1.
        -11    1    3    3    0    0  0.19581175731E+02 -0.23915754065E+01 -0.15753979778E+02  0.25245394729E+02  0.51100000000E-03 0.  1.
        -12    1    3    3    0    0  0.37061144505E+01 -0.18309051708E+00  0.15436231797E+02  0.15875958508E+02  0.00000000000E+00 0.  1.
</event>
<event>
 7    1  0.5837204E-012  0.5930194E+02  0.7816164E-02  0.1266605E+00
        -11   -1    0    0    0    0  0.00000000000E+00  0.00000000000E+00  0.45593999997E+02  0.45594000000E+02  0.51100000000E-03 0.  1.
         11   -1    0    0    0    0 -0.00000000000E+00 -0.00000000000E+00 -0.45593999997E+02  0.45594000000E+02  0.51100000000E-03 0. -1.
    9900012    2    1    2    0    0 -0.17200968751E+02  0.26831927523E+02  0.94620428118E+00  0.59301937792E+02  0.49999988628E+02 0.  0.
         12    1    1    2    0    0  0.17200968751E+02 -0.26831927523E+02 -0.94620428118E+00  0.31886062208E+02  0.00000000000E+00 0. -1.
         11    1    3    3    0    0  0.21972966503E+01  0.19416162044E+02 -0.14047093840E+01  0.19590525001E+02  0.51100000000E-03 0. -1.
        -11    1    3    3    0    0  0.89442517529E+01  0.47085335575E+01 -0.34009057870E+01  0.10664712285E+02  0.51100000000E-03 0.  1.
        -12    1    3    3    0    0 -0.28342517154E+02  0.27072319215E+01  0.57518194521E+01  0.29046700507E+02  0.00000000000E+00 0.  1.
</event>
<event>
 7    1  0.5837204E-012  0.5930218E+02  0.7816164E-02  0.1266604E+00
        -11   -1    0    0    0    0  0.00000000000E+00  0.00000000000E+00  0.45593999997E+02  0.45594000000E+02  0.51100000000E-03 0. -1.
         11   -1    0    0    0    0 -0.00000000000E+00 -0.00000000000E+00 -0.45593999997E+02  0.45594000000E+02  0.51100000000E-03 0.  1.
    9900012    2    1    2    0    0 -0.26826130697E+02  0.18265763618E+01 -0.17138482441E+02  0.59302184192E+02  0.50000437999E+02 0.  0.
         12    1    1    2    0    0  0.26826130697E+02 -0.18265763618E+01  0.17138482441E+02  0.31885815808E+02  0.00000000000E+00 0. -1.
         11    1    3    3    0    0 -0.37268290381E+01 -0.17674826189E+02 -0.42604071351E+01  0.18559089544E+02  0.51100000000E-03 0. -1.
        -11    1    3    3    0    0  0.22535622373E+01 -0.20853981215E+01 -0.60031145206E+01  0.67427599906E+01  0.51100000000E-03 0.  1.
        -12    1    3    3    0    0 -0.25352863896E+02  0.21586800672E+02 -0.68749607852E+01  0.34000334657E+02  0.00000000000E+00 0.  1.
</event>
<event>
 7    1  0.5837204E-012  0.5930195E+02  0.7816164E-02  0.1266605E+00
        -11   -1    0    0    0    0  0.00000000000E+00  0.00000000000E+00  0.45593999997E+02  0.45594000000E+02  0.51100000000E-03 0.  1.
         11   -1    0    0    0    0 -0.00000000000E+00 -0.00000000000E+00 -0.45593999997E+02  0.45594000000E+02  0.51100000000E-03 0. -1.
    9900012    2    1    2    0    0  0.92540550467E+01 -0.10303230859E+02 -0.28721530104E+02  0.59301946740E+02  0.50000004947E+02 0.  0.
         12    1    1    2    0    0 -0.92540550467E+01  0.10303230859E+02  0.28721530104E+02  0.31886053260E+02  0.00000000000E+00 0. -1.
         11    1    3    3    0    0  0.23127244438E+01 -0.13311429612E+02  0.27316521487E+01  0.13784222009E+02  0.51100000000E-03 0. -1.
        -11    1    3    3    0    0 -0.11275561357E+02 -0.45107620492E+01 -0.66751351355E+01  0.13857946728E+02  0.51100000000E-03 0.  1.
        -12    1    3    3    0    0  0.18216891960E+02  0.75189608021E+01 -0.24778047118E+02  0.31659778003E+02  0.00000000000E+00 0.  1.
</event>
<event>
 7    1  0.5837204E-012  0.5930191E+02  0.7816164E-02  0.1266605E+00
        -11   -1    0    0    0    0  0.00000000000E+00  0.00000000000E+00  0.45593999997E+02  0.45594000000E+02  0.51100000000E-03 0. -1.
         11   -1    0    0    0    0 -0.00000000000E+00 -0.00000000000E+00 -0.45593999997E+02  0.45594000000E+02  0.51100000000E-03 0.  1.
    9900012    2    1    2    0    0 -0.18186987390E+02 -0.23430093044E+02 -0.11704137486E+02  0.59301912051E+02  0.49999941683E+02 0.  0.
         12    1    1    2    0    0  0.18186987390E+02  0.23430093044E+02  0.11704137486E+02  0.31886087949E+02  0.00000000000E+00 0. -1.
         11    1    3    3    0    0 -0.20277863925E+00 -0.10984526429E+01  0.10377858406E+02  0.10437799708E+02  0.51100000000E-03 0. -1.
        -11    1    3    3    0    0 -0.10914408560E+02  0.71912386738E+01 -0.47473116572E+01  0.13905941037E+02  0.51100000000E-03 0.  1.
         12    1    3    3    0    0 -0.70698001902E+01 -0.29522879075E+02 -0.17334684235E+02  0.34958171307E+02  0.00000000000E+00 0. -1.
</event>
<event>
 7    1  0.5837204E-012  0.5930195E+02  0.7816164E-02  0.1266605E+00
        -11   -1    0    0    0    0  0.00000000000E+00  0.00000000000E+00  0.45593999997E+02  0.45594000000E+02  0.51100000000E-03 0. -1.
         11   -1    0    0    0    0 -0.00000000000E+00 -0.00000000000E+00 -0.45593999997E+02  0.45594000000E+02  0.51100000000E-03 0.  1.
    9900012    2    1    2    0    0  0.16781920423E+02 -0.20094437564E+02 -0.18201674921E+02  0.59301949068E+02  0.50000009192E+02 0.  0.
         12    1    1    2    0    0 -0.16781920423E+02  0.20094437564E+02  0.18201674921E+02  0.31886050932E+02  0.00000000000E+00 0. -1.
         11    1    3    3    0    0  0.48547697325E+01 -0.19330285356E+02 -0.31809096296E+01  0.20182836952E+02  0.51100000000E-03 0. -1.
        -11    1    3    3    0    0  0.85883589624E+01 -0.14223195071E+02 -0.18455850037E+02  0.24832993951E+02  0.51100000000E-03 0.  1.
         12    1    3    3    0    0  0.33387917285E+01  0.13459042864E+02  0.34350847450E+01  0.14286118165E+02  0.00000000000E+00 0. -1.
</event>
<event>
 7    1  0.5837204E-012  0.5930189E+02  0.7816164E-02  0.1266605E+00
        -11   -1    0    0    0    0  0.00000000000E+00  0.00000000000E+00  0.45593999997E+02  0.45594000000E+02  0.51100000000E-03 0. -1.
         11   -1    0    0    0    0 -0.00000000000E+00 -0.00000000000E+00 -0.45593999997E+02  0.45594000000E+02  0.51100000000E-03 0.  1.
    9900012    2    1    2    0    0  0.46194047967E+01  0.26175147532E+02 -0.17613824384E+02  0.59301889255E+02  0.49999900108E+02 0.  0.
         12    1    1    2    0    0 -0.46194047967E+01 -0.26175147532E+02  0.17613824384E+02  0.31886110745E+02  0.00000000000E+00 0. -1.
         11    1    3    3    0    0  0.17358136889E+02  0.11878914366E+01  0.30367795700E+01  0.17661767542E+02  0.51100000000E-03 0. -1.
        -11    1    3    3    0    0 -0.19742677664E+01 -0.12521581450E+01  0.36213280785E+01  0.43104118767E+01  0.51100000000E-03 0.  1.
        -12    1    3    3    0    0 -0.10764464325E+02  0.26239414240E+02 -0.24271932032E+02  0.37329709836E+02  0.00000000000E+00 0.  1.
</event>
<event>
 7    1  0.5837204E-012  0.5930195E+02  0.7816164E-02  0.1266605E+00
        -11   -1    0    0    0    0  0.00000000000E+00  0.00000000000E+00  0.45593999997E+02  0.45594000000E+02  0.51100000000E-03 0. -1.
         11   -1    0    0    0    0 -0.00000000000E+00 -0.00000000000E+00 -0.45593999997E+02  0.45594000000E+02  0.51100000000E-03 0.  1.
    9900012    2    1    2    0    0 -0.28188020887E+02 -0.94799658090E+01 -0.11501556181E+02  0.59301951831E+02  0.50000014231E+02 0.  0.
         12    1    1    2    0    0  0.28188020887E+02  0.94799658090E+01  0.11501556181E+02  0.31886048169E+02  0.00000000000E+00 0. -1.
         11    1    3    3    0    0 -0.13628632881E+02 -0.21240443659E+02 -0.52665733814E+01  0.25780474715E+02  0.51100000000E-03 0.  1.
        -11    1    3    3    0    0  0.74935331738E+01  0.64984189869E+01  0.31004258154E+00  0.99236392226E+01  0.51100000000E-03 0. -1.
        -12    1    3    3    0    0 -0.22052921179E+02  0.52620588635E+01 -0.65450253811E+01  0.23597837894E+02  0.00000000000E+00 0.  1.
</event>
<event>
 7    1  0.5837204E-012  0.5930195E+02  0.7816164E-02  0.1266605E+00
        -11   -1    0    0    0    0  0.00000000000E+00  0.00000000000E+00  0.45593999997E+02  0.45594000000E+02  0.51100000000E-03 0.  1.
         11   -1    0    0    0    0 -0.00000000000E+00 -0.00000000000E+00 -0.45593999997E+02  0.45594000000E+02  0.51100000000E-03 0. -1.
    9900012    2    1    2    0    0 -0.15736198264E+02 -0.18388815131E+02  0.20759188565E+02  0.59301947131E+02  0.50000005659E+02 0.  0.
         12    1    1    2    0    0  0.15736198264E+02  0.18388815131E+02 -0.20759188565E+02  0.31886052869E+02  0.00000000000E+00 0. -1.
         11    1    3    3    0    0 -0.58616705211E+01 -0.63908099016E+01 -0.74485095782E+01  0.11431619644E+02  0.51100000000E-03 0. -1.
        -11    1    3    3    0    0 -0.68685296381E+01 -0.17464467412E+02 -0.21828137685E+00  0.18767844000E+02  0.51100000000E-03 0.  1.
        -12    1    3    3    0    0 -0.30059981048E+01  0.54664621830E+01  0.28425979520E+02  0.29102483487E+02  0.00000000000E+00 0.  1.
</event>
<event>
 7    1  0.5837204E-012  0.5930196E+02  0.7816164E-02  0.1266605E+00
        -11   -1    0    0    0    0  0.00000000000E+00  0.00000000000E+00  0.45593999997E+02  0.45594000000E+02  0.51100000000E-03 0.  1.
         11   -1    0    0    0    0 -0.00000000000E+00 -0.00000000000E+00 -0.45593999997E+02  0.45594000000E+02  0.51100000000E-03 0. -1.
    9900012    2    1    2    0    0  0.27077390054E+02 -0.75897643640E+01  0.15030964509E+02  0.59301961216E+02  0.50000031348E+02 0.  0.
         12    1    1    2    0    0 -0.27077390054E+02  0.75897643640E+01 -0.15030964509E+02  0.31886038784E+02  0.00000000000E+00 0. -1.
         11    1    3    3    0    0  0.97564770808E+01 -0.13030409978E+02  0.66911331165E+01  0.17599763972E+02  0.51100000000E-03 0. -1.
        -11    1    3    3    0    0  0.17075267938E+02  0.11613187068E+02 -0.95677906118E+01  0.22759031317E+02  0.51100000000E-03 0.  1.
         12    1    3    3    0    0  0.24564503540E+00 -0.61725414542E+01  0.17907622005E+02  0.18943165927E+02  0.00000000000E+00 0. -1.
</event>
<event>
 7    1  0.5837204E-012  0.5930167E+02  0.7816164E-02  0.1266606E+00
        -11   -1    0    0    0    0  0.00000000000E+00  0.00000000000E+00  0.45593999997E+02  0.45594000000E+02  0.51100000000E-03 0.  1.
         11   -1    0    0    0    0 -0.00000000000E+00 -0.00000000000E+00 -0.45593999997E+02  0.45594000000E+02  0.51100000000E-03 0. -1.
    9900012    2    1    2    0    0 -0.68881231748E+01  0.29194307611E+02  0.10815926893E+02  0.59301668879E+02  0.49999498193E+02 0.  0.
         12    1    1    2    0    0  0.68881231748E+01 -0.29194307611E+02 -0.10815926893E+02  0.31886331121E+02  0.00000000000E+00 0. -1.
         11    1    3    3    0    0 -0.12562658885E+02  0.22111529871E+02 -0.16033814899E+02  0.30063655333E+02  0.51100000000E-03 0. -1.
        -11    1    3    3    0    0  0.23122443692E+01  0.68192794815E+00  0.14143813417E+01  0.27949909821E+01  0.51100000000E-03 0.  1.
        -12    1    3    3    0    0  0.33622913415E+01  0.64008497922E+01  0.25435360450E+02  0.26443022564E+02  0.00000000000E+00 0.  1.
</event>
<event>
 7    1  0.5837204E-012  0.5930186E+02  0.7816164E-02  0.1266605E+00
        -11   -1    0    0    0    0  0.00000000000E+00  0.00000000000E+00  0.45593999997E+02  0.45594000000E+02  0.51100000000E-03 0. -1.
         11   -1    0    0    0    0 -0.00000000000E+00 -0.00000000000E+00 -0.45593999997E+02  0.45594000000E+02  0.51100000000E-03 0.  1.
    9900012    2    1    2    0    0 -0.16350312406E+02  0.16524449205E+02 -0.21825124034E+02  0.59301856044E+02  0.49999839539E+02 0.  0.
         12    1    1    2    0    0  0.16350312406E+02 -0.16524449205E+02  0.21825124034E+02  0.31886143956E+02  0.00000000000E+00 0. -1.
         11    1    3    3    0    0 -0.33389921150E+01  0.13491013090E+01  0.54801365743E+01  0.65575025597E+01  0.51100000000E-03 0. -1.
        -11    1    3    3    0    0  0.41326285227E+01 -0.74933007604E+01  0.48440611489E+01  0.98332651478E+01  0.51100000000E-03 0.  1.
        -12    1    3    3    0    0 -0.17143948813E+02  0.22668648656E+02 -0.32149321757E+02  0.42911088337E+02  0.00000000000E+00 0.  1.
</event>
<event>
 7    1  0.5837204E-012  0.5930197E+02  0.7816164E-02  0.1266605E+00
        -11   -1    0    0    0    0  0.00000000000E+00  0.00000000000E+00  0.45593999997E+02  0.45594000000E+02  0.51100000000E-03 0.  1.
         11   -1    0    0    0    0 -0.00000000000E+00 -0.00000000000E+00 -0.45593999997E+02  0.45594000000E+02  0.51100000000E-03 0. -1.
    9900012    2    1    2    0    0 -0.11205378569E+01 -0.13182055911E+02  0.29012006089E+02  0.59301973273E+02  0.50000053336E+02 0.  0.
         12    1    1    2    0    0  0.11205378569E+01  0.13182055911E+02 -0.29012006089E+02  0.31886026727E+02  0.00000000000E+00 0. -1.
         11    1    3    3    0    0  0.15485285024E+01 -0.54657966966E+01  0.22759413666E+02  0.23457702034E+02  0.51100000000E-03 0. -1.
        -11    1    3    3    0    0 -0.18321423741E+02 -0.27790180495E+01  0.79479917736E+00  0.18548024564E+02  0.51100000000E-03 0.  1.
         12    1    3    3    0    0  0.15652357382E+02 -0.49372411648E+01  0.54577932461E+01  0.17296246675E+02  0.00000000000E+00 0. -1.
</event>
<event>
 7    1  0.5837204E-012  0.5930194E+02  0.7816164E-02  0.1266605E+00
        -11   -1    0    0    0    0  0.00000000000E+00  0.00000000000E+00  0.45593999997E+02  0.45594000000E+02  0.51100000000E-03 0. -1.
         11   -1    0    0    0    0 -0.00000000000E+00 -0.00000000000E+00 -0.45593999997E+02  0.45594000000E+02  0.51100000000E-03 0.  1.
    9900012    2    1    2    0    0 -0.12618206242E+02  0.12017505472E+01 -0.29258461597E+02  0.59301938654E+02  0.49999990200E+02 0.  0.
         12    1    1    2    0    0  0.12618206242E+02 -0.12017505472E+01  0.29258461597E+02  0.31886061346E+02  0.00000000000E+00 0. -1.
         11    1    3    3    0    0  0.81959985304E+01 -0.21837830602E+01 -0.17237004909E+02  0.19210872934E+02  0.51100000000E-03 0. -1.
        -11    1    3    3    0    0 -0.74627191386E+01 -0.75163697720E+01  0.82907955688E+01  0.13450846922E+02  0.51100000000E-03 0.  1.
         12    1    3    3    0    0 -0.13351485634E+02  0.10901903379E+02 -0.20312252256E+02  0.26640218799E+02  0.00000000000E+00 0. -1.
</event>
<event>
 7    1  0.5837204E-012  0.5930200E+02  0.7816164E-02  0.1266605E+00
        -11   -1    0    0    0    0  0.00000000000E+00  0.00000000000E+00  0.45593999997E+02  0.45594000000E+02  0.51100000000E-03 0. -1.
         11   -1    0    0    0    0 -0.00000000000E+00 -0.00000000000E+00 -0.45593999997E+02  0.45594000000E+02  0.51100000000E-03 0.  1.
    9900012    2    1    2    0    0 -0.24769665904E+02  0.42698441352E+01  0.19620127018E+02  0.59301995199E+02  0.50000093325E+02 0.  0.
         12    1    1    2    0    0  0.24769665904E+02 -0.42698441352E+01 -0.19620127018E+02  0.31886004801E+02  0.00000000000E+00 0. -1.
         11    1    3    3    0    0 -0.37848482802E+01 -0.71813414834E+01 -0.52124283529E+01  0.96470799520E+01  0.51100000000E-03 0. -1.
        -11    1    3    3    0    0 -0.22543969132E+02  0.16150229843E+01 -0.31842196027E+00  0.22603987176E+02  0.51100000000E-03 0.  1.
        -12    1    3    3    0    0  0.15591515081E+01  0.98361626343E+01  0.25150977331E+02  0.27050928071E+02  0.00000000000E+00 0.  1.
</event>
<event>
 7    1  0.5837204E-012  0.5930196E+02  0.7816164E-02  0.1266605E+00
        -11   -1    0    0    0    0  0.00000000000E+00  0.00000000000E+00  0.45593999997E+02  0.45594000000E+02  0.51100000000E-03 0.  1.
         11   -1    0    0    0    0 -0.00000000000E+00 -0.00000000000E+00 -0.45593999997E+02  0.45594000000E+02  0.51100000000E-03 0. -1.
    9900012    2    1    2    0    0 -0.82552043674E+01  0.31083091905E+00  0.30797317168E+02  0.59301956662E+02  0.50000023041E+02 0.  0.
         12    1    1    2    0    0  0.82552043674E+01 -0.31083091905E+00 -0.30797317168E+02  0.31886043338E+02  0.00000000000E+00 0. -1.
         11    1    3    3    0    0  0.14280953906E+01  0.59926442538E+01  0.44113406201E+00  0.61762319515E+01  0.51100000000E-03 0. -1.
        -11    1    3    3    0    0  0.13681581828E+02 -0.48521980364E+01 -0.36372157134E+00  0.14521081253E+02  0.51100000000E-03 0.  1.
         12    1    3    3    0    0 -0.23364881586E+02 -0.82961529837E+00  0.30719904678E+02  0.38604643457E+02  0.00000000000E+00 0. -1.
</event>
<event>
 7    1  0.5837204E-012  0.5930193E+02  0.7816164E-02  0.1266605E+00
        -11   -1    0    0    0    0  0.00000000000E+00  0.00000000000E+00  0.45593999997E+02  0.45594000000E+02  0.51100000000E-03 0.  1.
         11   -1    0    0    0    0 -0.00000000000E+00 -0.00000000000E+00 -0.45593999997E+02  0.45594000000E+02  0.51100000000E-03 0. -1.
    9900012    2    1    2    0    0 -0.30757600962E+02  0.25284745151E+01 -0.80186351597E+01  0.59301926079E+02  0.49999967265E+02 0.  0.
         12    1    1    2    0    0  0.30757600962E+02 -0.25284745151E+01  0.80186351597E+01  0.31886073921E+02  0.00000000000E+00 0. -1.
         11    1    3    3    0    0 -0.19599197250E+02 -0.67296942249E+01 -0.81349057342E+01  0.22261940813E+02  0.51100000000E-03 0. -1.
        -11    1    3    3    0    0 -0.97814666162E+01  0.23806244633E+01  0.16437597863E+02  0.19275349173E+02  0.51100000000E-03 0.  1.
         12    1    3    3    0    0 -0.13769370952E+01  0.68775442767E+01 -0.16321327288E+02  0.17764636092E+02  0.00000000000E+00 0. -1.
</event>
<event>
 7    1  0.5837204E-012  0.5930193E+02  0.7816164E-02  0.1266605E+00
        -11   -1    0    0    0    0  0.00000000000E+00  0.00000000000E+00  0.45593999997E+02  0.45594000000E+02  0.51100000000E-03 0.  1.
         11   -1    0    0    0    0 -0.00000000000E+00 -0.00000000000E+00 -0.45593999997E+02  0.45594000000E+02  0.51100000000E-03 0. -1.
    9900012    2    1    2    0    0 -0.10197007660E+01  0.17819467135E+02  0.26422499444E+02  0.59301926621E+02  0.49999968255E+02 0.  0.
         12    1    1    2    0    0  0.10197007660E+01 -0.17819467135E+02 -0.26422499444E+02  0.31886073379E+02  0.00000000000E+00 0. -1.
         11    1    3    3    0    0 -0.79484344273E+01  0.21894014545E+02  0.22016225125E+02  0.32050579586E+02  0.51100000000E-03 0. -1.
        -11    1    3    3    0    0  0.59117626880E+01  0.69362717248E+01  0.11071568996E+02  0.14340168890E+02  0.51100000000E-03 0.  1.
         12    1    3    3    0    0  0.10169709733E+01 -0.11010819134E+02 -0.66652946769E+01  0.12911178145E+02  0.00000000000E+00 0. -1.
</event>
<event>
 7    1  0.5837204E-012  0.5930193E+02  0.7816164E-02  0.1266605E+00
        -11   -1    0    0    0    0  0.00000000000E+00  0.00000000000E+00  0.45593999997E+02  0.45594000000E+02  0.51100000000E-03 0.  1.
         11   -1    0    0    0    0 -0.00000000000E+00 -0.00000000000E+00 -0.45593999997E+02  0.45594000000E+02  0.51100000000E-03 0. -1.
    9900012    2    1    2    0    0 -0.14577488813E+02 -0.70630056377E+01  0.27465104078E+02  0.59301934537E+02  0.49999982690E+02 0.  0.
         12    1    1    2    0    0  0.14577488813E+02  0.70630056377E+01 -0.27465104078E+02  0.31886065463E+02  0.00000000000E+00 0. -1.
         11    1    3    3    0    0 -0.80764867903E+01  0.78805315262E+01  0.25062516369E+02  0.27485671595E+02  0.51100000000E-03 0. -1.
        -11    1    3    3    0    0 -0.58911386188E+01  0.17199929655E+01  0.11342409813E+02  0.12896284374E+02  0.51100000000E-03 0.  1.
        -12    1    3    3    0    0 -0.60986340394E+00 -0.16663530129E+02 -0.89398221042E+01  0.18919978568E+02  0.00000000000E+00 0.  1.
</event>
<event>
 7    1  0.5837204E-012  0.5930197E+02  0.7816164E-02  0.1266605E+00
        -11   -1    0    0    0    0  0.00000000000E+00  0.00000000000E+00  0.45593999997E+02  0.45594000000E+02  0.51100000000E-03 0.  1.
         11   -1    0    0    0    0 -0.00000000000E+00 -0.00000000000E+00 -0.45593999997E+02  0.45594000000E+02  0.51100000000E-03 0. -1.
    9900012    2    1    2    0    0  0.78826733498E+01 -0.28470966527E+02  0.11999422558E+02  0.59301974599E+02  0.50000055755E+02 0.  0.
         12    1    1    2    0    0 -0.78826733498E+01  0.28470966527E+02 -0.11999422558E+02  0.31886025401E+02  0.00000000000E+00 0. -1.
         11    1    3    3    0    0  0.56313446741E+01  0.23697161359E+01  0.50751918114E+01  0.79426173008E+01  0.51100000000E-03 0. -1.
        -11    1    3    3    0    0 -0.91672547349E+01  0.19373188797E+01  0.13098290675E+02  0.16104564033E+02  0.51100000000E-03 0.  1.
         12    1    3    3    0    0  0.11418583411E+02 -0.32778001543E+02 -0.61740599278E+01  0.35254793266E+02  0.00000000000E+00 0. -1.
</event>
<event>
 7    1  0.5837204E-012  0.5930195E+02  0.7816164E-02  0.1266605E+00
        -11   -1    0    0    0    0  0.00000000000E+00  0.00000000000E+00  0.45593999997E+02  0.45594000000E+02  0.51100000000E-03 0.  1.
         11   -1    0    0    0    0 -0.00000000000E+00 -0.00000000000E+00 -0.45593999997E+02  0.45594000000E+02  0.51100000000E-03 0. -1.
    9900012    2    1    2    0    0 -0.28673014370E+01 -0.31042499216E+02 -0.66979297295E+01  0.59301946030E+02  0.50000003652E+02 0.  0.
         12    1    1    2    0    0  0.28673014370E+01  0.31042499216E+02  0.66979297295E+01  0.31886053970E+02  0.00000000000E+00 0. -1.
         11    1    3    3    0    0  0.12020579683E+02 -0.18526695068E+02 -0.22684471404E+02  0.31659406331E+02  0.51100000000E-03 0. -1.
        -11    1    3    3    0    0 -0.10826878011E+01 -0.47572087798E+01 -0.34868631823E+00  0.48913015301E+01  0.51100000000E-03 0.  1.
        -12    1    3    3    0    0 -0.13805193319E+02 -0.77585953683E+01  0.16335227993E+02  0.22751238170E+02  0.00000000000E+00 0.  1.
</event>
<event>
 7    1  0.5837204E-012  0.5930194E+02  0.7816164E-02  0.1266605E+00
        -11   -1    0    0    0    0  0.00000000000E+00  0.00000000000E+00  0.45593999997E+02  0.45594000000E+02  0.51100000000E-03 0.  1.
         11   -1    0    0    0    0 -0.00000000000E+00 -0.00000000000E+00 -0.45593999997E+02  0.45594000000E+02  0.51100000000E-03 0. -1.
    9900012    2    1    2    0    0 -0.80207670211E+01  0.27755938303E+02  0.13490595330E+02  0.59301937574E+02  0.49999988231E+02 0.  0.
         12    1    1    2    0    0  0.80207670211E+01 -0.27755938303E+02 -0.13490595330E+02  0.31886062426E+02  0.00000000000E+00 0. -1.
         11    1    3    3    0    0  0.13304388492E+02  0.34305433133E+00  0.49924717986E+01  0.14214401652E+02  0.51100000000E-03 0. -1.
        -11    1    3    3    0    0 -0.48637226966E+01  0.36897318758E+01  0.14377585044E+02  0.15620015100E+02  0.51100000000E-03 0.  1.
        -12    1    3    3    0    0 -0.16461432816E+02  0.23723152095E+02 -0.58794615126E+01  0.29467520822E+02  0.00000000000E+00 0.  1.
</event>
<event>
 7    1  0.5837204E-012  0.5930195E+02  0.7816164E-02  0.1266605E+00
        -11   -1    0    0    0    0  0.00000000000E+00  0.00000000000E+00  0.45593999997E+02  0.45594000000E+02  0.51100000000E-03 0.  1.
         11   -1    0    0    0    0 -0.00000000000E+00 -0.00000000000E+00 -0.45593999997E+02  0.45594000000E+02  0.51100000000E-03 0. -1.
    9900012    2    1    2    0    0  0.49792968833E+01  0.10701346384E+02  0.29621072794E+02  0.59301950302E+02  0.50000011442E+02 0.  0.
         12    1    1    2    0    0 -0.49792968833E+01 -0.10701346384E+02 -0.29621072794E+02  0.31886049698E+02  0.00000000000E+00 0. -1.
         11    1    3    3    0    0  0.49612662710E+01 -0.10835824685E+02  0.83822576934E+01  0.14570226625E+02  0.51100000000E-03 0. -1.
        -11    1    3    3    0    0  0.10506285900E+02 -0.33085064958E+01  0.10925999471E+01  0.11068967140E+02  0.51100000000E-03 0.  1.
        -12    1    3    3    0    0 -0.10488255287E+02  0.24845677565E+02  0.20146215154E+02  0.33662756537E+02  0.00000000000E+00 0.  1.
</event>
<event>
 7    1  0.5837204E-012  0.5930193E+02  0.7816164E-02  0.1266605E+00
        -11   -1    0    0    0    0  0.00000000000E+00  0.00000000000E+00  0.45593999997E+02  0.45594000000E+02  0.51100000000E-03 0.  1.
         11   -1    0    0    0    0 -0.00000000000E+00 -0.00000000000E+00 -0.45593999997E+02  0.45594000000E+02  0.51100000000E-03 0. -1.
    9900012    2    1    2    0    0 -0.10993006496E+02  0.19270009736E+02  0.22902877463E+02  0.59301933088E+02  0.49999980048E+02 0.  0.
         12    1    1    2    0    0  0.10993006496E+02 -0.19270009736E+02 -0.22902877463E+02  0.31886066912E+02  0.00000000000E+00 0. -1.
         11    1    3    3    0    0 -0.34088164025E+01  0.14934571486E+01  0.26357798459E+01  0.45604582201E+01  0.51100000000E-03 0. -1.
        -11    1    3    3    0    0 -0.22722310335E+02 -0.35265036172E+01  0.16580548255E+02  0.28348795309E+02  0.51100000000E-03 0.  1.
        -12    1    3    3    0    0  0.15138120242E+02  0.21303056204E+02  0.36865493619E+01  0.26392679559E+02  0.00000000000E+00 0.  1.
</event>
<event>
 7    1  0.5837204E-012  0.5930193E+02  0.7816164E-02  0.1266605E+00
        -11   -1    0    0    0    0  0.00000000000E+00  0.00000000000E+00  0.45593999997E+02  0.45594000000E+02  0.51100000000E-03 0.  1.
         11   -1    0    0    0    0 -0.00000000000E+00 -0.00000000000E+00 -0.45593999997E+02  0.45594000000E+02  0.51100000000E-03 0. -1.
    9900012    2    1    2    0    0  0.31789246632E+02  0.10576137940E+01 -0.22465468999E+01  0.59301925903E+02  0.49999966945E+02 0.  0.
         12    1    1    2    0    0 -0.31789246632E+02 -0.10576137940E+01  0.22465468999E+01  0.31886074097E+02  0.00000000000E+00 0. -1.
         11    1    3    3    0    0 -0.35414582973E+01  0.16552088851E+02 -0.93280866989E+01  0.19326840764E+02  0.51100000000E-03 0. -1.
        -11    1    3    3    0    0  0.20009044608E+02 -0.88544893669E+01  0.11343917404E+00  0.21880966998E+02  0.51100000000E-03 0.  1.
        -12    1    3    3    0    0  0.15321660321E+02 -0.66399856904E+01  0.69681006250E+01  0.18094118141E+02  0.00000000000E+00 0.  1.
</event>
<event>
 7    1  0.5837204E-012  0.5930194E+02  0.7816164E-02  0.1266605E+00
        -11   -1    0    0    0    0  0.00000000000E+00  0.00000000000E+00  0.45593999997E+02  0.45594000000E+02  0.51100000000E-03 0.  1.
         11   -1    0    0    0    0 -0.00000000000E+00 -0.00000000000E+00 -0.45593999997E+02  0.45594000000E+02  0.51100000000E-03 0. -1.
    9900012    2    1    2    0    0 -0.19201347870E+02  0.19843810234E+02 -0.15945296929E+02  0.59301936292E+02  0.49999985892E+02 0.  0.
         12    1    1    2    0    0  0.19201347870E+02 -0.19843810234E+02  0.15945296929E+02  0.31886063708E+02  0.00000000000E+00 0. -1.
         11    1    3    3    0    0 -0.35105841006E+01  0.77609924145E+01 -0.51234019439E+01  0.99401434459E+01  0.51100000000E-03 0.  1.
        -11    1    3    3    0    0  0.12585059367E+02  0.13139408584E+02  0.19864671950E+01  0.18302290277E+02  0.51100000000E-03 0. -1.
         12    1    3    3    0    0 -0.28275823137E+02 -0.10565907646E+01 -0.12808362180E+02  0.31059502569E+02  0.00000000000E+00 0. -1.
</event>
<event>
 7    1  0.5837204E-012  0.5930196E+02  0.7816164E-02  0.1266605E+00
        -11   -1    0    0    0    0  0.00000000000E+00  0.00000000000E+00  0.45593999997E+02  0.45594000000E+02  0.51100000000E-03 0.  1.
         11   -1    0    0    0    0 -0.00000000000E+00 -0.00000000000E+00 -0.45593999997E+02  0.45594000000E+02  0.51100000000E-03 0. -1.
    9900012    2    1    2    0    0 -0.13550607680E+02  0.28856217133E+02  0.64778607610E+00  0.59301955050E+02  0.50000020102E+02 0.  0.
         12    1    1    2    0    0  0.13550607680E+02 -0.28856217133E+02 -0.64778607610E+00  0.31886044950E+02  0.00000000000E+00 0. -1.
         11    1    3    3    0    0  0.61599582877E+01  0.25336158421E+01 -0.47587828645E+01  0.81859825283E+01  0.51100000000E-03 0. -1.
        -11    1    3    3    0    0 -0.19079899179E+02  0.29987233246E+01 -0.11338793770E+02  0.22396498357E+02  0.51100000000E-03 0.  1.
        -12    1    3    3    0    0 -0.63066678910E+00  0.23323877967E+02  0.16745362710E+02  0.28719474165E+02  0.00000000000E+00 0.  1.
</event>
<event>
 7    1  0.5837204E-012  0.5930194E+02  0.7816164E-02  0.1266605E+00
        -11   -1    0    0    0    0  0.00000000000E+00  0.00000000000E+00  0.45593999997E+02  0.45594000000E+02  0.51100000000E-03 0. -1.
         11   -1    0    0    0    0 -0.00000000000E+00 -0.00000000000E+00 -0.45593999997E+02  0.45594000000E+02  0.51100000000E-03 0.  1.
    9900012    2    1    2    0    0  0.23956299610E+02  0.11502925435E+01 -0.21011739768E+02  0.59301942357E+02  0.49999996953E+02 0.  0.
         12    1    1    2    0    0 -0.23956299610E+02 -0.11502925435E+01  0.21011739768E+02  0.31886057643E+02  0.00000000000E+00 0. -1.
         11    1    3    3    0    0  0.26448773905E+01 -0.20294878857E+02 -0.10073583455E+02  0.22811281597E+02  0.51100000000E-03 0. -1.
        -11    1    3    3    0    0  0.36352786226E+00 -0.12525495483E+01  0.24901201507E+01  0.28110018683E+01  0.51100000000E-03 0.  1.
        -12    1    3    3    0    0  0.20947894357E+02  0.22697720949E+02 -0.13428276463E+02  0.33679658891E+02  0.00000000000E+00 0.  1.
</event>
<event>
 7    1  0.5837204E-012  0.5930188E+02  0.7816164E-02  0.1266605E+00
        -11   -1    0    0    0    0  0.00000000000E+00  0.00000000000E+00  0.45593999997E+02  0.45594000000E+02  0.51100000000E-03 0. -1.
         11   -1    0    0    0    0 -0.00000000000E+00 -0.00000000000E+00 -0.45593999997E+02  0.45594000000E+02  0.51100000000E-03 0.  1.
    9900012    2    1    2    0    0  0.27714685146E+02 -0.29795100768E+01 -0.15483644755E+02  0.59301882207E+02  0.49999887253E+02 0.  0.
         12    1    1    2    0    0 -0.27714685146E+02  0.29795100768E+01  0.15483644755E+02  0.31886117793E+02  0.00000000000E+00 0. -1.
         11    1    3    3    0    0  0.23871848728E+01  0.54850766600E+01  0.78573930775E+01  0.98753908185E+01  0.51100000000E-03 0. -1.
        -11    1    3    3    0    0 -0.84339528937E+00 -0.15822453878E+02 -0.49333831596E+01  0.16595168936E+02  0.51100000000E-03 0.  1.
        -12    1    3    3    0    0  0.26170895562E+02  0.73578671415E+01 -0.18407654673E+02  0.32831322452E+02  0.00000000000E+00 0.  1.
</event>
<event>
 7    1  0.5837204E-012  0.5930193E+02  0.7816164E-02  0.1266605E+00
        -11   -1    0    0    0    0  0.00000000000E+00  0.00000000000E+00  0.45593999997E+02  0.45594000000E+02  0.51100000000E-03 0.  1.
         11   -1    0    0    0    0 -0.00000000000E+00 -0.00000000000E+00 -0.45593999997E+02  0.45594000000E+02  0.51100000000E-03 0. -1.
    9900012    2    1    2    0    0 -0.56324306405E+01 -0.71922886611E+01  0.30549435589E+02  0.59301932417E+02  0.49999978824E+02 0.  0.
         12    1    1    2    0    0  0.56324306405E+01  0.71922886611E+01 -0.30549435589E+02  0.31886067583E+02  0.00000000000E+00 0. -1.
         11    1    3    3    0    0 -0.67561270752E-01 -0.43730301889E+00  0.20056754511E+00  0.48582512997E+00  0.51100000000E-03 0. -1.
        -11    1    3    3    0    0  0.20871986501E+02 -0.75791388443E+01  0.63350634938E+01  0.23091474527E+02  0.51100000000E-03 0.  1.
        -12    1    3    3    0    0 -0.26436855870E+02  0.82415320208E+00  0.24013804550E+02  0.35724632760E+02  0.00000000000E+00 0.  1.
</event>
<event>
 7    1  0.5837204E-012  0.5930194E+02  0.7816164E-02  0.1266605E+00
        -11   -1    0    0    0    0  0.00000000000E+00  0.00000000000E+00  0.45593999997E+02  0.45594000000E+02  0.51100000000E-03 0.  1.
         11   -1    0    0    0    0 -0.00000000000E+00 -0.00000000000E+00 -0.45593999997E+02  0.45594000000E+02  0.51100000000E-03 0. -1.
    9900012    2    1    2    0    0  0.27631311906E+02 -0.11896588385E+02  0.10568940885E+02  0.59301941537E+02  0.49999995458E+02 0.  0.
         12    1    1    2    0    0 -0.27631311906E+02  0.11896588385E+02 -0.10568940885E+02  0.31886058463E+02  0.00000000000E+00 0. -1.
         11    1    3    3    0    0  0.22165586721E+02 -0.23652673311E+01  0.25126849800E+02  0.33589675578E+02  0.51100000000E-03 0. -1.
        -11    1    3    3    0    0  0.84167016198E+01  0.13017283410E+01 -0.17771991760E+01  0.87002183882E+01  0.51100000000E-03 0.  1.
         12    1    3    3    0    0 -0.29509764348E+01 -0.10833049395E+02 -0.12780709740E+02  0.17012047571E+02  0.00000000000E+00 0. -1.
</event>
<event>
 7    1  0.5837204E-012  0.5930199E+02  0.7816164E-02  0.1266605E+00
        -11   -1    0    0    0    0  0.00000000000E+00  0.00000000000E+00  0.45593999997E+02  0.45594000000E+02  0.51100000000E-03 0.  1.
         11   -1    0    0    0    0 -0.00000000000E+00 -0.00000000000E+00 -0.45593999997E+02  0.45594000000E+02  0.51100000000E-03 0. -1.
    9900012    2    1    2    0    0  0.16250359544E+02 -0.74997421337E+01  0.26389346697E+02  0.59301985252E+02  0.50000075184E+02 0.  0.
         12    1    1    2    0    0 -0.16250359544E+02  0.74997421337E+01 -0.26389346697E+02  0.31886014748E+02  0.00000000000E+00 0. -1.
         11    1    3    3    0    0  0.70440012058E+00 -0.11908448767E+02  0.78672929060E+01  0.14289913558E+02  0.51100000000E-03 0. -1.
        -11    1    3    3    0    0 -0.12065056703E+02  0.48976042368E+01  0.31114194010E+01  0.13387794869E+02  0.51100000000E-03 0.  1.
         12    1    3    3    0    0  0.27611016127E+02 -0.48889760386E+00  0.15410634390E+02  0.31624276825E+02  0.00000000000E+00 0. -1.
</event>
<event>
 7    1  0.5837204E-012  0.5930191E+02  0.7816164E-02  0.1266605E+00
        -11   -1    0    0    0    0  0.00000000000E+00  0.00000000000E+00  0.45593999997E+02  0.45594000000E+02  0.51100000000E-03 0. -1.
         11   -1    0    0    0    0 -0.00000000000E+00 -0.00000000000E+00 -0.45593999997E+02  0.45594000000E+02  0.51100000000E-03 0.  1.
    9900012    2    1    2    0    0 -0.23639173886E+02  0.20541288571E+02 -0.59972902170E+01  0.59301912625E+02  0.49999942729E+02 0.  0.
         12    1    1    2    0    0  0.23639173886E+02 -0.20541288571E+02  0.59972902170E+01  0.31886087375E+02  0.00000000000E+00 0. -1.
         11    1    3    3    0    0  0.38276443714E+01 -0.22553892390E+01 -0.57984441658E+01  0.73047653664E+01  0.51100000000E-03 0. -1.
        -11    1    3    3    0    0 -0.67150899824E+01 -0.10138878571E+02  0.40977493588E+01  0.12832803365E+02  0.51100000000E-03 0.  1.
        -12    1    3    3    0    0 -0.20751728275E+02  0.32935556380E+02 -0.42965954101E+01  0.39164343893E+02  0.00000000000E+00 0.  1.
</event>
<event>
 7    1  0.5837204E-012  0.5930200E+02  0.7816164E-02  0.1266605E+00
        -11   -1    0    0    0    0  0.00000000000E+00  0.00000000000E+00  0.45593999997E+02  0.45594000000E+02  0.51100000000E-03 0.  1.
         11   -1    0    0    0    0 -0.00000000000E+00 -0.00000000000E+00 -0.45593999997E+02  0.45594000000E+02  0.51100000000E-03 0. -1.
    9900012    2    1    2    0    0 -0.29748668587E+01 -0.31150512994E+02  0.61247798893E+01  0.59301996467E+02  0.50000095636E+02 0.  0.
         12    1    1    2    0    0  0.29748668587E+01  0.31150512994E+02 -0.61247798893E+01  0.31886003533E+02  0.00000000000E+00 0. -1.
         11    1    3    3    0    0  0.18988913948E+01  0.45780875393E+01  0.31040467245E+01  0.58480578294E+01  0.51100000000E-03 0.  1.
        -11    1    3    3    0    0 -0.55636704663E+00 -0.20407030738E+01  0.16704256932E+02  0.16837642746E+02  0.51100000000E-03 0. -1.
         12    1    3    3    0    0 -0.43173912069E+01 -0.33687897460E+02 -0.13683523768E+02  0.36616295891E+02  0.00000000000E+00 0. -1.
</event>
<event>
 7    1  0.5837204E-012  0.5930194E+02  0.7816164E-02  0.1266605E+00
        -11   -1    0    0    0    0  0.00000000000E+00  0.00000000000E+00  0.45593999997E+02  0.45594000000E+02  0.51100000000E-03 0. -1.
         11   -1    0    0    0    0 -0.00000000000E+00 -0.00000000000E+00 -0.45593999997E+02  0.45594000000E+02  0.51100000000E-03 0.  1.
    9900012    2    1    2    0    0 -0.23895183142E+02 -0.17734520713E+02  0.11455468649E+02  0.59301940910E+02  0.49999994314E+02 0.  0.
         12    1    1    2    0    0  0.23895183142E+02  0.17734520713E+02 -0.11455468649E+02  0.31886059090E+02  0.00000000000E+00 0. -1.
         11    1    3    3    0    0 -0.96191437756E+01  0.11947044811E+02  0.71914665882E+01  0.16940395469E+02  0.51100000000E-03 0. -1.
        -11    1    3    3    0    0  0.23120743794E+01 -0.11656744278E+02  0.11785314038E+02  0.16736756028E+02  0.51100000000E-03 0.  1.
        -12    1    3    3    0    0 -0.16588113746E+02 -0.18024821246E+02 -0.75213119771E+01  0.25624789413E+02  0.00000000000E+00 0.  1.
</event>
<event>
 7    1  0.5837204E-012  0.5930200E+02  0.7816164E-02  0.1266605E+00
        -11   -1    0    0    0    0  0.00000000000E+00  0.00000000000E+00  0.45593999997E+02  0.45594000000E+02  0.51100000000E-03 0. -1.
         11   -1    0    0    0    0 -0.00000000000E+00 -0.00000000000E+00 -0.45593999997E+02  0.45594000000E+02  0.51100000000E-03 0.  1.
    9900012    2    1    2    0    0  0.25992687537E+02 -0.55834432888E+01 -0.17604616111E+02  0.59301997542E+02  0.50000097597E+02 0.  0.
         12    1    1    2    0    0 -0.25992687537E+02  0.55834432888E+01  0.17604616111E+02  0.31886002458E+02  0.00000000000E+00 0. -1.
         11    1    3    3    0    0  0.95196597512E+01 -0.14380807456E+00 -0.15867595162E+02  0.18504733963E+02  0.51100000000E-03 0.  1.
        -11    1    3    3    0    0  0.24921445376E+02  0.57719305503E+01  0.34885487615E+01  0.25817892916E+02  0.51100000000E-03 0. -1.
         12    1    3    3    0    0 -0.84484175902E+01 -0.11211565764E+02 -0.52255697104E+01  0.14979370663E+02  0.00000000000E+00 0. -1.
</event>
<event>
 7    1  0.5837204E-012  0.5930193E+02  0.7816164E-02  0.1266605E+00
        -11   -1    0    0    0    0  0.00000000000E+00  0.00000000000E+00  0.45593999997E+02  0.45594000000E+02  0.51100000000E-03 0. -1.
         11   -1    0    0    0    0 -0.00000000000E+00 -0.00000000000E+00 -0.45593999997E+02  0.45594000000E+02  0.51100000000E-03 0.  1.
    9900012    2    1    2    0    0  0.27842423098E+01  0.25780292068E+02 -0.18556557513E+02  0.59301932649E+02  0.49999979249E+02 0.  0.
         12    1    1    2    0    0 -0.27842423098E+01 -0.25780292068E+02  0.18556557513E+02  0.31886067351E+02  0.00000000000E+00 0. -1.
         11    1    3    3    0    0 -0.23524081070E+01  0.17020899322E+02  0.16537228003E+01  0.17262086693E+02  0.51100000000E-03 0. -1.
        -11    1    3    3    0    0  0.25744076317E+01  0.14274104948E+02 -0.28370441628E+02  0.31863138658E+02  0.51100000000E-03 0.  1.
         12    1    3    3    0    0  0.25622427852E+01 -0.55147122015E+01  0.81601613148E+01  0.10176707299E+02  0.00000000000E+00 0. -1.
</event>
<event>
 7    1  0.5837204E-012  0.5930195E+02  0.7816164E-02  0.1266605E+00
        -11   -1    0    0    0    0  0.00000000000E+00  0.00000000000E+00  0.45593999997E+02  0.45594000000E+02  0.51100000000E-03 0. -1.
         11   -1    0    0    0    0 -0.00000000000E+00 -0.00000000000E+00 -0.45593999997E+02  0.45594000000E+02  0.51100000000E-03 0.  1.
    9900012    2    1    2    0    0 -0.86051480584E+01 -0.30317196705E+02 -0.48517173282E+01  0.59301950540E+02  0.50000011876E+02 0.  0.
         12    1    1    2    0    0  0.86051480584E+01  0.30317196705E+02  0.48517173282E+01  0.31886049460E+02  0.00000000000E+00 0. -1.
         11    1    3    3    0    0  0.52355451929E+01 -0.78825775056E+01 -0.78847867067E+01  0.12317297726E+02  0.51100000000E-03 0. -1.
        -11    1    3    3    0    0  0.10101540466E+02 -0.95842618950E+01  0.11988087093E+02  0.18374259938E+02  0.51100000000E-03 0.  1.
         12    1    3    3    0    0 -0.23942233717E+02 -0.12850357304E+02 -0.89550177146E+01  0.28610392876E+02  0.00000000000E+00 0. -1.
</event>
<event>
 7    1  0.5837204E-012  0.5930197E+02  0.7816164E-02  0.1266605E+00
        -11   -1    0    0    0    0  0.00000000000E+00  0.00000000000E+00  0.45593999997E+02  0.45594000000E+02  0.51100000000E-03 0.  1.
         11   -1    0    0    0    0 -0.00000000000E+00 -0.00000000000E+00 -0.45593999997E+02  0.45594000000E+02  0.51100000000E-03 0. -1.
    9900012    2    1    2    0    0 -0.22503158758E+02  0.62464751967E+01  0.21709636061E+02  0.59301970075E+02  0.50000047504E+02 0.  0.
         12    1    1    2    0    0  0.22503158758E+02 -0.62464751967E+01 -0.21709636061E+02  0.31886029925E+02  0.00000000000E+00 0. -1.
         11    1    3    3    0    0 -0.56834563270E+01 -0.63817270024E+01 -0.83706912778E+01  0.11962298612E+02  0.51100000000E-03 0. -1.
        -11    1    3    3    0    0  0.64841633382E+01 -0.24764045360E+01  0.80429613500E+00  0.69874062539E+01  0.51100000000E-03 0.  1.
        -12    1    3    3    0    0 -0.23303865770E+02  0.15104606735E+02  0.29276031204E+02  0.40352265209E+02  0.00000000000E+00 0.  1.
</event>
<event>
 7    1  0.5837204E-012  0.5930188E+02  0.7816164E-02  0.1266605E+00
        -11   -1    0    0    0    0  0.00000000000E+00  0.00000000000E+00  0.45593999997E+02  0.45594000000E+02  0.51100000000E-03 0. -1.
         11   -1    0    0    0    0 -0.00000000000E+00 -0.00000000000E+00 -0.45593999997E+02  0.45594000000E+02  0.51100000000E-03 0.  1.
    9900012    2    1    2    0    0 -0.36120338910E+01  0.17882114902E+02 -0.26151628206E+02  0.59301882644E+02  0.49999888051E+02 0.  0.
         12    1    1    2    0    0  0.36120338910E+01 -0.17882114902E+02  0.26151628206E+02  0.31886117356E+02  0.00000000000E+00 0. -1.
         11    1    3    3    0    0 -0.21490158749E+01  0.18997663387E+02 -0.97129162891E+01  0.21444585015E+02  0.51100000000E-03 0. -1.
        -11    1    3    3    0    0  0.85032545501E+01  0.92186569904E+01 -0.19493044314E+02  0.23179036899E+02  0.51100000000E-03 0.  1.
        -12    1    3    3    0    0 -0.99662725662E+01 -0.10334205475E+02  0.30543323974E+01  0.14678260730E+02  0.00000000000E+00 0.  1.
</event>
<event>
 7    1  0.5837204E-012  0.5930198E+02  0.7816164E-02  0.1266605E+00
        -11   -1    0    0    0    0  0.00000000000E+00  0.00000000000E+00  0.45593999997E+02  0.45594000000E+02  0.51100000000E-03 0.  1.
         11   -1    0    0    0    0 -0.00000000000E+00 -0.00000000000E+00 -0.45593999997E+02  0.45594000000E+02  0.51100000000E-03 0. -1.
    9900012    2    1    2    0    0  0.19190918805E+02  0.25243949340E+02 -0.33421533657E+01  0.59301979051E+02  0.50000063874E+02 0.  0.
         12    1    1    2    0    0 -0.19190918805E+02 -0.25243949340E+02  0.33421533657E+01  0.31886020949E+02  0.00000000000E+00 0. -1.
         11    1    3    3    0    0  0.75270085659E+01  0.17654684983E+02 -0.13407366996E+02  0.23411562310E+02  0.51100000000E-03 0. -1.
        -11    1    3    3    0    0  0.12373250421E+02  0.70535073920E+01 -0.89717216455E+01  0.16832738400E+02  0.51100000000E-03 0.  1.
        -12    1    3    3    0    0 -0.70934018212E+00  0.53575696533E+00  0.19036935276E+02  0.19057678340E+02  0.00000000000E+00 0.  1.
</event>
<event>
 7    1  0.5837204E-012  0.5930195E+02  0.7816164E-02  0.1266605E+00
        -11   -1    0    0    0    0  0.00000000000E+00  0.00000000000E+00  0.45593999997E+02  0.45594000000E+02  0.51100000000E-03 0.  1.
         11   -1    0    0    0    0 -0.00000000000E+00 -0.00000000000E+00 -0.45593999997E+02  0.45594000000E+02  0.51100000000E-03 0. -1.
    9900012    2    1    2    0    0  0.18649779118E+02  0.24038835795E+02  0.95414973060E+01  0.59301951980E+02  0.50000014502E+02 0.  0.
         12    1    1    2    0    0 -0.18649779118E+02 -0.24038835795E+02 -0.95414973060E+01  0.31886048020E+02  0.00000000000E+00 0. -1.
         11    1    3    3    0    0  0.57295434652E+01 -0.54181701328E+01 -0.48237415467E+01  0.92440639698E+01  0.51100000000E-03 0. -1.
        -11    1    3    3    0    0  0.46389694680E+01 -0.48439706837E+01  0.13136939972E+02  0.14750026502E+02  0.51100000000E-03 0.  1.
        -12    1    3    3    0    0  0.82812661845E+01  0.34300976611E+02  0.12282988802E+01  0.35307861508E+02  0.00000000000E+00 0.  1.
</event>
<event>
 7    1  0.5837204E-012  0.5930195E+02  0.7816164E-02  0.1266605E+00
        -11   -1    0    0    0    0  0.00000000000E+00  0.00000000000E+00  0.45593999997E+02  0.45594000000E+02  0.51100000000E-03 0.  1.
         11   -1    0    0    0    0 -0.00000000000E+00 -0.00000000000E+00 -0.45593999997E+02  0.45594000000E+02  0.51100000000E-03 0. -1.
    9900012    2    1    2    0    0  0.12655501362E+02 -0.10086418731E+01  0.29249630554E+02  0.59301953511E+02  0.50000017296E+02 0.  0.
         12    1    1    2    0    0 -0.12655501362E+02  0.10086418731E+01 -0.29249630554E+02  0.31886046489E+02  0.00000000000E+00 0. -1.
         11    1    3    3    0    0 -0.37742237456E+01 -0.68555703142E+01 -0.60859117679E+01  0.99137244022E+01  0.51100000000E-03 0. -1.
        -11    1    3    3    0    0 -0.79767365948E+01  0.30989683982E+01  0.36629254915E+01  0.93085420584E+01  0.51100000000E-03 0.  1.
         12    1    3    3    0    0  0.24406461702E+02  0.27479600429E+01  0.31672616830E+02  0.40079687051E+02  0.00000000000E+00 0. -1.
</event>
<event>
 7    1  0.5837204E-012  0.5930195E+02  0.7816164E-02  0.1266605E+00
        -11   -1    0    0    0    0  0.00000000000E+00  0.00000000000E+00  0.45593999997E+02  0.45594000000E+02  0.51100000000E-03 0.  1.
         11   -1    0    0    0    0 -0.00000000000E+00 -0.00000000000E+00 -0.45593999997E+02  0.45594000000E+02  0.51100000000E-03 0. -1.
    9900012    2    1    2    0    0 -0.41265559356E+01 -0.30093527447E+02  0.96990422628E+01  0.59301948521E+02  0.50000008195E+02 0.  0.
         12    1    1    2    0    0  0.41265559356E+01  0.30093527447E+02 -0.96990422628E+01  0.31886051479E+02  0.00000000000E+00 0. -1.
         11    1    3    3    0    0  0.40491074758E+01 -0.23534983121E+01 -0.71885742736E+01  0.85796168914E+01  0.51100000000E-03 0. -1.
        -11    1    3    3    0    0 -0.94718661621E+00  0.29496107076E+01  0.18877652737E+02  0.19130163066E+02  0.51100000000E-03 0.  1.
         12    1    3    3    0    0 -0.72284767952E+01 -0.30689639843E+02 -0.19900362010E+01  0.31592168563E+02  0.00000000000E+00 0. -1.
</event>
<event>
 7    1  0.5837204E-012  0.5930195E+02  0.7816164E-02  0.1266605E+00
        -11   -1    0    0    0    0  0.00000000000E+00  0.00000000000E+00  0.45593999997E+02  0.45594000000E+02  0.51100000000E-03 0.  1.
         11   -1    0    0    0    0 -0.00000000000E+00 -0.00000000000E+00 -0.45593999997E+02  0.45594000000E+02  0.51100000000E-03 0. -1.
    9900012    2    1    2    0    0 -0.19757055329E+02 -0.67670590780E+01  0.24095343131E+02  0.59301954706E+02  0.50000019475E+02 0.  0.
         12    1    1    2    0    0  0.19757055329E+02  0.67670590780E+01 -0.24095343131E+02  0.31886045294E+02  0.00000000000E+00 0. -1.
         11    1    3    3    0    0 -0.45509556297E+01  0.78430234178E+01  0.50855247078E+01  0.10396478985E+02  0.51100000000E-03 0. -1.
        -11    1    3    3    0    0  0.73425535546E+01  0.93410852731E+01  0.26799690429E+01  0.12179950785E+02  0.51100000000E-03 0.  1.
         12    1    3    3    0    0 -0.22548653254E+02 -0.23951167769E+02  0.16329849381E+02  0.36725524937E+02  0.00000000000E+00 0. -1.
</event>
<event>
 7    1  0.5837204E-012  0.5930195E+02  0.7816164E-02  0.1266605E+00
        -11   -1    0    0    0    0  0.00000000000E+00  0.00000000000E+00  0.45593999997E+02  0.45594000000E+02  0.51100000000E-03 0.  1.
         11   -1    0    0    0    0 -0.00000000000E+00 -0.00000000000E+00 -0.45593999997E+02  0.45594000000E+02  0.51100000000E-03 0. -1.
    9900012    2    1    2    0    0  0.30664235099E+02  0.78963476028E+01  0.37513357583E+01  0.59301950705E+02  0.50000012178E+02 0.  0.
         12    1    1    2    0    0 -0.30664235099E+02 -0.78963476028E+01 -0.37513357583E+01  0.31886049295E+02  0.00000000000E+00 0. -1.
         11    1    3    3    0    0  0.46206719728E+01  0.47073236212E+01 -0.12304598829E+00  0.65973211026E+01  0.51100000000E-03 0. -1.
        -11    1    3    3    0    0 -0.22900294346E+01  0.18094422056E+02 -0.60017666263E+01  0.19200873606E+02  0.51100000000E-03 0.  1.
        -12    1    3    3    0    0  0.28333592561E+02 -0.14905398074E+02  0.98761483729E+01  0.33503755996E+02  0.00000000000E+00 0.  1.
</event>
<event>
 7    1  0.5837204E-012  0.5930198E+02  0.7816164E-02  0.1266605E+00
        -11   -1    0    0    0    0  0.00000000000E+00  0.00000000000E+00  0.45593999997E+02  0.45594000000E+02  0.51100000000E-03 0.  1.
         11   -1    0    0    0    0 -0.00000000000E+00 -0.00000000000E+00 -0.45593999997E+02  0.45594000000E+02  0.51100000000E-03 0. -1.
    9900012    2    1    2    0    0  0.26921723475E+02  0.17085475449E+02  0.16048952271E+00  0.59301977622E+02  0.50000061268E+02 0.  0.
         12    1    1    2    0    0 -0.26921723475E+02 -0.17085475449E+02 -0.16048952271E+00  0.31886022378E+02  0.00000000000E+00 0. -1.
         11    1    3    3    0    0  0.63259464652E+01  0.38008212068E+01 -0.66873848658E+01  0.99591644796E+01  0.51100000000E-03 0. -1.
        -11    1    3    3    0    0  0.29077060140E+02  0.30702240599E+01 -0.70979055900E+01  0.30087903984E+02  0.51100000000E-03 0.  1.
        -12    1    3    3    0    0 -0.84812831297E+01  0.10214430183E+02  0.13945779979E+02  0.19254909158E+02  0.00000000000E+00 0.  1.
</event>
<event>
 7    1  0.5837204E-012  0.5930194E+02  0.7816164E-02  0.1266605E+00
        -11   -1    0    0    0    0  0.00000000000E+00  0.00000000000E+00  0.45593999997E+02  0.45594000000E+02  0.51100000000E-03 0. -1.
         11   -1    0    0    0    0 -0.00000000000E+00 -0.00000000000E+00 -0.45593999997E+02  0.45594000000E+02  0.51100000000E-03 0.  1.
    9900012    2    1    2    0    0 -0.55169108905E+01  0.10629310021E+02 -0.29551686375E+02  0.59301941842E+02  0.49999996013E+02 0.  0.
         12    1    1    2    0    0  0.55169108905E+01 -0.10629310021E+02  0.29551686375E+02  0.31886058158E+02  0.00000000000E+00 0. -1.
         11    1    3    3    0    0  0.92559267917E+01  0.79329556293E+00 -0.20186311501E+02  0.22221356189E+02  0.51100000000E-03 0. -1.
        -11    1    3    3    0    0 -0.26806647795E+01 -0.10176834410E+02 -0.87561476814E+01  0.13690290163E+02  0.51100000000E-03 0.  1.
         12    1    3    3    0    0 -0.12092172903E+02  0.20012848868E+02 -0.60922719229E+00  0.23390295489E+02  0.00000000000E+00 0. -1.
</event>
<event>
 7    1  0.5837204E-012  0.5930198E+02  0.7816164E-02  0.1266605E+00
        -11   -1    0    0    0    0  0.00000000000E+00  0.00000000000E+00  0.45593999997E+02  0.45594000000E+02  0.51100000000E-03 0.  1.
         11   -1    0    0    0    0 -0.00000000000E+00 -0.00000000000E+00 -0.45593999997E+02  0.45594000000E+02  0.51100000000E-03 0. -1.
    9900012    2    1    2    0    0 -0.27578071960E+02 -0.45584065616E+01 -0.15342388365E+02  0.59301984191E+02  0.50000073249E+02 0.  0.
         12    1    1    2    0    0  0.27578071960E+02  0.45584065616E+01  0.15342388365E+02  0.31886015809E+02  0.00000000000E+00 0. -1.
         11    1    3    3    0    0 -0.97224131905E+01  0.47500533591E+01 -0.13872108939E+02  0.17593286556E+02  0.51100000000E-03 0. -1.
        -11    1    3    3    0    0 -0.12857412573E+02 -0.17841071541E+02 -0.13754759727E+02  0.25938587225E+02  0.51100000000E-03 0.  1.
        -12    1    3    3    0    0 -0.49982461965E+01  0.85326116199E+01  0.12284480301E+02  0.15770110411E+02  0.00000000000E+00 0.  1.
</event>
<event>
 7    1  0.5837204E-012  0.5930174E+02  0.7816164E-02  0.1266605E+00
        -11   -1    0    0    0    0  0.00000000000E+00  0.00000000000E+00  0.45593999997E+02  0.45594000000E+02  0.51100000000E-03 0. -1.
         11   -1    0    0    0    0 -0.00000000000E+00 -0.00000000000E+00 -0.45593999997E+02  0.45594000000E+02  0.51100000000E-03 0.  1.
    9900012    2    1    2    0    0 -0.16119579946E+02 -0.27510804432E+02  0.21967606441E+00  0.59301741585E+02  0.49999630792E+02 0.  0.
         12    1    1    2    0    0  0.16119579946E+02  0.27510804432E+02 -0.21967606441E+00  0.31886258415E+02  0.00000000000E+00 0. -1.
         11    1    3    3    0    0 -0.29425594156E+02 -0.17219409227E+02 -0.11536109067E+02  0.35992436125E+02  0.51100000000E-03 0.  1.
        -11    1    3    3    0    0  0.40679331555E+01  0.20201965199E+01  0.13813922901E+01  0.47473696988E+01  0.51100000000E-03 0. -1.
        -12    1    3    3    0    0  0.92380810550E+01 -0.12311591725E+02  0.10374392841E+02  0.18561935761E+02  0.00000000000E+00 0.  1.
</event>
<event>
 7    1  0.5837204E-012  0.5930195E+02  0.7816164E-02  0.1266605E+00
        -11   -1    0    0    0    0  0.00000000000E+00  0.00000000000E+00  0.45593999997E+02  0.45594000000E+02  0.51100000000E-03 0. -1.
         11   -1    0    0    0    0 -0.00000000000E+00 -0.00000000000E+00 -0.45593999997E+02  0.45594000000E+02  0.51100000000E-03 0.  1.
    9900012    2    1    2    0    0  0.14537748641E+02 -0.12329855323E+02 -0.25560691694E+02  0.59301946188E+02  0.50000003940E+02 0.  0.
         12    1    1    2    0    0 -0.14537748641E+02  0.12329855323E+02  0.25560691694E+02  0.31886053812E+02  0.00000000000E+00 0. -1.
         11    1    3    3    0    0  0.35955013104E+01  0.73006933673E+01  0.44784953602E+01  0.92889544228E+01  0.51100000000E-03 0. -1.
        -11    1    3    3    0    0  0.53751479113E+01  0.80965402443E+00 -0.28232823882E+02  0.28751349522E+02  0.51100000000E-03 0.  1.
         12    1    3    3    0    0  0.55670994194E+01 -0.20440202715E+02 -0.18063631720E+01  0.21261642243E+02  0.00000000000E+00 0. -1.
</event>
<event>
 7    1  0.5837204E-012  0.5930192E+02  0.7816164E-02  0.1266605E+00
        -11   -1    0    0    0    0  0.00000000000E+00  0.00000000000E+00  0.45593999997E+02  0.45594000000E+02  0.51100000000E-03 0.  1.
         11   -1    0    0    0    0 -0.00000000000E+00 -0.00000000000E+00 -0.45593999997E+02  0.45594000000E+02  0.51100000000E-03 0. -1.
    9900012    2    1    2    0    0  0.17835655870E+02  0.13430584064E+02  0.22764684624E+02  0.59301920363E+02  0.49999956841E+02 0.  0.
         12    1    1    2    0    0 -0.17835655870E+02 -0.13430584064E+02 -0.22764684624E+02  0.31886079637E+02  0.00000000000E+00 0. -1.
         11    1    3    3    0    0  0.10968894616E+02 -0.60730578099E+01 -0.50049040929E+01  0.13499916500E+02  0.51100000000E-03 0. -1.
        -11    1    3    3    0    0  0.15902613201E+02  0.82437735701E+01  0.45851072089E+01  0.18489892311E+02  0.51100000000E-03 0.  1.
        -12    1    3    3    0    0 -0.90358519474E+01  0.11259868304E+02  0.23184481508E+02  0.27312111552E+02  0.00000000000E+00 0.  1.
</event>
<event>
 7    1  0.5837204E-012  0.5930195E+02  0.7816164E-02  0.1266605E+00
        -11   -1    0    0    0    0  0.00000000000E+00  0.00000000000E+00  0.45593999997E+02  0.45594000000E+02  0.51100000000E-03 0.  1.
         11   -1    0    0    0    0 -0.00000000000E+00 -0.00000000000E+00 -0.45593999997E+02  0.45594000000E+02  0.51100000000E-03 0. -1.
    9900012    2    1    2    0    0 -0.38053497968E+01  0.93943091473E+01  0.30232204754E+02  0.59301953903E+02  0.50000018010E+02 0.  0.
         12    1    1    2    0    0  0.38053497968E+01 -0.93943091473E+01 -0.30232204754E+02  0.31886046097E+02  0.00000000000E+00 0. -1.
         11    1    3    3    0    0  0.10673462377E+02 -0.20820673667E+01  0.37011314526E+01  0.11487218023E+02  0.51100000000E-03 0. -1.
        -11    1    3    3    0    0 -0.83258737812E+00  0.22062614405E+02  0.11373579387E+02  0.24835669197E+02  0.51100000000E-03 0.  1.
         12    1    3    3    0    0 -0.13646224795E+02 -0.10586237891E+02  0.15157493914E+02  0.22979066683E+02  0.00000000000E+00 0. -1.
</event>
<event>
 7    1  0.5837204E-012  0.5930194E+02  0.7816164E-02  0.1266605E+00
        -11   -1    0    0    0    0  0.00000000000E+00  0.00000000000E+00  0.45593999997E+02  0.45594000000E+02  0.51100000000E-03 0.  1.
         11   -1    0    0    0    0 -0.00000000000E+00 -0.00000000000E+00 -0.45593999997E+02  0.45594000000E+02  0.51100000000E-03 0. -1.
    9900012    2    1    2    0    0  0.17612099982E+02 -0.88355655248E+01  0.25069254961E+02  0.59301939907E+02  0.49999992486E+02 0.  0.
         12    1    1    2    0    0 -0.17612099982E+02  0.88355655248E+01 -0.25069254961E+02  0.31886060093E+02  0.00000000000E+00 0. -1.
         11    1    3    3    0    0  0.40004700808E+01 -0.35209366096E+01 -0.92133713593E+01  0.10643635072E+02  0.51100000000E-03 0. -1.
        -11    1    3    3    0    0 -0.25175588727E+01 -0.10725818377E+02  0.73297160921E+00  0.11041672435E+02  0.51100000000E-03 0.  1.
        -12    1    3    3    0    0  0.16129188774E+02  0.54111894615E+01  0.33549654711E+02  0.37616632400E+02  0.00000000000E+00 0.  1.
</event>
<event>
 7    1  0.5837204E-012  0.5930195E+02  0.7816164E-02  0.1266605E+00
        -11   -1    0    0    0    0  0.00000000000E+00  0.00000000000E+00  0.45593999997E+02  0.45594000000E+02  0.51100000000E-03 0.  1.
         11   -1    0    0    0    0 -0.00000000000E+00 -0.00000000000E+00 -0.45593999997E+02  0.45594000000E+02  0.51100000000E-03 0. -1.
    9900012    2    1    2    0    0  0.51298323189E+01 -0.18424544614E+02 -0.25513543928E+02  0.59301953717E+02  0.50000017670E+02 0.  0.
         12    1    1    2    0    0 -0.51298323189E+01  0.18424544614E+02  0.25513543928E+02  0.31886046283E+02  0.00000000000E+00 0. -1.
         11    1    3    3    0    0  0.14210566986E+02 -0.43745701294E+01 -0.26268384605E+02  0.30184517685E+02  0.51100000000E-03 0. -1.
        -11    1    3    3    0    0 -0.65926358298E+01  0.56412255846E+01 -0.24420034733E+01  0.90138590240E+01  0.51100000000E-03 0.  1.
        -12    1    3    3    0    0 -0.24880988371E+01 -0.19691200069E+02  0.31968441503E+01  0.20103577007E+02  0.00000000000E+00 0.  1.
</event>
<event>
 7    1  0.5837204E-012  0.5930196E+02  0.7816164E-02  0.1266605E+00
        -11   -1    0    0    0    0  0.00000000000E+00  0.00000000000E+00  0.45593999997E+02  0.45594000000E+02  0.51100000000E-03 0.  1.
         11   -1    0    0    0    0 -0.00000000000E+00 -0.00000000000E+00 -0.45593999997E+02  0.45594000000E+02  0.51100000000E-03 0. -1.
    9900012    2    1    2    0    0  0.16316339360E+02  0.26318484489E+02 -0.76048869390E+01  0.59301955070E+02  0.50000020139E+02 0.  0.
         12    1    1    2    0    0 -0.16316339360E+02 -0.26318484489E+02  0.76048869390E+01  0.31886044930E+02  0.00000000000E+00 0. -1.
         11    1    3    3    0    0  0.23947475023E+02  0.18845827990E+02  0.85846120145E+01  0.31659790844E+02  0.51100000000E-03 0. -1.
        -11    1    3    3    0    0 -0.49331731187E+00 -0.10024083187E+01  0.42489586321E+01  0.43933852694E+01  0.51100000000E-03 0.  1.
         12    1    3    3    0    0 -0.71378183513E+01  0.84750648178E+01 -0.20438457586E+02  0.23248778956E+02  0.00000000000E+00 0. -1.
</event>
<event>
 7    1  0.5837204E-012  0.5930196E+02  0.7816164E-02  0.1266605E+00
        -11   -1    0    0    0    0  0.00000000000E+00  0.00000000000E+00  0.45593999997E+02  0.45594000000E+02  0.51100000000E-03 0.  1.
         11   -1    0    0    0    0 -0.00000000000E+00 -0.00000000000E+00 -0.45593999997E+02  0.45594000000E+02  0.51100000000E-03 0. -1.
    9900012    2    1    2    0    0  0.27274470429E+02  0.15029422430E+01  0.16448821240E+02  0.59301963985E+02  0.50000036397E+02 0.  0.
         12    1    1    2    0    0 -0.27274470429E+02 -0.15029422430E+01 -0.16448821240E+02  0.31886036015E+02  0.00000000000E+00 0. -1.
         11    1    3    3    0    0 -0.51648098515E+01 -0.69248861592E+01  0.28581642259E+01  0.90993632812E+01  0.51100000000E-03 0. -1.
        -11    1    3    3    0    0  0.11234776183E+02 -0.10209792032E+02  0.15767490727E+02  0.21887754871E+02  0.51100000000E-03 0.  1.
         12    1    3    3    0    0  0.21204504098E+02  0.18637620434E+02 -0.21768337134E+01  0.28314845832E+02  0.00000000000E+00 0. -1.
</event>
<event>
 7    1  0.5837204E-012  0.5930194E+02  0.7816164E-02  0.1266605E+00
        -11   -1    0    0    0    0  0.00000000000E+00  0.00000000000E+00  0.45593999997E+02  0.45594000000E+02  0.51100000000E-03 0. -1.
         11   -1    0    0    0    0 -0.00000000000E+00 -0.00000000000E+00 -0.45593999997E+02  0.45594000000E+02  0.51100000000E-03 0.  1.
    9900012    2    1    2    0    0 -0.23662580486E+02  0.54869865869E+01 -0.20656620383E+02  0.59301941876E+02  0.49999996075E+02 0.  0.
         12    1    1    2    0    0  0.23662580486E+02 -0.54869865869E+01  0.20656620383E+02  0.31886058124E+02  0.00000000000E+00 0. -1.
         11    1    3    3    0    0 -0.25437603757E+02  0.38031011252E+01 -0.98061777832E+01  0.27526285366E+02  0.51100000000E-03 0. -1.
        -11    1    3    3    0    0 -0.77288686496E+01  0.38520488827E+01  0.72117087669E+01  0.11250885956E+02  0.51100000000E-03 0.  1.
        -12    1    3    3    0    0  0.95038919211E+01 -0.21681634211E+01 -0.18062151367E+02  0.20524770553E+02  0.00000000000E+00 0.  1.
</event>
<event>
 7    1  0.5837204E-012  0.5930194E+02  0.7816164E-02  0.1266605E+00
        -11   -1    0    0    0    0  0.00000000000E+00  0.00000000000E+00  0.45593999997E+02  0.45594000000E+02  0.51100000000E-03 0.  1.
         11   -1    0    0    0    0 -0.00000000000E+00 -0.00000000000E+00 -0.45593999997E+02  0.45594000000E+02  0.51100000000E-03 0. -1.
    9900012    2    1    2    0    0  0.26129743076E+02  0.17398172261E+02 -0.55911409409E+01  0.59301941475E+02  0.49999995344E+02 0.  0.
         12    1    1    2    0    0 -0.26129743076E+02 -0.17398172261E+02  0.55911409409E+01  0.31886058525E+02  0.00000000000E+00 0. -1.
         11    1    3    3    0    0  0.11536378828E+02  0.85415757722E+01 -0.13115807835E+02  0.19444047124E+02  0.51100000000E-03 0. -1.
        -11    1    3    3    0    0 -0.37226200996E+01  0.10873551424E+02 -0.93927600711E+01  0.14843044263E+02  0.51100000000E-03 0.  1.
        -12    1    3    3    0    0  0.18315984348E+02 -0.20169549345E+01  0.16917426965E+02  0.25014850088E+02  0.00000000000E+00 0.  1.
</event>
<event>
 7    1  0.5837204E-012  0.5930202E+02  0.7816164E-02  0.1266605E+00
        -11   -1    0    0    0    0  0.00000000000E+00  0.00000000000E+00  0.45593999997E+02  0.45594000000E+02  0.51100000000E-03 0.  1.
         11   -1    0    0    0    0 -0.00000000000E+00 -0.00000000000E+00 -0.45593999997E+02  0.45594000000E+02  0.51100000000E-03 0. -1.
    9900012    2    1    2    0    0  0.11308687977E+02 -0.15262289554E+02 -0.25610388517E+02  0.59302017089E+02  0.50000133246E+02 0.  0.
         12    1    1    2    0    0 -0.11308687977E+02  0.15262289554E+02  0.25610388517E+02  0.31885982911E+02  0.00000000000E+00 0. -1.
         11    1    3    3    0    0 -0.66915329653E+01 -0.14802544453E+02 -0.11666355867E+02  0.19999894879E+02  0.51100000000E-03 0. -1.
        -11    1    3    3    0    0  0.13161961204E+02 -0.15411266072E+02 -0.11772553145E+02  0.23437946849E+02  0.51100000000E-03 0.  1.
        -12    1    3    3    0    0  0.48382597392E+01  0.14951520971E+02 -0.21714795051E+01  0.15864175361E+02  0.00000000000E+00 0.  1.
</event>
<event>
 7    1  0.5837204E-012  0.5930195E+02  0.7816164E-02  0.1266605E+00
        -11   -1    0    0    0    0  0.00000000000E+00  0.00000000000E+00  0.45593999997E+02  0.45594000000E+02  0.51100000000E-03 0.  1.
         11   -1    0    0    0    0 -0.00000000000E+00 -0.00000000000E+00 -0.45593999997E+02  0.45594000000E+02  0.51100000000E-03 0. -1.
    9900012    2    1    2    0    0 -0.27323370701E+02  0.11362109115E+02 -0.11876715846E+02  0.59301945222E+02  0.50000002179E+02 0.  0.
         12    1    1    2    0    0  0.27323370701E+02 -0.11362109115E+02  0.11876715846E+02  0.31886054778E+02  0.00000000000E+00 0. -1.
         11    1    3    3    0    0 -0.34529186110E+02  0.15776696694E+02 -0.20639829424E+02  0.43210778874E+02  0.51100000000E-03 0. -1.
        -11    1    3    3    0    0 -0.90434182861E+00  0.15845566683E+01 -0.97609947699E+00  0.20691603196E+01  0.51100000000E-03 0.  1.
        -12    1    3    3    0    0  0.81101572376E+01 -0.59991442480E+01  0.97392130552E+01  0.14022006028E+02  0.00000000000E+00 0.  1.
</event>
<event>
 7    1  0.5837204E-012  0.5930191E+02  0.7816164E-02  0.1266605E+00
        -11   -1    0    0    0    0  0.00000000000E+00  0.00000000000E+00  0.45593999997E+02  0.45594000000E+02  0.51100000000E-03 0.  1.
         11   -1    0    0    0    0 -0.00000000000E+00 -0.00000000000E+00 -0.45593999997E+02  0.45594000000E+02  0.51100000000E-03 0. -1.
    9900012    2    1    2    0    0  0.19519752253E+02  0.57877308169E+01  0.24539851433E+02  0.59301907979E+02  0.49999934255E+02 0.  0.
         12    1    1    2    0    0 -0.19519752253E+02 -0.57877308169E+01 -0.24539851433E+02  0.31886092021E+02  0.00000000000E+00 0. -1.
         11    1    3    3    0    0 -0.93111842034E+01  0.88245680289E+01  0.30610753276E+01  0.13188682064E+02  0.51100000000E-03 0. -1.
        -11    1    3    3    0    0  0.26724810827E+01 -0.11485086643E+02  0.12525990319E+02  0.17203191682E+02  0.51100000000E-03 0.  1.
        -12    1    3    3    0    0  0.26158455373E+02  0.84482494308E+01  0.89527857873E+01  0.28910034232E+02  0.00000000000E+00 0.  1.
</event>
<event>
 7    1  0.5837204E-012  0.5930195E+02  0.7816164E-02  0.1266605E+00
        -11   -1    0    0    0    0  0.00000000000E+00  0.00000000000E+00  0.45593999997E+02  0.45594000000E+02  0.51100000000E-03 0. -1.
         11   -1    0    0    0    0 -0.00000000000E+00 -0.00000000000E+00 -0.45593999997E+02  0.45594000000E+02  0.51100000000E-03 0.  1.
    9900012    2    1    2    0    0 -0.15375357220E+01 -0.29527862839E+02 -0.11935727322E+02  0.59301948400E+02  0.50000007973E+02 0.  0.
         12    1    1    2    0    0  0.15375357220E+01  0.29527862839E+02  0.11935727322E+02  0.31886051600E+02  0.00000000000E+00 0. -1.
         11    1    3    3    0    0  0.11100917818E+01  0.10449478678E+01  0.30972898453E-01  0.15248538921E+01  0.51100000000E-03 0. -1.
        -11    1    3    3    0    0  0.92450307803E+01 -0.20019894627E+02 -0.27702219224E+02  0.35407339990E+02  0.51100000000E-03 0.  1.
        -12    1    3    3    0    0 -0.11892658284E+02 -0.10552916080E+02  0.15735519003E+02  0.22369754517E+02  0.00000000000E+00 0.  1.
</event>
<event>
 7    1  0.5837204E-012  0.5930187E+02  0.7816164E-02  0.1266605E+00
        -11   -1    0    0    0    0  0.00000000000E+00  0.00000000000E+00  0.45593999997E+02  0.45594000000E+02  0.51100000000E-03 0. -1.
         11   -1    0    0    0    0 -0.00000000000E+00 -0.00000000000E+00 -0.45593999997E+02  0.45594000000E+02  0.51100000000E-03 0.  1.
    9900012    2    1    2    0    0 -0.30991183891E+02  0.43262876214E+01 -0.61282205730E+01  0.59301869301E+02  0.49999863717E+02 0.  0.
         12    1    1    2    0    0  0.30991183891E+02 -0.43262876214E+01  0.61282205730E+01  0.31886130699E+02  0.00000000000E+00 0. -1.
         11    1    3    3    0    0 -0.24397474619E+02 -0.95682762687E+01 -0.97864471063E+01  0.27974331551E+02  0.51100000000E-03 0. -1.
        -11    1    3    3    0    0 -0.30726540675E+01 -0.18434092008E+01 -0.97291219582E+01  0.10367987984E+02  0.51100000000E-03 0.  1.
         12    1    3    3    0    0 -0.35210552048E+01  0.15737973091E+02  0.13387348491E+02  0.20959549766E+02  0.00000000000E+00 0. -1.
</event>
<event>
 7    1  0.5837204E-012  0.5930191E+02  0.7816164E-02  0.1266605E+00
        -11   -1    0    0    0    0  0.00000000000E+00  0.00000000000E+00  0.45593999997E+02  0.45594000000E+02  0.51100000000E-03 0. -1.
         11   -1    0    0    0    0 -0.00000000000E+00 -0.00000000000E+00 -0.45593999997E+02  0.45594000000E+02  0.51100000000E-03 0.  1.
    9900012    2    1    2    0    0 -0.22575236485E+02 -0.17409289145E+02  0.14282788702E+02  0.59301910493E+02  0.49999938841E+02 0.  0.
         12    1    1    2    0    0  0.22575236485E+02  0.17409289145E+02 -0.14282788702E+02  0.31886089507E+02  0.00000000000E+00 0. -1.
         11    1    3    3    0    0 -0.14939296892E+01  0.13022539370E+01  0.10365932698E+02  0.10553684295E+02  0.51100000000E-03 0. -1.
        -11    1    3    3    0    0 -0.10515691099E+02 -0.17956739904E+02  0.20409209198E+02  0.29147214062E+02  0.51100000000E-03 0.  1.
        -12    1    3    3    0    0 -0.10565615697E+02 -0.75480317840E+00 -0.16492353194E+02  0.19601012136E+02  0.00000000000E+00 0.  1.
</event>
<event>
 7    1  0.6219547E-012  0.5930200E+02  0.7816164E-02  0.1266605E+00
        -11   -1    0    0    0    0  0.00000000000E+00  0.00000000000E+00  0.45593999997E+02  0.45594000000E+02  0.51100000000E-03 0. -1.
         11   -1    0    0    0    0 -0.00000000000E+00 -0.00000000000E+00 -0.45593999997E+02  0.45594000000E+02  0.51100000000E-03 0.  1.
    9900012    2    1    2    0    0  0.18439091810E+02 -0.18988952972E+02 -0.17780228638E+02  0.59302000374E+02  0.50000102762E+02 0.  0.
         12    1    1    2    0    0 -0.18439091810E+02  0.18988952972E+02  0.17780228638E+02  0.31885999626E+02  0.00000000000E+00 0. -1.
         11    1    3    3    0    0  0.64659872170E+01  0.19190037612E+01  0.97629873988E+01  0.11866233157E+02  0.51100000000E-03 0. -1.
        -11    1    3    3    0    0  0.69685921084E+01  0.72091011454E+01 -0.80509903781E+01  0.12858882596E+02  0.51100000000E-03 0.  1.
        -12    1    3    3    0    0  0.50045124847E+01 -0.28117057878E+02 -0.19492225658E+02  0.34576884621E+02  0.00000000000E+00 0.  1.
</event>
<event>
 7    1  0.5837204E-012  0.5930191E+02  0.7816164E-02  0.1266605E+00
        -11   -1    0    0    0    0  0.00000000000E+00  0.00000000000E+00  0.45593999997E+02  0.45594000000E+02  0.51100000000E-03 0.  1.
         11   -1    0    0    0    0 -0.00000000000E+00 -0.00000000000E+00 -0.45593999997E+02  0.45594000000E+02  0.51100000000E-03 0. -1.
    9900012    2    1    2    0    0  0.27052021165E+02  0.13743377995E+02 -0.97995152849E+01  0.59301909182E+02  0.49999936449E+02 0.  0.
         12    1    1    2    0    0 -0.27052021165E+02 -0.13743377995E+02  0.97995152849E+01  0.31886090818E+02  0.00000000000E+00 0. -1.
         11    1    3    3    0    0 -0.26682127936E+01 -0.34194431014E+01 -0.27233810802E+01  0.51214017031E+01  0.51100000000E-03 0. -1.
        -11    1    3    3    0    0  0.10812821163E+01  0.93739358093E+01  0.14631177474E+02  0.17410088974E+02  0.51100000000E-03 0.  1.
         12    1    3    3    0    0  0.28638951843E+02  0.77888852872E+01 -0.21707311678E+02  0.36770418504E+02  0.00000000000E+00 0. -1.
</event>
<event>
 7    1  0.5837204E-012  0.5930198E+02  0.7816164E-02  0.1266605E+00
        -11   -1    0    0    0    0  0.00000000000E+00  0.00000000000E+00  0.45593999997E+02  0.45594000000E+02  0.51100000000E-03 0. -1.
         11   -1    0    0    0    0 -0.00000000000E+00 -0.00000000000E+00 -0.45593999997E+02  0.45594000000E+02  0.51100000000E-03 0.  1.
    9900012    2    1    2    0    0 -0.38217394608E+01 -0.20914876443E+02 -0.23763007488E+02  0.59301979960E+02  0.50000065532E+02 0.  0.
         12    1    1    2    0    0  0.38217394608E+01  0.20914876443E+02  0.23763007488E+02  0.31886020040E+02  0.00000000000E+00 0. -1.
         11    1    3    3    0    0 -0.13432813400E+02  0.21048410895E+01 -0.57833584370E+01  0.14775590240E+02  0.51100000000E-03 0. -1.
        -11    1    3    3    0    0  0.13129582448E+02  0.30293454781E+01 -0.16346462362E+01  0.13573317128E+02  0.51100000000E-03 0.  1.
        -12    1    3    3    0    0 -0.35185085086E+01 -0.26049063011E+02 -0.16345002815E+02  0.30953072592E+02  0.00000000000E+00 0.  1.
</event>
<event>
 7    1  0.5837204E-012  0.5930201E+02  0.7816164E-02  0.1266605E+00
        -11   -1    0    0    0    0  0.00000000000E+00  0.00000000000E+00  0.45593999997E+02  0.45594000000E+02  0.51100000000E-03 0.  1.
         11   -1    0    0    0    0 -0.00000000000E+00 -0.00000000000E+00 -0.45593999997E+02  0.45594000000E+02  0.51100000000E-03 0. -1.
    9900012    2    1    2    0    0 -0.30132271481E+02  0.19872986425E+01  0.10237843951E+02  0.59302006378E+02  0.50000113712E+02 0.  0.
         12    1    1    2    0    0  0.30132271481E+02 -0.19872986425E+01 -0.10237843951E+02  0.31885993622E+02  0.00000000000E+00 0. -1.
         11    1    3    3    0    0 -0.25986696134E+02 -0.33363841011E+01  0.17444724952E+00  0.26200577607E+02  0.51100000000E-03 0. -1.
        -11    1    3    3    0    0 -0.44940852388E+01 -0.12390844761E+02  0.75951739848E+01  0.15212379963E+02  0.51100000000E-03 0.  1.
        -12    1    3    3    0    0  0.34850989177E+00  0.17714527505E+02  0.24682227166E+01  0.17889048808E+02  0.00000000000E+00 0.  1.
</event>
<event>
 7    1  0.5837204E-012  0.5930194E+02  0.7816164E-02  0.1266605E+00
        -11   -1    0    0    0    0  0.00000000000E+00  0.00000000000E+00  0.45593999997E+02  0.45594000000E+02  0.51100000000E-03 0. -1.
         11   -1    0    0    0    0 -0.00000000000E+00 -0.00000000000E+00 -0.45593999997E+02  0.45594000000E+02  0.51100000000E-03 0.  1.
    9900012    2    1    2    0    0 -0.78866672839E+01 -0.30613840473E+02 -0.41610370651E+01  0.59301937546E+02  0.49999988179E+02 0.  0.
         12    1    1    2    0    0  0.78866672839E+01  0.30613840473E+02  0.41610370651E+01  0.31886062454E+02  0.00000000000E+00 0. -1.
         11    1    3    3    0    0  0.19292901307E+01  0.15854150213E+01 -0.44198345925E+01  0.50764790243E+01  0.51100000000E-03 0. -1.
        -11    1    3    3    0    0  0.16124773955E+02 -0.75764729424E+01 -0.38407512645E+01  0.18225329843E+02  0.51100000000E-03 0.  1.
        -12    1    3    3    0    0 -0.25940731370E+02 -0.24622782552E+02  0.40995487919E+01  0.36000128679E+02  0.00000000000E+00 0.  1.
</event>
<event>
 7    1  0.5837204E-012  0.5930193E+02  0.7816164E-02  0.1266605E+00
        -11   -1    0    0    0    0  0.00000000000E+00  0.00000000000E+00  0.45593999997E+02  0.45594000000E+02  0.51100000000E-03 0. -1.
         11   -1    0    0    0    0 -0.00000000000E+00 -0.00000000000E+00 -0.45593999997E+02  0.45594000000E+02  0.51100000000E-03 0.  1.
    9900012    2    1    2    0    0 -0.91162476955E+01 -0.24550178626E+02 -0.18190767429E+02  0.59301933102E+02  0.49999980073E+02 0.  0.
         12    1    1    2    0    0  0.91162476955E+01  0.24550178626E+02  0.18190767429E+02  0.31886066898E+02  0.00000000000E+00 0. -1.
         11    1    3    3    0    0 -0.11556298664E+01 -0.10579210132E+02 -0.13552727763E+02  0.17231703267E+02  0.51100000000E-03 0. -1.
        -11    1    3    3    0    0  0.55904315189E+01  0.80023463625E+01 -0.11766207345E+02  0.15288365100E+02  0.51100000000E-03 0.  1.
         12    1    3    3    0    0 -0.13551049348E+02 -0.21973314856E+02  0.71281676797E+01  0.26781864735E+02  0.00000000000E+00 0. -1.
</event>
<event>
 7    1  0.5837204E-012  0.5930194E+02  0.7816164E-02  0.1266605E+00
        -11   -1    0    0    0    0  0.00000000000E+00  0.00000000000E+00  0.45593999997E+02  0.45594000000E+02  0.51100000000E-03 0. -1.
         11   -1    0    0    0    0 -0.00000000000E+00 -0.00000000000E+00 -0.45593999997E+02  0.45594000000E+02  0.51100000000E-03 0.  1.
    9900012    2    1    2    0    0  0.96904639910E+01 -0.24019321317E+02 -0.18598067847E+02  0.59301936954E+02  0.49999987100E+02 0.  0.
         12    1    1    2    0    0 -0.96904639910E+01  0.24019321317E+02  0.18598067847E+02  0.31886063046E+02  0.00000000000E+00 0. -1.
         11    1    3    3    0    0 -0.14818054008E+01  0.78632966159E+01 -0.17314326959E+02  0.19073885268E+02  0.51100000000E-03 0. -1.
        -11    1    3    3    0    0  0.27456978176E+01 -0.16806008348E+02 -0.11133271602E+02  0.20345282253E+02  0.51100000000E-03 0.  1.
         12    1    3    3    0    0  0.84265715742E+01 -0.15076609585E+02  0.98495307138E+01  0.19882769434E+02  0.00000000000E+00 0. -1.
</event>
<event>
 7    1  0.5837204E-012  0.5930196E+02  0.7816164E-02  0.1266605E+00
        -11   -1    0    0    0    0  0.00000000000E+00  0.00000000000E+00  0.45593999997E+02  0.45594000000E+02  0.51100000000E-03 0.  1.
         11   -1    0    0    0    0 -0.00000000000E+00 -0.00000000000E+00 -0.45593999997E+02  0.45594000000E+02  0.51100000000E-03 0. -1.
    9900012    2    1    2    0    0  0.10943148650E+02  0.26545775693E+00  0.29948227418E+02  0.59301963939E+02  0.50000036314E+02 0.  0.
         12    1    1    2    0    0 -0.10943148650E+02 -0.26545775693E+00 -0.29948227418E+02  0.31886036061E+02  0.00000000000E+00 0. -1.
         11    1    3    3    0    0 -0.68661261660E+01  0.18087378038E+02  0.84241265522E+01  0.21101252125E+02  0.51100000000E-03 0. -1.
        -11    1    3    3    0    0  0.36669629536E+01  0.92705068371E+00  0.12470292469E+02  0.13031279093E+02  0.51100000000E-03 0.  1.
         12    1    3    3    0    0  0.14142311862E+02 -0.18748970964E+02  0.90538083964E+01  0.25169432721E+02  0.00000000000E+00 0. -1.
</event>
<event>
 7    1  0.5837204E-012  0.5930193E+02  0.7816164E-02  0.1266605E+00
        -11   -1    0    0    0    0  0.00000000000E+00  0.00000000000E+00  0.45593999997E+02  0.45594000000E+02  0.51100000000E-03 0. -1.
         11   -1    0    0    0    0 -0.00000000000E+00 -0.00000000000E+00 -0.45593999997E+02  0.45594000000E+02  0.51100000000E-03 0.  1.
    9900012    2    1    2    0    0 -0.69068407467E+01  0.24565101627E+02 -0.19119963894E+02  0.59301926451E+02  0.49999967944E+02 0.  0.
         12    1    1    2    0    0  0.69068407467E+01 -0.24565101627E+02  0.19119963894E+02  0.31886073549E+02  0.00000000000E+00 0. -1.
         11    1    3    3    0    0 -0.13965943502E+02  0.18379689130E+02 -0.15841983434E+01  0.23138068957E+02  0.51100000000E-03 0. -1.
        -11    1    3    3    0    0 -0.67516158278E+00 -0.57052850458E+01  0.62376510528E+01  0.84802365259E+01  0.51100000000E-03 0.  1.
        -12    1    3    3    0    0  0.77342643377E+01  0.11890697544E+02 -0.23773416603E+02  0.27683620968E+02  0.00000000000E+00 0.  1.
</event>
<event>
 7    1  0.5837204E-012  0.5930194E+02  0.7816164E-02  0.1266605E+00
        -11   -1    0    0    0    0  0.00000000000E+00  0.00000000000E+00  0.45593999997E+02  0.45594000000E+02  0.51100000000E-03 0.  1.
         11   -1    0    0    0    0 -0.00000000000E+00 -0.00000000000E+00 -0.45593999997E+02  0.45594000000E+02  0.51100000000E-03 0. -1.
    9900012    2    1    2    0    0  0.19964487290E+02  0.95266493545E+01 -0.22964815408E+02  0.59301944311E+02  0.50000000517E+02 0.  0.
         12    1    1    2    0    0 -0.19964487290E+02 -0.95266493545E+01  0.22964815408E+02  0.31886055689E+02  0.00000000000E+00 0. -1.
         11    1    3    3    0    0  0.28525607672E+02  0.80189919870E+01 -0.26572188398E+02  0.39800700020E+02  0.51100000000E-03 0. -1.
        -11    1    3    3    0    0 -0.12752218684E+02  0.85443690330E-01 -0.13873759299E+01  0.12827750941E+02  0.51100000000E-03 0.  1.
         12    1    3    3    0    0  0.41910983012E+01  0.14222136772E+01  0.49947489199E+01  0.66734933496E+01  0.00000000000E+00 0. -1.
</event>
<event>
 7    1  0.5837204E-012  0.5930196E+02  0.7816164E-02  0.1266605E+00
        -11   -1    0    0    0    0  0.00000000000E+00  0.00000000000E+00  0.45593999997E+02  0.45594000000E+02  0.51100000000E-03 0. -1.
         11   -1    0    0    0    0 -0.00000000000E+00 -0.00000000000E+00 -0.45593999997E+02  0.45594000000E+02  0.51100000000E-03 0.  1.
    9900012    2    1    2    0    0  0.69048472433E+00 -0.55750041857E+01 -0.31387290201E+02  0.59301961880E+02  0.50000032559E+02 0.  0.
         12    1    1    2    0    0 -0.69048472433E+00  0.55750041857E+01  0.31387290201E+02  0.31886038120E+02  0.00000000000E+00 0. -1.
         11    1    3    3    0    0  0.33262410429E-01 -0.90292562469E+01 -0.31343660812E+01  0.95578672178E+01  0.51100000000E-03 0. -1.
        -11    1    3    3    0    0 -0.15895225253E+02 -0.75439280194E+01 -0.33958290964E+01  0.17919282668E+02  0.51100000000E-03 0.  1.
        -12    1    3    3    0    0  0.16552447567E+02  0.10998180081E+02 -0.24857095023E+02  0.31824811995E+02  0.00000000000E+00 0.  1.
</event>
<event>
 7    1  0.5837204E-012  0.5930194E+02  0.7816164E-02  0.1266605E+00
        -11   -1    0    0    0    0  0.00000000000E+00  0.00000000000E+00  0.45593999997E+02  0.45594000000E+02  0.51100000000E-03 0. -1.
         11   -1    0    0    0    0 -0.00000000000E+00 -0.00000000000E+00 -0.45593999997E+02  0.45594000000E+02  0.51100000000E-03 0.  1.
    9900012    2    1    2    0    0  0.56670908678E+01  0.30604093087E+02 -0.69277774140E+01  0.59301944545E+02  0.50000000943E+02 0.  0.
         12    1    1    2    0    0 -0.56670908678E+01 -0.30604093087E+02  0.69277774140E+01  0.31886055455E+02  0.00000000000E+00 0. -1.
         11    1    3    3    0    0 -0.13101137716E+02  0.23587747656E+00 -0.10343833511E+01  0.13144025138E+02  0.51100000000E-03 0. -1.
        -11    1    3    3    0    0  0.17855657146E+02  0.26881734674E+01 -0.31182783253E+01  0.18324148784E+02  0.51100000000E-03 0.  1.
        -12    1    3    3    0    0  0.91257143823E+00  0.27680042144E+02 -0.27751157375E+01  0.27833770622E+02  0.00000000000E+00 0.  1.
</event>
<event>
 7    1  0.5837204E-012  0.5930194E+02  0.7816164E-02  0.1266605E+00
        -11   -1    0    0    0    0  0.00000000000E+00  0.00000000000E+00  0.45593999997E+02  0.45594000000E+02  0.51100000000E-03 0. -1.
         11   -1    0    0    0    0 -0.00000000000E+00 -0.00000000000E+00 -0.45593999997E+02  0.45594000000E+02  0.51100000000E-03 0.  1.
    9900012    2    1    2    0    0 -0.25923847941E+02  0.12490600038E+02  0.13735361322E+02  0.59301935143E+02  0.49999983797E+02 0.  0.
         12    1    1    2    0    0  0.25923847941E+02 -0.12490600038E+02 -0.13735361322E+02  0.31886064857E+02  0.00000000000E+00 0. -1.
         11    1    3    3    0    0 -0.25670140568E+02  0.29926178742E+02  0.11154000826E+02  0.40974919469E+02  0.51100000000E-03 0.  1.
        -11    1    3    3    0    0 -0.83143432613E+00 -0.24133232048E+01 -0.12072302192E+01  0.28236177137E+01  0.51100000000E-03 0. -1.
        -12    1    3    3    0    0  0.57772695227E+00 -0.15022255499E+02  0.37885907147E+01  0.15503397960E+02  0.00000000000E+00 0.  1.
</event>
<event>
 7    1  0.5837204E-012  0.5930194E+02  0.7816164E-02  0.1266605E+00
        -11   -1    0    0    0    0  0.00000000000E+00  0.00000000000E+00  0.45593999997E+02  0.45594000000E+02  0.51100000000E-03 0.  1.
         11   -1    0    0    0    0 -0.00000000000E+00 -0.00000000000E+00 -0.45593999997E+02  0.45594000000E+02  0.51100000000E-03 0. -1.
    9900012    2    1    2    0    0 -0.28225189054E+02 -0.11366518485E+02  0.95321522075E+01  0.59301937758E+02  0.49999988565E+02 0.  0.
         12    1    1    2    0    0  0.28225189054E+02  0.11366518485E+02 -0.95321522075E+01  0.31886062242E+02  0.00000000000E+00 0. -1.
         11    1    3    3    0    0 -0.20469529790E+02 -0.65119664377E+01 -0.74633437770E+00  0.21493356461E+02  0.51100000000E-03 0.  1.
        -11    1    3    3    0    0 -0.12884630991E+02  0.11189534477E+02 -0.16853522738E+01  0.17148172210E+02  0.51100000000E-03 0. -1.
        -12    1    3    3    0    0  0.51289717269E+01 -0.16044086525E+02  0.11963838859E+02  0.20660409087E+02  0.00000000000E+00 0.  1.
</event>
<event>
 7    1  0.5837204E-012  0.5930195E+02  0.7816164E-02  0.1266605E+00
        -11   -1    0    0    0    0  0.00000000000E+00  0.00000000000E+00  0.45593999997E+02  0.45594000000E+02  0.51100000000E-03 0.  1.
         11   -1    0    0    0    0 -0.00000000000E+00 -0.00000000000E+00 -0.45593999997E+02  0.45594000000E+02  0.51100000000E-03 0. -1.
    9900012    2    1    2    0    0 -0.19495141769E+02 -0.42788236379E+01  0.24866676315E+02  0.59301945442E+02  0.50000002580E+02 0.  0.
         12    1    1    2    0    0  0.19495141769E+02  0.42788236379E+01 -0.24866676315E+02  0.31886054558E+02  0.00000000000E+00 0. -1.
         11    1    3    3    0    0 -0.10729665290E+01 -0.28966377928E+01 -0.11005534926E+02  0.11430816548E+02  0.51100000000E-03 0. -1.
        -11    1    3    3    0    0  0.18240512668E+01  0.74617091867E+01  0.17590639252E+02  0.19194656980E+02  0.51100000000E-03 0.  1.
        -12    1    3    3    0    0 -0.20246226507E+02 -0.88438950318E+01  0.18281571989E+02  0.28676471915E+02  0.00000000000E+00 0.  1.
</event>
<event>
 7    1  0.5837204E-012  0.5930195E+02  0.7816164E-02  0.1266605E+00
        -11   -1    0    0    0    0  0.00000000000E+00  0.00000000000E+00  0.45593999997E+02  0.45594000000E+02  0.51100000000E-03 0.  1.
         11   -1    0    0    0    0 -0.00000000000E+00 -0.00000000000E+00 -0.45593999997E+02  0.45594000000E+02  0.51100000000E-03 0. -1.
    9900012    2    1    2    0    0  0.10638197034E+02 -0.28444658149E+02  0.97185465569E+01  0.59301953514E+02  0.50000017300E+02 0.  0.
         12    1    1    2    0    0 -0.10638197034E+02  0.28444658149E+02 -0.97185465569E+01  0.31886046486E+02  0.00000000000E+00 0. -1.
         11    1    3    3    0    0 -0.30627660780E+01 -0.20470844219E+02  0.12406487240E+02  0.24132072538E+02  0.51100000000E-03 0. -1.
        -11    1    3    3    0    0 -0.64768947946E+01  0.59342799605E+01  0.41667416154E+01  0.97225295463E+01  0.51100000000E-03 0.  1.
         12    1    3    3    0    0  0.20177857907E+02 -0.13908093891E+02 -0.68546822984E+01  0.25447351430E+02  0.00000000000E+00 0. -1.
</event>
<event>
 7    1  0.5837204E-012  0.5930198E+02  0.7816164E-02  0.1266605E+00
        -11   -1    0    0    0    0  0.00000000000E+00  0.00000000000E+00  0.45593999997E+02  0.45594000000E+02  0.51100000000E-03 0. -1.
         11   -1    0    0    0    0 -0.00000000000E+00 -0.00000000000E+00 -0.45593999997E+02  0.45594000000E+02  0.51100000000E-03 0.  1.
    9900012    2    1    2    0    0  0.29503175981E+02  0.10647342435E+02 -0.57371745330E+01  0.59301976957E+02  0.50000060055E+02 0.  0.
         12    1    1    2    0    0 -0.29503175981E+02 -0.10647342435E+02  0.57371745330E+01  0.31886023043E+02  0.00000000000E+00 0. -1.
         11    1    3    3    0    0  0.13532754135E+02  0.62864365655E+01 -0.10064497064E+02  0.17998578293E+02  0.51100000000E-03 0. -1.
        -11    1    3    3    0    0  0.26066784985E+02 -0.55625687166E+01  0.50516548809E+01  0.27128189535E+02  0.51100000000E-03 0.  1.
         12    1    3    3    0    0 -0.10096363139E+02  0.99234745858E+01 -0.72433235034E+00  0.14175209129E+02  0.00000000000E+00 0. -1.
</event>
<event>
 7    1  0.5837204E-012  0.5930197E+02  0.7816164E-02  0.1266605E+00
        -11   -1    0    0    0    0  0.00000000000E+00  0.00000000000E+00  0.45593999997E+02  0.45594000000E+02  0.51100000000E-03 0.  1.
         11   -1    0    0    0    0 -0.00000000000E+00 -0.00000000000E+00 -0.45593999997E+02  0.45594000000E+02  0.51100000000E-03 0. -1.
    9900012    2    1    2    0    0 -0.37954044198E+01 -0.22974581249E+02  0.21782620524E+02  0.59301968025E+02  0.50000043764E+02 0.  0.
         12    1    1    2    0    0  0.37954044198E+01  0.22974581249E+02 -0.21782620524E+02  0.31886031975E+02  0.00000000000E+00 0. -1.
         11    1    3    3    0    0  0.68566620094E+01 -0.86030196490E+00  0.45899280830E+01  0.82958648404E+01  0.51100000000E-03 0. -1.
        -11    1    3    3    0    0  0.14497932436E+02 -0.65792053045E+01  0.14129667044E+02  0.21286697217E+02  0.51100000000E-03 0.  1.
         12    1    3    3    0    0 -0.25149998865E+02 -0.15535073979E+02  0.30630253966E+01  0.29719405967E+02  0.00000000000E+00 0. -1.
</event>
<event>
 7    1  0.5837204E-012  0.5930194E+02  0.7816164E-02  0.1266605E+00
        -11   -1    0    0    0    0  0.00000000000E+00  0.00000000000E+00  0.45593999997E+02  0.45594000000E+02  0.51100000000E-03 0. -1.
         11   -1    0    0    0    0 -0.00000000000E+00 -0.00000000000E+00 -0.45593999997E+02  0.45594000000E+02  0.51100000000E-03 0.  1.
    9900012    2    1    2    0    0  0.90549783257E-01 -0.22246080913E+02 -0.22843483241E+02  0.59301936558E+02  0.49999986377E+02 0.  0.
         12    1    1    2    0    0 -0.90549783257E-01  0.22246080913E+02  0.22843483241E+02  0.31886063442E+02  0.00000000000E+00 0. -1.
         11    1    3    3    0    0  0.48005729750E+01 -0.20003057928E+01 -0.35961501499E+01  0.63228965130E+01  0.51100000000E-03 0. -1.
        -11    1    3    3    0    0  0.75164274685E+01 -0.25009057043E+02  0.38680201552E+01  0.26399075671E+02  0.51100000000E-03 0.  1.
         12    1    3    3    0    0 -0.12226450660E+02  0.47632819234E+01 -0.23115353246E+02  0.26579964374E+02  0.00000000000E+00 0. -1.
</event>
<event>
 7    1  0.5837204E-012  0.5930194E+02  0.7816164E-02  0.1266605E+00
        -11   -1    0    0    0    0  0.00000000000E+00  0.00000000000E+00  0.45593999997E+02  0.45594000000E+02  0.51100000000E-03 0. -1.
         11   -1    0    0    0    0 -0.00000000000E+00 -0.00000000000E+00 -0.45593999997E+02  0.45594000000E+02  0.51100000000E-03 0.  1.
    9900012    2    1    2    0    0  0.13705099030E+02  0.14487952711E+02 -0.24879518956E+02  0.59301937580E+02  0.49999988241E+02 0.  0.
         12    1    1    2    0    0 -0.13705099030E+02 -0.14487952711E+02  0.24879518956E+02  0.31886062420E+02  0.00000000000E+00 0. -1.
         11    1    3    3    0    0  0.14742017262E+01  0.99549781789E+01 -0.13739472463E+01  0.10156898767E+02  0.51100000000E-03 0. -1.
        -11    1    3    3    0    0 -0.59886870294E+00  0.12668826799E+02 -0.30039797760E+02  0.32607472547E+02  0.51100000000E-03 0.  1.
        -12    1    3    3    0    0  0.12829766007E+02 -0.81358522674E+01  0.65342260502E+01  0.16537566265E+02  0.00000000000E+00 0.  1.
</event>
<event>
 7    1  0.5837204E-012  0.5930197E+02  0.7816164E-02  0.1266605E+00
        -11   -1    0    0    0    0  0.00000000000E+00  0.00000000000E+00  0.45593999997E+02  0.45594000000E+02  0.51100000000E-03 0.  1.
         11   -1    0    0    0    0 -0.00000000000E+00 -0.00000000000E+00 -0.45593999997E+02  0.45594000000E+02  0.51100000000E-03 0. -1.
    9900012    2    1    2    0    0 -0.31727283702E+02 -0.21203759090E+01  0.23668803783E+01  0.59301974098E+02  0.50000054841E+02 0.  0.
         12    1    1    2    0    0  0.31727283702E+02  0.21203759090E+01 -0.23668803783E+01  0.31886025902E+02  0.00000000000E+00 0. -1.
         11    1    3    3    0    0 -0.12792205286E+02  0.94054917990E+00  0.10030258342E+02  0.16282850841E+02  0.51100000000E-03 0. -1.
        -11    1    3    3    0    0 -0.27575178843E+02 -0.19985666519E+01  0.45515323358E+01  0.28019657452E+02  0.51100000000E-03 0.  1.
         12    1    3    3    0    0  0.86401004263E+01 -0.10623584370E+01 -0.12214910299E+02  0.14999465805E+02  0.00000000000E+00 0. -1.
</event>
<event>
 7    1  0.5837204E-012  0.5930195E+02  0.7816164E-02  0.1266605E+00
        -11   -1    0    0    0    0  0.00000000000E+00  0.00000000000E+00  0.45593999997E+02  0.45594000000E+02  0.51100000000E-03 0.  1.
         11   -1    0    0    0    0 -0.00000000000E+00 -0.00000000000E+00 -0.45593999997E+02  0.45594000000E+02  0.51100000000E-03 0. -1.
    9900012    2    1    2    0    0 -0.22329396696E+02  0.14296165529E+02  0.17712640852E+02  0.59301953654E+02  0.50000017556E+02 0.  0.
         12    1    1    2    0    0  0.22329396696E+02 -0.14296165529E+02 -0.17712640852E+02  0.31886046346E+02  0.00000000000E+00 0. -1.
         11    1    3    3    0    0 -0.42011959229E+01 -0.97425140284E+01 -0.65602283484E+01  0.12474102093E+02  0.51100000000E-03 0. -1.
        -11    1    3    3    0    0  0.38033451282E+01  0.58018913931E+01  0.15506976175E+02  0.16988045451E+02  0.51100000000E-03 0.  1.
        -12    1    3    3    0    0 -0.21931545901E+02  0.18236788164E+02  0.87658930262E+01  0.29839806110E+02  0.00000000000E+00 0.  1.
</event>
<event>
 7    1  0.5837204E-012  0.5930195E+02  0.7816164E-02  0.1266605E+00
        -11   -1    0    0    0    0  0.00000000000E+00  0.00000000000E+00  0.45593999997E+02  0.45594000000E+02  0.51100000000E-03 0. -1.
         11   -1    0    0    0    0 -0.00000000000E+00 -0.00000000000E+00 -0.45593999997E+02  0.45594000000E+02  0.51100000000E-03 0.  1.
    9900012    2    1    2    0    0 -0.23164485654E+02 -0.11356322293E+02 -0.18739289629E+02  0.59301946192E+02  0.50000003948E+02 0.  0.
         12    1    1    2    0    0  0.23164485654E+02  0.11356322293E+02  0.18739289629E+02  0.31886053808E+02  0.00000000000E+00 0. -1.
         11    1    3    3    0    0  0.24163804252E+01 -0.25198279415E+00 -0.39276361637E+01  0.46183022620E+01  0.51100000000E-03 0. -1.
        -11    1    3    3    0    0 -0.42299859403E+01  0.11532592599E+00 -0.27228822492E+02  0.27555668304E+02  0.51100000000E-03 0.  1.
         12    1    3    3    0    0 -0.21350880139E+02 -0.11219665425E+02  0.12417169027E+02  0.27127975626E+02  0.00000000000E+00 0. -1.
</event>
<event>
 7    1  0.5837204E-012  0.5930195E+02  0.7816164E-02  0.1266605E+00
        -11   -1    0    0    0    0  0.00000000000E+00  0.00000000000E+00  0.45593999997E+02  0.45594000000E+02  0.51100000000E-03 0. -1.
         11   -1    0    0    0    0 -0.00000000000E+00 -0.00000000000E+00 -0.45593999997E+02  0.45594000000E+02  0.51100000000E-03 0.  1.
    9900012    2    1    2    0    0 -0.86561727027E+01 -0.30417459058E+02  0.40704702918E+01  0.59301954936E+02  0.50000019894E+02 0.  0.
         12    1    1    2    0    0  0.86561727027E+01  0.30417459058E+02 -0.40704702918E+01  0.31886045064E+02  0.00000000000E+00 0. -1.
         11    1    3    3    0    0 -0.24231127549E+01 -0.16685250038E+02 -0.16753920385E+02  0.23768948079E+02  0.51100000000E-03 0. -1.
        -11    1    3    3    0    0 -0.62426805619E+01 -0.13420559568E+02  0.95471635631E-01  0.14801742965E+02  0.51100000000E-03 0.  1.
         12    1    3    3    0    0  0.96206141975E-02 -0.31164945242E+00  0.20728919041E+02  0.20731263892E+02  0.00000000000E+00 0. -1.
</event>
<event>
 7    1  0.5837204E-012  0.5930196E+02  0.7816164E-02  0.1266605E+00
        -11   -1    0    0    0    0  0.00000000000E+00  0.00000000000E+00  0.45593999997E+02  0.45594000000E+02  0.51100000000E-03 0. -1.
         11   -1    0    0    0    0 -0.00000000000E+00 -0.00000000000E+00 -0.45593999997E+02  0.45594000000E+02  0.51100000000E-03 0.  1.
    9900012    2    1    2    0    0 -0.16402593051E+01 -0.52168862987E+01 -0.31413581310E+02  0.59301961614E+02  0.50000032073E+02 0.  0.
         12    1    1    2    0    0  0.16402593051E+01  0.52168862987E+01  0.31413581310E+02  0.31886038386E+02  0.00000000000E+00 0. -1.
         11    1    3    3    0    0 -0.71856343734E+01  0.79137856837E+01 -0.15801736031E+01  0.10805475190E+02  0.51100000000E-03 0. -1.
        -11    1    3    3    0    0 -0.10815880998E+02 -0.17130980103E+02 -0.10377775362E+02  0.22762951978E+02  0.51100000000E-03 0.  1.
         12    1    3    3    0    0  0.16361256067E+02  0.40003081205E+01 -0.19455632345E+02  0.25733534446E+02  0.00000000000E+00 0. -1.
</event>
<event>
 7    1  0.5837204E-012  0.5930195E+02  0.7816164E-02  0.1266605E+00
        -11   -1    0    0    0    0  0.00000000000E+00  0.00000000000E+00  0.45593999997E+02  0.45594000000E+02  0.51100000000E-03 0. -1.
         11   -1    0    0    0    0 -0.00000000000E+00 -0.00000000000E+00 -0.45593999997E+02  0.45594000000E+02  0.51100000000E-03 0.  1.
    9900012    2    1    2    0    0  0.17773935313E+02 -0.25874853795E+02  0.55946043634E+01  0.59301946098E+02  0.50000003776E+02 0.  0.
         12    1    1    2    0    0 -0.17773935313E+02  0.25874853795E+02 -0.55946043634E+01  0.31886053902E+02  0.00000000000E+00 0. -1.
         11    1    3    3    0    0 -0.15885581442E+02 -0.63202690169E+01  0.57759794356E+00  0.17106464212E+02  0.51100000000E-03 0.  1.
        -11    1    3    3    0    0  0.10605477912E+01 -0.19274858135E+01  0.46387938147E+01  0.51340404649E+01  0.51100000000E-03 0. -1.
        -12    1    3    3    0    0  0.32598968964E+02 -0.17627098965E+02  0.37821260512E+00  0.37061441421E+02  0.00000000000E+00 0.  1.
</event>
<event>
 7    1  0.5837204E-012  0.5930194E+02  0.7816164E-02  0.1266605E+00
        -11   -1    0    0    0    0  0.00000000000E+00  0.00000000000E+00  0.45593999997E+02  0.45594000000E+02  0.51100000000E-03 0. -1.
         11   -1    0    0    0    0 -0.00000000000E+00 -0.00000000000E+00 -0.45593999997E+02  0.45594000000E+02  0.51100000000E-03 0.  1.
    9900012    2    1    2    0    0 -0.27973016127E+02 -0.13387688641E+02 -0.74162818626E+01  0.59301936037E+02  0.49999985426E+02 0.  0.
         12    1    1    2    0    0  0.27973016127E+02  0.13387688641E+02  0.74162818626E+01  0.31886063963E+02  0.00000000000E+00 0. -1.
         11    1    3    3    0    0  0.77384651000E+01  0.66202712758E+01 -0.45889067107E+01  0.11170044715E+02  0.51100000000E-03 0. -1.
        -11    1    3    3    0    0  0.30094633032E+01 -0.49392589815E+01 -0.31395385012E+01  0.65810220271E+01  0.51100000000E-03 0.  1.
         12    1    3    3    0    0 -0.38720944530E+02 -0.15068700935E+02  0.31216334935E+00  0.41550869295E+02  0.00000000000E+00 0. -1.
</event>
<event>
 7    1  0.5837204E-012  0.5930195E+02  0.7816164E-02  0.1266605E+00
        -11   -1    0    0    0    0  0.00000000000E+00  0.00000000000E+00  0.45593999997E+02  0.45594000000E+02  0.51100000000E-03 0.  1.
         11   -1    0    0    0    0 -0.00000000000E+00 -0.00000000000E+00 -0.45593999997E+02  0.45594000000E+02  0.51100000000E-03 0. -1.
    9900012    2    1    2    0    0  0.25274553130E+02  0.18273754747E+02  0.66322528016E+01  0.59301954060E+02  0.50000018296E+02 0.  0.
         12    1    1    2    0    0 -0.25274553130E+02 -0.18273754747E+02 -0.66322528016E+01  0.31886045940E+02  0.00000000000E+00 0. -1.
         11    1    3    3    0    0  0.11007947991E+02  0.20049977218E+02 -0.79132445636E+01  0.24203221793E+02  0.51100000000E-03 0. -1.
        -11    1    3    3    0    0  0.82732836777E+01  0.98611667443E-01 -0.81119812401E+01  0.11587112970E+02  0.51100000000E-03 0.  1.
        -12    1    3    3    0    0  0.59933214618E+01 -0.18748341377E+01  0.22657478605E+02  0.23511619296E+02  0.00000000000E+00 0.  1.
</event>
<event>
 7    1  0.5837204E-012  0.5930195E+02  0.7816164E-02  0.1266605E+00
        -11   -1    0    0    0    0  0.00000000000E+00  0.00000000000E+00  0.45593999997E+02  0.45594000000E+02  0.51100000000E-03 0. -1.
         11   -1    0    0    0    0 -0.00000000000E+00 -0.00000000000E+00 -0.45593999997E+02  0.45594000000E+02  0.51100000000E-03 0.  1.
    9900012    2    1    2    0    0  0.16707822437E+02 -0.27040569584E+02  0.25251313774E+01  0.59301952543E+02  0.50000015529E+02 0.  0.
         12    1    1    2    0    0 -0.16707822437E+02  0.27040569584E+02 -0.25251313774E+01  0.31886047457E+02  0.00000000000E+00 0. -1.
         11    1    3    3    0    0  0.68229321102E+01 -0.42542872119E+01  0.13094629019E+02  0.15366218522E+02  0.51100000000E-03 0. -1.
        -11    1    3    3    0    0 -0.38074849376E+01 -0.19430937358E+02  0.73631682618E+01  0.21125210419E+02  0.51100000000E-03 0.  1.
        -12    1    3    3    0    0  0.13692375264E+02 -0.33553450141E+01 -0.17932665904E+02  0.22810523601E+02  0.00000000000E+00 0.  1.
</event>
<event>
 7    1  0.5837204E-012  0.5930194E+02  0.7816164E-02  0.1266605E+00
        -11   -1    0    0    0    0  0.00000000000E+00  0.00000000000E+00  0.45593999997E+02  0.45594000000E+02  0.51100000000E-03 0.  1.
         11   -1    0    0    0    0 -0.00000000000E+00 -0.00000000000E+00 -0.45593999997E+02  0.45594000000E+02  0.51100000000E-03 0. -1.
    9900012    2    1    2    0    0 -0.29523331572E+02 -0.11114440965E+02 -0.46435817577E+01  0.59301941030E+02  0.49999994534E+02 0.  0.
         12    1    1    2    0    0  0.29523331572E+02  0.11114440965E+02  0.46435817577E+01  0.31886058970E+02  0.00000000000E+00 0. -1.
         11    1    3    3    0    0 -0.20046210059E+02 -0.34873381874E+01 -0.67394503295E+01  0.21434370911E+02  0.51100000000E-03 0. -1.
        -11    1    3    3    0    0 -0.17839065638E+02  0.64804404003E+01  0.77779292435E+01  0.20511571227E+02  0.51100000000E-03 0.  1.
        -12    1    3    3    0    0  0.83619441248E+01 -0.14107543178E+02 -0.56820606717E+01  0.17355998892E+02  0.00000000000E+00 0.  1.
</event>
<event>
 7    1  0.5837204E-012  0.5930196E+02  0.7816164E-02  0.1266605E+00
        -11   -1    0    0    0    0  0.00000000000E+00  0.00000000000E+00  0.45593999997E+02  0.45594000000E+02  0.51100000000E-03 0.  1.
         11   -1    0    0    0    0 -0.00000000000E+00 -0.00000000000E+00 -0.45593999997E+02  0.45594000000E+02  0.51100000000E-03 0. -1.
    9900012    2    1    2    0    0  0.22936633093E+02  0.21374535991E+02  0.58102964481E+01  0.59301961185E+02  0.50000031291E+02 0.  0.
         12    1    1    2    0    0 -0.22936633093E+02 -0.21374535991E+02 -0.58102964481E+01  0.31886038815E+02  0.00000000000E+00 0. -1.
         11    1    3    3    0    0  0.57959182105E+01  0.12518839929E+02 -0.19357193316E+02  0.23770043214E+02  0.51100000000E-03 0. -1.
        -11    1    3    3    0    0  0.70291593486E+01 -0.40311775072E+01  0.12172746197E+02  0.14623105808E+02  0.51100000000E-03 0.  1.
        -12    1    3    3    0    0  0.10111555534E+02  0.12886873570E+02  0.12994743567E+02  0.20908812163E+02  0.00000000000E+00 0.  1.
</event>
<event>
 7    1  0.5837204E-012  0.5930200E+02  0.7816164E-02  0.1266605E+00
        -11   -1    0    0    0    0  0.00000000000E+00  0.00000000000E+00  0.45593999997E+02  0.45594000000E+02  0.51100000000E-03 0.  1.
         11   -1    0    0    0    0 -0.00000000000E+00 -0.00000000000E+00 -0.45593999997E+02  0.45594000000E+02  0.51100000000E-03 0. -1.
    9900012    2    1    2    0    0  0.19804475535E+02  0.19499181569E+02  0.15629518439E+02  0.59301997119E+02  0.50000096826E+02 0.  0.
         12    1    1    2    0    0 -0.19804475535E+02 -0.19499181569E+02 -0.15629518439E+02  0.31886002881E+02  0.00000000000E+00 0. -1.
         11    1    3    3    0    0 -0.57676329714E+01 -0.25271640833E+01  0.85304321605E+01  0.10602849688E+02  0.51100000000E-03 0. -1.
        -11    1    3    3    0    0 -0.57663436918E+01  0.89550983042E+01 -0.60937558976E+01  0.12271037707E+02  0.51100000000E-03 0.  1.
        -12    1    3    3    0    0  0.31338452198E+02  0.13071247348E+02  0.13192842176E+02  0.36428109724E+02  0.00000000000E+00 0.  1.
</event>
<event>
 7    1  0.5837204E-012  0.5930196E+02  0.7816164E-02  0.1266605E+00
        -11   -1    0    0    0    0  0.00000000000E+00  0.00000000000E+00  0.45593999997E+02  0.45594000000E+02  0.51100000000E-03 0. -1.
         11   -1    0    0    0    0 -0.00000000000E+00 -0.00000000000E+00 -0.45593999997E+02  0.45594000000E+02  0.51100000000E-03 0.  1.
    9900012    2    1    2    0    0 -0.23414275851E+02  0.36707872937E+01 -0.21331120172E+02  0.59301957900E+02  0.50000025300E+02 0.  0.
         12    1    1    2    0    0  0.23414275851E+02 -0.36707872937E+01  0.21331120172E+02  0.31886042100E+02  0.00000000000E+00 0. -1.
         11    1    3    3    0    0 -0.12274029034E+01  0.11547309991E+02  0.34004350201E+01  0.12099993574E+02  0.51100000000E-03 0. -1.
        -11    1    3    3    0    0 -0.18221942075E+02  0.92230918935E+01 -0.20926960464E+02  0.29241105854E+02  0.51100000000E-03 0.  1.
         12    1    3    3    0    0 -0.39649308729E+01 -0.17099614591E+02 -0.38045947283E+01  0.17960858471E+02  0.00000000000E+00 0. -1.
</event>
<event>
 7    1  0.5837204E-012  0.5930195E+02  0.7816164E-02  0.1266605E+00
        -11   -1    0    0    0    0  0.00000000000E+00  0.00000000000E+00  0.45593999997E+02  0.45594000000E+02  0.51100000000E-03 0.  1.
         11   -1    0    0    0    0 -0.00000000000E+00 -0.00000000000E+00 -0.45593999997E+02  0.45594000000E+02  0.51100000000E-03 0. -1.
    9900012    2    1    2    0    0  0.47856847368E+01 -0.31505354707E+02 -0.11090383390E+01  0.59301951018E+02  0.50000012749E+02 0.  0.
         12    1    1    2    0    0 -0.47856847368E+01  0.31505354707E+02  0.11090383390E+01  0.31886048982E+02  0.00000000000E+00 0. -1.
         11    1    3    3    0    0 -0.48040800654E+01 -0.21297456912E+02 -0.17467744156E+02  0.27960381656E+02  0.51100000000E-03 0. -1.
        -11    1    3    3    0    0  0.58814094988E+01 -0.16867324031E+02  0.67952539941E+01  0.19112118531E+02  0.51100000000E-03 0.  1.
        -12    1    3    3    0    0  0.37083553033E+01  0.66594262357E+01  0.95634518230E+01  0.12229450830E+02  0.00000000000E+00 0.  1.
</event>
<event>
 7    1  0.5837204E-012  0.5930206E+02  0.7816164E-02  0.1266604E+00
        -11   -1    0    0    0    0  0.00000000000E+00  0.00000000000E+00  0.45593999997E+02  0.45594000000E+02  0.51100000000E-03 0.  1.
         11   -1    0    0    0    0 -0.00000000000E+00 -0.00000000000E+00 -0.45593999997E+02  0.45594000000E+02  0.51100000000E-03 0. -1.
    9900012    2    1    2    0    0  0.12729849480E+02 -0.19129234861E+02  0.22107379259E+02  0.59302064043E+02  0.50000218879E+02 0.  0.
         12    1    1    2    0    0 -0.12729849480E+02  0.19129234861E+02 -0.22107379259E+02  0.31885935957E+02  0.00000000000E+00 0. -1.
         11    1    3    3    0    0 -0.40388804192E+01  0.45501817737E+01  0.17104646359E+02  0.18154493563E+02  0.51100000000E-03 0. -1.
        -11    1    3    3    0    0  0.15542277070E+02 -0.26622621295E+01  0.11036374148E+02  0.19247118505E+02  0.51100000000E-03 0.  1.
         12    1    3    3    0    0  0.12264528292E+01 -0.21017154505E+02 -0.60336412473E+01  0.21900451975E+02  0.00000000000E+00 0. -1.
</event>
<event>
 7    1  0.5837204E-012  0.5930194E+02  0.7816164E-02  0.1266605E+00
        -11   -1    0    0    0    0  0.00000000000E+00  0.00000000000E+00  0.45593999997E+02  0.45594000000E+02  0.51100000000E-03 0. -1.
         11   -1    0    0    0    0 -0.00000000000E+00 -0.00000000000E+00 -0.45593999997E+02  0.45594000000E+02  0.51100000000E-03 0.  1.
    9900012    2    1    2    0    0  0.15756582628E+02  0.92223801320E+01 -0.26141894669E+02  0.59301939593E+02  0.49999991911E+02 0.  0.
         12    1    1    2    0    0 -0.15756582628E+02 -0.92223801320E+01  0.26141894669E+02  0.31886060407E+02  0.00000000000E+00 0. -1.
         11    1    3    3    0    0  0.10194197175E+02 -0.11754525668E+02 -0.10982510529E+02  0.19044843593E+02  0.51100000000E-03 0.  1.
        -11    1    3    3    0    0 -0.98335953296E+01  0.19406002761E+02 -0.77047687756E+01  0.23079341464E+02  0.51100000000E-03 0. -1.
         12    1    3    3    0    0  0.15395980783E+02  0.15709030386E+01 -0.74546153644E+01  0.17177754535E+02  0.00000000000E+00 0. -1.
</event>
<event>
 7    1  0.5837204E-012  0.5930193E+02  0.7816164E-02  0.1266605E+00
        -11   -1    0    0    0    0  0.00000000000E+00  0.00000000000E+00  0.45593999997E+02  0.45594000000E+02  0.51100000000E-03 0.  1.
         11   -1    0    0    0    0 -0.00000000000E+00 -0.00000000000E+00 -0.45593999997E+02  0.45594000000E+02  0.51100000000E-03 0. -1.
    9900012    2    1    2    0    0 -0.20393988227E+01 -0.33133319187E+01  0.31647809874E+02  0.59301934301E+02  0.49999982260E+02 0.  0.
         12    1    1    2    0    0  0.20393988227E+01  0.33133319187E+01 -0.31647809874E+02  0.31886065699E+02  0.00000000000E+00 0. -1.
         11    1    3    3    0    0 -0.14410742070E+02  0.88304854090E+01  0.21817456566E+02  0.27597977659E+02  0.51100000000E-03 0.  1.
        -11    1    3    3    0    0 -0.29514806719E+00 -0.16137734885E+02  0.87982389768E+01  0.18382671432E+02  0.51100000000E-03 0. -1.
        -12    1    3    3    0    0  0.12666491314E+02  0.39939175576E+01  0.10321143306E+01  0.13321285211E+02  0.00000000000E+00 0.  1.
</event>
<event>
 7    1  0.5837204E-012  0.5930194E+02  0.7816164E-02  0.1266605E+00
        -11   -1    0    0    0    0  0.00000000000E+00  0.00000000000E+00  0.45593999997E+02  0.45594000000E+02  0.51100000000E-03 0.  1.
         11   -1    0    0    0    0 -0.00000000000E+00 -0.00000000000E+00 -0.45593999997E+02  0.45594000000E+02  0.51100000000E-03 0. -1.
    9900012    2    1    2    0    0  0.29951924319E+02  0.48892903851E+01 -0.97825248192E+01  0.59301941561E+02  0.49999995502E+02 0.  0.
         12    1    1    2    0    0 -0.29951924319E+02 -0.48892903851E+01  0.97825248192E+01  0.31886058439E+02  0.00000000000E+00 0. -1.
         11    1    3    3    0    0  0.49226815301E+01 -0.15544778675E+02 -0.15009606947E+02  0.22162157803E+02  0.51100000000E-03 0. -1.
        -11    1    3    3    0    0 -0.89096567675E+00  0.19402505967E+01 -0.35216421152E+01  0.41182952376E+01  0.51100000000E-03 0.  1.
        -12    1    3    3    0    0  0.25920208466E+02  0.18493818463E+02  0.87487242435E+01  0.33021488521E+02  0.00000000000E+00 0.  1.
</event>
<event>
 7    1  0.5837204E-012  0.5930195E+02  0.7816164E-02  0.1266605E+00
        -11   -1    0    0    0    0  0.00000000000E+00  0.00000000000E+00  0.45593999997E+02  0.45594000000E+02  0.51100000000E-03 0.  1.
         11   -1    0    0    0    0 -0.00000000000E+00 -0.00000000000E+00 -0.45593999997E+02  0.45594000000E+02  0.51100000000E-03 0. -1.
    9900012    2    1    2    0    0 -0.16179205317E+02  0.16378517505E+02  0.22061225664E+02  0.59301949787E+02  0.50000010504E+02 0.  0.
         12    1    1    2    0    0  0.16179205317E+02 -0.16378517505E+02 -0.22061225664E+02  0.31886050213E+02  0.00000000000E+00 0. -1.
         11    1    3    3    0    0 -0.40490189768E+01 -0.54543410118E+01  0.58599178333E+01  0.89712333501E+01  0.51100000000E-03 0. -1.
        -11    1    3    3    0    0 -0.18516429193E+02  0.73993414540E+01  0.25221540585E+02  0.32151742002E+02  0.51100000000E-03 0.  1.
         12    1    3    3    0    0  0.63862428528E+01  0.14433517063E+02 -0.90202327537E+01  0.18178974435E+02  0.00000000000E+00 0. -1.
</event>
<event>
 7    1  0.5837204E-012  0.5930191E+02  0.7816164E-02  0.1266605E+00
        -11   -1    0    0    0    0  0.00000000000E+00  0.00000000000E+00  0.45593999997E+02  0.45594000000E+02  0.51100000000E-03 0.  1.
         11   -1    0    0    0    0 -0.00000000000E+00 -0.00000000000E+00 -0.45593999997E+02  0.45594000000E+02  0.51100000000E-03 0. -1.
    9900012    2    1    2    0    0 -0.10664137918E+02 -0.20555284924E+01  0.29979558424E+02  0.59301906507E+02  0.49999931571E+02 0.  0.
         12    1    1    2    0    0  0.10664137918E+02  0.20555284924E+01 -0.29979558424E+02  0.31886093493E+02  0.00000000000E+00 0. -1.
         11    1    3    3    0    0 -0.38274693442E+01 -0.18047958557E+02 -0.19227538805E+01  0.18549267167E+02  0.51100000000E-03 0. -1.
        -11    1    3    3    0    0  0.11644634019E+01 -0.38005826104E+01  0.58031132387E+01  0.70339552682E+01  0.51100000000E-03 0.  1.
        -12    1    3    3    0    0 -0.80011319761E+01  0.19793012675E+02  0.26099199066E+02  0.33718684072E+02  0.00000000000E+00 0.  1.
</event>
<event>
 7    1  0.5837204E-012  0.5930194E+02  0.7816164E-02  0.1266605E+00
        -11   -1    0    0    0    0  0.00000000000E+00  0.00000000000E+00  0.45593999997E+02  0.45594000000E+02  0.51100000000E-03 0.  1.
         11   -1    0    0    0    0 -0.00000000000E+00 -0.00000000000E+00 -0.45593999997E+02  0.45594000000E+02  0.51100000000E-03 0. -1.
    9900012    2    1    2    0    0  0.14190990368E+02 -0.17858123897E+02  0.22280574566E+02  0.59301940355E+02  0.49999993301E+02 0.  0.
         12    1    1    2    0    0 -0.14190990368E+02  0.17858123897E+02 -0.22280574566E+02  0.31886059645E+02  0.00000000000E+00 0. -1.
         11    1    3    3    0    0  0.22786568473E+01 -0.32418393417E+02  0.14725445410E+02  0.35678890840E+02  0.51100000000E-03 0. -1.
        -11    1    3    3    0    0  0.28711249641E+01 -0.14072855365E+01  0.36685150305E+01  0.48663964010E+01  0.51100000000E-03 0.  1.
         12    1    3    3    0    0  0.90412085562E+01  0.15967555057E+02  0.38866141257E+01  0.18756653114E+02  0.00000000000E+00 0. -1.
</event>
<event>
 7    1  0.5837204E-012  0.5930194E+02  0.7816164E-02  0.1266605E+00
        -11   -1    0    0    0    0  0.00000000000E+00  0.00000000000E+00  0.45593999997E+02  0.45594000000E+02  0.51100000000E-03 0.  1.
         11   -1    0    0    0    0 -0.00000000000E+00 -0.00000000000E+00 -0.45593999997E+02  0.45594000000E+02  0.51100000000E-03 0. -1.
    9900012    2    1    2    0    0  0.41244047527E+01 -0.21421804742E+02  0.23255453780E+02  0.59301944059E+02  0.50000000058E+02 0.  0.
         12    1    1    2    0    0 -0.41244047527E+01  0.21421804742E+02 -0.23255453780E+02  0.31886055941E+02  0.00000000000E+00 0. -1.
         11    1    3    3    0    0 -0.81230215799E+00 -0.58675197228E+01  0.30250278690E+01  0.66511966113E+01  0.51100000000E-03 0. -1.
        -11    1    3    3    0    0 -0.98971087406E+01  0.11146288234E+02  0.15910708557E+02  0.21802365694E+02  0.51100000000E-03 0.  1.
         12    1    3    3    0    0  0.14833815651E+02 -0.26700573253E+02  0.43197173536E+01  0.30848381754E+02  0.00000000000E+00 0. -1.
</event>
<event>
 7    1  0.5837204E-012  0.5930195E+02  0.7816164E-02  0.1266605E+00
        -11   -1    0    0    0    0  0.00000000000E+00  0.00000000000E+00  0.45593999997E+02  0.45594000000E+02  0.51100000000E-03 0. -1.
         11   -1    0    0    0    0 -0.00000000000E+00 -0.00000000000E+00 -0.45593999997E+02  0.45594000000E+02  0.51100000000E-03 0.  1.
    9900012    2    1    2    0    0  0.28392442658E+02  0.55152413462E+01 -0.13422803750E+02  0.59301947442E+02  0.50000006227E+02 0.  0.
         12    1    1    2    0    0 -0.28392442658E+02 -0.55152413462E+01  0.13422803750E+02  0.31886052558E+02  0.00000000000E+00 0. -1.
         11    1    3    3    0    0  0.18586842251E+02 -0.84001357149E+01 -0.87484985150E+01  0.22193900320E+02  0.51100000000E-03 0. -1.
        -11    1    3    3    0    0  0.12127255047E+02  0.81083175311E+01 -0.17533483058E+02  0.22808729833E+02  0.51100000000E-03 0.  1.
         12    1    3    3    0    0 -0.23216546396E+01  0.58070595299E+01  0.12859177823E+02  0.14299317289E+02  0.00000000000E+00 0. -1.
</event>
<event>
 7    1  0.5837204E-012  0.5930197E+02  0.7816164E-02  0.1266605E+00
        -11   -1    0    0    0    0  0.00000000000E+00  0.00000000000E+00  0.45593999997E+02  0.45594000000E+02  0.51100000000E-03 0.  1.
         11   -1    0    0    0    0 -0.00000000000E+00 -0.00000000000E+00 -0.45593999997E+02  0.45594000000E+02  0.51100000000E-03 0. -1.
    9900012    2    1    2    0    0 -0.27005506186E+02  0.82386728720E+01  0.14817087753E+02  0.59301965681E+02  0.50000039491E+02 0.  0.
         12    1    1    2    0    0  0.27005506186E+02 -0.82386728720E+01 -0.14817087753E+02  0.31886034319E+02  0.00000000000E+00 0. -1.
         11    1    3    3    0    0  0.16638674892E+01 -0.34190171946E+00 -0.28307299450E+01  0.33012700723E+01  0.51100000000E-03 0. -1.
        -11    1    3    3    0    0 -0.27582949321E+02  0.12416852418E+02 -0.69869387706E+01  0.31045364080E+02  0.51100000000E-03 0.  1.
         12    1    3    3    0    0 -0.10864243544E+01 -0.38362778268E+01  0.24634756469E+02  0.24955331529E+02  0.00000000000E+00 0. -1.
</event>
<event>
 7    1  0.5837204E-012  0.5930198E+02  0.7816164E-02  0.1266605E+00
        -11   -1    0    0    0    0  0.00000000000E+00  0.00000000000E+00  0.45593999997E+02  0.45594000000E+02  0.51100000000E-03 0. -1.
         11   -1    0    0    0    0 -0.00000000000E+00 -0.00000000000E+00 -0.45593999997E+02  0.45594000000E+02  0.51100000000E-03 0.  1.
    9900012    2    1    2    0    0  0.13654716589E+02 -0.28735812120E+02 -0.21260823132E+01  0.59301977838E+02  0.50000061662E+02 0.  0.
         12    1    1    2    0    0 -0.13654716589E+02  0.28735812120E+02  0.21260823132E+01  0.31886022162E+02  0.00000000000E+00 0. -1.
         11    1    3    3    0    0 -0.12492322904E+01  0.20034383666E+01  0.29963208872E+01  0.38147458270E+01  0.51100000000E-03 0. -1.
        -11    1    3    3    0    0 -0.67038159965E+01 -0.12693926516E+02 -0.19230801707E+02  0.23997930200E+02  0.51100000000E-03 0.  1.
         12    1    3    3    0    0  0.21607764876E+02 -0.18045323971E+02  0.14108398507E+02  0.31489301811E+02  0.00000000000E+00 0. -1.
</event>
<event>
 7    1  0.5837204E-012  0.5930194E+02  0.7816164E-02  0.1266605E+00
        -11   -1    0    0    0    0  0.00000000000E+00  0.00000000000E+00  0.45593999997E+02  0.45594000000E+02  0.51100000000E-03 0. -1.
         11   -1    0    0    0    0 -0.00000000000E+00 -0.00000000000E+00 -0.45593999997E+02  0.45594000000E+02  0.51100000000E-03 0.  1.
    9900012    2    1    2    0    0  0.20733835276E+02 -0.23623065934E+02 -0.53646552930E+01  0.59301941984E+02  0.49999996274E+02 0.  0.
         12    1    1    2    0    0 -0.20733835276E+02  0.23623065934E+02  0.53646552930E+01  0.31886058016E+02  0.00000000000E+00 0. -1.
         11    1    3    3    0    0 -0.57999760764E+01 -0.46894461296E+01  0.34842321242E+01  0.82322840843E+01  0.51100000000E-03 0. -1.
        -11    1    3    3    0    0 -0.14627005889E+01 -0.21428296681E+02  0.39317182786E+00  0.21481759146E+02  0.51100000000E-03 0.  1.
         12    1    3    3    0    0  0.27996511941E+02  0.24946768770E+01 -0.92420592451E+01  0.29587898754E+02  0.00000000000E+00 0. -1.
</event>
<event>
 7    1  0.5837204E-012  0.5930193E+02  0.7816164E-02  0.1266605E+00
        -11   -1    0    0    0    0  0.00000000000E+00  0.00000000000E+00  0.45593999997E+02  0.45594000000E+02  0.51100000000E-03 0.  1.
         11   -1    0    0    0    0 -0.00000000000E+00 -0.00000000000E+00 -0.45593999997E+02  0.45594000000E+02  0.51100000000E-03 0. -1.
    9900012    2    1    2    0    0 -0.11849129297E+02  0.28862083601E+02  0.65802751080E+01  0.59301925369E+02  0.49999965970E+02 0.  0.
         12    1    1    2    0    0  0.11849129297E+02 -0.28862083601E+02 -0.65802751080E+01  0.31886074631E+02  0.00000000000E+00 0. -1.
         11    1    3    3    0    0 -0.14367221057E+02  0.24154105683E+02  0.21292220236E+02  0.35258991833E+02  0.51100000000E-03 0.  1.
        -11    1    3    3    0    0 -0.60347421979E+01  0.61777194956E+01 -0.23700672060E+01  0.89554201678E+01  0.51100000000E-03 0. -1.
        -12    1    3    3    0    0  0.85528339573E+01 -0.14697415773E+01 -0.12341877922E+02  0.15087513368E+02  0.00000000000E+00 0.  1.
</event>
<event>
 7    1  0.5837204E-012  0.5930197E+02  0.7816164E-02  0.1266605E+00
        -11   -1    0    0    0    0  0.00000000000E+00  0.00000000000E+00  0.45593999997E+02  0.45594000000E+02  0.51100000000E-03 0.  1.
         11   -1    0    0    0    0 -0.00000000000E+00 -0.00000000000E+00 -0.45593999997E+02  0.45594000000E+02  0.51100000000E-03 0. -1.
    9900012    2    1    2    0    0 -0.26817824541E+02  0.10812702085E+02  0.13439076235E+02  0.59301968426E+02  0.50000044496E+02 0.  0.
         12    1    1    2    0    0  0.26817824541E+02 -0.10812702085E+02 -0.13439076235E+02  0.31886031574E+02  0.00000000000E+00 0. -1.
         11    1    3    3    0    0 -0.20058269386E+02  0.22456506337E+01 -0.47834554232E-01  0.20183642039E+02  0.51100000000E-03 0.  1.
        -11    1    3    3    0    0  0.57020848078E-01  0.21255122836E+02  0.12552125143E+02  0.24684799857E+02  0.51100000000E-03 0. -1.
         12    1    3    3    0    0 -0.68165760030E+01 -0.12688071385E+02  0.93478564711E+00  0.14433526530E+02  0.00000000000E+00 0. -1.
</event>
<event>
 7    1  0.5837204E-012  0.5930194E+02  0.7816164E-02  0.1266605E+00
        -11   -1    0    0    0    0  0.00000000000E+00  0.00000000000E+00  0.45593999997E+02  0.45594000000E+02  0.51100000000E-03 0.  1.
         11   -1    0    0    0    0 -0.00000000000E+00 -0.00000000000E+00 -0.45593999997E+02  0.45594000000E+02  0.51100000000E-03 0. -1.
    9900012    2    1    2    0    0  0.30810400729E+02  0.15393102857E+01  0.80666238776E+01  0.59301942074E+02  0.49999996438E+02 0.  0.
         12    1    1    2    0    0 -0.30810400729E+02 -0.15393102857E+01 -0.80666238776E+01  0.31886057926E+02  0.00000000000E+00 0. -1.
         11    1    3    3    0    0  0.23745657267E+02 -0.11666705913E+01  0.13458165985E+02  0.27319216520E+02  0.51100000000E-03 0. -1.
        -11    1    3    3    0    0  0.72678248265E+01 -0.13492134759E+02 -0.27117608245E+01  0.15563181715E+02  0.51100000000E-03 0.  1.
         12    1    3    3    0    0 -0.20308136446E+00  0.16198115636E+02 -0.26797812829E+01  0.16419543840E+02  0.00000000000E+00 0. -1.
</event>
<event>
 7    1  0.5837204E-012  0.5930193E+02  0.7816164E-02  0.1266605E+00
        -11   -1    0    0    0    0  0.00000000000E+00  0.00000000000E+00  0.45593999997E+02  0.45594000000E+02  0.51100000000E-03 0. -1.
         11   -1    0    0    0    0 -0.00000000000E+00 -0.00000000000E+00 -0.45593999997E+02  0.45594000000E+02  0.51100000000E-03 0.  1.
    9900012    2    1    2    0    0  0.30937042739E+02  0.11435866137E+00  0.77205914038E+01  0.59301933718E+02  0.49999981198E+02 0.  0.
         12    1    1    2    0    0 -0.30937042739E+02 -0.11435866137E+00 -0.77205914038E+01  0.31886066282E+02  0.00000000000E+00 0. -1.
         11    1    3    3    0    0 -0.56805743407E+00 -0.95649203328E+01 -0.24123448786E+01  0.98807792353E+01  0.51100000000E-03 0. -1.
        -11    1    3    3    0    0  0.77343464046E+01 -0.67309376220E+01  0.16888008532E+02  0.19756782836E+02  0.51100000000E-03 0.  1.
        -12    1    3    3    0    0  0.23770753768E+02  0.16410216616E+02 -0.67550722500E+01  0.29664371647E+02  0.00000000000E+00 0.  1.
</event>
<event>
 7    1  0.5837204E-012  0.5930195E+02  0.7816164E-02  0.1266605E+00
        -11   -1    0    0    0    0  0.00000000000E+00  0.00000000000E+00  0.45593999997E+02  0.45594000000E+02  0.51100000000E-03 0. -1.
         11   -1    0    0    0    0 -0.00000000000E+00 -0.00000000000E+00 -0.45593999997E+02  0.45594000000E+02  0.51100000000E-03 0.  1.
    9900012    2    1    2    0    0  0.14879120715E+02  0.22070047919E+02 -0.17556902438E+02  0.59301951771E+02  0.50000014123E+02 0.  0.
         12    1    1    2    0    0 -0.14879120715E+02 -0.22070047919E+02  0.17556902438E+02  0.31886048229E+02  0.00000000000E+00 0. -1.
         11    1    3    3    0    0 -0.18045596832E+01  0.10008573516E+02 -0.90430890606E+01  0.13609020519E+02  0.51100000000E-03 0. -1.
        -11    1    3    3    0    0  0.90482462297E+01  0.25642754141E+02 -0.12007700355E+02  0.29725518798E+02  0.51100000000E-03 0.  1.
         12    1    3    3    0    0  0.76354341685E+01 -0.13581279738E+02  0.34938869772E+01  0.15967412454E+02  0.00000000000E+00 0. -1.
</event>
<event>
 7    1  0.5837204E-012  0.5930187E+02  0.7816164E-02  0.1266605E+00
        -11   -1    0    0    0    0  0.00000000000E+00  0.00000000000E+00  0.45593999997E+02  0.45594000000E+02  0.51100000000E-03 0.  1.
         11   -1    0    0    0    0 -0.00000000000E+00 -0.00000000000E+00 -0.45593999997E+02  0.45594000000E+02  0.51100000000E-03 0. -1.
    9900012    2    1    2    0    0  0.18611733200E+00 -0.31691290358E+02  0.35146747874E+01  0.59301867229E+02  0.49999859938E+02 0.  0.
         12    1    1    2    0    0 -0.18611733200E+00  0.31691290358E+02 -0.35146747874E+01  0.31886132771E+02  0.00000000000E+00 0. -1.
         11    1    3    3    0    0  0.42268542051E+01  0.71633912227E+01  0.12184327814E+02  0.14752569770E+02  0.51100000000E-03 0. -1.
        -11    1    3    3    0    0 -0.10336463488E+01 -0.16121708230E+02  0.61059276306E+01  0.17270212898E+02  0.51100000000E-03 0.  1.
         12    1    3    3    0    0 -0.30070905244E+01 -0.22732973350E+02 -0.14775580657E+02  0.27279084562E+02  0.00000000000E+00 0. -1.
</event>
<event>
 7    1  0.5837204E-012  0.5930184E+02  0.7816164E-02  0.1266605E+00
        -11   -1    0    0    0    0  0.00000000000E+00  0.00000000000E+00  0.45593999997E+02  0.45594000000E+02  0.51100000000E-03 0.  1.
         11   -1    0    0    0    0 -0.00000000000E+00 -0.00000000000E+00 -0.45593999997E+02  0.45594000000E+02  0.51100000000E-03 0. -1.
    9900012    2    1    2    0    0 -0.12929961766E+02 -0.27331002796E+02  0.10127169711E+02  0.59301840127E+02  0.49999810509E+02 0.  0.
         12    1    1    2    0    0  0.12929961766E+02  0.27331002796E+02 -0.10127169711E+02  0.31886159873E+02  0.00000000000E+00 0. -1.
         11    1    3    3    0    0  0.37707843744E+01 -0.23157181153E+01 -0.18682190872E+01  0.48032913723E+01  0.51100000000E-03 0. -1.
        -11    1    3    3    0    0  0.28481567042E+01 -0.71656117327E+01  0.24163353672E+02  0.25363865026E+02  0.51100000000E-03 0.  1.
        -12    1    3    3    0    0 -0.19548902845E+02 -0.17849672948E+02 -0.12167964874E+02  0.29134683729E+02  0.00000000000E+00 0.  1.
</event>
<event>
 7    1  0.5837204E-012  0.5930169E+02  0.7816164E-02  0.1266606E+00
        -11   -1    0    0    0    0  0.00000000000E+00  0.00000000000E+00  0.45593999997E+02  0.45594000000E+02  0.51100000000E-03 0. -1.
         11   -1    0    0    0    0 -0.00000000000E+00 -0.00000000000E+00 -0.45593999997E+02  0.45594000000E+02  0.51100000000E-03 0.  1.
    9900012    2    1    2    0    0 -0.15075492751E+00 -0.92853549867E+01 -0.30504040985E+02  0.59301685370E+02  0.49999528268E+02 0.  0.
         12    1    1    2    0    0  0.15075492751E+00  0.92853549867E+01  0.30504040985E+02  0.31886314630E+02  0.00000000000E+00 0. -1.
         11    1    3    3    0    0  0.85498339483E+01  0.14619528219E+02 -0.94317440875E+01  0.19385253743E+02  0.51100000000E-03 0. -1.
        -11    1    3    3    0    0 -0.43687582559E+01 -0.54629802634E+01 -0.19720601528E+02  0.20924443288E+02  0.51100000000E-03 0.  1.
        -12    1    3    3    0    0 -0.43318306199E+01 -0.18441902942E+02 -0.13516953702E+01  0.18991988338E+02  0.00000000000E+00 0.  1.
</event>
<event>
 7    1  0.5837204E-012  0.5930194E+02  0.7816164E-02  0.1266605E+00
        -11   -1    0    0    0    0  0.00000000000E+00  0.00000000000E+00  0.45593999997E+02  0.45594000000E+02  0.51100000000E-03 0.  1.
         11   -1    0    0    0    0 -0.00000000000E+00 -0.00000000000E+00 -0.45593999997E+02  0.45594000000E+02  0.51100000000E-03 0. -1.
    9900012    2    1    2    0    0 -0.85608832519E+01 -0.13769727158E+02  0.27455907203E+02  0.59301938023E+02  0.49999989049E+02 0.  0.
         12    1    1    2    0    0  0.85608832519E+01  0.13769727158E+02 -0.27455907203E+02  0.31886061977E+02  0.00000000000E+00 0. -1.
         11    1    3    3    0    0 -0.32883272942E+01  0.71045530821E+01 -0.14963880787E+01  0.79703794410E+01  0.51100000000E-03 0. -1.
        -11    1    3    3    0    0 -0.25298975932E+01  0.73262960856E+01  0.20264031369E+02  0.21695759119E+02  0.51100000000E-03 0.  1.
         12    1    3    3    0    0 -0.27426583644E+01 -0.28200576325E+02  0.86882639133E+01  0.29635799463E+02  0.00000000000E+00 0. -1.
</event>
<event>
 7    1  0.5837204E-012  0.5930197E+02  0.7816164E-02  0.1266605E+00
        -11   -1    0    0    0    0  0.00000000000E+00  0.00000000000E+00  0.45593999997E+02  0.45594000000E+02  0.51100000000E-03 0. -1.
         11   -1    0    0    0    0 -0.00000000000E+00 -0.00000000000E+00 -0.45593999997E+02  0.45594000000E+02  0.51100000000E-03 0.  1.
    9900012    2    1    2    0    0 -0.12834057358E+02 -0.28523556205E+02 -0.61978138575E+01  0.59301965699E+02  0.50000039523E+02 0.  0.
         12    1    1    2    0    0  0.12834057358E+02  0.28523556205E+02  0.61978138575E+01  0.31886034301E+02  0.00000000000E+00 0. -1.
         11    1    3    3    0    0 -0.85351489675E+01 -0.13945582307E+02  0.27500276965E+01  0.16579827695E+02  0.51100000000E-03 0. -1.
        -11    1    3    3    0    0 -0.17337739072E+02 -0.18999252940E+01 -0.15557566196E+02  0.23371880079E+02  0.51100000000E-03 0.  1.
         12    1    3    3    0    0  0.13038830681E+02 -0.12678048603E+02  0.66097246416E+01  0.19350257925E+02  0.00000000000E+00 0. -1.
</event>
<event>
 7    1  0.5837204E-012  0.5930196E+02  0.7816164E-02  0.1266605E+00
        -11   -1    0    0    0    0  0.00000000000E+00  0.00000000000E+00  0.45593999997E+02  0.45594000000E+02  0.51100000000E-03 0.  1.
         11   -1    0    0    0    0 -0.00000000000E+00 -0.00000000000E+00 -0.45593999997E+02  0.45594000000E+02  0.51100000000E-03 0. -1.
    9900012    2    1    2    0    0 -0.31620091600E+02  0.10899248554E+01 -0.39624673124E+01  0.59301964244E+02  0.50000036870E+02 0.  0.
         12    1    1    2    0    0  0.31620091600E+02 -0.10899248554E+01  0.39624673124E+01  0.31886035756E+02  0.00000000000E+00 0. -1.
         11    1    3    3    0    0 -0.84289082824E+01  0.29350785432E+01 -0.90661376466E+01  0.12722265245E+02  0.51100000000E-03 0.  1.
        -11    1    3    3    0    0 -0.15073730482E+02 -0.11874166664E+00 -0.17147479917E+02  0.22831283757E+02  0.51100000000E-03 0. -1.
        -12    1    3    3    0    0 -0.81174528357E+01 -0.17264120212E+01  0.22251150251E+02  0.23748415242E+02  0.00000000000E+00 0.  1.
</event>
<event>
 7    1  0.5837204E-012  0.5930194E+02  0.7816164E-02  0.1266605E+00
        -11   -1    0    0    0    0  0.00000000000E+00  0.00000000000E+00  0.45593999997E+02  0.45594000000E+02  0.51100000000E-03 0.  1.
         11   -1    0    0    0    0 -0.00000000000E+00 -0.00000000000E+00 -0.45593999997E+02  0.45594000000E+02  0.51100000000E-03 0. -1.
    9900012    2    1    2    0    0  0.19444167073E+02 -0.19478563738E+02  0.16100649112E+02  0.59301937523E+02  0.49999988137E+02 0.  0.
         12    1    1    2    0    0 -0.19444167073E+02  0.19478563738E+02 -0.16100649112E+02  0.31886062477E+02  0.00000000000E+00 0. -1.
         11    1    3    3    0    0  0.32511646710E+01 -0.22940281291E+01 -0.37214209557E+01  0.54480832377E+01  0.51100000000E-03 0. -1.
        -11    1    3    3    0    0  0.23679115381E+01  0.14904875582E+02  0.49910890084E+01  0.15895700390E+02  0.51100000000E-03 0.  1.
         12    1    3    3    0    0  0.13825090864E+02 -0.32089411190E+02  0.14830981059E+02  0.37958153895E+02  0.00000000000E+00 0. -1.
</event>
<event>
 7    1  0.5837204E-012  0.5930197E+02  0.7816164E-02  0.1266605E+00
        -11   -1    0    0    0    0  0.00000000000E+00  0.00000000000E+00  0.45593999997E+02  0.45594000000E+02  0.51100000000E-03 0. -1.
         11   -1    0    0    0    0 -0.00000000000E+00 -0.00000000000E+00 -0.45593999997E+02  0.45594000000E+02  0.51100000000E-03 0.  1.
    9900012    2    1    2    0    0 -0.95909153527E+01 -0.13879703064E+02 -0.27057103748E+02  0.59301973630E+02  0.50000053987E+02 0.  0.
         12    1    1    2    0    0  0.95909153527E+01  0.13879703064E+02  0.27057103748E+02  0.31886026370E+02  0.00000000000E+00 0. -1.
         11    1    3    3    0    0  0.14994257572E+01 -0.84050431022E+01 -0.19202993773E+02  0.21015422843E+02  0.51100000000E-03 0. -1.
        -11    1    3    3    0    0  0.12804720292E+02 -0.38015706508E+01 -0.45248386176E+01  0.14102729025E+02  0.51100000000E-03 0.  1.
         12    1    3    3    0    0 -0.23895061402E+02 -0.16730893113E+01 -0.33292713571E+01  0.24183821762E+02  0.00000000000E+00 0. -1.
</event>
<event>
 7    1  0.5837204E-012  0.5930194E+02  0.7816164E-02  0.1266605E+00
        -11   -1    0    0    0    0  0.00000000000E+00  0.00000000000E+00  0.45593999997E+02  0.45594000000E+02  0.51100000000E-03 0.  1.
         11   -1    0    0    0    0 -0.00000000000E+00 -0.00000000000E+00 -0.45593999997E+02  0.45594000000E+02  0.51100000000E-03 0. -1.
    9900012    2    1    2    0    0  0.20066851292E+02 -0.23941971461E+02 -0.63893788355E+01  0.59301942230E+02  0.49999996721E+02 0.  0.
         12    1    1    2    0    0 -0.20066851292E+02  0.23941971461E+02  0.63893788355E+01  0.31886057770E+02  0.00000000000E+00 0. -1.
         11    1    3    3    0    0 -0.73567048145E+00  0.29845443369E+01  0.55896931824E+01  0.63791367826E+01  0.51100000000E-03 0. -1.
        -11    1    3    3    0    0  0.27518775686E+01 -0.32428404661E+02 -0.94111009220E+01  0.33878357101E+02  0.51100000000E-03 0.  1.
         12    1    3    3    0    0  0.18050644205E+02  0.55018888632E+01 -0.25679710960E+01  0.19044448347E+02  0.00000000000E+00 0. -1.
</event>
<event>
 7    1  0.5837204E-012  0.5930193E+02  0.7816164E-02  0.1266605E+00
        -11   -1    0    0    0    0  0.00000000000E+00  0.00000000000E+00  0.45593999997E+02  0.45594000000E+02  0.51100000000E-03 0. -1.
         11   -1    0    0    0    0 -0.00000000000E+00 -0.00000000000E+00 -0.45593999997E+02  0.45594000000E+02  0.51100000000E-03 0.  1.
    9900012    2    1    2    0    0  0.19660371219E+02 -0.11418747643E+02 -0.22356278178E+02  0.59301934576E+02  0.49999982763E+02 0.  0.
         12    1    1    2    0    0 -0.19660371219E+02  0.11418747643E+02  0.22356278178E+02  0.31886065424E+02  0.00000000000E+00 0. -1.
         11    1    3    3    0    0 -0.70905610475E+01 -0.74620501132E+01 -0.47953328659E+00  0.10304765902E+02  0.51100000000E-03 0. -1.
        -11    1    3    3    0    0 -0.46670706933E+01 -0.95251442585E+01 -0.11014018426E+02  0.15291125667E+02  0.51100000000E-03 0.  1.
         12    1    3    3    0    0  0.31418002960E+02  0.55684467287E+01 -0.10862726465E+02  0.33706043008E+02  0.00000000000E+00 0. -1.
</event>
<event>
 7    1  0.5837204E-012  0.5930194E+02  0.7816164E-02  0.1266605E+00
        -11   -1    0    0    0    0  0.00000000000E+00  0.00000000000E+00  0.45593999997E+02  0.45594000000E+02  0.51100000000E-03 0.  1.
         11   -1    0    0    0    0 -0.00000000000E+00 -0.00000000000E+00 -0.45593999997E+02  0.45594000000E+02  0.51100000000E-03 0. -1.
    9900012    2    1    2    0    0  0.20259888766E+02 -0.21856663198E+02  0.11337738848E+02  0.59301935000E+02  0.49999983536E+02 0.  0.
         12    1    1    2    0    0 -0.20259888766E+02  0.21856663198E+02 -0.11337738848E+02  0.31886065000E+02  0.00000000000E+00 0. -1.
         11    1    3    3    0    0 -0.37353248264E+01 -0.68686752082E+01 -0.13594856407E+01  0.79359657347E+01  0.51100000000E-03 0. -1.
        -11    1    3    3    0    0  0.91903438796E+01 -0.28257310011E+02  0.97169312518E+01  0.31262705304E+02  0.51100000000E-03 0.  1.
         12    1    3    3    0    0  0.14804869713E+02  0.13269322022E+02  0.29802932373E+01  0.20103263962E+02  0.00000000000E+00 0. -1.
</event>
<event>
 7    1  0.5837204E-012  0.5930193E+02  0.7816164E-02  0.1266605E+00
        -11   -1    0    0    0    0  0.00000000000E+00  0.00000000000E+00  0.45593999997E+02  0.45594000000E+02  0.51100000000E-03 0.  1.
         11   -1    0    0    0    0 -0.00000000000E+00 -0.00000000000E+00 -0.45593999997E+02  0.45594000000E+02  0.51100000000E-03 0. -1.
    9900012    2    1    2    0    0 -0.11341614134E+02  0.29448177972E+02 -0.45709871997E+01  0.59301932180E+02  0.49999978393E+02 0.  0.
         12    1    1    2    0    0  0.11341614134E+02 -0.29448177972E+02  0.45709871997E+01  0.31886067820E+02  0.00000000000E+00 0. -1.
         11    1    3    3    0    0  0.29428231583E+01  0.17971962746E+01  0.61912039309E+01  0.70866867410E+01  0.51100000000E-03 0. -1.
        -11    1    3    3    0    0 -0.15717315366E+02  0.15763227776E+02  0.12877114480E+02  0.25716403905E+02  0.51100000000E-03 0.  1.
         12    1    3    3    0    0  0.14328780737E+01  0.11887753921E+02 -0.23639305611E+02  0.26498841534E+02  0.00000000000E+00 0. -1.
</event>
<event>
 7    1  0.5837204E-012  0.5930194E+02  0.7816164E-02  0.1266605E+00
        -11   -1    0    0    0    0  0.00000000000E+00  0.00000000000E+00  0.45593999997E+02  0.45594000000E+02  0.51100000000E-03 0.  1.
         11   -1    0    0    0    0 -0.00000000000E+00 -0.00000000000E+00 -0.45593999997E+02  0.45594000000E+02  0.51100000000E-03 0. -1.
    9900012    2    1    2    0    0  0.24406687886E+02  0.19305214324E+02 -0.69529087728E+01  0.59301942639E+02  0.49999997467E+02 0.  0.
         12    1    1    2    0    0 -0.24406687886E+02 -0.19305214324E+02  0.69529087728E+01  0.31886057361E+02  0.00000000000E+00 0. -1.
         11    1    3    3    0    0  0.14962303010E+02  0.12153465723E+02  0.82113748878E+01  0.20952420344E+02  0.51100000000E-03 0.  1.
        -11    1    3    3    0    0  0.10353525951E+02  0.97472430824E+01  0.71154141168E+01  0.15900734752E+02  0.51100000000E-03 0. -1.
         12    1    3    3    0    0 -0.90914107604E+00 -0.25954944818E+01 -0.22279697777E+02  0.22448787543E+02  0.00000000000E+00 0. -1.
</event>
<event>
 7    1  0.5837204E-012  0.5930196E+02  0.7816164E-02  0.1266605E+00
        -11   -1    0    0    0    0  0.00000000000E+00  0.00000000000E+00  0.45593999997E+02  0.45594000000E+02  0.51100000000E-03 0.  1.
         11   -1    0    0    0    0 -0.00000000000E+00 -0.00000000000E+00 -0.45593999997E+02  0.45594000000E+02  0.51100000000E-03 0. -1.
    9900012    2    1    2    0    0  0.17620562560E+02  0.10030938213E+02  0.24609259018E+02  0.59301959547E+02  0.50000028303E+02 0.  0.
         12    1    1    2    0    0 -0.17620562560E+02 -0.10030938213E+02 -0.24609259018E+02  0.31886040453E+02  0.00000000000E+00 0. -1.
         11    1    3    3    0    0  0.19506922720E+02  0.43189043296E+01  0.10381504256E+02  0.22515519081E+02  0.51100000000E-03 0. -1.
        -11    1    3    3    0    0  0.82705642668E+01  0.92126468027E+01  0.20790324019E+02  0.24197369020E+02  0.51100000000E-03 0.  1.
         12    1    3    3    0    0 -0.10156924427E+02 -0.35006129192E+01 -0.65625692568E+01  0.12589071446E+02  0.00000000000E+00 0. -1.
</event>
<event>
 7    1  0.5837204E-012  0.5930200E+02  0.7816164E-02  0.1266605E+00
        -11   -1    0    0    0    0  0.00000000000E+00  0.00000000000E+00  0.45593999997E+02  0.45594000000E+02  0.51100000000E-03 0.  1.
         11   -1    0    0    0    0 -0.00000000000E+00 -0.00000000000E+00 -0.45593999997E+02  0.45594000000E+02  0.51100000000E-03 0. -1.
    9900012    2    1    2    0    0  0.46146691236E+01 -0.13603567834E+02  0.28466906537E+02  0.59301999989E+02  0.50000102060E+02 0.  0.
         12    1    1    2    0    0 -0.46146691236E+01  0.13603567834E+02 -0.28466906537E+02  0.31886000011E+02  0.00000000000E+00 0. -1.
         11    1    3    3    0    0  0.61875538734E+01 -0.35201914217E+01 -0.74239037512E+01  0.10285519809E+02  0.51100000000E-03 0. -1.
        -11    1    3    3    0    0 -0.54470007010E+01 -0.16155248898E+02  0.56969649269E+01  0.17975463644E+02  0.51100000000E-03 0.  1.
        -12    1    3    3    0    0  0.38741159512E+01  0.60718724857E+01  0.30193845361E+02  0.31041016536E+02  0.00000000000E+00 0.  1.
</event>
<event>
 7    1  0.5837204E-012  0.5930194E+02  0.7816164E-02  0.1266605E+00
        -11   -1    0    0    0    0  0.00000000000E+00  0.00000000000E+00  0.45593999997E+02  0.45594000000E+02  0.51100000000E-03 0.  1.
         11   -1    0    0    0    0 -0.00000000000E+00 -0.00000000000E+00 -0.45593999997E+02  0.45594000000E+02  0.51100000000E-03 0. -1.
    9900012    2    1    2    0    0  0.98128155082E+01 -0.25950862238E+02  0.15715668020E+02  0.59301940030E+02  0.49999992709E+02 0.  0.
         12    1    1    2    0    0 -0.98128155082E+01  0.25950862238E+02 -0.15715668020E+02  0.31886059970E+02  0.00000000000E+00 0. -1.
         11    1    3    3    0    0 -0.30155949424E+01 -0.21102793585E+02  0.30234111358E+01  0.21530506848E+02  0.51100000000E-03 0. -1.
        -11    1    3    3    0    0  0.13945623487E+02 -0.17703008754E+02  0.64722263161E+01  0.23447103172E+02  0.51100000000E-03 0.  1.
         12    1    3    3    0    0 -0.11172130364E+01  0.12854940101E+02  0.62200305685E+01  0.14324330011E+02  0.00000000000E+00 0. -1.
</event>
<event>
 7    1  0.5837204E-012  0.5930185E+02  0.7816164E-02  0.1266605E+00
        -11   -1    0    0    0    0  0.00000000000E+00  0.00000000000E+00  0.45593999997E+02  0.45594000000E+02  0.51100000000E-03 0.  1.
         11   -1    0    0    0    0 -0.00000000000E+00 -0.00000000000E+00 -0.45593999997E+02  0.45594000000E+02  0.51100000000E-03 0. -1.
    9900012    2    1    2    0    0 -0.12913704014E+02 -0.28639644252E+02 -0.54528281240E+01  0.59301853968E+02  0.49999835753E+02 0.  0.
         12    1    1    2    0    0  0.12913704014E+02  0.28639644252E+02  0.54528281240E+01  0.31886146032E+02  0.00000000000E+00 0. -1.
         11    1    3    3    0    0 -0.17534171490E+02 -0.63905928015E+01 -0.15032890692E+02  0.23964028230E+02  0.51100000000E-03 0. -1.
        -11    1    3    3    0    0 -0.28209396155E+01 -0.18209871812E+02 -0.44445828776E+01  0.18955512363E+02  0.51100000000E-03 0.  1.
         12    1    3    3    0    0  0.74414070919E+01 -0.40391796381E+01  0.14024645446E+02  0.16382313375E+02  0.00000000000E+00 0. -1.
</event>
<event>
 7    1  0.5837204E-012  0.5930197E+02  0.7816164E-02  0.1266605E+00
        -11   -1    0    0    0    0  0.00000000000E+00  0.00000000000E+00  0.45593999997E+02  0.45594000000E+02  0.51100000000E-03 0.  1.
         11   -1    0    0    0    0 -0.00000000000E+00 -0.00000000000E+00 -0.45593999997E+02  0.45594000000E+02  0.51100000000E-03 0. -1.
    9900012    2    1    2    0    0 -0.15450835194E+02  0.26549198278E+02  0.85516435109E+01  0.59301971019E+02  0.50000049226E+02 0.  0.
         12    1    1    2    0    0  0.15450835194E+02 -0.26549198278E+02 -0.85516435109E+01  0.31886028981E+02  0.00000000000E+00 0. -1.
         11    1    3    3    0    0  0.89273073561E+01  0.30773490269E+01 -0.16275190291E+00  0.94442248017E+01  0.51100000000E-03 0. -1.
        -11    1    3    3    0    0  0.26496043770E+01  0.12313184153E+02 -0.91716431250E+01  0.15580563058E+02  0.51100000000E-03 0.  1.
        -12    1    3    3    0    0 -0.27027746927E+02  0.11158665098E+02  0.17886038539E+02  0.34277183159E+02  0.00000000000E+00 0.  1.
</event>
<event>
 7    1  0.5837204E-012  0.5930199E+02  0.7816164E-02  0.1266605E+00
        -11   -1    0    0    0    0  0.00000000000E+00  0.00000000000E+00  0.45593999997E+02  0.45594000000E+02  0.51100000000E-03 0.  1.
         11   -1    0    0    0    0 -0.00000000000E+00 -0.00000000000E+00 -0.45593999997E+02  0.45594000000E+02  0.51100000000E-03 0. -1.
    9900012    2    1    2    0    0 -0.18427073537E+02  0.25986398634E+02  0.13667268057E+01  0.59301985899E+02  0.50000076362E+02 0.  0.
         12    1    1    2    0    0  0.18427073537E+02 -0.25986398634E+02 -0.13667268057E+01  0.31886014101E+02  0.00000000000E+00 0. -1.
         11    1    3    3    0    0 -0.16565392195E+02  0.24501390962E+02 -0.33873752615E+01  0.29769190266E+02  0.51100000000E-03 0. -1.
        -11    1    3    3    0    0 -0.15175285932E+02  0.33259369078E+01  0.41439932107E+01  0.16078676544E+02  0.51100000000E-03 0.  1.
         12    1    3    3    0    0  0.13313604590E+02 -0.18409292356E+01  0.61010885652E+00  0.13454119088E+02  0.00000000000E+00 0. -1.
</event>
<event>
 7    1  0.5837204E-012  0.5930196E+02  0.7816164E-02  0.1266605E+00
        -11   -1    0    0    0    0  0.00000000000E+00  0.00000000000E+00  0.45593999997E+02  0.45594000000E+02  0.51100000000E-03 0.  1.
         11   -1    0    0    0    0 -0.00000000000E+00 -0.00000000000E+00 -0.45593999997E+02  0.45594000000E+02  0.51100000000E-03 0. -1.
    9900012    2    1    2    0    0  0.35417442119E+01 -0.24983823639E+02  0.19493176605E+02  0.59301963403E+02  0.50000035337E+02 0.  0.
         12    1    1    2    0    0 -0.35417442119E+01  0.24983823639E+02 -0.19493176605E+02  0.31886036597E+02  0.00000000000E+00 0. -1.
         11    1    3    3    0    0  0.10209746596E+01 -0.33613806960E+01 -0.12626229671E+02  0.13105836310E+02  0.51100000000E-03 0. -1.
        -11    1    3    3    0    0 -0.10902068769E+02 -0.58104829735E+01  0.13816771105E+02  0.18534291997E+02  0.51100000000E-03 0.  1.
        -12    1    3    3    0    0  0.13422838321E+02 -0.15811959970E+02  0.18302635171E+02  0.27661835096E+02  0.00000000000E+00 0.  1.
</event>
<event>
 7    1  0.5837204E-012  0.5930196E+02  0.7816164E-02  0.1266605E+00
        -11   -1    0    0    0    0  0.00000000000E+00  0.00000000000E+00  0.45593999997E+02  0.45594000000E+02  0.51100000000E-03 0. -1.
         11   -1    0    0    0    0 -0.00000000000E+00 -0.00000000000E+00 -0.45593999997E+02  0.45594000000E+02  0.51100000000E-03 0.  1.
    9900012    2    1    2    0    0  0.53497269382E+00  0.23163248105E+02 -0.21906562155E+02  0.59301957223E+02  0.50000024065E+02 0.  0.
         12    1    1    2    0    0 -0.53497269382E+00 -0.23163248105E+02  0.21906562155E+02  0.31886042777E+02  0.00000000000E+00 0. -1.
         11    1    3    3    0    0 -0.11183396546E+00 -0.10226394692E+01  0.38936059735E+01  0.40272156707E+01  0.51100000000E-03 0. -1.
        -11    1    3    3    0    0  0.16097033096E+02  0.23037767017E+02 -0.37900877653E+01  0.28358736734E+02  0.51100000000E-03 0.  1.
        -12    1    3    3    0    0 -0.15450226437E+02  0.11481205567E+01 -0.22010080363E+02  0.26916004818E+02  0.00000000000E+00 0.  1.
</event>
<event>
 7    1  0.5837204E-012  0.5930194E+02  0.7816164E-02  0.1266605E+00
        -11   -1    0    0    0    0  0.00000000000E+00  0.00000000000E+00  0.45593999997E+02  0.45594000000E+02  0.51100000000E-03 0.  1.
         11   -1    0    0    0    0 -0.00000000000E+00 -0.00000000000E+00 -0.45593999997E+02  0.45594000000E+02  0.51100000000E-03 0. -1.
    9900012    2    1    2    0    0  0.30734440654E+02 -0.39077573851E+01  0.75395233440E+01  0.59301939999E+02  0.49999992653E+02 0.  0.
         12    1    1    2    0    0 -0.30734440654E+02  0.39077573851E+01 -0.75395233440E+01  0.31886060001E+02  0.00000000000E+00 0. -1.
         11    1    3    3    0    0  0.68524603917E+01  0.17024376397E+00 -0.20430729903E+02  0.21549940162E+02  0.51100000000E-03 0. -1.
        -11    1    3    3    0    0  0.81491556481E+01 -0.50222490557E+01  0.11327591889E+02  0.14830578600E+02  0.51100000000E-03 0.  1.
        -12    1    3    3    0    0  0.15732824614E+02  0.94424790660E+00  0.16642661358E+02  0.22921421237E+02  0.00000000000E+00 0.  1.
</event>
<event>
 7    1  0.5837204E-012  0.5930191E+02  0.7816164E-02  0.1266605E+00
        -11   -1    0    0    0    0  0.00000000000E+00  0.00000000000E+00  0.45593999997E+02  0.45594000000E+02  0.51100000000E-03 0.  1.
         11   -1    0    0    0    0 -0.00000000000E+00 -0.00000000000E+00 -0.45593999997E+02  0.45594000000E+02  0.51100000000E-03 0. -1.
    9900012    2    1    2    0    0  0.27163356840E+02 -0.34674397940E+01  0.16335591944E+02  0.59301911220E+02  0.49999940166E+02 0.  0.
         12    1    1    2    0    0 -0.27163356840E+02  0.34674397940E+01 -0.16335591944E+02  0.31886088780E+02  0.00000000000E+00 0. -1.
         11    1    3    3    0    0  0.10891396906E+02  0.57286415037E+01 -0.96485850150E+01  0.15637616605E+02  0.51100000000E-03 0. -1.
        -11    1    3    3    0    0  0.72689364416E+01  0.91169267799E+01  0.14454597113E+01  0.11749261464E+02  0.51100000000E-03 0.  1.
         12    1    3    3    0    0  0.90030234924E+01 -0.18313008078E+02  0.24538717248E+02  0.31915033151E+02  0.00000000000E+00 0. -1.
</event>
<event>
 7    1  0.5837204E-012  0.5930184E+02  0.7816164E-02  0.1266605E+00
        -11   -1    0    0    0    0  0.00000000000E+00  0.00000000000E+00  0.45593999997E+02  0.45594000000E+02  0.51100000000E-03 0.  1.
         11   -1    0    0    0    0 -0.00000000000E+00 -0.00000000000E+00 -0.45593999997E+02  0.45594000000E+02  0.51100000000E-03 0. -1.
    9900012    2    1    2    0    0 -0.75423994927E+01 -0.20633733480E+02  0.23110349140E+02  0.59301843367E+02  0.49999816419E+02 0.  0.
         12    1    1    2    0    0  0.75423994927E+01  0.20633733480E+02 -0.23110349140E+02  0.31886156633E+02  0.00000000000E+00 0. -1.
         11    1    3    3    0    0 -0.98195080343E+01  0.12677693121E+02  0.11172425020E+02  0.19544045692E+02  0.51100000000E-03 0. -1.
        -11    1    3    3    0    0 -0.40554765470E+01 -0.78775930304E+01  0.10169536394E+02  0.13487877250E+02  0.51100000000E-03 0.  1.
        -12    1    3    3    0    0  0.63325850886E+01 -0.25433833571E+02  0.17683877264E+01  0.26269920426E+02  0.00000000000E+00 0.  1.
</event>
<event>
 7    1  0.5837204E-012  0.5930196E+02  0.7816164E-02  0.1266605E+00
        -11   -1    0    0    0    0  0.00000000000E+00  0.00000000000E+00  0.45593999997E+02  0.45594000000E+02  0.51100000000E-03 0. -1.
         11   -1    0    0    0    0 -0.00000000000E+00 -0.00000000000E+00 -0.45593999997E+02  0.45594000000E+02  0.51100000000E-03 0.  1.
    9900012    2    1    2    0    0  0.54567330930E+01  0.31311643919E+02  0.25543067093E+01  0.59301961304E+02  0.50000031508E+02 0.  0.
         12    1    1    2    0    0 -0.54567330930E+01 -0.31311643919E+02 -0.25543067093E+01  0.31886038696E+02  0.00000000000E+00 0. -1.
         11    1    3    3    0    0  0.12481037483E+02 -0.33660583909E+01 -0.34760398933E+01  0.13386168210E+02  0.51100000000E-03 0. -1.
        -11    1    3    3    0    0  0.62075510705E+01  0.57984534776E+01  0.10856817461E+02  0.13785000495E+02  0.51100000000E-03 0.  1.
        -12    1    3    3    0    0 -0.13231855461E+02  0.28879248832E+02 -0.48264708581E+01  0.32130792598E+02  0.00000000000E+00 0.  1.
</event>
<event>
 7    1  0.5837204E-012  0.5930193E+02  0.7816164E-02  0.1266605E+00
        -11   -1    0    0    0    0  0.00000000000E+00  0.00000000000E+00  0.45593999997E+02  0.45594000000E+02  0.51100000000E-03 0. -1.
         11   -1    0    0    0    0 -0.00000000000E+00 -0.00000000000E+00 -0.45593999997E+02  0.45594000000E+02  0.51100000000E-03 0.  1.
    9900012    2    1    2    0    0  0.19343763082E+01  0.15993495324E+02 -0.27517041249E+02  0.59301933082E+02  0.49999980038E+02 0.  0.
         12    1    1    2    0    0 -0.19343763082E+01 -0.15993495324E+02  0.27517041249E+02  0.31886066918E+02  0.00000000000E+00 0. -1.
         11    1    3    3    0    0  0.39356428760E+01 -0.62498655258E+01 -0.15608668172E+02  0.17267907410E+02  0.51100000000E-03 0. -1.
        -11    1    3    3    0    0 -0.65204316366E+01  0.19911875078E+02 -0.22217614208E+02  0.30538847051E+02  0.51100000000E-03 0.  1.
         12    1    3    3    0    0  0.45191650688E+01  0.23314857716E+01  0.10309241132E+02  0.11495178621E+02  0.00000000000E+00 0. -1.
</event>
<event>
 7    1  0.5837204E-012  0.5930194E+02  0.7816164E-02  0.1266605E+00
        -11   -1    0    0    0    0  0.00000000000E+00  0.00000000000E+00  0.45593999997E+02  0.45594000000E+02  0.51100000000E-03 0. -1.
         11   -1    0    0    0    0 -0.00000000000E+00 -0.00000000000E+00 -0.45593999997E+02  0.45594000000E+02  0.51100000000E-03 0.  1.
    9900012    2    1    2    0    0 -0.27071592471E+02  0.17368610959E+01 -0.16758064632E+02  0.59301944496E+02  0.50000000854E+02 0.  0.
         12    1    1    2    0    0  0.27071592471E+02 -0.17368610959E+01  0.16758064632E+02  0.31886055504E+02  0.00000000000E+00 0. -1.
         11    1    3    3    0    0 -0.21341378664E+02  0.12413002124E+02  0.31908192640E+01  0.24894143746E+02  0.51100000000E-03 0. -1.
        -11    1    3    3    0    0 -0.12861660425E+02 -0.41990222009E+00 -0.27633821915E+01  0.13161873277E+02  0.51100000000E-03 0.  1.
         12    1    3    3    0    0  0.71314466178E+01 -0.10256238808E+02 -0.17185501704E+02  0.21245927473E+02  0.00000000000E+00 0. -1.
</event>
<event>
 7    1  0.5837204E-012  0.5930197E+02  0.7816164E-02  0.1266605E+00
        -11   -1    0    0    0    0  0.00000000000E+00  0.00000000000E+00  0.45593999997E+02  0.45594000000E+02  0.51100000000E-03 0. -1.
         11   -1    0    0    0    0 -0.00000000000E+00 -0.00000000000E+00 -0.45593999997E+02  0.45594000000E+02  0.51100000000E-03 0.  1.
    9900012    2    1    2    0    0  0.15132290364E+01 -0.17473615757E+02 -0.26628970635E+02  0.59301965646E+02  0.50000039426E+02 0.  0.
         12    1    1    2    0    0 -0.15132290364E+01  0.17473615757E+02  0.26628970635E+02  0.31886034354E+02  0.00000000000E+00 0. -1.
         11    1    3    3    0    0 -0.73272319121E+01 -0.10207651292E+01  0.21740860892E+00  0.74011861014E+01  0.51100000000E-03 0. -1.
        -11    1    3    3    0    0 -0.14007527395E+02 -0.12345553772E+02 -0.35369458658E+01  0.19003513043E+02  0.51100000000E-03 0.  1.
         12    1    3    3    0    0  0.22847988344E+02 -0.41072968559E+01 -0.23309433379E+02  0.32897266501E+02  0.00000000000E+00 0. -1.
</event>
<event>
 7    1  0.5837204E-012  0.5930192E+02  0.7816164E-02  0.1266605E+00
        -11   -1    0    0    0    0  0.00000000000E+00  0.00000000000E+00  0.45593999997E+02  0.45594000000E+02  0.51100000000E-03 0. -1.
         11   -1    0    0    0    0 -0.00000000000E+00 -0.00000000000E+00 -0.45593999997E+02  0.45594000000E+02  0.51100000000E-03 0.  1.
    9900012    2    1    2    0    0 -0.12807797475E+02  0.29198069165E+02 -0.39427871129E+00  0.59301915656E+02  0.49999948256E+02 0.  0.
         12    1    1    2    0    0  0.12807797475E+02 -0.29198069165E+02  0.39427871129E+00  0.31886084344E+02  0.00000000000E+00 0. -1.
         11    1    3    3    0    0  0.21126470015E+01 -0.56916077892E+01  0.55947201199E+01  0.82558203748E+01  0.51100000000E-03 0. -1.
        -11    1    3    3    0    0 -0.78080562616E+01 -0.55185248578E+01 -0.24131912820E+01  0.98612043694E+01  0.51100000000E-03 0.  1.
        -12    1    3    3    0    0 -0.71123882152E+01  0.40408201812E+02 -0.35758075492E+01  0.41184890912E+02  0.00000000000E+00 0.  1.
</event>
<event>
 7    1  0.5837204E-012  0.5930194E+02  0.7816164E-02  0.1266605E+00
        -11   -1    0    0    0    0  0.00000000000E+00  0.00000000000E+00  0.45593999997E+02  0.45594000000E+02  0.51100000000E-03 0. -1.
         11   -1    0    0    0    0 -0.00000000000E+00 -0.00000000000E+00 -0.45593999997E+02  0.45594000000E+02  0.51100000000E-03 0.  1.
    9900012    2    1    2    0    0 -0.12937742579E+02  0.17811013883E+02 -0.23067362595E+02  0.59301943241E+02  0.49999998565E+02 0.  0.
         12    1    1    2    0    0  0.12937742579E+02 -0.17811013883E+02  0.23067362595E+02  0.31886056759E+02  0.00000000000E+00 0. -1.
         11    1    3    3    0    0  0.13873984708E+02  0.36581397667E+00 -0.35263684310E+01  0.14319795603E+02  0.51100000000E-03 0. -1.
        -11    1    3    3    0    0  0.34728636684E+01  0.70860266550E+01 -0.71863965873E+01  0.10673183779E+02  0.51100000000E-03 0.  1.
         12    1    3    3    0    0 -0.30284590955E+02  0.10359173251E+02 -0.12354597577E+02  0.34308963859E+02  0.00000000000E+00 0. -1.
</event>
<event>
 7    1  0.5837204E-012  0.5930195E+02  0.7816164E-02  0.1266605E+00
        -11   -1    0    0    0    0  0.00000000000E+00  0.00000000000E+00  0.45593999997E+02  0.45594000000E+02  0.51100000000E-03 0.  1.
         11   -1    0    0    0    0 -0.00000000000E+00 -0.00000000000E+00 -0.45593999997E+02  0.45594000000E+02  0.51100000000E-03 0. -1.
    9900012    2    1    2    0    0 -0.21755934766E+02 -0.23056340926E+01  0.23196628188E+02  0.59301949674E+02  0.50000010298E+02 0.  0.
         12    1    1    2    0    0  0.21755934766E+02  0.23056340926E+01 -0.23196628188E+02  0.31886050326E+02  0.00000000000E+00 0. -1.
         11    1    3    3    0    0 -0.18353561677E+01 -0.83450414308E+01  0.23652275244E+01  0.88658079298E+01  0.51100000000E-03 0. -1.
        -11    1    3    3    0    0 -0.24314875349E+02 -0.12159568083E+02  0.11509849057E+02  0.29521939042E+02  0.51100000000E-03 0.  1.
        -12    1    3    3    0    0  0.43942967510E+01  0.18198975422E+02  0.93215516060E+01  0.20914202702E+02  0.00000000000E+00 0.  1.
</event>
<event>
 7    1  0.5837204E-012  0.5930194E+02  0.7816164E-02  0.1266605E+00
        -11   -1    0    0    0    0  0.00000000000E+00  0.00000000000E+00  0.45593999997E+02  0.45594000000E+02  0.51100000000E-03 0.  1.
         11   -1    0    0    0    0 -0.00000000000E+00 -0.00000000000E+00 -0.45593999997E+02  0.45594000000E+02  0.51100000000E-03 0. -1.
    9900012    2    1    2    0    0 -0.66441645937E+01  0.28124214508E+02  0.13476067999E+02  0.59301940765E+02  0.49999994049E+02 0.  0.
         12    1    1    2    0    0  0.66441645937E+01 -0.28124214508E+02 -0.13476067999E+02  0.31886059235E+02  0.00000000000E+00 0. -1.
         11    1    3    3    0    0 -0.43617906249E+00  0.65387885212E+01 -0.11263611414E+02  0.13031306529E+02  0.51100000000E-03 0. -1.
        -11    1    3    3    0    0  0.83207826453E+01  0.11186837979E+02 -0.20271676665E+01  0.14088654187E+02  0.51100000000E-03 0.  1.
        -12    1    3    3    0    0 -0.14528768177E+02  0.10398588008E+02  0.26766847080E+02  0.32181980049E+02  0.00000000000E+00 0.  1.
</event>
<event>
 7    1  0.5837204E-012  0.5930194E+02  0.7816164E-02  0.1266605E+00
        -11   -1    0    0    0    0  0.00000000000E+00  0.00000000000E+00  0.45593999997E+02  0.45594000000E+02  0.51100000000E-03 0. -1.
         11   -1    0    0    0    0 -0.00000000000E+00 -0.00000000000E+00 -0.45593999997E+02  0.45594000000E+02  0.51100000000E-03 0.  1.
    9900012    2    1    2    0    0 -0.30669955922E+02 -0.57371848914E+01  0.65695536953E+01  0.59301944702E+02  0.50000001229E+02 0.  0.
         12    1    1    2    0    0  0.30669955922E+02  0.57371848914E+01 -0.65695536953E+01  0.31886055298E+02  0.00000000000E+00 0. -1.
         11    1    3    3    0    0  0.64694717726E+01 -0.88724073999E+01  0.11517345817E+02  0.15912980017E+02  0.51100000000E-03 0. -1.
        -11    1    3    3    0    0  0.12988596976E+01  0.12074351687E+01 -0.45683605856E+01  0.49004953731E+01  0.51100000000E-03 0.  1.
         12    1    3    3    0    0 -0.38438287392E+02  0.19277873398E+01 -0.37943153623E+00  0.38488469312E+02  0.00000000000E+00 0. -1.
</event>
<event>
 7    1  0.5837204E-012  0.5930178E+02  0.7816164E-02  0.1266605E+00
        -11   -1    0    0    0    0  0.00000000000E+00  0.00000000000E+00  0.45593999997E+02  0.45594000000E+02  0.51100000000E-03 0.  1.
         11   -1    0    0    0    0 -0.00000000000E+00 -0.00000000000E+00 -0.45593999997E+02  0.45594000000E+02  0.51100000000E-03 0. -1.
    9900012    2    1    2    0    0 -0.15252931408E+02 -0.16828322673E+02  0.22380499608E+02  0.59301778474E+02  0.49999698069E+02 0.  0.
         12    1    1    2    0    0  0.15252931408E+02  0.16828322673E+02 -0.22380499608E+02  0.31886221526E+02  0.00000000000E+00 0. -1.
         11    1    3    3    0    0 -0.14385704478E+02 -0.22081233484E+01  0.78628453000E+01  0.16542328691E+02  0.51100000000E-03 0. -1.
        -11    1    3    3    0    0 -0.71957732149E+01 -0.15598610489E+02  0.25085022988E+02  0.30403193581E+02  0.51100000000E-03 0.  1.
         12    1    3    3    0    0  0.63285462853E+01  0.97841116441E+00 -0.10567368680E+02  0.12356256202E+02  0.00000000000E+00 0. -1.
</event>
<event>
 7    1  0.5837204E-012  0.5930183E+02  0.7816164E-02  0.1266605E+00
        -11   -1    0    0    0    0  0.00000000000E+00  0.00000000000E+00  0.45593999997E+02  0.45594000000E+02  0.51100000000E-03 0. -1.
         11   -1    0    0    0    0 -0.00000000000E+00 -0.00000000000E+00 -0.45593999997E+02  0.45594000000E+02  0.51100000000E-03 0.  1.
    9900012    2    1    2    0    0 -0.41114554254E+01  0.26230410183E+02 -0.17657564331E+02  0.59301826473E+02  0.49999785608E+02 0.  0.
         12    1    1    2    0    0  0.41114554254E+01 -0.26230410183E+02  0.17657564331E+02  0.31886173527E+02  0.00000000000E+00 0. -1.
         11    1    3    3    0    0 -0.17165963788E+02 -0.14673420192E+01  0.54826233507E+01  0.18079893928E+02  0.51100000000E-03 0. -1.
        -11    1    3    3    0    0  0.95148688941E+01  0.95324256616E+01 -0.28640796341E+01  0.13769634036E+02  0.51100000000E-03 0.  1.
        -12    1    3    3    0    0  0.35396394684E+01  0.18165326541E+02 -0.20276108048E+02  0.27452298510E+02  0.00000000000E+00 0.  1.
</event>
<event>
 7    1  0.5837204E-012  0.5930186E+02  0.7816164E-02  0.1266605E+00
        -11   -1    0    0    0    0  0.00000000000E+00  0.00000000000E+00  0.45593999997E+02  0.45594000000E+02  0.51100000000E-03 0. -1.
         11   -1    0    0    0    0 -0.00000000000E+00 -0.00000000000E+00 -0.45593999997E+02  0.45594000000E+02  0.51100000000E-03 0.  1.
    9900012    2    1    2    0    0 -0.80817259843E+01  0.79602132758E+01 -0.29800112700E+02  0.59301858697E+02  0.49999844377E+02 0.  0.
         12    1    1    2    0    0  0.80817259843E+01 -0.79602132758E+01  0.29800112700E+02  0.31886141303E+02  0.00000000000E+00 0. -1.
         11    1    3    3    0    0 -0.54248943513E+01  0.12011430442E+02 -0.53888807043E+01  0.14238819315E+02  0.51100000000E-03 0. -1.
        -11    1    3    3    0    0 -0.67730559821E+01  0.11656516762E+02 -0.25441072833E+02  0.28792305526E+02  0.51100000000E-03 0.  1.
         12    1    3    3    0    0  0.41162243490E+01 -0.15707733928E+02  0.10298408379E+01  0.16270733855E+02  0.00000000000E+00 0. -1.
</event>
<event>
 7    1  0.5837204E-012  0.5930196E+02  0.7816164E-02  0.1266605E+00
        -11   -1    0    0    0    0  0.00000000000E+00  0.00000000000E+00  0.45593999997E+02  0.45594000000E+02  0.51100000000E-03 0.  1.
         11   -1    0    0    0    0 -0.00000000000E+00 -0.00000000000E+00 -0.45593999997E+02  0.45594000000E+02  0.51100000000E-03 0. -1.
    9900012    2    1    2    0    0  0.90007796848E+01 -0.12960406519E+02  0.27708003479E+02  0.59301958714E+02  0.50000026784E+02 0.  0.
         12    1    1    2    0    0 -0.90007796848E+01  0.12960406519E+02 -0.27708003479E+02  0.31886041286E+02  0.00000000000E+00 0. -1.
         11    1    3    3    0    0 -0.11442523089E+02 -0.68973814194E+00  0.52850072215E+01  0.12622930521E+02  0.51100000000E-03 0. -1.
        -11    1    3    3    0    0  0.19323948944E+02  0.64743092517E+01  0.48240241466E+01  0.20942848238E+02  0.51100000000E-03 0.  1.
        -12    1    3    3    0    0  0.11193538303E+01 -0.18744977629E+02  0.17598972111E+02  0.25736179955E+02  0.00000000000E+00 0.  1.
</event>
<event>
 7    1  0.5837204E-012  0.5930199E+02  0.7816164E-02  0.1266605E+00
        -11   -1    0    0    0    0  0.00000000000E+00  0.00000000000E+00  0.45593999997E+02  0.45594000000E+02  0.51100000000E-03 0. -1.
         11   -1    0    0    0    0 -0.00000000000E+00 -0.00000000000E+00 -0.45593999997E+02  0.45594000000E+02  0.51100000000E-03 0.  1.
    9900012    2    1    2    0    0 -0.19451908065E+02  0.24588589628E+02  0.58088120322E+01  0.59301987949E+02  0.50000080103E+02 0.  0.
         12    1    1    2    0    0  0.19451908065E+02 -0.24588589628E+02 -0.58088120322E+01  0.31886012051E+02  0.00000000000E+00 0. -1.
         11    1    3    3    0    0  0.82808355741E+01  0.41228297959E+01 -0.89619006630E+01  0.12879659432E+02  0.51100000000E-03 0.  1.
        -11    1    3    3    0    0 -0.90829556405E+01  0.11168994982E+02 -0.72382172598E+01  0.16113296417E+02  0.51100000000E-03 0. -1.
         12    1    3    3    0    0 -0.18649787999E+02  0.92967648501E+01  0.22008929955E+02  0.30309032100E+02  0.00000000000E+00 0. -1.
</event>
<event>
 7    1  0.5837204E-012  0.5930194E+02  0.7816164E-02  0.1266605E+00
        -11   -1    0    0    0    0  0.00000000000E+00  0.00000000000E+00  0.45593999997E+02  0.45594000000E+02  0.51100000000E-03 0. -1.
         11   -1    0    0    0    0 -0.00000000000E+00 -0.00000000000E+00 -0.45593999997E+02  0.45594000000E+02  0.51100000000E-03 0.  1.
    9900012    2    1    2    0    0  0.74552595717E+01  0.20004429374E+01 -0.30937652745E+02  0.59301936829E+02  0.49999986871E+02 0.  0.
         12    1    1    2    0    0 -0.74552595717E+01 -0.20004429374E+01  0.30937652745E+02  0.31886063171E+02  0.00000000000E+00 0. -1.
         11    1    3    3    0    0 -0.60162863003E+01  0.16198843479E+02 -0.17422086970E+02  0.24538283264E+02  0.51100000000E-03 0. -1.
        -11    1    3    3    0    0 -0.36269635602E+01  0.40217245386E+01  0.14907911579E+01  0.56170803331E+01  0.51100000000E-03 0.  1.
        -12    1    3    3    0    0  0.17098509432E+02 -0.18220125080E+02 -0.15006356932E+02  0.29146573231E+02  0.00000000000E+00 0.  1.
</event>
<event>
 7    1  0.5837204E-012  0.5930196E+02  0.7816164E-02  0.1266605E+00
        -11   -1    0    0    0    0  0.00000000000E+00  0.00000000000E+00  0.45593999997E+02  0.45594000000E+02  0.51100000000E-03 0.  1.
         11   -1    0    0    0    0 -0.00000000000E+00 -0.00000000000E+00 -0.45593999997E+02  0.45594000000E+02  0.51100000000E-03 0. -1.
    9900012    2    1    2    0    0 -0.18546154414E+02 -0.24078199656E+02  0.96436346301E+01  0.59301964952E+02  0.50000038160E+02 0.  0.
         12    1    1    2    0    0  0.18546154414E+02  0.24078199656E+02 -0.96436346301E+01  0.31886035048E+02  0.00000000000E+00 0. -1.
         11    1    3    3    0    0  0.52661359457E+01  0.59517196166E+00 -0.70211247502E+01  0.87967386275E+01  0.51100000000E-03 0. -1.
        -11    1    3    3    0    0 -0.39506018083E+01  0.79975645323E+01  0.62043279013E+01  0.10865632888E+02  0.51100000000E-03 0.  1.
        -12    1    3    3    0    0 -0.19861688551E+02 -0.32670936150E+02  0.10460431479E+02  0.39639593436E+02  0.00000000000E+00 0.  1.
</event>
<event>
 7    1  0.5837204E-012  0.5930194E+02  0.7816164E-02  0.1266605E+00
        -11   -1    0    0    0    0  0.00000000000E+00  0.00000000000E+00  0.45593999997E+02  0.45594000000E+02  0.51100000000E-03 0.  1.
         11   -1    0    0    0    0 -0.00000000000E+00 -0.00000000000E+00 -0.45593999997E+02  0.45594000000E+02  0.51100000000E-03 0. -1.
    9900012    2    1    2    0    0  0.22191757393E+02 -0.38907479229E+01  0.22563436276E+02  0.59301942355E+02  0.49999996949E+02 0.  0.
         12    1    1    2    0    0 -0.22191757393E+02  0.38907479229E+01 -0.22563436276E+02  0.31886057645E+02  0.00000000000E+00 0. -1.
         11    1    3    3    0    0  0.38313793192E+01 -0.17098539131E+02  0.24427680588E+01  0.17691993216E+02  0.51100000000E-03 0.  1.
        -11    1    3    3    0    0  0.18534019509E+02 -0.35790846660E+01  0.14839605990E+02  0.24011114768E+02  0.51100000000E-03 0. -1.
         12    1    3    3    0    0 -0.17364143548E+00  0.16786875874E+02  0.52810622273E+01  0.17598834371E+02  0.00000000000E+00 0. -1.
</event>
<event>
 7    1  0.5837204E-012  0.5930194E+02  0.7816164E-02  0.1266605E+00
        -11   -1    0    0    0    0  0.00000000000E+00  0.00000000000E+00  0.45593999997E+02  0.45594000000E+02  0.51100000000E-03 0.  1.
         11   -1    0    0    0    0 -0.00000000000E+00 -0.00000000000E+00 -0.45593999997E+02  0.45594000000E+02  0.51100000000E-03 0. -1.
    9900012    2    1    2    0    0 -0.10026169953E+02 -0.27002746344E+02  0.13676570595E+02  0.59301937570E+02  0.49999988222E+02 0.  0.
         12    1    1    2    0    0  0.10026169953E+02  0.27002746344E+02 -0.13676570595E+02  0.31886062430E+02  0.00000000000E+00 0. -1.
         11    1    3    3    0    0  0.22284332948E+01 -0.15887163013E+02 -0.27634324217E+01  0.16278956434E+02  0.51100000000E-03 0. -1.
        -11    1    3    3    0    0  0.19581385805E+01  0.83699235592E+01 -0.56751928989E+01  0.10300375808E+02  0.51100000000E-03 0.  1.
        -12    1    3    3    0    0 -0.14212741828E+02 -0.19485506890E+02  0.22115195916E+02  0.32722605328E+02  0.00000000000E+00 0.  1.
</event>
<event>
 7    1  0.6235208E-012  0.5930192E+02  0.7816164E-02  0.1266605E+00
        -11   -1    0    0    0    0  0.00000000000E+00  0.00000000000E+00  0.45593999997E+02  0.45594000000E+02  0.51100000000E-03 0. -1.
         11   -1    0    0    0    0 -0.00000000000E+00 -0.00000000000E+00 -0.45593999997E+02  0.45594000000E+02  0.51100000000E-03 0.  1.
    9900012    2    1    2    0    0 -0.27794873129E+02 -0.23562565103E+01 -0.15447176794E+02  0.59301918586E+02  0.49999953601E+02 0.  0.
         12    1    1    2    0    0  0.27794873129E+02  0.23562565103E+01  0.15447176794E+02  0.31886081414E+02  0.00000000000E+00 0. -1.
         11    1    3    3    0    0  0.76006620387E+01 -0.18001809619E+01  0.35879266022E+01  0.85955763324E+01  0.51100000000E-03 0. -1.
        -11    1    3    3    0    0 -0.10161663462E+01 -0.80161897247E+01 -0.12561875841E+02  0.14936285236E+02  0.51100000000E-03 0.  1.
        -12    1    3    3    0    0 -0.34379368821E+02  0.74601141764E+01 -0.64732275558E+01  0.35770057018E+02  0.00000000000E+00 0.  1.
</event>
<event>
 7    1  0.5837204E-012  0.5930192E+02  0.7816164E-02  0.1266605E+00
        -11   -1    0    0    0    0  0.00000000000E+00  0.00000000000E+00  0.45593999997E+02  0.45594000000E+02  0.51100000000E-03 0.  1.
         11   -1    0    0    0    0 -0.00000000000E+00 -0.00000000000E+00 -0.45593999997E+02  0.45594000000E+02  0.51100000000E-03 0. -1.
    9900012    2    1    2    0    0  0.21503193947E+02 -0.47470966441E+01  0.23060781088E+02  0.59301923087E+02  0.49999961810E+02 0.  0.
         12    1    1    2    0    0 -0.21503193947E+02  0.47470966441E+01 -0.23060781088E+02  0.31886076913E+02  0.00000000000E+00 0. -1.
         11    1    3    3    0    0  0.51933230149E+01 -0.56231091618E+01  0.12920228952E+02  0.15017399142E+02  0.51100000000E-03 0.  1.
        -11    1    3    3    0    0  0.21020806421E+02  0.14847126148E+02 -0.10776657999E+01  0.25757966172E+02  0.51100000000E-03 0. -1.
         12    1    3    3    0    0 -0.47109354893E+01 -0.13971113630E+02  0.11218217937E+02  0.18526557773E+02  0.00000000000E+00 0. -1.
</event>
<event>
 7    1  0.5837204E-012  0.5930194E+02  0.7816164E-02  0.1266605E+00
        -11   -1    0    0    0    0  0.00000000000E+00  0.00000000000E+00  0.45593999997E+02  0.45594000000E+02  0.51100000000E-03 0.  1.
         11   -1    0    0    0    0 -0.00000000000E+00 -0.00000000000E+00 -0.45593999997E+02  0.45594000000E+02  0.51100000000E-03 0. -1.
    9900012    2    1    2    0    0 -0.15653727875E+02  0.91099391588E+01  0.26242915343E+02  0.59301940451E+02  0.49999993477E+02 0.  0.
         12    1    1    2    0    0  0.15653727875E+02 -0.91099391588E+01 -0.26242915343E+02  0.31886059549E+02  0.00000000000E+00 0. -1.
         11    1    3    3    0    0  0.90596120473E-01  0.15669403842E+01 -0.29908927836E+01  0.33777136836E+01  0.51100000000E-03 0. -1.
        -11    1    3    3    0    0  0.58949602057E+01 -0.65421680053E+01  0.28783732923E+02  0.30100727554E+02  0.51100000000E-03 0.  1.
         12    1    3    3    0    0 -0.21639284201E+02  0.14085166780E+02  0.45007520411E+00  0.25823499214E+02  0.00000000000E+00 0. -1.
</event>
<event>
 7    1  0.5837204E-012  0.5930195E+02  0.7816164E-02  0.1266605E+00
        -11   -1    0    0    0    0  0.00000000000E+00  0.00000000000E+00  0.45593999997E+02  0.45594000000E+02  0.51100000000E-03 0.  1.
         11   -1    0    0    0    0 -0.00000000000E+00 -0.00000000000E+00 -0.45593999997E+02  0.45594000000E+02  0.51100000000E-03 0. -1.
    9900012    2    1    2    0    0  0.17055573037E+02  0.26785718175E+02 -0.28901433896E+01  0.59301949781E+02  0.50000010493E+02 0.  0.
         12    1    1    2    0    0 -0.17055573037E+02 -0.26785718175E+02  0.28901433896E+01  0.31886050219E+02  0.00000000000E+00 0. -1.
         11    1    3    3    0    0  0.18446903182E+02  0.27578745805E+02 -0.21908919577E+01  0.33251698679E+02  0.51100000000E-03 0. -1.
        -11    1    3    3    0    0  0.48633482606E+01  0.83647252866E+01  0.75134954557E+01  0.12250444876E+02  0.51100000000E-03 0.  1.
        -12    1    3    3    0    0 -0.62546784061E+01 -0.91577529170E+01 -0.82127468876E+01  0.13799806227E+02  0.00000000000E+00 0.  1.
</event>
<event>
 7    1  0.5837204E-012  0.5930193E+02  0.7816164E-02  0.1266605E+00
        -11   -1    0    0    0    0  0.00000000000E+00  0.00000000000E+00  0.45593999997E+02  0.45594000000E+02  0.51100000000E-03 0. -1.
         11   -1    0    0    0    0 -0.00000000000E+00 -0.00000000000E+00 -0.45593999997E+02  0.45594000000E+02  0.51100000000E-03 0.  1.
    9900012    2    1    2    0    0 -0.23156386619E+02 -0.18164590215E+02 -0.12269920892E+02  0.59301928784E+02  0.49999972199E+02 0.  0.
         12    1    1    2    0    0  0.23156386619E+02  0.18164590215E+02  0.12269920892E+02  0.31886071216E+02  0.00000000000E+00 0. -1.
         11    1    3    3    0    0 -0.78090737073E+01  0.15564672793E+01 -0.25368587134E+01  0.83570254846E+01  0.51100000000E-03 0. -1.
        -11    1    3    3    0    0 -0.15035559033E+02 -0.27040074580E+02  0.78305749881E+01  0.31914754795E+02  0.51100000000E-03 0.  1.
         12    1    3    3    0    0 -0.31175387825E+00  0.73190170852E+01 -0.17563637167E+02  0.19030148504E+02  0.00000000000E+00 0. -1.
</event>
<event>
 7    1  0.5837204E-012  0.5930166E+02  0.7816164E-02  0.1266606E+00
        -11   -1    0    0    0    0  0.00000000000E+00  0.00000000000E+00  0.45593999997E+02  0.45594000000E+02  0.51100000000E-03 0. -1.
         11   -1    0    0    0    0 -0.00000000000E+00 -0.00000000000E+00 -0.45593999997E+02  0.45594000000E+02  0.51100000000E-03 0.  1.
    9900012    2    1    2    0    0  0.29769100190E+02 -0.11424496455E+02 -0.14152895982E+00  0.59301663180E+02  0.49999487798E+02 0.  0.
         12    1    1    2    0    0 -0.29769100190E+02  0.11424496455E+02  0.14152895982E+00  0.31886336820E+02  0.00000000000E+00 0. -1.
         11    1    3    3    0    0  0.13595343965E+02 -0.52371776559E+01  0.90698317599E+01  0.17161679863E+02  0.51100000000E-03 0. -1.
        -11    1    3    3    0    0  0.28060960553E+02 -0.39276905033E+01 -0.28715345147E+01  0.28479641335E+02  0.51100000000E-03 0.  1.
        -12    1    3    3    0    0 -0.11887204327E+02 -0.22596282962E+01 -0.63398262049E+01  0.13660341982E+02  0.00000000000E+00 0.  1.
</event>
<event>
 7    1  0.5837204E-012  0.5930194E+02  0.7816164E-02  0.1266605E+00
        -11   -1    0    0    0    0  0.00000000000E+00  0.00000000000E+00  0.45593999997E+02  0.45594000000E+02  0.51100000000E-03 0.  1.
         11   -1    0    0    0    0 -0.00000000000E+00 -0.00000000000E+00 -0.45593999997E+02  0.45594000000E+02  0.51100000000E-03 0. -1.
    9900012    2    1    2    0    0 -0.10099822188E+02  0.59365319095E+01  0.29655896801E+02  0.59301936674E+02  0.49999986589E+02 0.  0.
         12    1    1    2    0    0  0.10099822188E+02 -0.59365319095E+01 -0.29655896801E+02  0.31886063326E+02  0.00000000000E+00 0. -1.
         11    1    3    3    0    0  0.86616846955E+01  0.13762659346E+02  0.37840633912E+01  0.16695948911E+02  0.51100000000E-03 0. -1.
        -11    1    3    3    0    0 -0.17258002634E+02  0.33692808351E+01  0.25906113229E+02  0.31310020939E+02  0.51100000000E-03 0.  1.
        -12    1    3    3    0    0 -0.15035042490E+01 -0.11195408272E+02 -0.34279819213E-01  0.11295966824E+02  0.00000000000E+00 0.  1.
</event>
<event>
 7    1  0.5837204E-012  0.5930193E+02  0.7816164E-02  0.1266605E+00
        -11   -1    0    0    0    0  0.00000000000E+00  0.00000000000E+00  0.45593999997E+02  0.45594000000E+02  0.51100000000E-03 0.  1.
         11   -1    0    0    0    0 -0.00000000000E+00 -0.00000000000E+00 -0.45593999997E+02  0.45594000000E+02  0.51100000000E-03 0. -1.
    9900012    2    1    2    0    0 -0.10731184789E+02 -0.12724632099E+02  0.27196452343E+02  0.59301927663E+02  0.49999970155E+02 0.  0.
         12    1    1    2    0    0  0.10731184789E+02  0.12724632099E+02 -0.27196452343E+02  0.31886072337E+02  0.00000000000E+00 0. -1.
         11    1    3    3    0    0  0.76721209216E+01  0.12070357325E+02  0.68488461733E+01  0.15857542671E+02  0.51100000000E-03 0. -1.
        -11    1    3    3    0    0 -0.13554016128E+02 -0.35960896041E+01  0.15985901292E+02  0.21264812579E+02  0.51100000000E-03 0.  1.
        -12    1    3    3    0    0 -0.48492895826E+01 -0.21198899820E+02  0.43617048777E+01  0.22179572414E+02  0.00000000000E+00 0.  1.
</event>
<event>
 7    1  0.5837204E-012  0.5930196E+02  0.7816164E-02  0.1266605E+00
        -11   -1    0    0    0    0  0.00000000000E+00  0.00000000000E+00  0.45593999997E+02  0.45594000000E+02  0.51100000000E-03 0.  1.
         11   -1    0    0    0    0 -0.00000000000E+00 -0.00000000000E+00 -0.45593999997E+02  0.45594000000E+02  0.51100000000E-03 0. -1.
    9900012    2    1    2    0    0  0.21251814538E+02  0.82977369768E+01  0.22276158394E+02  0.59301963983E+02  0.50000036394E+02 0.  0.
         12    1    1    2    0    0 -0.21251814538E+02 -0.82977369768E+01 -0.22276158394E+02  0.31886036017E+02  0.00000000000E+00 0. -1.
         11    1    3    3    0    0 -0.10680530483E+01 -0.23787947013E+01 -0.20336580396E+01  0.33068363776E+01  0.51100000000E-03 0. -1.
        -11    1    3    3    0    0 -0.85715329567E+01 -0.92537850056E+01  0.11486911839E+02  0.17060271335E+02  0.51100000000E-03 0.  1.
        -12    1    3    3    0    0  0.30891400543E+02  0.19930316684E+02  0.12822904594E+02  0.38934856271E+02  0.00000000000E+00 0.  1.
</event>
<event>
 7    1  0.5837204E-012  0.5930195E+02  0.7816164E-02  0.1266605E+00
        -11   -1    0    0    0    0  0.00000000000E+00  0.00000000000E+00  0.45593999997E+02  0.45594000000E+02  0.51100000000E-03 0.  1.
         11   -1    0    0    0    0 -0.00000000000E+00 -0.00000000000E+00 -0.45593999997E+02  0.45594000000E+02  0.51100000000E-03 0. -1.
    9900012    2    1    2    0    0 -0.15604853220E+02 -0.23827933756E+02  0.14333109977E+02  0.59301954264E+02  0.50000018668E+02 0.  0.
         12    1    1    2    0    0  0.15604853220E+02  0.23827933756E+02 -0.14333109977E+02  0.31886045736E+02  0.00000000000E+00 0. -1.
         11    1    3    3    0    0  0.39598452408E+01  0.87812176203E+01  0.16535849614E+01  0.97736636279E+01  0.51100000000E-03 0. -1.
        -11    1    3    3    0    0 -0.14764588645E+02 -0.62310110224E+01  0.15838284380E+02  0.22531529655E+02  0.51100000000E-03 0.  1.
         12    1    3    3    0    0 -0.48001098154E+01 -0.26378140354E+02 -0.31587593641E+01  0.26996760981E+02  0.00000000000E+00 0. -1.
</event>
<event>
 7    1  0.5837204E-012  0.5930196E+02  0.7816164E-02  0.1266605E+00
        -11   -1    0    0    0    0  0.00000000000E+00  0.00000000000E+00  0.45593999997E+02  0.45594000000E+02  0.51100000000E-03 0.  1.
         11   -1    0    0    0    0 -0.00000000000E+00 -0.00000000000E+00 -0.45593999997E+02  0.45594000000E+02  0.51100000000E-03 0. -1.
    9900012    2    1    2    0    0 -0.20383983880E+02  0.16744604218E+02  0.17911763194E+02  0.59301955561E+02  0.50000021034E+02 0.  0.
         12    1    1    2    0    0  0.20383983880E+02 -0.16744604218E+02 -0.17911763194E+02  0.31886044439E+02  0.00000000000E+00 0. -1.
         11    1    3    3    0    0  0.10624768964E+02  0.20106802093E-01 -0.40342776809E+01  0.11364924834E+02  0.51100000000E-03 0. -1.
        -11    1    3    3    0    0 -0.88737503180E+01  0.94092690150E+01  0.20928419740E+02  0.24602368609E+02  0.51100000000E-03 0.  1.
        -12    1    3    3    0    0 -0.22135002526E+02  0.73152284006E+01  0.10176211349E+01  0.23334662118E+02  0.00000000000E+00 0.  1.
</event>
<event>
 7    1  0.5837204E-012  0.5930191E+02  0.7816164E-02  0.1266605E+00
        -11   -1    0    0    0    0  0.00000000000E+00  0.00000000000E+00  0.45593999997E+02  0.45594000000E+02  0.51100000000E-03 0.  1.
         11   -1    0    0    0    0 -0.00000000000E+00 -0.00000000000E+00 -0.45593999997E+02  0.45594000000E+02  0.51100000000E-03 0. -1.
    9900012    2    1    2    0    0 -0.28594312907E+02  0.66406782183E+01  0.12449468131E+02  0.59301912209E+02  0.49999941971E+02 0.  0.
         12    1    1    2    0    0  0.28594312907E+02 -0.66406782183E+01 -0.12449468131E+02  0.31886087791E+02  0.00000000000E+00 0. -1.
         11    1    3    3    0    0 -0.18003901987E+02  0.49284830198E+01 -0.41771460660E+01  0.19127963330E+02  0.51100000000E-03 0. -1.
        -11    1    3    3    0    0 -0.19345257856E+01  0.17572454078E+02  0.39851593554E+01  0.18122224690E+02  0.51100000000E-03 0.  1.
         12    1    3    3    0    0 -0.86558851348E+01 -0.15860258880E+02  0.12641454842E+02  0.22051724189E+02  0.00000000000E+00 0. -1.
</event>
<event>
 7    1  0.5837204E-012  0.5930196E+02  0.7816164E-02  0.1266605E+00
        -11   -1    0    0    0    0  0.00000000000E+00  0.00000000000E+00  0.45593999997E+02  0.45594000000E+02  0.51100000000E-03 0. -1.
         11   -1    0    0    0    0 -0.00000000000E+00 -0.00000000000E+00 -0.45593999997E+02  0.45594000000E+02  0.51100000000E-03 0.  1.
    9900012    2    1    2    0    0  0.14275620599E+02 -0.96798787102E+01 -0.26818391282E+02  0.59301960637E+02  0.50000030292E+02 0.  0.
         12    1    1    2    0    0 -0.14275620599E+02  0.96798787102E+01  0.26818391282E+02  0.31886039363E+02  0.00000000000E+00 0. -1.
         11    1    3    3    0    0 -0.37272569610E+01  0.27512170740E+01 -0.31630076231E-01  0.46327789246E+01  0.51100000000E-03 0. -1.
        -11    1    3    3    0    0  0.10110352338E+02  0.15150480521E+02 -0.57708846922E+01  0.19106527544E+02  0.51100000000E-03 0.  1.
        -12    1    3    3    0    0  0.78925252219E+01 -0.27581576305E+02 -0.21015876513E+02  0.35562654168E+02  0.00000000000E+00 0.  1.
</event>
<event>
 7    1  0.5837204E-012  0.5930200E+02  0.7816164E-02  0.1266605E+00
        -11   -1    0    0    0    0  0.00000000000E+00  0.00000000000E+00  0.45593999997E+02  0.45594000000E+02  0.51100000000E-03 0. -1.
         11   -1    0    0    0    0 -0.00000000000E+00 -0.00000000000E+00 -0.45593999997E+02  0.45594000000E+02  0.51100000000E-03 0.  1.
    9900012    2    1    2    0    0  0.23584857501E+02  0.34096184543E+01 -0.21185984233E+02  0.59302001047E+02  0.50000103989E+02 0.  0.
         12    1    1    2    0    0 -0.23584857501E+02 -0.34096184543E+01  0.21185984233E+02  0.31885998953E+02  0.00000000000E+00 0. -1.
         11    1    3    3    0    0  0.18682486644E+02  0.56531971713E+01 -0.72780123012E+01  0.20831788420E+02  0.51100000000E-03 0. -1.
        -11    1    3    3    0    0  0.11336380884E+02  0.13729623256E+02 -0.11209602664E+02  0.21039754715E+02  0.51100000000E-03 0.  1.
        -12    1    3    3    0    0 -0.64340100273E+01 -0.15973201973E+02 -0.26983692672E+01  0.17430457912E+02  0.00000000000E+00 0.  1.
</event>
<event>
 7    1  0.5837204E-012  0.5930193E+02  0.7816164E-02  0.1266605E+00
        -11   -1    0    0    0    0  0.00000000000E+00  0.00000000000E+00  0.45593999997E+02  0.45594000000E+02  0.51100000000E-03 0. -1.
         11   -1    0    0    0    0 -0.00000000000E+00 -0.00000000000E+00 -0.45593999997E+02  0.45594000000E+02  0.51100000000E-03 0.  1.
    9900012    2    1    2    0    0 -0.19165349066E+02 -0.14764812395E+02  0.20770434569E+02  0.59301933417E+02  0.49999980649E+02 0.  0.
         12    1    1    2    0    0  0.19165349066E+02  0.14764812395E+02 -0.20770434569E+02  0.31886066583E+02  0.00000000000E+00 0. -1.
         11    1    3    3    0    0 -0.39158668657E+01 -0.11948633868E+02 -0.63429106805E+01  0.14083194978E+02  0.51100000000E-03 0. -1.
        -11    1    3    3    0    0  0.29619345714E+01  0.97294354572E+00 -0.62702459784E+01  0.70025467109E+01  0.51100000000E-03 0.  1.
         12    1    3    3    0    0 -0.18211416772E+02 -0.37891220730E+01  0.33383591228E+02  0.38216191729E+02  0.00000000000E+00 0. -1.
</event>
<event>
 7    1  0.5837204E-012  0.5930196E+02  0.7816164E-02  0.1266605E+00
        -11   -1    0    0    0    0  0.00000000000E+00  0.00000000000E+00  0.45593999997E+02  0.45594000000E+02  0.51100000000E-03 0. -1.
         11   -1    0    0    0    0 -0.00000000000E+00 -0.00000000000E+00 -0.45593999997E+02  0.45594000000E+02  0.51100000000E-03 0.  1.
    9900012    2    1    2    0    0  0.23627989239E+02  0.14333541609E+02 -0.15905576509E+02  0.59301958310E+02  0.50000026047E+02 0.  0.
         12    1    1    2    0    0 -0.23627989239E+02 -0.14333541609E+02  0.15905576509E+02  0.31886041690E+02  0.00000000000E+00 0. -1.
         11    1    3    3    0    0  0.18579034427E+02  0.23617815916E+02 -0.36067205100E+01  0.30265329702E+02  0.51100000000E-03 0. -1.
        -11    1    3    3    0    0  0.13217829694E+02  0.67857826656E+00 -0.79469971795E+01  0.15437818976E+02  0.51100000000E-03 0.  1.
         12    1    3    3    0    0 -0.81688748820E+01 -0.99628525728E+01 -0.43518588200E+01  0.13598809632E+02  0.00000000000E+00 0. -1.
</event>
<event>
 7    1  0.5837204E-012  0.5930196E+02  0.7816164E-02  0.1266605E+00
        -11   -1    0    0    0    0  0.00000000000E+00  0.00000000000E+00  0.45593999997E+02  0.45594000000E+02  0.51100000000E-03 0.  1.
         11   -1    0    0    0    0 -0.00000000000E+00 -0.00000000000E+00 -0.45593999997E+02  0.45594000000E+02  0.51100000000E-03 0. -1.
    9900012    2    1    2    0    0 -0.16448421066E+02 -0.80238967015E+01 -0.26111036902E+02  0.59301957255E+02  0.50000024123E+02 0.  0.
         12    1    1    2    0    0  0.16448421066E+02  0.80238967015E+01  0.26111036902E+02  0.31886042745E+02  0.00000000000E+00 0. -1.
         11    1    3    3    0    0  0.68078998336E+00  0.11704522972E+01 -0.32523264752E+02  0.32551439046E+02  0.51100000000E-03 0. -1.
        -11    1    3    3    0    0 -0.16391807255E+02 -0.17011259737E+01 -0.55913844214E+00  0.16489324143E+02  0.51100000000E-03 0.  1.
        -12    1    3    3    0    0 -0.73740379464E+00 -0.74932230249E+01  0.69713662922E+01  0.10261194065E+02  0.00000000000E+00 0.  1.
</event>
<event>
 7    1  0.5837204E-012  0.5930195E+02  0.7816164E-02  0.1266605E+00
        -11   -1    0    0    0    0  0.00000000000E+00  0.00000000000E+00  0.45593999997E+02  0.45594000000E+02  0.51100000000E-03 0.  1.
         11   -1    0    0    0    0 -0.00000000000E+00 -0.00000000000E+00 -0.45593999997E+02  0.45594000000E+02  0.51100000000E-03 0. -1.
    9900012    2    1    2    0    0 -0.22923813081E+01  0.17311314291E+02  0.26679273261E+02  0.59301949189E+02  0.50000009413E+02 0.  0.
         12    1    1    2    0    0  0.22923813081E+01 -0.17311314291E+02 -0.26679273261E+02  0.31886050811E+02  0.00000000000E+00 0. -1.
         11    1    3    3    0    0 -0.41258542137E+01 -0.94612114888E+01  0.42535633342E+01  0.11163780593E+02  0.51100000000E-03 0. -1.
        -11    1    3    3    0    0  0.66214483021E+01  0.87473316715E+01  0.26820108168E+02  0.28977190882E+02  0.51100000000E-03 0.  1.
        -12    1    3    3    0    0 -0.47879753965E+01  0.18025194109E+02 -0.43943982415E+01  0.19160977714E+02  0.00000000000E+00 0.  1.
</event>
<event>
 7    1  0.5837204E-012  0.5930193E+02  0.7816164E-02  0.1266605E+00
        -11   -1    0    0    0    0  0.00000000000E+00  0.00000000000E+00  0.45593999997E+02  0.45594000000E+02  0.51100000000E-03 0. -1.
         11   -1    0    0    0    0 -0.00000000000E+00 -0.00000000000E+00 -0.45593999997E+02  0.45594000000E+02  0.51100000000E-03 0.  1.
    9900012    2    1    2    0    0 -0.11848213074E+02 -0.10885363309E+02 -0.27529083772E+02  0.59301925599E+02  0.49999966390E+02 0.  0.
         12    1    1    2    0    0  0.11848213074E+02  0.10885363309E+02  0.27529083772E+02  0.31886074401E+02  0.00000000000E+00 0. -1.
         11    1    3    3    0    0 -0.68187543553E+01  0.21361107197E+00  0.40947986278E+00  0.68343774162E+01  0.51100000000E-03 0. -1.
        -11    1    3    3    0    0 -0.21212052673E+02 -0.12796616397E+02 -0.26273853255E+02  0.36111216193E+02  0.51100000000E-03 0.  1.
         12    1    3    3    0    0  0.16182593954E+02  0.16976420163E+01 -0.16647103803E+01  0.16356331990E+02  0.00000000000E+00 0. -1.
</event>
<event>
 7    1  0.5837204E-012  0.5930211E+02  0.7816164E-02  0.1266604E+00
        -11   -1    0    0    0    0  0.00000000000E+00  0.00000000000E+00  0.45593999997E+02  0.45594000000E+02  0.51100000000E-03 0. -1.
         11   -1    0    0    0    0 -0.00000000000E+00 -0.00000000000E+00 -0.45593999997E+02  0.45594000000E+02  0.51100000000E-03 0.  1.
    9900012    2    1    2    0    0 -0.20381465971E+02 -0.23756226538E+02 -0.60784612696E+01  0.59302107417E+02  0.50000297982E+02 0.  0.
         12    1    1    2    0    0  0.20381465971E+02  0.23756226538E+02  0.60784612696E+01  0.31885892583E+02  0.00000000000E+00 0. -1.
         11    1    3    3    0    0  0.24394502910E+00 -0.68635263611E+01 -0.15367423391E+02  0.16832266788E+02  0.51100000000E-03 0.  1.
        -11    1    3    3    0    0  0.55778405059E+01 -0.69125350833E-01  0.98565505938E+01  0.11325576051E+02  0.51100000000E-03 0. -1.
        -12    1    3    3    0    0 -0.26203251505E+02 -0.16823574826E+02 -0.56758847197E+00  0.31144264577E+02  0.00000000000E+00 0.  1.
</event>
<event>
 7    1  0.5837204E-012  0.5930195E+02  0.7816164E-02  0.1266605E+00
        -11   -1    0    0    0    0  0.00000000000E+00  0.00000000000E+00  0.45593999997E+02  0.45594000000E+02  0.51100000000E-03 0.  1.
         11   -1    0    0    0    0 -0.00000000000E+00 -0.00000000000E+00 -0.45593999997E+02  0.45594000000E+02  0.51100000000E-03 0. -1.
    9900012    2    1    2    0    0 -0.14920349537E+02 -0.20141793696E+02  0.19708164448E+02  0.59301946160E+02  0.50000003888E+02 0.  0.
         12    1    1    2    0    0  0.14920349537E+02  0.20141793696E+02 -0.19708164448E+02  0.31886053840E+02  0.00000000000E+00 0. -1.
         11    1    3    3    0    0 -0.15211603043E+02 -0.17949102032E+01  0.21685079467E+02  0.26549147661E+02  0.51100000000E-03 0. -1.
        -11    1    3    3    0    0  0.10854033881E+01  0.11996667905E+01  0.97907512901E+01  0.99235130881E+01  0.51100000000E-03 0.  1.
         12    1    3    3    0    0 -0.79414988210E+00 -0.19546550284E+02 -0.11767666309E+02  0.22829285411E+02  0.00000000000E+00 0. -1.
</event>
<event>
 7    1  0.5837204E-012  0.5930192E+02  0.7816164E-02  0.1266605E+00
        -11   -1    0    0    0    0  0.00000000000E+00  0.00000000000E+00  0.45593999997E+02  0.45594000000E+02  0.51100000000E-03 0.  1.
         11   -1    0    0    0    0 -0.00000000000E+00 -0.00000000000E+00 -0.45593999997E+02  0.45594000000E+02  0.51100000000E-03 0. -1.
    9900012    2    1    2    0    0  0.13572371566E+02 -0.23496786426E+02  0.16745563300E+02  0.59301919455E+02  0.49999955186E+02 0.  0.
         12    1    1    2    0    0 -0.13572371566E+02  0.23496786426E+02 -0.16745563300E+02  0.31886080545E+02  0.00000000000E+00 0. -1.
         11    1    3    3    0    0  0.98925826407E+01 -0.63639235758E+00  0.59027149413E+01  0.11537340702E+02  0.51100000000E-03 0. -1.
        -11    1    3    3    0    0  0.21435560160E+02 -0.11246405671E+02  0.10900281161E+02  0.26547711945E+02  0.51100000000E-03 0.  1.
         12    1    3    3    0    0 -0.17755771234E+02 -0.11613988398E+02 -0.57432803018E-01  0.21216866808E+02  0.00000000000E+00 0. -1.
</event>
<event>
 7    1  0.5837204E-012  0.5930191E+02  0.7816164E-02  0.1266605E+00
        -11   -1    0    0    0    0  0.00000000000E+00  0.00000000000E+00  0.45593999997E+02  0.45594000000E+02  0.51100000000E-03 0.  1.
         11   -1    0    0    0    0 -0.00000000000E+00 -0.00000000000E+00 -0.45593999997E+02  0.45594000000E+02  0.51100000000E-03 0. -1.
    9900012    2    1    2    0    0 -0.18916413012E+02 -0.18845685080E+02 -0.17427921046E+02  0.59301906490E+02  0.49999931539E+02 0.  0.
         12    1    1    2    0    0  0.18916413012E+02  0.18845685080E+02  0.17427921046E+02  0.31886093510E+02  0.00000000000E+00 0. -1.
         11    1    3    3    0    0 -0.10760552186E+01  0.55860522615E+01 -0.10666419572E+02  0.12088605439E+02  0.51100000000E-03 0. -1.
        -11    1    3    3    0    0  0.69256042121E+01  0.47789798625E+01 -0.16904585889E+01  0.85825574703E+01  0.51100000000E-03 0.  1.
        -12    1    3    3    0    0 -0.24765962006E+02 -0.29210717204E+02 -0.50710428845E+01  0.38630743580E+02  0.00000000000E+00 0.  1.
</event>
<event>
 7    1  0.5837204E-012  0.5930194E+02  0.7816164E-02  0.1266605E+00
        -11   -1    0    0    0    0  0.00000000000E+00  0.00000000000E+00  0.45593999997E+02  0.45594000000E+02  0.51100000000E-03 0.  1.
         11   -1    0    0    0    0 -0.00000000000E+00 -0.00000000000E+00 -0.45593999997E+02  0.45594000000E+02  0.51100000000E-03 0. -1.
    9900012    2    1    2    0    0  0.17226669293E+02  0.26777605952E+02 -0.17095140596E+01  0.59301941075E+02  0.49999994615E+02 0.  0.
         12    1    1    2    0    0 -0.17226669293E+02 -0.26777605952E+02  0.17095140596E+01  0.31886058925E+02  0.00000000000E+00 0. -1.
         11    1    3    3    0    0  0.13990868718E+02  0.16667784234E+02 -0.16036897416E+02  0.27032231091E+02  0.51100000000E-03 0. -1.
        -11    1    3    3    0    0  0.81820112190E+01  0.13017135349E+02 -0.14869875890E+01  0.15446755408E+02  0.51100000000E-03 0.  1.
         12    1    3    3    0    0 -0.49462106432E+01 -0.29073136315E+01  0.15814370945E+02  0.16822954576E+02  0.00000000000E+00 0. -1.
</event>
<event>
 7    1  0.5837204E-012  0.5930200E+02  0.7816164E-02  0.1266605E+00
        -11   -1    0    0    0    0  0.00000000000E+00  0.00000000000E+00  0.45593999997E+02  0.45594000000E+02  0.51100000000E-03 0.  1.
         11   -1    0    0    0    0 -0.00000000000E+00 -0.00000000000E+00 -0.45593999997E+02  0.45594000000E+02  0.51100000000E-03 0. -1.
    9900012    2    1    2    0    0 -0.52503231107E+01  0.28629427598E+02  0.13019483267E+02  0.59302000535E+02  0.50000103055E+02 0.  0.
         12    1    1    2    0    0  0.52503231107E+01 -0.28629427598E+02 -0.13019483267E+02  0.31885999465E+02  0.00000000000E+00 0. -1.
         11    1    3    3    0    0 -0.48347667505E+01 -0.53414537216E+01  0.85408875794E+01  0.11173757573E+02  0.51100000000E-03 0. -1.
        -11    1    3    3    0    0 -0.52690034010E+01  0.43572091691E+01 -0.12060379669E+02  0.13863636846E+02  0.51100000000E-03 0.  1.
        -12    1    3    3    0    0  0.48534470408E+01  0.29613672151E+02  0.16538975357E+02  0.34264606116E+02  0.00000000000E+00 0.  1.
</event>
<event>
 7    1  0.5837204E-012  0.5930190E+02  0.7816164E-02  0.1266605E+00
        -11   -1    0    0    0    0  0.00000000000E+00  0.00000000000E+00  0.45593999997E+02  0.45594000000E+02  0.51100000000E-03 0.  1.
         11   -1    0    0    0    0 -0.00000000000E+00 -0.00000000000E+00 -0.45593999997E+02  0.45594000000E+02  0.51100000000E-03 0. -1.
    9900012    2    1    2    0    0 -0.93032383384E+00  0.27518401933E+02  0.16080902777E+02  0.59301899870E+02  0.49999919466E+02 0.  0.
         12    1    1    2    0    0  0.93032383384E+00 -0.27518401933E+02 -0.16080902777E+02  0.31886100130E+02  0.00000000000E+00 0. -1.
         11    1    3    3    0    0 -0.81162756839E+01  0.50163098798E+01  0.22951385111E+02  0.24855650757E+02  0.51100000000E-03 0. -1.
        -11    1    3    3    0    0  0.59653421536E+01  0.10860113623E+02  0.85733163476E+01  0.15067485801E+02  0.51100000000E-03 0.  1.
         12    1    3    3    0    0  0.12206096964E+01  0.11641978431E+02 -0.15443798681E+02  0.19378763312E+02  0.00000000000E+00 0. -1.
</event>
<event>
 7    1  0.5837204E-012  0.5930194E+02  0.7816164E-02  0.1266605E+00
        -11   -1    0    0    0    0  0.00000000000E+00  0.00000000000E+00  0.45593999997E+02  0.45594000000E+02  0.51100000000E-03 0. -1.
         11   -1    0    0    0    0 -0.00000000000E+00 -0.00000000000E+00 -0.45593999997E+02  0.45594000000E+02  0.51100000000E-03 0.  1.
    9900012    2    1    2    0    0  0.87887871668E+01 -0.22292174665E+02 -0.21036569244E+02  0.59301936011E+02  0.49999985379E+02 0.  0.
         12    1    1    2    0    0 -0.87887871668E+01  0.22292174665E+02  0.21036569244E+02  0.31886063989E+02  0.00000000000E+00 0. -1.
         11    1    3    3    0    0 -0.19640962699E+00  0.85402557721E+01 -0.54612390471E+00  0.85599530942E+01  0.51100000000E-03 0. -1.
        -11    1    3    3    0    0 -0.10029066587E+02 -0.20404942519E+02 -0.31046940445E+01  0.22947395956E+02  0.51100000000E-03 0.  1.
         12    1    3    3    0    0  0.19014263381E+02 -0.10427487918E+02 -0.17385751295E+02  0.27794586960E+02  0.00000000000E+00 0. -1.
</event>
<event>
 7    1  0.5837204E-012  0.5930195E+02  0.7816164E-02  0.1266605E+00
        -11   -1    0    0    0    0  0.00000000000E+00  0.00000000000E+00  0.45593999997E+02  0.45594000000E+02  0.51100000000E-03 0. -1.
         11   -1    0    0    0    0 -0.00000000000E+00 -0.00000000000E+00 -0.45593999997E+02  0.45594000000E+02  0.51100000000E-03 0.  1.
    9900012    2    1    2    0    0  0.76924520925E+00  0.24959428995E+02  0.19828149620E+02  0.59301947386E+02  0.50000006125E+02 0.  0.
         12    1    1    2    0    0 -0.76924520925E+00 -0.24959428995E+02 -0.19828149620E+02  0.31886052614E+02  0.00000000000E+00 0. -1.
         11    1    3    3    0    0 -0.10889133613E+02  0.97726641671E+01 -0.62174724175E+01  0.15897646344E+02  0.51100000000E-03 0. -1.
        -11    1    3    3    0    0  0.13443145513E+02  0.22574823681E+02  0.15841246761E+02  0.30680383386E+02  0.51100000000E-03 0.  1.
         12    1    3    3    0    0 -0.17847666908E+01 -0.73880588527E+01  0.10204375276E+02  0.12723917656E+02  0.00000000000E+00 0. -1.
</event>
<event>
 7    1  0.5837204E-012  0.5930194E+02  0.7816164E-02  0.1266605E+00
        -11   -1    0    0    0    0  0.00000000000E+00  0.00000000000E+00  0.45593999997E+02  0.45594000000E+02  0.51100000000E-03 0. -1.
         11   -1    0    0    0    0 -0.00000000000E+00 -0.00000000000E+00 -0.45593999997E+02  0.45594000000E+02  0.51100000000E-03 0.  1.
    9900012    2    1    2    0    0 -0.72954399783E+01 -0.30501147579E+02 -0.57599607153E+01  0.59301943556E+02  0.49999999140E+02 0.  0.
         12    1    1    2    0    0  0.72954399783E+01  0.30501147579E+02  0.57599607153E+01  0.31886056444E+02  0.00000000000E+00 0. -1.
         11    1    3    3    0    0 -0.10877875226E+02 -0.15097168128E+02  0.62435376381E+01  0.19627389471E+02  0.51100000000E-03 0. -1.
        -11    1    3    3    0    0 -0.17360710162E+01 -0.18168799190E+02 -0.21650344466E+02  0.28317072983E+02  0.51100000000E-03 0.  1.
         12    1    3    3    0    0  0.53185062638E+01  0.27648197399E+01  0.96468461125E+01  0.11357481102E+02  0.00000000000E+00 0. -1.
</event>
<event>
 7    1  0.5837204E-012  0.5930201E+02  0.7816164E-02  0.1266605E+00
        -11   -1    0    0    0    0  0.00000000000E+00  0.00000000000E+00  0.45593999997E+02  0.45594000000E+02  0.51100000000E-03 0.  1.
         11   -1    0    0    0    0 -0.00000000000E+00 -0.00000000000E+00 -0.45593999997E+02  0.45594000000E+02  0.51100000000E-03 0. -1.
    9900012    2    1    2    0    0  0.13740184793E+02  0.25327108309E+02 -0.13655075540E+02  0.59302012773E+02  0.50000125375E+02 0.  0.
         12    1    1    2    0    0 -0.13740184793E+02 -0.25327108309E+02  0.13655075540E+02  0.31885987227E+02  0.00000000000E+00 0. -1.
         11    1    3    3    0    0  0.32832555275E+01 -0.17625147375E+01  0.10004643732E+02  0.10676100483E+02  0.51100000000E-03 0. -1.
        -11    1    3    3    0    0  0.16763228540E+02  0.28726291551E+02 -0.12167697072E+02  0.35415512274E+02  0.51100000000E-03 0.  1.
         12    1    3    3    0    0 -0.63062992747E+01 -0.16366685044E+01 -0.11492022200E+02  0.13210400016E+02  0.00000000000E+00 0. -1.
</event>
<event>
 7    1  0.5837204E-012  0.5930194E+02  0.7816164E-02  0.1266605E+00
        -11   -1    0    0    0    0  0.00000000000E+00  0.00000000000E+00  0.45593999997E+02  0.45594000000E+02  0.51100000000E-03 0.  1.
         11   -1    0    0    0    0 -0.00000000000E+00 -0.00000000000E+00 -0.45593999997E+02  0.45594000000E+02  0.51100000000E-03 0. -1.
    9900012    2    1    2    0    0 -0.26128956966E+02  0.16388115470E+01  0.18201999871E+02  0.59301938865E+02  0.49999990585E+02 0.  0.
         12    1    1    2    0    0  0.26128956966E+02 -0.16388115470E+01 -0.18201999871E+02  0.31886061135E+02  0.00000000000E+00 0. -1.
         11    1    3    3    0    0  0.11188654027E+02  0.52172646419E+01  0.94272903743E+01  0.15533178469E+02  0.51100000000E-03 0. -1.
        -11    1    3    3    0    0 -0.34805971746E+01  0.29521737197E+01  0.81039746543E+01  0.93007683458E+01  0.51100000000E-03 0.  1.
        -12    1    3    3    0    0 -0.33837013819E+02 -0.65306268145E+01  0.67073484210E+00  0.34467992050E+02  0.00000000000E+00 0.  1.
</event>
<event>
 7    1  0.5837204E-012  0.5930194E+02  0.7816164E-02  0.1266605E+00
        -11   -1    0    0    0    0  0.00000000000E+00  0.00000000000E+00  0.45593999997E+02  0.45594000000E+02  0.51100000000E-03 0. -1.
         11   -1    0    0    0    0 -0.00000000000E+00 -0.00000000000E+00 -0.45593999997E+02  0.45594000000E+02  0.51100000000E-03 0.  1.
    9900012    2    1    2    0    0  0.85912203105E+01 -0.15362872974E+02 -0.26587472107E+02  0.59301943401E+02  0.49999998856E+02 0.  0.
         12    1    1    2    0    0 -0.85912203105E+01  0.15362872974E+02  0.26587472107E+02  0.31886056599E+02  0.00000000000E+00 0. -1.
         11    1    3    3    0    0  0.20063778866E+01 -0.13792490985E+02 -0.82449126288E+00  0.13962025136E+02  0.51100000000E-03 0. -1.
        -11    1    3    3    0    0 -0.68467059200E+01  0.10734888240E+02 -0.23834291570E+02  0.27022003300E+02  0.51100000000E-03 0.  1.
         12    1    3    3    0    0  0.13431548344E+02 -0.12305270228E+02 -0.19286892740E+01  0.18317914964E+02  0.00000000000E+00 0. -1.
</event>
<event>
 7    1  0.5837204E-012  0.5930195E+02  0.7816164E-02  0.1266605E+00
        -11   -1    0    0    0    0  0.00000000000E+00  0.00000000000E+00  0.45593999997E+02  0.45594000000E+02  0.51100000000E-03 0.  1.
         11   -1    0    0    0    0 -0.00000000000E+00 -0.00000000000E+00 -0.45593999997E+02  0.45594000000E+02  0.51100000000E-03 0. -1.
    9900012    2    1    2    0    0  0.13927559948E+02  0.28683016647E+02 -0.16712357594E+00  0.59301948185E+02  0.50000007581E+02 0.  0.
         12    1    1    2    0    0 -0.13927559948E+02 -0.28683016647E+02  0.16712357594E+00  0.31886051815E+02  0.00000000000E+00 0. -1.
         11    1    3    3    0    0 -0.54377800570E+01  0.12057193354E+02 -0.31485604988E+00  0.13230438319E+02  0.51100000000E-03 0. -1.
        -11    1    3    3    0    0 -0.20156545493E+00  0.20180938350E+02  0.11443161642E+02  0.23200363143E+02  0.51100000000E-03 0.  1.
         12    1    3    3    0    0  0.19566905459E+02 -0.35551150567E+01 -0.11295429168E+02  0.22871146723E+02  0.00000000000E+00 0. -1.
</event>
<event>
 7    1  0.5837204E-012  0.5930198E+02  0.7816164E-02  0.1266605E+00
        -11   -1    0    0    0    0  0.00000000000E+00  0.00000000000E+00  0.45593999997E+02  0.45594000000E+02  0.51100000000E-03 0.  1.
         11   -1    0    0    0    0 -0.00000000000E+00 -0.00000000000E+00 -0.45593999997E+02  0.45594000000E+02  0.51100000000E-03 0. -1.
    9900012    2    1    2    0    0 -0.88082837984E+01  0.77571928011E+00  0.30635447379E+02  0.59301980493E+02  0.50000066504E+02 0.  0.
         12    1    1    2    0    0  0.88082837984E+01 -0.77571928011E+00 -0.30635447379E+02  0.31886019507E+02  0.00000000000E+00 0. -1.
         11    1    3    3    0    0  0.12841492507E-01 -0.40899097639E+01 -0.94495142730E+01  0.10296642513E+02  0.51100000000E-03 0. -1.
        -11    1    3    3    0    0 -0.41365437434E+01  0.10729659942E+02  0.40418422187E+01  0.12189055968E+02  0.51100000000E-03 0.  1.
        -12    1    3    3    0    0 -0.46845815476E+01 -0.58640308983E+01  0.36043119434E+02  0.36816282012E+02  0.00000000000E+00 0.  1.
</event>
<event>
 7    1  0.5837204E-012  0.5930192E+02  0.7816164E-02  0.1266605E+00
        -11   -1    0    0    0    0  0.00000000000E+00  0.00000000000E+00  0.45593999997E+02  0.45594000000E+02  0.51100000000E-03 0.  1.
         11   -1    0    0    0    0 -0.00000000000E+00 -0.00000000000E+00 -0.45593999997E+02  0.45594000000E+02  0.51100000000E-03 0. -1.
    9900012    2    1    2    0    0  0.23816997638E+02 -0.14835326611E+02  0.15145489190E+02  0.59301919417E+02  0.49999955115E+02 0.  0.
         12    1    1    2    0    0 -0.23816997638E+02  0.14835326611E+02 -0.15145489190E+02  0.31886080583E+02  0.00000000000E+00 0. -1.
         11    1    3    3    0    0  0.13291475080E+02  0.13271013158E+02 -0.12705466755E+01  0.18825445258E+02  0.51100000000E-03 0. -1.
        -11    1    3    3    0    0  0.12083991570E+02 -0.10425098885E+02 -0.48559060142E+00  0.15966882523E+02  0.51100000000E-03 0.  1.
        -12    1    3    3    0    0 -0.15584690118E+01 -0.17681240885E+02  0.16901626467E+02  0.24509591635E+02  0.00000000000E+00 0.  1.
</event>
<event>
 7    1  0.5837204E-012  0.5930177E+02  0.7816164E-02  0.1266605E+00
        -11   -1    0    0    0    0  0.00000000000E+00  0.00000000000E+00  0.45593999997E+02  0.45594000000E+02  0.51100000000E-03 0. -1.
         11   -1    0    0    0    0 -0.00000000000E+00 -0.00000000000E+00 -0.45593999997E+02  0.45594000000E+02  0.51100000000E-03 0.  1.
    9900012    2    1    2    0    0  0.29120744958E+02 -0.83908488140E+01  0.99150053395E+01  0.59301773167E+02  0.49999688390E+02 0.  0.
         12    1    1    2    0    0 -0.29120744958E+02  0.83908488140E+01 -0.99150053395E+01  0.31886226833E+02  0.00000000000E+00 0. -1.
         11    1    3    3    0    0  0.11120882682E+02 -0.16947334104E+02  0.30686809490E+01  0.20501291859E+02  0.51100000000E-03 0. -1.
        -11    1    3    3    0    0  0.23672034922E+02 -0.26760598837E+01  0.99861944819E+01  0.25831194597E+02  0.51100000000E-03 0.  1.
         12    1    3    3    0    0 -0.56721726455E+01  0.11232545174E+02 -0.31398700914E+01  0.12969286711E+02  0.00000000000E+00 0. -1.
</event>
<event>
 7    1  0.5837204E-012  0.5930209E+02  0.7816164E-02  0.1266604E+00
        -11   -1    0    0    0    0  0.00000000000E+00  0.00000000000E+00  0.45593999997E+02  0.45594000000E+02  0.51100000000E-03 0. -1.
         11   -1    0    0    0    0 -0.00000000000E+00 -0.00000000000E+00 -0.45593999997E+02  0.45594000000E+02  0.51100000000E-03 0.  1.
    9900012    2    1    2    0    0 -0.21644150917E+01  0.20489477309E+02 -0.24335324263E+02  0.59302088063E+02  0.50000262686E+02 0.  0.
         12    1    1    2    0    0  0.21644150917E+01 -0.20489477309E+02  0.24335324263E+02  0.31885911937E+02  0.00000000000E+00 0. -1.
         11    1    3    3    0    0 -0.70282046927E+01  0.12547275445E+01  0.74782883776E+01  0.10338994135E+02  0.51100000000E-03 0. -1.
        -11    1    3    3    0    0 -0.20915111325E+01  0.24726373543E+02 -0.12657458826E+02  0.27856403781E+02  0.51100000000E-03 0.  1.
        -12    1    3    3    0    0  0.69553007335E+01 -0.54916237788E+01 -0.19156153814E+02  0.21106690147E+02  0.00000000000E+00 0.  1.
</event>
<event>
 7    1  0.5837204E-012  0.5930197E+02  0.7816164E-02  0.1266605E+00
        -11   -1    0    0    0    0  0.00000000000E+00  0.00000000000E+00  0.45593999997E+02  0.45594000000E+02  0.51100000000E-03 0.  1.
         11   -1    0    0    0    0 -0.00000000000E+00 -0.00000000000E+00 -0.45593999997E+02  0.45594000000E+02  0.51100000000E-03 0. -1.
    9900012    2    1    2    0    0  0.68905840164E+01 -0.10416596946E+02  0.29338251827E+02  0.59301973903E+02  0.50000054485E+02 0.  0.
         12    1    1    2    0    0 -0.68905840164E+01  0.10416596946E+02 -0.29338251827E+02  0.31886026097E+02  0.00000000000E+00 0. -1.
         11    1    3    3    0    0  0.10693870176E+01 -0.34643480094E+01  0.20342135153E+02  0.20662714211E+02  0.51100000000E-03 0. -1.
        -11    1    3    3    0    0  0.93009659643E+01  0.11194728586E+02  0.13245583148E+02  0.19679313738E+02  0.51100000000E-03 0.  1.
         12    1    3    3    0    0 -0.34797689656E+01 -0.18146977523E+02 -0.42494664744E+01  0.18959945954E+02  0.00000000000E+00 0. -1.
</event>
<event>
 7    1  0.5837204E-012  0.5930195E+02  0.7816164E-02  0.1266605E+00
        -11   -1    0    0    0    0  0.00000000000E+00  0.00000000000E+00  0.45593999997E+02  0.45594000000E+02  0.51100000000E-03 0.  1.
         11   -1    0    0    0    0 -0.00000000000E+00 -0.00000000000E+00 -0.45593999997E+02  0.45594000000E+02  0.51100000000E-03 0. -1.
    9900012    2    1    2    0    0 -0.14566269937E+02  0.22544513392E+02  0.17213036823E+02  0.59301953826E+02  0.50000017869E+02 0.  0.
         12    1    1    2    0    0  0.14566269937E+02 -0.22544513392E+02 -0.17213036823E+02  0.31886046174E+02  0.00000000000E+00 0. -1.
         11    1    3    3    0    0 -0.21255039225E+02  0.18838140725E+01  0.15711443166E+02  0.26498582878E+02  0.51100000000E-03 0.  1.
        -11    1    3    3    0    0  0.47878359746E+01  0.23890079687E+02  0.77063816234E+01  0.25554796003E+02  0.51100000000E-03 0. -1.
         12    1    3    3    0    0  0.19009333137E+01 -0.32293803676E+01 -0.62047879663E+01  0.72485749447E+01  0.00000000000E+00 0. -1.
</event>
<event>
 7    1  0.5837204E-012  0.5930192E+02  0.7816164E-02  0.1266605E+00
        -11   -1    0    0    0    0  0.00000000000E+00  0.00000000000E+00  0.45593999997E+02  0.45594000000E+02  0.51100000000E-03 0.  1.
         11   -1    0    0    0    0 -0.00000000000E+00 -0.00000000000E+00 -0.45593999997E+02  0.45594000000E+02  0.51100000000E-03 0. -1.
    9900012    2    1    2    0    0  0.22635922433E+02 -0.13749028997E+02  0.17756727511E+02  0.59301919108E+02  0.49999954553E+02 0.  0.
         12    1    1    2    0    0 -0.22635922433E+02  0.13749028997E+02 -0.17756727511E+02  0.31886080892E+02  0.00000000000E+00 0. -1.
         11    1    3    3    0    0  0.46865610021E+01  0.11951946571E+02 -0.31106392505E+01  0.13209426849E+02  0.51100000000E-03 0. -1.
        -11    1    3    3    0    0  0.78376693176E+01  0.27626141942E+01  0.12027523507E+02  0.14619248253E+02  0.51100000000E-03 0.  1.
        -12    1    3    3    0    0  0.10111692113E+02 -0.28463589762E+02  0.88398432546E+01  0.31473244007E+02  0.00000000000E+00 0.  1.
</event>
<event>
 7    1  0.5837204E-012  0.5930192E+02  0.7816164E-02  0.1266605E+00
        -11   -1    0    0    0    0  0.00000000000E+00  0.00000000000E+00  0.45593999997E+02  0.45594000000E+02  0.51100000000E-03 0.  1.
         11   -1    0    0    0    0 -0.00000000000E+00 -0.00000000000E+00 -0.45593999997E+02  0.45594000000E+02  0.51100000000E-03 0. -1.
    9900012    2    1    2    0    0 -0.17386008612E+01  0.20058832281E+02  0.24725347171E+02  0.59301917171E+02  0.49999951020E+02 0.  0.
         12    1    1    2    0    0  0.17386008612E+01 -0.20058832281E+02 -0.24725347171E+02  0.31886082829E+02  0.00000000000E+00 0. -1.
         11    1    3    3    0    0 -0.13874368992E+00  0.89046844274E+01  0.10110275561E+02  0.13473319070E+02  0.51100000000E-03 0. -1.
        -11    1    3    3    0    0  0.23143755584E+01 -0.13830977824E+02  0.15002174113E+02  0.20535761738E+02  0.51100000000E-03 0.  1.
         12    1    3    3    0    0 -0.39142327297E+01  0.24985125677E+02 -0.38710250266E+00  0.25292836364E+02  0.00000000000E+00 0. -1.
</event>
<event>
 7    1  0.5837204E-012  0.5930189E+02  0.7816164E-02  0.1266605E+00
        -11   -1    0    0    0    0  0.00000000000E+00  0.00000000000E+00  0.45593999997E+02  0.45594000000E+02  0.51100000000E-03 0.  1.
         11   -1    0    0    0    0 -0.00000000000E+00 -0.00000000000E+00 -0.45593999997E+02  0.45594000000E+02  0.51100000000E-03 0. -1.
    9900012    2    1    2    0    0 -0.12147315948E+02  0.15881345951E+02  0.24838470056E+02  0.59301889721E+02  0.49999900958E+02 0.  0.
         12    1    1    2    0    0  0.12147315948E+02 -0.15881345951E+02 -0.24838470056E+02  0.31886110279E+02  0.00000000000E+00 0. -1.
         11    1    3    3    0    0 -0.35972964009E+01  0.11194361714E+02  0.27132606564E+02  0.29570806800E+02  0.51100000000E-03 0.  1.
        -11    1    3    3    0    0  0.19260846042E+01  0.10415035683E+02  0.85421701660E+01  0.13607036473E+02  0.51100000000E-03 0. -1.
         12    1    3    3    0    0 -0.10476104152E+02 -0.57280514456E+01 -0.10836306673E+02  0.16124046449E+02  0.00000000000E+00 0. -1.
</event>
<event>
 7    1  0.5837204E-012  0.5930197E+02  0.7816164E-02  0.1266605E+00
        -11   -1    0    0    0    0  0.00000000000E+00  0.00000000000E+00  0.45593999997E+02  0.45594000000E+02  0.51100000000E-03 0. -1.
         11   -1    0    0    0    0 -0.00000000000E+00 -0.00000000000E+00 -0.45593999997E+02  0.45594000000E+02  0.51100000000E-03 0.  1.
    9900012    2    1    2    0    0 -0.12371700900E+01  0.30061732232E+02 -0.10558429512E+02  0.59301972208E+02  0.50000051393E+02 0.  0.
         12    1    1    2    0    0  0.12371700900E+01 -0.30061732232E+02  0.10558429512E+02  0.31886027792E+02  0.00000000000E+00 0. -1.
         11    1    3    3    0    0 -0.11266048609E+02  0.93252937202E+01 -0.24687551889E+02  0.28694253306E+02  0.51100000000E-03 0. -1.
        -11    1    3    3    0    0 -0.25605351493E+01 -0.30308728399E+00  0.79617332775E+00  0.26985355994E+01  0.51100000000E-03 0.  1.
         12    1    3    3    0    0  0.12589413669E+02  0.21039525796E+02  0.13332949050E+02  0.27909183302E+02  0.00000000000E+00 0. -1.
</event>
<event>
 7    1  0.6175044E-012  0.5930193E+02  0.7816164E-02  0.1266605E+00
        -11   -1    0    0    0    0  0.00000000000E+00  0.00000000000E+00  0.45593999997E+02  0.45594000000E+02  0.51100000000E-03 0. -1.
         11   -1    0    0    0    0 -0.00000000000E+00 -0.00000000000E+00 -0.45593999997E+02  0.45594000000E+02  0.51100000000E-03 0.  1.
    9900012    2    1    2    0    0  0.31472443219E+01  0.10339329890E+02 -0.29998573544E+02  0.59301932446E+02  0.49999978878E+02 0.  0.
         12    1    1    2    0    0 -0.31472443219E+01 -0.10339329890E+02  0.29998573544E+02  0.31886067554E+02  0.00000000000E+00 0. -1.
         11    1    3    3    0    0 -0.24380761231E+01  0.38840501926E+01  0.33452872774E+01  0.56763551959E+01  0.51100000000E-03 0. -1.
        -11    1    3    3    0    0 -0.16057253428E+02  0.90296411519E+01 -0.23091249297E+02  0.29539390673E+02  0.51100000000E-03 0.  1.
        -12    1    3    3    0    0  0.21642573873E+02 -0.25743614546E+01 -0.10252611524E+02  0.24086186577E+02  0.00000000000E+00 0.  1.
</event>
<event>
 7    1  0.5837204E-012  0.5930194E+02  0.7816164E-02  0.1266605E+00
        -11   -1    0    0    0    0  0.00000000000E+00  0.00000000000E+00  0.45593999997E+02  0.45594000000E+02  0.51100000000E-03 0.  1.
         11   -1    0    0    0    0 -0.00000000000E+00 -0.00000000000E+00 -0.45593999997E+02  0.45594000000E+02  0.51100000000E-03 0. -1.
    9900012    2    1    2    0    0 -0.25567457189E+02  0.13178979550E+02  0.13760107330E+02  0.59301938424E+02  0.49999989781E+02 0.  0.
         12    1    1    2    0    0  0.25567457189E+02 -0.13178979550E+02 -0.13760107330E+02  0.31886061576E+02  0.00000000000E+00 0. -1.
         11    1    3    3    0    0  0.21252864633E+01 -0.39187446136E+01 -0.77627863040E+00  0.45250426154E+01  0.51100000000E-03 0. -1.
        -11    1    3    3    0    0 -0.29321939303E+02  0.76963511982E+01 -0.70952238036E+01  0.31134420620E+02  0.51100000000E-03 0.  1.
        -12    1    3    3    0    0  0.16291956504E+01  0.94013729654E+01  0.21631609764E+02  0.23642475189E+02  0.00000000000E+00 0.  1.
</event>
<event>
 7    1  0.5837204E-012  0.5930201E+02  0.7816164E-02  0.1266605E+00
        -11   -1    0    0    0    0  0.00000000000E+00  0.00000000000E+00  0.45593999997E+02  0.45594000000E+02  0.51100000000E-03 0.  1.
         11   -1    0    0    0    0 -0.00000000000E+00 -0.00000000000E+00 -0.45593999997E+02  0.45594000000E+02  0.51100000000E-03 0. -1.
    9900012    2    1    2    0    0  0.28928478327E+02  0.12950497664E+02 -0.34848335606E+01  0.59302010710E+02  0.50000121612E+02 0.  0.
         12    1    1    2    0    0 -0.28928478327E+02 -0.12950497664E+02  0.34848335606E+01  0.31885989290E+02  0.00000000000E+00 0. -1.
         11    1    3    3    0    0  0.16325727755E+02  0.14739026562E+02  0.27989020423E+01  0.22172102824E+02  0.51100000000E-03 0. -1.
        -11    1    3    3    0    0  0.93462620258E+01 -0.11762676668E+02  0.97919891904E+01  0.17933104272E+02  0.51100000000E-03 0.  1.
         12    1    3    3    0    0  0.32564885460E+01  0.99741477705E+01 -0.16075724793E+02  0.19196803615E+02  0.00000000000E+00 0. -1.
</event>
<event>
 7    1  0.5837204E-012  0.5930195E+02  0.7816164E-02  0.1266605E+00
        -11   -1    0    0    0    0  0.00000000000E+00  0.00000000000E+00  0.45593999997E+02  0.45594000000E+02  0.51100000000E-03 0.  1.
         11   -1    0    0    0    0 -0.00000000000E+00 -0.00000000000E+00 -0.45593999997E+02  0.45594000000E+02  0.51100000000E-03 0. -1.
    9900012    2    1    2    0    0  0.11445960383E+01 -0.31600359133E+02 -0.41020894325E+01  0.59301953911E+02  0.50000018025E+02 0.  0.
         12    1    1    2    0    0 -0.11445960383E+01  0.31600359133E+02  0.41020894325E+01  0.31886046089E+02  0.00000000000E+00 0. -1.
         11    1    3    3    0    0 -0.12342761922E+02  0.30078792919E+00 -0.37259112295E+01  0.12896381663E+02  0.51100000000E-03 0. -1.
        -11    1    3    3    0    0  0.13861128475E+02  0.39283094530E+00 -0.22821703586E+01  0.14053238081E+02  0.51100000000E-03 0.  1.
        -12    1    3    3    0    0 -0.37377051473E+00 -0.32293978008E+02  0.19059921556E+01  0.32352334167E+02  0.00000000000E+00 0.  1.
</event>
<event>
 7    1  0.5837204E-012  0.5930192E+02  0.7816164E-02  0.1266605E+00
        -11   -1    0    0    0    0  0.00000000000E+00  0.00000000000E+00  0.45593999997E+02  0.45594000000E+02  0.51100000000E-03 0. -1.
         11   -1    0    0    0    0 -0.00000000000E+00 -0.00000000000E+00 -0.45593999997E+02  0.45594000000E+02  0.51100000000E-03 0.  1.
    9900012    2    1    2    0    0  0.20409870407E+02 -0.23884486102E+02 -0.54489299451E+01  0.59301916453E+02  0.49999949710E+02 0.  0.
         12    1    1    2    0    0 -0.20409870407E+02  0.23884486102E+02  0.54489299451E+01  0.31886083547E+02  0.00000000000E+00 0. -1.
         11    1    3    3    0    0  0.10925763503E+02 -0.21182117200E+02 -0.15143142315E+02  0.28237725769E+02  0.51100000000E-03 0. -1.
        -11    1    3    3    0    0 -0.22666974534E+00 -0.13743457569E+02  0.56536845352E+00  0.13756949040E+02  0.51100000000E-03 0.  1.
         12    1    3    3    0    0  0.97107766494E+01  0.11041088667E+02  0.91288439159E+01  0.17307241644E+02  0.00000000000E+00 0. -1.
</event>
<event>
 7    1  0.5837204E-012  0.5930195E+02  0.7816164E-02  0.1266605E+00
        -11   -1    0    0    0    0  0.00000000000E+00  0.00000000000E+00  0.45593999997E+02  0.45594000000E+02  0.51100000000E-03 0.  1.
         11   -1    0    0    0    0 -0.00000000000E+00 -0.00000000000E+00 -0.45593999997E+02  0.45594000000E+02  0.51100000000E-03 0. -1.
    9900012    2    1    2    0    0  0.15742341310E+02  0.21021226293E+02  0.18083326192E+02  0.59301953664E+02  0.50000017574E+02 0.  0.
         12    1    1    2    0    0 -0.15742341310E+02 -0.21021226293E+02 -0.18083326192E+02  0.31886046336E+02  0.00000000000E+00 0. -1.
         11    1    3    3    0    0  0.14772409599E+02 -0.61038164080E+01 -0.32283015410E+01  0.16306519899E+02  0.51100000000E-03 0. -1.
        -11    1    3    3    0    0  0.65095606465E+01  0.43315544188E+01 -0.37474874695E+01  0.86706635322E+01  0.51100000000E-03 0.  1.
        -12    1    3    3    0    0 -0.55396289355E+01  0.22793488283E+02  0.25059115202E+02  0.34324770233E+02  0.00000000000E+00 0.  1.
</event>
<event>
 7    1  0.5837204E-012  0.5930195E+02  0.7816164E-02  0.1266605E+00
        -11   -1    0    0    0    0  0.00000000000E+00  0.00000000000E+00  0.45593999997E+02  0.45594000000E+02  0.51100000000E-03 0.  1.
         11   -1    0    0    0    0 -0.00000000000E+00 -0.00000000000E+00 -0.45593999997E+02  0.45594000000E+02  0.51100000000E-03 0. -1.
    9900012    2    1    2    0    0 -0.17396523485E+02 -0.11493570810E+00  0.26722055340E+02  0.59301945350E+02  0.50000002411E+02 0.  0.
         12    1    1    2    0    0  0.17396523485E+02  0.11493570810E+00 -0.26722055340E+02  0.31886054650E+02  0.00000000000E+00 0. -1.
         11    1    3    3    0    0 -0.18751753133E+02 -0.78532246545E+01  0.10900101240E+02  0.23067587441E+02  0.51100000000E-03 0. -1.
        -11    1    3    3    0    0  0.22151454117E+01 -0.11153318711E+02  0.12735010136E+02  0.17072898725E+02  0.51100000000E-03 0.  1.
        -12    1    3    3    0    0 -0.85991576401E+00  0.18891607657E+02  0.30869439639E+01  0.19161459183E+02  0.00000000000E+00 0.  1.
</event>
<event>
 7    1  0.5837204E-012  0.5930196E+02  0.7816164E-02  0.1266605E+00
        -11   -1    0    0    0    0  0.00000000000E+00  0.00000000000E+00  0.45593999997E+02  0.45594000000E+02  0.51100000000E-03 0.  1.
         11   -1    0    0    0    0 -0.00000000000E+00 -0.00000000000E+00 -0.45593999997E+02  0.45594000000E+02  0.51100000000E-03 0. -1.
    9900012    2    1    2    0    0  0.19647203271E+02 -0.20484489954E+02 -0.14529037368E+02  0.59301955217E+02  0.50000020407E+02 0.  0.
         12    1    1    2    0    0 -0.19647203271E+02  0.20484489954E+02  0.14529037368E+02  0.31886044783E+02  0.00000000000E+00 0. -1.
         11    1    3    3    0    0 -0.59606977977E+01  0.10020543925E+01 -0.46181785552E+00  0.60619557268E+01  0.51100000000E-03 0. -1.
        -11    1    3    3    0    0  0.10258332644E+02 -0.17144090043E+02  0.11538800442E+02  0.23071565355E+02  0.51100000000E-03 0.  1.
         12    1    3    3    0    0  0.15349568425E+02 -0.43424543029E+01 -0.25606019955E+02  0.30168434135E+02  0.00000000000E+00 0. -1.
</event>
<event>
 7    1  0.5837204E-012  0.5930195E+02  0.7816164E-02  0.1266605E+00
        -11   -1    0    0    0    0  0.00000000000E+00  0.00000000000E+00  0.45593999997E+02  0.45594000000E+02  0.51100000000E-03 0. -1.
         11   -1    0    0    0    0 -0.00000000000E+00 -0.00000000000E+00 -0.45593999997E+02  0.45594000000E+02  0.51100000000E-03 0.  1.
    9900012    2    1    2    0    0 -0.25316626543E+02  0.13968759279E+02 -0.13441081700E+02  0.59301945171E+02  0.50000002085E+02 0.  0.
         12    1    1    2    0    0  0.25316626543E+02 -0.13968759279E+02  0.13441081700E+02  0.31886054829E+02  0.00000000000E+00 0. -1.
         11    1    3    3    0    0  0.10880196620E+01 -0.21841997126E+01  0.25069687392E+01  0.34984864856E+01  0.51100000000E-03 0. -1.
        -11    1    3    3    0    0 -0.30052793210E+01  0.15258519868E+02  0.11780731727E+02  0.19509991610E+02  0.51100000000E-03 0.  1.
        -12    1    3    3    0    0 -0.23399366884E+02  0.89443912354E+00 -0.27728782166E+02  0.36293467075E+02  0.00000000000E+00 0.  1.
</event>
<event>
 7    1  0.5837204E-012  0.5930194E+02  0.7816164E-02  0.1266605E+00
        -11   -1    0    0    0    0  0.00000000000E+00  0.00000000000E+00  0.45593999997E+02  0.45594000000E+02  0.51100000000E-03 0.  1.
         11   -1    0    0    0    0 -0.00000000000E+00 -0.00000000000E+00 -0.45593999997E+02  0.45594000000E+02  0.51100000000E-03 0. -1.
    9900012    2    1    2    0    0  0.19210176313E+02  0.19525689720E+02 -0.16322909199E+02  0.59301940386E+02  0.49999993358E+02 0.  0.
         12    1    1    2    0    0 -0.19210176313E+02 -0.19525689720E+02  0.16322909199E+02  0.31886059614E+02  0.00000000000E+00 0. -1.
         11    1    3    3    0    0  0.19741555359E+02 -0.55110236390E+01 -0.19335859345E+02  0.28177577015E+02  0.51100000000E-03 0. -1.
        -11    1    3    3    0    0  0.86201841812E+01  0.12266937498E+02  0.35399218155E+01  0.15405076359E+02  0.51100000000E-03 0.  1.
        -12    1    3    3    0    0 -0.91515632274E+01  0.12769775860E+02 -0.52697166981E+00  0.15719287012E+02  0.00000000000E+00 0.  1.
</event>
<event>
 7    1  0.5837204E-012  0.5930192E+02  0.7816164E-02  0.1266605E+00
        -11   -1    0    0    0    0  0.00000000000E+00  0.00000000000E+00  0.45593999997E+02  0.45594000000E+02  0.51100000000E-03 0. -1.
         11   -1    0    0    0    0 -0.00000000000E+00 -0.00000000000E+00 -0.45593999997E+02  0.45594000000E+02  0.51100000000E-03 0.  1.
    9900012    2    1    2    0    0 -0.17093488748E+02  0.26434666215E+02 -0.50738020178E+01  0.59301915223E+02  0.49999947468E+02 0.  0.
         12    1    1    2    0    0  0.17093488748E+02 -0.26434666215E+02  0.50738020178E+01  0.31886084777E+02  0.00000000000E+00 0. -1.
         11    1    3    3    0    0 -0.14467801309E+02  0.20214558052E+02  0.31227441387E+01  0.25053885191E+02  0.51100000000E-03 0. -1.
        -11    1    3    3    0    0 -0.13066299534E+02 -0.88150401803E+00 -0.14993832577E+02  0.19907793661E+02  0.51100000000E-03 0.  1.
         12    1    3    3    0    0  0.10440612095E+02  0.71016121805E+01  0.67972864206E+01  0.14340236371E+02  0.00000000000E+00 0. -1.
</event>
<event>
 7    1  0.5837204E-012  0.5930194E+02  0.7816164E-02  0.1266605E+00
        -11   -1    0    0    0    0  0.00000000000E+00  0.00000000000E+00  0.45593999997E+02  0.45594000000E+02  0.51100000000E-03 0.  1.
         11   -1    0    0    0    0 -0.00000000000E+00 -0.00000000000E+00 -0.45593999997E+02  0.45594000000E+02  0.51100000000E-03 0. -1.
    9900012    2    1    2    0    0  0.20927667036E+02  0.76860506920E+01  0.22796456932E+02  0.59301936093E+02  0.49999985530E+02 0.  0.
         12    1    1    2    0    0 -0.20927667036E+02 -0.76860506920E+01 -0.22796456932E+02  0.31886063907E+02  0.00000000000E+00 0. -1.
         11    1    3    3    0    0  0.22282497526E+02 -0.84080276147E+01  0.11047508395E+02  0.26253610540E+02  0.51100000000E-03 0. -1.
        -11    1    3    3    0    0 -0.51141516095E+00 -0.38035727396E+01 -0.54965445151E+01  0.67037834780E+01  0.51100000000E-03 0.  1.
        -12    1    3    3    0    0 -0.84341532888E+00  0.19897651046E+02  0.17245493052E+02  0.26344542076E+02  0.00000000000E+00 0.  1.
</event>
<event>
 7    1  0.5837204E-012  0.5930188E+02  0.7816164E-02  0.1266605E+00
        -11   -1    0    0    0    0  0.00000000000E+00  0.00000000000E+00  0.45593999997E+02  0.45594000000E+02  0.51100000000E-03 0. -1.
         11   -1    0    0    0    0 -0.00000000000E+00 -0.00000000000E+00 -0.45593999997E+02  0.45594000000E+02  0.51100000000E-03 0.  1.
    9900012    2    1    2    0    0 -0.18172717586E+02 -0.79197232941E+01 -0.24975085434E+02  0.59301881171E+02  0.49999885364E+02 0.  0.
         12    1    1    2    0    0  0.18172717586E+02  0.79197232941E+01  0.24975085434E+02  0.31886118829E+02  0.00000000000E+00 0. -1.
         11    1    3    3    0    0 -0.18814231055E+02  0.11726296658E+02  0.34905325219E-01  0.22169405544E+02  0.51100000000E-03 0.  1.
        -11    1    3    3    0    0 -0.47426565436E+01 -0.67047290871E+00 -0.13432912549E+02  0.14261327596E+02  0.51100000000E-03 0. -1.
         12    1    3    3    0    0  0.53841700125E+01 -0.18975547044E+02 -0.11577078211E+02  0.22871148031E+02  0.00000000000E+00 0. -1.
</event>
<event>
 7    1  0.5837204E-012  0.5930195E+02  0.7816164E-02  0.1266605E+00
        -11   -1    0    0    0    0  0.00000000000E+00  0.00000000000E+00  0.45593999997E+02  0.45594000000E+02  0.51100000000E-03 0.  1.
         11   -1    0    0    0    0 -0.00000000000E+00 -0.00000000000E+00 -0.45593999997E+02  0.45594000000E+02  0.51100000000E-03 0. -1.
    9900012    2    1    2    0    0  0.82072911332E+01  0.15313367842E+02  0.26736893274E+02  0.59301947808E+02  0.50000006894E+02 0.  0.
         12    1    1    2    0    0 -0.82072911332E+01 -0.15313367842E+02 -0.26736893274E+02  0.31886052192E+02  0.00000000000E+00 0. -1.
         11    1    3    3    0    0 -0.51417645187E+01 -0.25495786172E+01 -0.21646215600E+01  0.61338144942E+01  0.51100000000E-03 0. -1.
        -11    1    3    3    0    0  0.19796586182E+01 -0.12252021271E+02  0.72330035157E+01  0.14364797722E+02  0.51100000000E-03 0.  1.
        -12    1    3    3    0    0  0.11369397034E+02  0.30114967730E+02  0.21668511319E+02  0.38803335592E+02  0.00000000000E+00 0.  1.
</event>
<event>
 7    1  0.5837204E-012  0.5930196E+02  0.7816164E-02  0.1266605E+00
        -11   -1    0    0    0    0  0.00000000000E+00  0.00000000000E+00  0.45593999997E+02  0.45594000000E+02  0.51100000000E-03 0. -1.
         11   -1    0    0    0    0 -0.00000000000E+00 -0.00000000000E+00 -0.45593999997E+02  0.45594000000E+02  0.51100000000E-03 0.  1.
    9900012    2    1    2    0    0 -0.12241947637E+02 -0.22633067327E+02 -0.18830786475E+02  0.59301960142E+02  0.50000029388E+02 0.  0.
         12    1    1    2    0    0  0.12241947637E+02  0.22633067327E+02  0.18830786475E+02  0.31886039858E+02  0.00000000000E+00 0. -1.
         11    1    3    3    0    0 -0.24857434781E+01  0.41260885190E+01 -0.12059128151E+02  0.12985611235E+02  0.51100000000E-03 0. -1.
        -11    1    3    3    0    0 -0.18722024543E+02 -0.16040123311E+02 -0.16162940527E+02  0.29479491271E+02  0.51100000000E-03 0.  1.
         12    1    3    3    0    0  0.89658203844E+01 -0.10719032535E+02  0.93912822034E+01  0.16836857637E+02  0.00000000000E+00 0. -1.
</event>
<event>
 7    1  0.5837204E-012  0.5930191E+02  0.7816164E-02  0.1266605E+00
        -11   -1    0    0    0    0  0.00000000000E+00  0.00000000000E+00  0.45593999997E+02  0.45594000000E+02  0.51100000000E-03 0.  1.
         11   -1    0    0    0    0 -0.00000000000E+00 -0.00000000000E+00 -0.45593999997E+02  0.45594000000E+02  0.51100000000E-03 0. -1.
    9900012    2    1    2    0    0 -0.28782774098E+02  0.86704634506E+01  0.10634734285E+02  0.59301912210E+02  0.49999941972E+02 0.  0.
         12    1    1    2    0    0  0.28782774098E+02 -0.86704634506E+01 -0.10634734285E+02  0.31886087790E+02  0.00000000000E+00 0. -1.
         11    1    3    3    0    0 -0.24097982357E+02 -0.64843237912E+01 -0.53920368947E+01  0.25531025652E+02  0.51100000000E-03 0. -1.
        -11    1    3    3    0    0 -0.13418838001E+02  0.95090508606E+01  0.23873454738E+01  0.16618865191E+02  0.51100000000E-03 0.  1.
        -12    1    3    3    0    0  0.87340462606E+01  0.56457363811E+01  0.13639425706E+02  0.17152021367E+02  0.00000000000E+00 0.  1.
</event>
<event>
 7    1  0.5837204E-012  0.5930194E+02  0.7816164E-02  0.1266605E+00
        -11   -1    0    0    0    0  0.00000000000E+00  0.00000000000E+00  0.45593999997E+02  0.45594000000E+02  0.51100000000E-03 0. -1.
         11   -1    0    0    0    0 -0.00000000000E+00 -0.00000000000E+00 -0.45593999997E+02  0.45594000000E+02  0.51100000000E-03 0.  1.
    9900012    2    1    2    0    0 -0.24785869023E+02  0.17482948291E+02  0.98350438896E+01  0.59301939214E+02  0.49999991220E+02 0.  0.
         12    1    1    2    0    0  0.24785869023E+02 -0.17482948291E+02 -0.98350438896E+01  0.31886060786E+02  0.00000000000E+00 0. -1.
         11    1    3    3    0    0 -0.22305161049E+01  0.72696196364E+01  0.59318994276E+01  0.96441693697E+01  0.51100000000E-03 0. -1.
        -11    1    3    3    0    0 -0.32704538314E+02  0.10560867546E+02 -0.66579346458E+01  0.35006382899E+02  0.51100000000E-03 0.  1.
         12    1    3    3    0    0  0.10149185396E+02 -0.34753889162E+00  0.10561079108E+02  0.14651386945E+02  0.00000000000E+00 0. -1.
</event>
<event>
 7    1  0.5837204E-012  0.5930193E+02  0.7816164E-02  0.1266605E+00
        -11   -1    0    0    0    0  0.00000000000E+00  0.00000000000E+00  0.45593999997E+02  0.45594000000E+02  0.51100000000E-03 0.  1.
         11   -1    0    0    0    0 -0.00000000000E+00 -0.00000000000E+00 -0.45593999997E+02  0.45594000000E+02  0.51100000000E-03 0. -1.
    9900012    2    1    2    0    0  0.89813261507E+01  0.30001887067E+02  0.59953232885E+01  0.59301931751E+02  0.49999977611E+02 0.  0.
         12    1    1    2    0    0 -0.89813261507E+01 -0.30001887067E+02 -0.59953232885E+01  0.31886068249E+02  0.00000000000E+00 0. -1.
         11    1    3    3    0    0  0.16518198730E+02  0.53114577758E+01 -0.36179282397E+01  0.17724330114E+02  0.51100000000E-03 0. -1.
        -11    1    3    3    0    0  0.10284737130E+02  0.18196166592E+02  0.15251363717E+01  0.20957154809E+02  0.51100000000E-03 0.  1.
         12    1    3    3    0    0 -0.17821609709E+02  0.64942626990E+01  0.80881151566E+01  0.20620446828E+02  0.00000000000E+00 0. -1.
</event>
<event>
 7    1  0.5837204E-012  0.5930161E+02  0.7816164E-02  0.1266606E+00
        -11   -1    0    0    0    0  0.00000000000E+00  0.00000000000E+00  0.45593999997E+02  0.45594000000E+02  0.51100000000E-03 0.  1.
         11   -1    0    0    0    0 -0.00000000000E+00 -0.00000000000E+00 -0.45593999997E+02  0.45594000000E+02  0.51100000000E-03 0. -1.
    9900012    2    1    2    0    0 -0.23972381632E+02 -0.37936123634E+01 -0.20680314017E+02  0.59301608487E+02  0.49999388051E+02 0.  0.
         12    1    1    2    0    0  0.23972381632E+02  0.37936123634E+01  0.20680314017E+02  0.31886391513E+02  0.00000000000E+00 0. -1.
         11    1    3    3    0    0 -0.19246954669E+01  0.77032084366E+01  0.37618469071E+01  0.87860893048E+01  0.51100000000E-03 0. -1.
        -11    1    3    3    0    0  0.46172809191E+00  0.11324483741E+02 -0.10877415522E+02  0.15709083154E+02  0.51100000000E-03 0.  1.
        -12    1    3    3    0    0 -0.22509414257E+02 -0.22821304541E+02 -0.13564745401E+02  0.34806436028E+02  0.00000000000E+00 0.  1.
</event>
<event>
 7    1  0.5837204E-012  0.5930190E+02  0.7816164E-02  0.1266605E+00
        -11   -1    0    0    0    0  0.00000000000E+00  0.00000000000E+00  0.45593999997E+02  0.45594000000E+02  0.51100000000E-03 0. -1.
         11   -1    0    0    0    0 -0.00000000000E+00 -0.00000000000E+00 -0.45593999997E+02  0.45594000000E+02  0.51100000000E-03 0.  1.
    9900012    2    1    2    0    0  0.29129651012E+02 -0.12449964181E+02 -0.36311672089E+01  0.59301897205E+02  0.49999914607E+02 0.  0.
         12    1    1    2    0    0 -0.29129651012E+02  0.12449964181E+02  0.36311672089E+01  0.31886102795E+02  0.00000000000E+00 0. -1.
         11    1    3    3    0    0 -0.36505521498E+01  0.10103367133E+02  0.77068302716E+00  0.10770260489E+02  0.51100000000E-03 0. -1.
        -11    1    3    3    0    0  0.13831379440E+02 -0.18303778398E+01  0.98141084832E+01  0.17057961948E+02  0.51100000000E-03 0.  1.
         12    1    3    3    0    0  0.18948823721E+02 -0.20722953473E+02 -0.14215958719E+02  0.31473674768E+02  0.00000000000E+00 0. -1.
</event>
<event>
 7    1  0.5837204E-012  0.5930192E+02  0.7816164E-02  0.1266605E+00
        -11   -1    0    0    0    0  0.00000000000E+00  0.00000000000E+00  0.45593999997E+02  0.45594000000E+02  0.51100000000E-03 0. -1.
         11   -1    0    0    0    0 -0.00000000000E+00 -0.00000000000E+00 -0.45593999997E+02  0.45594000000E+02  0.51100000000E-03 0.  1.
    9900012    2    1    2    0    0 -0.23500238063E+01 -0.15909304069E+02 -0.27533493895E+02  0.59301923823E+02  0.49999963152E+02 0.  0.
         12    1    1    2    0    0  0.23500238063E+01  0.15909304069E+02  0.27533493895E+02  0.31886076177E+02  0.00000000000E+00 0. -1.
         11    1    3    3    0    0  0.44199040670E+01 -0.41538310802E+01  0.39043032352E+01  0.72134214225E+01  0.51100000000E-03 0. -1.
        -11    1    3    3    0    0  0.45103183256E+00 -0.25568616809E+02 -0.16086917677E+02  0.30211695018E+02  0.51100000000E-03 0.  1.
         12    1    3    3    0    0 -0.72209597059E+01  0.13813143820E+02 -0.15350879453E+02  0.21876807383E+02  0.00000000000E+00 0. -1.
</event>
<event>
 7    1  0.5837204E-012  0.5930211E+02  0.7816164E-02  0.1266604E+00
        -11   -1    0    0    0    0  0.00000000000E+00  0.00000000000E+00  0.45593999997E+02  0.45594000000E+02  0.51100000000E-03 0. -1.
         11   -1    0    0    0    0 -0.00000000000E+00 -0.00000000000E+00 -0.45593999997E+02  0.45594000000E+02  0.51100000000E-03 0.  1.
    9900012    2    1    2    0    0  0.74911514949E+01  0.11229937285E+02 -0.28887387913E+02  0.59302109349E+02  0.50000301505E+02 0.  0.
         12    1    1    2    0    0 -0.74911514949E+01 -0.11229937285E+02  0.28887387913E+02  0.31885890651E+02  0.00000000000E+00 0. -1.
         11    1    3    3    0    0  0.10107510721E+02  0.15428198371E+02 -0.35795929313E+02  0.40268345305E+02  0.51100000000E-03 0.  1.
        -11    1    3    3    0    0  0.72196623889E+01 -0.87806850512E+00  0.37493411291E+01  0.81824255862E+01  0.51100000000E-03 0. -1.
        -12    1    3    3    0    0 -0.98360216151E+01 -0.33201925808E+01  0.31592002700E+01  0.10851338458E+02  0.00000000000E+00 0.  1.
</event>
<event>
 7    1  0.5837204E-012  0.5930198E+02  0.7816164E-02  0.1266605E+00
        -11   -1    0    0    0    0  0.00000000000E+00  0.00000000000E+00  0.45593999997E+02  0.45594000000E+02  0.51100000000E-03 0.  1.
         11   -1    0    0    0    0 -0.00000000000E+00 -0.00000000000E+00 -0.45593999997E+02  0.45594000000E+02  0.51100000000E-03 0. -1.
    9900012    2    1    2    0    0 -0.92244230483E+01 -0.61563214197E+01  0.29895282791E+02  0.59301981008E+02  0.50000067443E+02 0.  0.
         12    1    1    2    0    0  0.92244230483E+01  0.61563214197E+01 -0.29895282791E+02  0.31886018992E+02  0.00000000000E+00 0. -1.
         11    1    3    3    0    0 -0.57593597974E+01  0.17893443318E+00  0.16026711038E+02  0.17031080699E+02  0.51100000000E-03 0. -1.
        -11    1    3    3    0    0 -0.60210941840E+01  0.13331233722E+02  0.16741708334E+02  0.22231962709E+02  0.51100000000E-03 0.  1.
         12    1    3    3    0    0  0.25560309331E+01 -0.19666489575E+02 -0.28731365807E+01  0.20038937600E+02  0.00000000000E+00 0. -1.
</event>
<event>
 7    1  0.5837204E-012  0.5930195E+02  0.7816164E-02  0.1266605E+00
        -11   -1    0    0    0    0  0.00000000000E+00  0.00000000000E+00  0.45593999997E+02  0.45594000000E+02  0.51100000000E-03 0.  1.
         11   -1    0    0    0    0 -0.00000000000E+00 -0.00000000000E+00 -0.45593999997E+02  0.45594000000E+02  0.51100000000E-03 0. -1.
    9900012    2    1    2    0    0  0.37011544882E+01 -0.32708944228E+01  0.31501159308E+02  0.59301947679E+02  0.50000006660E+02 0.  0.
         12    1    1    2    0    0 -0.37011544882E+01  0.32708944228E+01 -0.31501159308E+02  0.31886052321E+02  0.00000000000E+00 0. -1.
         11    1    3    3    0    0 -0.37173812688E+01  0.19865279053E+01  0.76997631042E-01  0.42155836503E+01  0.51100000000E-03 0. -1.
        -11    1    3    3    0    0 -0.35550897074E+01 -0.11890628070E+02 -0.72284807090E+01  0.14362333806E+02  0.51100000000E-03 0.  1.
        -12    1    3    3    0    0  0.10973625464E+02  0.66332057419E+01  0.38652642386E+02  0.40724030223E+02  0.00000000000E+00 0.  1.
</event>
<event>
 7    1  0.5837204E-012  0.5930183E+02  0.7816164E-02  0.1266605E+00
        -11   -1    0    0    0    0  0.00000000000E+00  0.00000000000E+00  0.45593999997E+02  0.45594000000E+02  0.51100000000E-03 0. -1.
         11   -1    0    0    0    0 -0.00000000000E+00 -0.00000000000E+00 -0.45593999997E+02  0.45594000000E+02  0.51100000000E-03 0.  1.
    9900012    2    1    2    0    0  0.21317197794E+02 -0.59260656767E+01 -0.22960543666E+02  0.59301831500E+02  0.49999794776E+02 0.  0.
         12    1    1    2    0    0 -0.21317197794E+02  0.59260656767E+01  0.22960543666E+02  0.31886168500E+02  0.00000000000E+00 0. -1.
         11    1    3    3    0    0  0.45588031197E+01 -0.20619452087E+02  0.34262519602E+00  0.21120177142E+02  0.51100000000E-03 0.  1.
        -11    1    3    3    0    0 -0.28963960922E+01  0.64424440504E+01 -0.67729077405E+00  0.70959790529E+01  0.51100000000E-03 0. -1.
        -12    1    3    3    0    0  0.19654790767E+02  0.82509423596E+01 -0.22625878088E+02  0.31085675304E+02  0.00000000000E+00 0.  1.
</event>
<event>
 7    1  0.5837204E-012  0.5930193E+02  0.7816164E-02  0.1266605E+00
        -11   -1    0    0    0    0  0.00000000000E+00  0.00000000000E+00  0.45593999997E+02  0.45594000000E+02  0.51100000000E-03 0. -1.
         11   -1    0    0    0    0 -0.00000000000E+00 -0.00000000000E+00 -0.45593999997E+02  0.45594000000E+02  0.51100000000E-03 0.  1.
    9900012    2    1    2    0    0  0.24420265185E+02 -0.20291304062E+02 -0.29385608239E+01  0.59301929186E+02  0.49999972932E+02 0.  0.
         12    1    1    2    0    0 -0.24420265185E+02  0.20291304062E+02  0.29385608239E+01  0.31886070814E+02  0.00000000000E+00 0. -1.
         11    1    3    3    0    0  0.81698938323E+01 -0.13137674082E+01 -0.15788540651E+01  0.84241278750E+01  0.51100000000E-03 0. -1.
        -11    1    3    3    0    0  0.22450812308E+02 -0.96220573714E+01  0.16718059894E+02  0.29599264994E+02  0.51100000000E-03 0.  1.
        -12    1    3    3    0    0 -0.62004409548E+01 -0.93554792824E+01 -0.18077766652E+02  0.21278536317E+02  0.00000000000E+00 0.  1.
</event>
<event>
 7    1  0.5837204E-012  0.5930194E+02  0.7816164E-02  0.1266605E+00
        -11   -1    0    0    0    0  0.00000000000E+00  0.00000000000E+00  0.45593999997E+02  0.45594000000E+02  0.51100000000E-03 0.  1.
         11   -1    0    0    0    0 -0.00000000000E+00 -0.00000000000E+00 -0.45593999997E+02  0.45594000000E+02  0.51100000000E-03 0. -1.
    9900012    2    1    2    0    0  0.15355741185E+02 -0.25638077683E+02  0.11118038643E+02  0.59301943520E+02  0.49999999073E+02 0.  0.
         12    1    1    2    0    0 -0.15355741185E+02  0.25638077683E+02 -0.11118038643E+02  0.31886056480E+02  0.00000000000E+00 0. -1.
         11    1    3    3    0    0  0.20717255402E+02 -0.70111752484E+01 -0.18817900293E+01  0.21952275138E+02  0.51100000000E-03 0. -1.
        -11    1    3    3    0    0  0.24281352466E+01 -0.24477665833E+02  0.12507392270E+02  0.27595050771E+02  0.51100000000E-03 0.  1.
         12    1    3    3    0    0 -0.77896494640E+01  0.58507633984E+01  0.49243640267E+00  0.97546176105E+01  0.00000000000E+00 0. -1.
</event>
<event>
 7    1  0.5837204E-012  0.5930193E+02  0.7816164E-02  0.1266605E+00
        -11   -1    0    0    0    0  0.00000000000E+00  0.00000000000E+00  0.45593999997E+02  0.45594000000E+02  0.51100000000E-03 0. -1.
         11   -1    0    0    0    0 -0.00000000000E+00 -0.00000000000E+00 -0.45593999997E+02  0.45594000000E+02  0.51100000000E-03 0.  1.
    9900012    2    1    2    0    0  0.24638877966E+02  0.24708264082E+01 -0.20088366858E+02  0.59301925084E+02  0.49999965450E+02 0.  0.
         12    1    1    2    0    0 -0.24638877966E+02 -0.24708264082E+01  0.20088366858E+02  0.31886074916E+02  0.00000000000E+00 0. -1.
         11    1    3    3    0    0  0.63799479836E+01  0.44030051408E+01  0.11324490262E+02  0.13723493378E+02  0.51100000000E-03 0. -1.
        -11    1    3    3    0    0  0.23729543165E+02 -0.34944765639E+01 -0.15199648737E+02  0.28395983999E+02  0.51100000000E-03 0.  1.
        -12    1    3    3    0    0 -0.54706131831E+01  0.15622978313E+01 -0.16213208383E+02  0.17182447706E+02  0.00000000000E+00 0.  1.
</event>
<event>
 7    1  0.5837204E-012  0.5930195E+02  0.7816164E-02  0.1266605E+00
        -11   -1    0    0    0    0  0.00000000000E+00  0.00000000000E+00  0.45593999997E+02  0.45594000000E+02  0.51100000000E-03 0.  1.
         11   -1    0    0    0    0 -0.00000000000E+00 -0.00000000000E+00 -0.45593999997E+02  0.45594000000E+02  0.51100000000E-03 0. -1.
    9900012    2    1    2    0    0  0.93730926305E+01 -0.27704497985E+02  0.12701417403E+02  0.59301951670E+02  0.50000013938E+02 0.  0.
         12    1    1    2    0    0 -0.93730926305E+01  0.27704497985E+02 -0.12701417403E+02  0.31886048330E+02  0.00000000000E+00 0. -1.
         11    1    3    3    0    0  0.15241696796E+02  0.36967713183E+01  0.39012913970E+01  0.16161544302E+02  0.51100000000E-03 0. -1.
        -11    1    3    3    0    0 -0.26924114584E+01 -0.71857475202E+00 -0.76782116152E+01  0.81682533632E+01  0.51100000000E-03 0.  1.
        -12    1    3    3    0    0 -0.31761927068E+01 -0.30682694551E+02  0.16478337621E+02  0.34972154005E+02  0.00000000000E+00 0.  1.
</event>
<event>
 7    1  0.5837204E-012  0.5930195E+02  0.7816164E-02  0.1266605E+00
        -11   -1    0    0    0    0  0.00000000000E+00  0.00000000000E+00  0.45593999997E+02  0.45594000000E+02  0.51100000000E-03 0. -1.
         11   -1    0    0    0    0 -0.00000000000E+00 -0.00000000000E+00 -0.45593999997E+02  0.45594000000E+02  0.51100000000E-03 0.  1.
    9900012    2    1    2    0    0 -0.30092501809E+02 -0.16328740171E+01 -0.10416118142E+02  0.59301945685E+02  0.50000003022E+02 0.  0.
         12    1    1    2    0    0  0.30092501809E+02  0.16328740171E+01  0.10416118142E+02  0.31886054315E+02  0.00000000000E+00 0. -1.
         11    1    3    3    0    0  0.13612267887E+01 -0.58549908733E+00  0.43571019757E+01  0.46021826821E+01  0.51100000000E-03 0. -1.
        -11    1    3    3    0    0 -0.14331288391E+02  0.92915402791E+01  0.12293862859E+02  0.21044182378E+02  0.51100000000E-03 0.  1.
        -12    1    3    3    0    0 -0.17122440207E+02 -0.10338915209E+02 -0.27067082976E+02  0.33655580625E+02  0.00000000000E+00 0.  1.
</event>
<event>
 7    1  0.5837204E-012  0.5930197E+02  0.7816164E-02  0.1266605E+00
        -11   -1    0    0    0    0  0.00000000000E+00  0.00000000000E+00  0.45593999997E+02  0.45594000000E+02  0.51100000000E-03 0.  1.
         11   -1    0    0    0    0 -0.00000000000E+00 -0.00000000000E+00 -0.45593999997E+02  0.45594000000E+02  0.51100000000E-03 0. -1.
    9900012    2    1    2    0    0  0.12832160486E+01 -0.12441651554E+02  0.29330486999E+02  0.59301971642E+02  0.50000050362E+02 0.  0.
         12    1    1    2    0    0 -0.12832160486E+01  0.12441651554E+02 -0.29330486999E+02  0.31886028358E+02  0.00000000000E+00 0. -1.
         11    1    3    3    0    0  0.66115489203E+01 -0.15619136251E+02  0.61958944003E+01  0.18057106746E+02  0.51100000000E-03 0. -1.
        -11    1    3    3    0    0  0.72455921705E+01 -0.37216856340E-01 -0.59631422204E+01  0.93839787082E+01  0.51100000000E-03 0.  1.
        -12    1    3    3    0    0 -0.12573925042E+02  0.32147015534E+01  0.29097734820E+02  0.31860886188E+02  0.00000000000E+00 0.  1.
</event>
<event>
 7    1  0.5837204E-012  0.5930193E+02  0.7816164E-02  0.1266605E+00
        -11   -1    0    0    0    0  0.00000000000E+00  0.00000000000E+00  0.45593999997E+02  0.45594000000E+02  0.51100000000E-03 0.  1.
         11   -1    0    0    0    0 -0.00000000000E+00 -0.00000000000E+00 -0.45593999997E+02  0.45594000000E+02  0.51100000000E-03 0. -1.
    9900012    2    1    2    0    0 -0.12089620532E+02  0.14375510250E+02  0.25766394798E+02  0.59301932189E+02  0.49999978409E+02 0.  0.
         12    1    1    2    0    0  0.12089620532E+02 -0.14375510250E+02 -0.25766394798E+02  0.31886067811E+02  0.00000000000E+00 0. -1.
         11    1    3    3    0    0 -0.42969620564E+01  0.68488467520E+01 -0.10901574328E+02  0.13572579263E+02  0.51100000000E-03 0. -1.
        -11    1    3    3    0    0  0.36919417623E+01  0.10031313381E+02  0.47149166641E+01  0.11682813083E+02  0.51100000000E-03 0.  1.
        -12    1    3    3    0    0 -0.11484600238E+02 -0.25046498828E+01  0.31953052462E+02  0.34046539843E+02  0.00000000000E+00 0.  1.
</event>
<event>
 7    1  0.5837204E-012  0.5930194E+02  0.7816164E-02  0.1266605E+00
        -11   -1    0    0    0    0  0.00000000000E+00  0.00000000000E+00  0.45593999997E+02  0.45594000000E+02  0.51100000000E-03 0. -1.
         11   -1    0    0    0    0 -0.00000000000E+00 -0.00000000000E+00 -0.45593999997E+02  0.45594000000E+02  0.51100000000E-03 0.  1.
    9900012    2    1    2    0    0  0.25367300157E+02  0.17914742304E+02 -0.72306714736E+01  0.59301944756E+02  0.50000001328E+02 0.  0.
         12    1    1    2    0    0 -0.25367300157E+02 -0.17914742304E+02  0.72306714736E+01  0.31886055244E+02  0.00000000000E+00 0. -1.
         11    1    3    3    0    0  0.13843978495E+02  0.23454514787E+02  0.83270467136E+01  0.28479987916E+02  0.51100000000E-03 0. -1.
        -11    1    3    3    0    0  0.13282249633E+02  0.27970501790E+01 -0.17436516082E+02  0.22096916942E+02  0.51100000000E-03 0.  1.
        -12    1    3    3    0    0 -0.17589279706E+01 -0.83368226615E+01  0.18787978947E+01  0.87250398981E+01  0.00000000000E+00 0.  1.
</event>
<event>
 7    1  0.5837204E-012  0.5930194E+02  0.7816164E-02  0.1266605E+00
        -11   -1    0    0    0    0  0.00000000000E+00  0.00000000000E+00  0.45593999997E+02  0.45594000000E+02  0.51100000000E-03 0.  1.
         11   -1    0    0    0    0 -0.00000000000E+00 -0.00000000000E+00 -0.45593999997E+02  0.45594000000E+02  0.51100000000E-03 0. -1.
    9900012    2    1    2    0    0 -0.77054900759E+01  0.57322249822E+01  0.30405386989E+02  0.59301944451E+02  0.50000000771E+02 0.  0.
         12    1    1    2    0    0  0.77054900759E+01 -0.57322249822E+01 -0.30405386989E+02  0.31886055549E+02  0.00000000000E+00 0. -1.
         11    1    3    3    0    0  0.18196436027E+01  0.24427274438E+01  0.51944702131E+01  0.60216726299E+01  0.51100000000E-03 0. -1.
        -11    1    3    3    0    0  0.10875032595E+02 -0.14967677369E+02  0.15803992143E+02  0.24332362559E+02  0.51100000000E-03 0.  1.
         12    1    3    3    0    0 -0.20400166274E+02  0.18257174907E+02  0.94069246325E+01  0.28947909262E+02  0.00000000000E+00 0. -1.
</event>
<event>
 7    1  0.5837204E-012  0.5930194E+02  0.7816164E-02  0.1266605E+00
        -11   -1    0    0    0    0  0.00000000000E+00  0.00000000000E+00  0.45593999997E+02  0.45594000000E+02  0.51100000000E-03 0.  1.
         11   -1    0    0    0    0 -0.00000000000E+00 -0.00000000000E+00 -0.45593999997E+02  0.45594000000E+02  0.51100000000E-03 0. -1.
    9900012    2    1    2    0    0 -0.23870005097E+01 -0.95281213867E+01  0.30335423693E+02  0.59301940362E+02  0.49999993315E+02 0.  0.
         12    1    1    2    0    0  0.23870005097E+01  0.95281213867E+01 -0.30335423693E+02  0.31886059638E+02  0.00000000000E+00 0. -1.
         11    1    3    3    0    0 -0.13418963886E+02 -0.14237214052E+02  0.80775004782E+00  0.19581095887E+02  0.51100000000E-03 0. -1.
        -11    1    3    3    0    0 -0.53859845299E+01  0.32663247469E+01  0.47246682572E+00  0.63167184417E+01  0.51100000000E-03 0.  1.
         12    1    3    3    0    0  0.16417947906E+02  0.14427679184E+01  0.29055206820E+02  0.33404126033E+02  0.00000000000E+00 0. -1.
</event>
<event>
 7    1  0.5837204E-012  0.5930202E+02  0.7816164E-02  0.1266605E+00
        -11   -1    0    0    0    0  0.00000000000E+00  0.00000000000E+00  0.45593999997E+02  0.45594000000E+02  0.51100000000E-03 0.  1.
         11   -1    0    0    0    0 -0.00000000000E+00 -0.00000000000E+00 -0.45593999997E+02  0.45594000000E+02  0.51100000000E-03 0. -1.
    9900012    2    1    2    0    0  0.10329086952E+01  0.83868317871E+01  0.30745895596E+02  0.59302016499E+02  0.50000132171E+02 0.  0.
         12    1    1    2    0    0 -0.10329086952E+01 -0.83868317871E+01 -0.30745895596E+02  0.31885983501E+02  0.00000000000E+00 0. -1.
         11    1    3    3    0    0 -0.12356264572E+01  0.91338172739E+01  0.74970737716E+01  0.11881056608E+02  0.51100000000E-03 0. -1.
        -11    1    3    3    0    0  0.14982634885E+01  0.19878846484E+02  0.69179013336E+01  0.21101438106E+02  0.51100000000E-03 0.  1.
        -12    1    3    3    0    0  0.77027166391E+00 -0.20625831971E+02  0.16330920491E+02  0.26319521785E+02  0.00000000000E+00 0.  1.
</event>
<event>
 7    1  0.5837204E-012  0.5930194E+02  0.7816164E-02  0.1266605E+00
        -11   -1    0    0    0    0  0.00000000000E+00  0.00000000000E+00  0.45593999997E+02  0.45594000000E+02  0.51100000000E-03 0.  1.
         11   -1    0    0    0    0 -0.00000000000E+00 -0.00000000000E+00 -0.45593999997E+02  0.45594000000E+02  0.51100000000E-03 0. -1.
    9900012    2    1    2    0    0 -0.19938805478E+02 -0.24801049587E+02 -0.20180492588E+01  0.59301944312E+02  0.50000000518E+02 0.  0.
         12    1    1    2    0    0  0.19938805478E+02  0.24801049587E+02  0.20180492588E+01  0.31886055688E+02  0.00000000000E+00 0. -1.
         11    1    3    3    0    0 -0.11539891227E+01 -0.16509606111E+02 -0.21602592557E+02  0.27213430329E+02  0.51100000000E-03 0. -1.
        -11    1    3    3    0    0  0.13662955747E+00 -0.50341361063E+01  0.57262052705E+00  0.50684404408E+01  0.51100000000E-03 0.  1.
        -12    1    3    3    0    0 -0.18921445913E+02 -0.32573073698E+01  0.19011922771E+02  0.27020073542E+02  0.00000000000E+00 0.  1.
</event>
<event>
 7    1  0.5837204E-012  0.5930194E+02  0.7816164E-02  0.1266605E+00
        -11   -1    0    0    0    0  0.00000000000E+00  0.00000000000E+00  0.45593999997E+02  0.45594000000E+02  0.51100000000E-03 0. -1.
         11   -1    0    0    0    0 -0.00000000000E+00 -0.00000000000E+00 -0.45593999997E+02  0.45594000000E+02  0.51100000000E-03 0.  1.
    9900012    2    1    2    0    0  0.25420707740E+02  0.40828765357E+01 -0.18810598300E+02  0.59301939233E+02  0.49999991256E+02 0.  0.
         12    1    1    2    0    0 -0.25420707740E+02 -0.40828765357E+01  0.18810598300E+02  0.31886060767E+02  0.00000000000E+00 0. -1.
         11    1    3    3    0    0 -0.47828901431E+00  0.84648394190E+01 -0.15708454550E+01  0.86226343118E+01  0.51100000000E-03 0. -1.
        -11    1    3    3    0    0 -0.66413818695E+01  0.69679404024E+01 -0.12674157162E+02  0.15915225622E+02  0.51100000000E-03 0.  1.
         12    1    3    3    0    0  0.32540378624E+02 -0.11349903286E+02 -0.45655956831E+01  0.34764079299E+02  0.00000000000E+00 0. -1.
</event>
<event>
 7    1  0.5837204E-012  0.5930196E+02  0.7816164E-02  0.1266605E+00
        -11   -1    0    0    0    0  0.00000000000E+00  0.00000000000E+00  0.45593999997E+02  0.45594000000E+02  0.51100000000E-03 0.  1.
         11   -1    0    0    0    0 -0.00000000000E+00 -0.00000000000E+00 -0.45593999997E+02  0.45594000000E+02  0.51100000000E-03 0. -1.
    9900012    2    1    2    0    0  0.13870727179E+02 -0.66068212322E+01  0.27940517841E+02  0.59301957654E+02  0.50000024850E+02 0.  0.
         12    1    1    2    0    0 -0.13870727179E+02  0.66068212322E+01 -0.27940517841E+02  0.31886042346E+02  0.00000000000E+00 0. -1.
         11    1    3    3    0    0  0.66558962905E+01  0.22282813470E+01  0.20614839168E+01  0.73154568819E+01  0.51100000000E-03 0. -1.
        -11    1    3    3    0    0  0.78021055636E+01  0.16371797387E+02  0.18044908497E+02  0.25583731625E+02  0.51100000000E-03 0.  1.
         12    1    3    3    0    0 -0.58727467517E+00 -0.25206899966E+02  0.78341254271E+01  0.26402769147E+02  0.00000000000E+00 0. -1.
</event>
<event>
 7    1  0.5837204E-012  0.5930195E+02  0.7816164E-02  0.1266605E+00
        -11   -1    0    0    0    0  0.00000000000E+00  0.00000000000E+00  0.45593999997E+02  0.45594000000E+02  0.51100000000E-03 0. -1.
         11   -1    0    0    0    0 -0.00000000000E+00 -0.00000000000E+00 -0.45593999997E+02  0.45594000000E+02  0.51100000000E-03 0.  1.
    9900012    2    1    2    0    0 -0.28745017355E+02 -0.98780947532E+01  0.96367794137E+01  0.59301948251E+02  0.50000007702E+02 0.  0.
         12    1    1    2    0    0  0.28745017355E+02  0.98780947532E+01 -0.96367794137E+01  0.31886051749E+02  0.00000000000E+00 0. -1.
         11    1    3    3    0    0  0.51443407379E+01 -0.12002153264E+02 -0.71020292058E+01  0.14864546536E+02  0.51100000000E-03 0. -1.
        -11    1    3    3    0    0 -0.21854664319E+01 -0.68270669398E+01  0.71555785525E+01  0.10128544378E+02  0.51100000000E-03 0.  1.
        -12    1    3    3    0    0 -0.31703891661E+02  0.89511254510E+01  0.95832300670E+01  0.34308857338E+02  0.00000000000E+00 0.  1.
</event>
<event>
 7    1  0.5837204E-012  0.5930196E+02  0.7816164E-02  0.1266605E+00
        -11   -1    0    0    0    0  0.00000000000E+00  0.00000000000E+00  0.45593999997E+02  0.45594000000E+02  0.51100000000E-03 0. -1.
         11   -1    0    0    0    0 -0.00000000000E+00 -0.00000000000E+00 -0.45593999997E+02  0.45594000000E+02  0.51100000000E-03 0.  1.
    9900012    2    1    2    0    0 -0.12274918559E+02 -0.13638435521E+02  0.26077559600E+02  0.59301958167E+02  0.50000025787E+02 0.  0.
         12    1    1    2    0    0  0.12274918559E+02  0.13638435521E+02 -0.26077559600E+02  0.31886041833E+02  0.00000000000E+00 0. -1.
         11    1    3    3    0    0  0.10548585116E+02 -0.44563645842E+01  0.13502875780E+02  0.17704787145E+02  0.51100000000E-03 0. -1.
        -11    1    3    3    0    0 -0.10258622223E+02  0.14170985280E+01  0.20785345718E+02  0.23222361960E+02  0.51100000000E-03 0.  1.
        -12    1    3    3    0    0 -0.12564881452E+02 -0.10599169465E+02 -0.82106618980E+01  0.18374809062E+02  0.00000000000E+00 0.  1.
</event>
<event>
 7    1  0.5837204E-012  0.5930168E+02  0.7816164E-02  0.1266606E+00
        -11   -1    0    0    0    0  0.00000000000E+00  0.00000000000E+00  0.45593999997E+02  0.45594000000E+02  0.51100000000E-03 0.  1.
         11   -1    0    0    0    0 -0.00000000000E+00 -0.00000000000E+00 -0.45593999997E+02  0.45594000000E+02  0.51100000000E-03 0. -1.
    9900012    2    1    2    0    0  0.29555065788E+02  0.11666011064E+02  0.26719903287E+01  0.59301682241E+02  0.49999522562E+02 0.  0.
         12    1    1    2    0    0 -0.29555065788E+02 -0.11666011064E+02 -0.26719903287E+01  0.31886317759E+02  0.00000000000E+00 0. -1.
         11    1    3    3    0    0  0.19453771444E+02  0.17024645100E+02 -0.16688251002E+02  0.30769879525E+02  0.51100000000E-03 0. -1.
        -11    1    3    3    0    0 -0.42073524890E+01  0.21202015299E+01  0.55998767896E+01  0.73181753063E+01  0.51100000000E-03 0.  1.
        -12    1    3    3    0    0  0.14308646833E+02 -0.74788355656E+01  0.13760364541E+02  0.21213627411E+02  0.00000000000E+00 0.  1.
</event>
<event>
 7    1  0.5837204E-012  0.5930196E+02  0.7816164E-02  0.1266605E+00
        -11   -1    0    0    0    0  0.00000000000E+00  0.00000000000E+00  0.45593999997E+02  0.45594000000E+02  0.51100000000E-03 0. -1.
         11   -1    0    0    0    0 -0.00000000000E+00 -0.00000000000E+00 -0.45593999997E+02  0.45594000000E+02  0.51100000000E-03 0.  1.
    9900012    2    1    2    0    0 -0.23006849927E+02 -0.20300543914E+02  0.86771029424E+01  0.59301963209E+02  0.50000034982E+02 0.  0.
         12    1    1    2    0    0  0.23006849927E+02  0.20300543914E+02 -0.86771029424E+01  0.31886036791E+02  0.00000000000E+00 0. -1.
         11    1    3    3    0    0 -0.96851357740E+01 -0.12368826237E+02 -0.45941597634E+01  0.16367529491E+02  0.51100000000E-03 0. -1.
        -11    1    3    3    0    0 -0.37754684144E+01 -0.81700944509E+01 -0.12527326884E+02  0.15425256050E+02  0.51100000000E-03 0.  1.
         12    1    3    3    0    0 -0.95462457383E+01  0.23837677364E+00  0.25798589590E+02  0.27509177669E+02  0.00000000000E+00 0. -1.
</event>
<event>
 7    1  0.5837204E-012  0.5930193E+02  0.7816164E-02  0.1266605E+00
        -11   -1    0    0    0    0  0.00000000000E+00  0.00000000000E+00  0.45593999997E+02  0.45594000000E+02  0.51100000000E-03 0.  1.
         11   -1    0    0    0    0 -0.00000000000E+00 -0.00000000000E+00 -0.45593999997E+02  0.45594000000E+02  0.51100000000E-03 0. -1.
    9900012    2    1    2    0    0  0.16478085303E+02 -0.21753078791E+02  0.16492360427E+02  0.59301926479E+02  0.49999967995E+02 0.  0.
         12    1    1    2    0    0 -0.16478085303E+02  0.21753078791E+02 -0.16492360427E+02  0.31886073521E+02  0.00000000000E+00 0. -1.
         11    1    3    3    0    0  0.61328193875E+01  0.89868679433E+01 -0.67871416536E+01  0.12823437962E+02  0.51100000000E-03 0. -1.
        -11    1    3    3    0    0 -0.43681573449E+01 -0.37249218531E+01  0.12718673136E+02  0.13954228320E+02  0.51100000000E-03 0.  1.
         12    1    3    3    0    0  0.14713423260E+02 -0.27015024881E+02  0.10560828945E+02  0.32524260197E+02  0.00000000000E+00 0. -1.
</event>
<event>
 7    1  0.5837204E-012  0.5930190E+02  0.7816164E-02  0.1266605E+00
        -11   -1    0    0    0    0  0.00000000000E+00  0.00000000000E+00  0.45593999997E+02  0.45594000000E+02  0.51100000000E-03 0.  1.
         11   -1    0    0    0    0 -0.00000000000E+00 -0.00000000000E+00 -0.45593999997E+02  0.45594000000E+02  0.51100000000E-03 0. -1.
    9900012    2    1    2    0    0 -0.47676827863E+01 -0.10253385512E+02  0.29813764218E+02  0.59301901925E+02  0.49999923215E+02 0.  0.
         12    1    1    2    0    0  0.47676827863E+01  0.10253385512E+02 -0.29813764218E+02  0.31886098075E+02  0.00000000000E+00 0. -1.
         11    1    3    3    0    0 -0.77515114553E+01  0.31997526661E+01  0.25336495745E+02  0.26688243926E+02  0.51100000000E-03 0. -1.
        -11    1    3    3    0    0  0.57833981045E+01 -0.59592620389E+01  0.16326344167E+02  0.18316932380E+02  0.51100000000E-03 0.  1.
        -12    1    3    3    0    0 -0.27995694355E+01 -0.74938761393E+01 -0.11849075694E+02  0.14296725619E+02  0.00000000000E+00 0.  1.
</event>
<event>
 7    1  0.5837204E-012  0.5930162E+02  0.7816164E-02  0.1266606E+00
        -11   -1    0    0    0    0  0.00000000000E+00  0.00000000000E+00  0.45593999997E+02  0.45594000000E+02  0.51100000000E-03 0.  1.
         11   -1    0    0    0    0 -0.00000000000E+00 -0.00000000000E+00 -0.45593999997E+02  0.45594000000E+02  0.51100000000E-03 0. -1.
    9900012    2    1    2    0    0 -0.36743908494E+00 -0.11217492464E+02  0.29845837971E+02  0.59301620575E+02  0.49999410096E+02 0.  0.
         12    1    1    2    0    0  0.36743908494E+00  0.11217492464E+02 -0.29845837971E+02  0.31886379425E+02  0.00000000000E+00 0. -1.
         11    1    3    3    0    0  0.13654090107E+02 -0.50180218672E+00  0.24254157270E+02  0.27837926058E+02  0.51100000000E-03 0. -1.
        -11    1    3    3    0    0 -0.40034467232E+01 -0.93261296151E+01  0.14693074288E+02  0.17857511348E+02  0.51100000000E-03 0.  1.
         12    1    3    3    0    0 -0.10018082469E+02 -0.13895606623E+01 -0.91013935869E+01  0.13606183168E+02  0.00000000000E+00 0. -1.
</event>
<event>
 7    1  0.5837204E-012  0.5930196E+02  0.7816164E-02  0.1266605E+00
        -11   -1    0    0    0    0  0.00000000000E+00  0.00000000000E+00  0.45593999997E+02  0.45594000000E+02  0.51100000000E-03 0. -1.
         11   -1    0    0    0    0 -0.00000000000E+00 -0.00000000000E+00 -0.45593999997E+02  0.45594000000E+02  0.51100000000E-03 0.  1.
    9900012    2    1    2    0    0 -0.78280705012E+01  0.28617598417E+02  0.11682218158E+02  0.59301955278E+02  0.50000020518E+02 0.  0.
         12    1    1    2    0    0  0.78280705012E+01 -0.28617598417E+02 -0.11682218158E+02  0.31886044722E+02  0.00000000000E+00 0. -1.
         11    1    3    3    0    0  0.35727095852E+01 -0.71130551270E+01  0.92234848679E+01  0.12183286929E+02  0.51100000000E-03 0. -1.
        -11    1    3    3    0    0 -0.17427778699E+02  0.10215002884E+02  0.49025206801E+01  0.20787218756E+02  0.51100000000E-03 0.  1.
         12    1    3    3    0    0  0.60269986131E+01  0.25515650660E+02 -0.24437873900E+01  0.26331449593E+02  0.00000000000E+00 0. -1.
</event>
<event>
 7    1  0.5837204E-012  0.5930193E+02  0.7816164E-02  0.1266605E+00
        -11   -1    0    0    0    0  0.00000000000E+00  0.00000000000E+00  0.45593999997E+02  0.45594000000E+02  0.51100000000E-03 0. -1.
         11   -1    0    0    0    0 -0.00000000000E+00 -0.00000000000E+00 -0.45593999997E+02  0.45594000000E+02  0.51100000000E-03 0.  1.
    9900012    2    1    2    0    0 -0.22153498518E+02 -0.21590207800E+02 -0.77334713013E+01  0.59301934897E+02  0.49999983347E+02 0.  0.
         12    1    1    2    0    0  0.22153498518E+02  0.21590207800E+02  0.77334713013E+01  0.31886065103E+02  0.00000000000E+00 0. -1.
         11    1    3    3    0    0 -0.17275967383E+02 -0.93093402063E+01  0.27639802590E+01  0.19818235320E+02  0.51100000000E-03 0. -1.
        -11    1    3    3    0    0  0.69709679314E+01 -0.21603349225E+02 -0.86592971620E+01  0.24295730473E+02  0.51100000000E-03 0.  1.
         12    1    3    3    0    0 -0.11848499066E+02  0.93224816309E+01 -0.18381543983E+01  0.15187969103E+02  0.00000000000E+00 0. -1.
</event>
<event>
 7    1  0.5837204E-012  0.5930198E+02  0.7816164E-02  0.1266605E+00
        -11   -1    0    0    0    0  0.00000000000E+00  0.00000000000E+00  0.45593999997E+02  0.45594000000E+02  0.51100000000E-03 0.  1.
         11   -1    0    0    0    0 -0.00000000000E+00 -0.00000000000E+00 -0.45593999997E+02  0.45594000000E+02  0.51100000000E-03 0. -1.
    9900012    2    1    2    0    0  0.30248312595E+02 -0.58082757330E+01  0.82475205835E+01  0.59301983040E+02  0.50000071149E+02 0.  0.
         12    1    1    2    0    0 -0.30248312595E+02  0.58082757330E+01 -0.82475205835E+01  0.31886016960E+02  0.00000000000E+00 0. -1.
         11    1    3    3    0    0  0.97490718306E+01 -0.68305505886E+01 -0.11597848488E+02  0.16619594240E+02  0.51100000000E-03 0.  1.
        -11    1    3    3    0    0  0.76931157052E+01 -0.17942440346E+01  0.26729867854E+02  0.27872731776E+02  0.51100000000E-03 0. -1.
         12    1    3    3    0    0  0.12806125059E+02  0.28165188902E+01 -0.68844987822E+01  0.14809657024E+02  0.00000000000E+00 0. -1.
</event>
<event>
 7    1  0.5837204E-012  0.5930192E+02  0.7816164E-02  0.1266605E+00
        -11   -1    0    0    0    0  0.00000000000E+00  0.00000000000E+00  0.45593999997E+02  0.45594000000E+02  0.51100000000E-03 0. -1.
         11   -1    0    0    0    0 -0.00000000000E+00 -0.00000000000E+00 -0.45593999997E+02  0.45594000000E+02  0.51100000000E-03 0.  1.
    9900012    2    1    2    0    0 -0.10168716827E+02  0.15754839370E+02 -0.25789616035E+02  0.59301920581E+02  0.49999957238E+02 0.  0.
         12    1    1    2    0    0  0.10168716827E+02 -0.15754839370E+02  0.25789616035E+02  0.31886079419E+02  0.00000000000E+00 0. -1.
         11    1    3    3    0    0  0.36374446866E+00  0.76740456826E+01  0.35247164631E+01  0.84526276141E+01  0.51100000000E-03 0. -1.
        -11    1    3    3    0    0 -0.63190289649E+01  0.23672563101E+02 -0.22685283852E+02  0.33390754328E+02  0.51100000000E-03 0.  1.
        -12    1    3    3    0    0 -0.42134323308E+01 -0.15591769414E+02 -0.66290486462E+01  0.17458538639E+02  0.00000000000E+00 0.  1.
</event>
<event>
 7    1  0.5837204E-012  0.5930194E+02  0.7816164E-02  0.1266605E+00
        -11   -1    0    0    0    0  0.00000000000E+00  0.00000000000E+00  0.45593999997E+02  0.45594000000E+02  0.51100000000E-03 0.  1.
         11   -1    0    0    0    0 -0.00000000000E+00 -0.00000000000E+00 -0.45593999997E+02  0.45594000000E+02  0.51100000000E-03 0. -1.
    9900012    2    1    2    0    0 -0.10848571083E+02  0.18774276971E+02  0.23378534822E+02  0.59301939397E+02  0.49999991555E+02 0.  0.
         12    1    1    2    0    0  0.10848571083E+02 -0.18774276971E+02 -0.23378534822E+02  0.31886060603E+02  0.00000000000E+00 0. -1.
         11    1    3    3    0    0 -0.70317776949E+01 -0.60677989735E+01  0.22778038248E+02  0.24598843644E+02  0.51100000000E-03 0. -1.
        -11    1    3    3    0    0 -0.13631528365E+02  0.17582519514E+02  0.23460848783E+01  0.22371134807E+02  0.51100000000E-03 0.  1.
        -12    1    3    3    0    0  0.98147349771E+01  0.72595564313E+01 -0.17455883046E+01  0.12331960946E+02  0.00000000000E+00 0.  1.
</event>
<event>
 7    1  0.5837204E-012  0.5930194E+02  0.7816164E-02  0.1266605E+00
        -11   -1    0    0    0    0  0.00000000000E+00  0.00000000000E+00  0.45593999997E+02  0.45594000000E+02  0.51100000000E-03 0.  1.
         11   -1    0    0    0    0 -0.00000000000E+00 -0.00000000000E+00 -0.45593999997E+02  0.45594000000E+02  0.51100000000E-03 0. -1.
    9900012    2    1    2    0    0  0.18417467324E+02 -0.24319210570E+02  0.92786692322E+01  0.59301940223E+02  0.49999993061E+02 0.  0.
         12    1    1    2    0    0 -0.18417467324E+02  0.24319210570E+02 -0.92786692322E+01  0.31886059777E+02  0.00000000000E+00 0. -1.
         11    1    3    3    0    0 -0.12503152374E+02 -0.39316413061E+01 -0.28205864984E+01  0.13406801673E+02  0.51100000000E-03 0. -1.
        -11    1    3    3    0    0  0.12715453549E+02 -0.11725424456E+02 -0.64881916852E+01  0.18473358364E+02  0.51100000000E-03 0.  1.
        -12    1    3    3    0    0  0.18205166149E+02 -0.86621448079E+01  0.18587447416E+02  0.27421780187E+02  0.00000000000E+00 0.  1.
</event>
<event>
 7    1  0.5837204E-012  0.5930193E+02  0.7816164E-02  0.1266605E+00
        -11   -1    0    0    0    0  0.00000000000E+00  0.00000000000E+00  0.45593999997E+02  0.45594000000E+02  0.51100000000E-03 0. -1.
         11   -1    0    0    0    0 -0.00000000000E+00 -0.00000000000E+00 -0.45593999997E+02  0.45594000000E+02  0.51100000000E-03 0.  1.
    9900012    2    1    2    0    0 -0.22355988124E+02  0.14887614710E+02  0.17184001948E+02  0.59301934082E+02  0.49999981862E+02 0.  0.
         12    1    1    2    0    0  0.22355988124E+02 -0.14887614710E+02 -0.17184001948E+02  0.31886065918E+02  0.00000000000E+00 0. -1.
         11    1    3    3    0    0 -0.27278964942E+02  0.28296298151E+01  0.21041477282E+02  0.34567217123E+02  0.51100000000E-03 0. -1.
        -11    1    3    3    0    0 -0.75692441411E+01  0.40059374215E+01 -0.48451415380E+01  0.98395319135E+01  0.51100000000E-03 0.  1.
         12    1    3    3    0    0  0.12492220959E+02  0.80520474733E+01  0.98766620464E+00  0.14895185046E+02  0.00000000000E+00 0. -1.
</event>
<event>
 7    1  0.5837204E-012  0.5930195E+02  0.7816164E-02  0.1266605E+00
        -11   -1    0    0    0    0  0.00000000000E+00  0.00000000000E+00  0.45593999997E+02  0.45594000000E+02  0.51100000000E-03 0. -1.
         11   -1    0    0    0    0 -0.00000000000E+00 -0.00000000000E+00 -0.45593999997E+02  0.45594000000E+02  0.51100000000E-03 0.  1.
    9900012    2    1    2    0    0 -0.10899238607E+02 -0.21093328866E+02 -0.21283758683E+02  0.59301948057E+02  0.50000007348E+02 0.  0.
         12    1    1    2    0    0  0.10899238607E+02  0.21093328866E+02  0.21283758683E+02  0.31886051943E+02  0.00000000000E+00 0. -1.
         11    1    3    3    0    0  0.10637255782E+02  0.94272409077E+01 -0.18912813601E+01  0.14338794480E+02  0.51100000000E-03 0. -1.
        -11    1    3    3    0    0 -0.17174549193E+01 -0.14670105560E+02 -0.10294473858E+02  0.18003828504E+02  0.51100000000E-03 0.  1.
        -12    1    3    3    0    0 -0.19819039469E+02 -0.15850464214E+02 -0.90980034650E+01  0.26959325072E+02  0.00000000000E+00 0.  1.
</event>
<event>
 7    1  0.5837204E-012  0.5930195E+02  0.7816164E-02  0.1266605E+00
        -11   -1    0    0    0    0  0.00000000000E+00  0.00000000000E+00  0.45593999997E+02  0.45594000000E+02  0.51100000000E-03 0.  1.
         11   -1    0    0    0    0 -0.00000000000E+00 -0.00000000000E+00 -0.45593999997E+02  0.45594000000E+02  0.51100000000E-03 0. -1.
    9900012    2    1    2    0    0  0.77014927130E+01 -0.24415926821E+02  0.19007098379E+02  0.59301948797E+02  0.50000008698E+02 0.  0.
         12    1    1    2    0    0 -0.77014927130E+01  0.24415926821E+02 -0.19007098379E+02  0.31886051203E+02  0.00000000000E+00 0. -1.
         11    1    3    3    0    0 -0.94583600649E+01 -0.28638478764E+02  0.13017497180E+02  0.32849326844E+02  0.51100000000E-03 0. -1.
        -11    1    3    3    0    0 -0.18430883697E+01  0.46247979212E+01 -0.25748936959E+01  0.56049806741E+01  0.51100000000E-03 0.  1.
        -12    1    3    3    0    0  0.19002941148E+02 -0.40224597828E+00  0.85644948953E+01  0.20847641279E+02  0.00000000000E+00 0.  1.
</event>
<event>
 7    1  0.5837204E-012  0.5930194E+02  0.7816164E-02  0.1266605E+00
        -11   -1    0    0    0    0  0.00000000000E+00  0.00000000000E+00  0.45593999997E+02  0.45594000000E+02  0.51100000000E-03 0. -1.
         11   -1    0    0    0    0 -0.00000000000E+00 -0.00000000000E+00 -0.45593999997E+02  0.45594000000E+02  0.51100000000E-03 0.  1.
    9900012    2    1    2    0    0 -0.11604394405E+02 -0.19755119940E+02 -0.22176431404E+02  0.59301939673E+02  0.49999992059E+02 0.  0.
         12    1    1    2    0    0  0.11604394405E+02  0.19755119940E+02  0.22176431404E+02  0.31886060327E+02  0.00000000000E+00 0. -1.
         11    1    3    3    0    0 -0.32430288309E+01 -0.22293526444E+02 -0.15688888569E+02  0.27452864734E+02  0.51100000000E-03 0. -1.
        -11    1    3    3    0    0  0.96783511268E+01  0.97549026060E+00  0.44476895576E+01  0.10695980761E+02  0.51100000000E-03 0.  1.
        -12    1    3    3    0    0 -0.18039716701E+02  0.15629162437E+01 -0.10935232393E+02  0.21153094178E+02  0.00000000000E+00 0.  1.
</event>
<event>
 7    1  0.5837204E-012  0.5930195E+02  0.7816164E-02  0.1266605E+00
        -11   -1    0    0    0    0  0.00000000000E+00  0.00000000000E+00  0.45593999997E+02  0.45594000000E+02  0.51100000000E-03 0. -1.
         11   -1    0    0    0    0 -0.00000000000E+00 -0.00000000000E+00 -0.45593999997E+02  0.45594000000E+02  0.51100000000E-03 0.  1.
    9900012    2    1    2    0    0  0.29696416427E+01  0.13912782666E+02 -0.28536569365E+02  0.59301951576E+02  0.50000013767E+02 0.  0.
         12    1    1    2    0    0 -0.29696416427E+01 -0.13912782666E+02  0.28536569365E+02  0.31886048424E+02  0.00000000000E+00 0. -1.
         11    1    3    3    0    0 -0.70023937561E+01  0.26842645311E+00 -0.93414555646E+01  0.11677686560E+02  0.51100000000E-03 0. -1.
        -11    1    3    3    0    0 -0.19702907760E+00  0.21452350671E+01 -0.29214101969E+02  0.29293422608E+02  0.51100000000E-03 0.  1.
         12    1    3    3    0    0  0.10169064476E+02  0.11499121146E+02  0.10018988169E+02  0.18330842408E+02  0.00000000000E+00 0. -1.
</event>
<event>
 7    1  0.5837204E-012  0.5930194E+02  0.7816164E-02  0.1266605E+00
        -11   -1    0    0    0    0  0.00000000000E+00  0.00000000000E+00  0.45593999997E+02  0.45594000000E+02  0.51100000000E-03 0. -1.
         11   -1    0    0    0    0 -0.00000000000E+00 -0.00000000000E+00 -0.45593999997E+02  0.45594000000E+02  0.51100000000E-03 0.  1.
    9900012    2    1    2    0    0  0.20585157911E+02  0.54274384122E+01 -0.23738471488E+02  0.59301939683E+02  0.49999992077E+02 0.  0.
         12    1    1    2    0    0 -0.20585157911E+02 -0.54274384122E+01  0.23738471488E+02  0.31886060317E+02  0.00000000000E+00 0. -1.
         11    1    3    3    0    0  0.12992716062E+02 -0.40330917030E+01  0.69601724334E+01  0.15281377553E+02  0.51100000000E-03 0. -1.
        -11    1    3    3    0    0  0.14721858876E+02  0.40823179585E+01 -0.38918142917E+01  0.15765299472E+02  0.51100000000E-03 0.  1.
        -12    1    3    3    0    0 -0.71294170268E+01  0.53782121567E+01 -0.26806829629E+02  0.28255262659E+02  0.00000000000E+00 0.  1.
</event>
<event>
 7    1  0.5837204E-012  0.5930194E+02  0.7816164E-02  0.1266605E+00
        -11   -1    0    0    0    0  0.00000000000E+00  0.00000000000E+00  0.45593999997E+02  0.45594000000E+02  0.51100000000E-03 0.  1.
         11   -1    0    0    0    0 -0.00000000000E+00 -0.00000000000E+00 -0.45593999997E+02  0.45594000000E+02  0.51100000000E-03 0. -1.
    9900012    2    1    2    0    0 -0.67113612606E+01  0.10347298339E+02  0.29404279902E+02  0.59301943025E+02  0.49999998171E+02 0.  0.
         12    1    1    2    0    0  0.67113612606E+01 -0.10347298339E+02 -0.29404279902E+02  0.31886056975E+02  0.00000000000E+00 0. -1.
         11    1    3    3    0    0  0.42067041544E+01  0.66696004114E+01  0.19146806601E+01  0.81145506210E+01  0.51100000000E-03 0. -1.
        -11    1    3    3    0    0  0.87286359845E+01  0.76487101562E+01  0.28850430342E+02  0.31097253647E+02  0.51100000000E-03 0.  1.
        -12    1    3    3    0    0 -0.19646701399E+02 -0.39710122283E+01 -0.13608311000E+01  0.20090138757E+02  0.00000000000E+00 0.  1.
</event>
<event>
 7    1  0.5837204E-012  0.5930193E+02  0.7816164E-02  0.1266605E+00
        -11   -1    0    0    0    0  0.00000000000E+00  0.00000000000E+00  0.45593999997E+02  0.45594000000E+02  0.51100000000E-03 0. -1.
         11   -1    0    0    0    0 -0.00000000000E+00 -0.00000000000E+00 -0.45593999997E+02  0.45594000000E+02  0.51100000000E-03 0.  1.
    9900012    2    1    2    0    0 -0.53957786006E+01 -0.30936977643E+02  0.55236483930E+01  0.59301926176E+02  0.49999967442E+02 0.  0.
         12    1    1    2    0    0  0.53957786006E+01  0.30936977643E+02 -0.55236483930E+01  0.31886073824E+02  0.00000000000E+00 0. -1.
         11    1    3    3    0    0 -0.72146668407E+01  0.51055626284E+01  0.43061569550E+01  0.98316415393E+01  0.51100000000E-03 0. -1.
        -11    1    3    3    0    0  0.95386979668E+01 -0.13969544161E+02  0.14758333131E+02  0.22448681922E+02  0.51100000000E-03 0.  1.
        -12    1    3    3    0    0 -0.77198097267E+01 -0.22072996110E+02 -0.13540841693E+02  0.27021602715E+02  0.00000000000E+00 0.  1.
</event>
<event>
 7    1  0.5837204E-012  0.5930190E+02  0.7816164E-02  0.1266605E+00
        -11   -1    0    0    0    0  0.00000000000E+00  0.00000000000E+00  0.45593999997E+02  0.45594000000E+02  0.51100000000E-03 0. -1.
         11   -1    0    0    0    0 -0.00000000000E+00 -0.00000000000E+00 -0.45593999997E+02  0.45594000000E+02  0.51100000000E-03 0.  1.
    9900012    2    1    2    0    0 -0.13354659107E+02  0.28229770936E+02 -0.64386709786E+01  0.59301900036E+02  0.49999919769E+02 0.  0.
         12    1    1    2    0    0  0.13354659107E+02 -0.28229770936E+02  0.64386709786E+01  0.31886099964E+02  0.00000000000E+00 0. -1.
         11    1    3    3    0    0 -0.83822900346E+00  0.11103719155E+02 -0.17703375942E+02  0.20914223077E+02  0.51100000000E-03 0. -1.
        -11    1    3    3    0    0 -0.82216779221E+01  0.22028505055E+02 -0.20107504340E+01  0.23598604627E+02  0.51100000000E-03 0.  1.
         12    1    3    3    0    0 -0.42947521815E+01 -0.49024532732E+01  0.13275455397E+02  0.14789072331E+02  0.00000000000E+00 0. -1.
</event>
<event>
 7    1  0.5837204E-012  0.5930197E+02  0.7816164E-02  0.1266605E+00
        -11   -1    0    0    0    0  0.00000000000E+00  0.00000000000E+00  0.45593999997E+02  0.45594000000E+02  0.51100000000E-03 0.  1.
         11   -1    0    0    0    0 -0.00000000000E+00 -0.00000000000E+00 -0.45593999997E+02  0.45594000000E+02  0.51100000000E-03 0. -1.
    9900012    2    1    2    0    0  0.26108466272E+02  0.54247586079E+01  0.17482522205E+02  0.59301974853E+02  0.50000056217E+02 0.  0.
         12    1    1    2    0    0 -0.26108466272E+02 -0.54247586079E+01 -0.17482522205E+02  0.31886025147E+02  0.00000000000E+00 0. -1.
         11    1    3    3    0    0  0.21817442690E+02  0.70874225517E+01  0.33582952735E+02  0.40669977607E+02  0.51100000000E-03 0.  1.
        -11    1    3    3    0    0  0.59342509748E+01 -0.20414056434E+01 -0.71040372751E+01  0.94789249127E+01  0.51100000000E-03 0. -1.
        -12    1    3    3    0    0 -0.16432273923E+01  0.37874169965E+00 -0.89963932542E+01  0.91530723324E+01  0.00000000000E+00 0.  1.
</event>
<event>
 7    1  0.5837204E-012  0.5930205E+02  0.7816164E-02  0.1266604E+00
        -11   -1    0    0    0    0  0.00000000000E+00  0.00000000000E+00  0.45593999997E+02  0.45594000000E+02  0.51100000000E-03 0.  1.
         11   -1    0    0    0    0 -0.00000000000E+00 -0.00000000000E+00 -0.45593999997E+02  0.45594000000E+02  0.51100000000E-03 0. -1.
    9900012    2    1    2    0    0  0.11334924076E+02  0.23595764274E+02  0.18206404785E+02  0.59302050576E+02  0.50000194318E+02 0.  0.
         12    1    1    2    0    0 -0.11334924076E+02 -0.23595764274E+02 -0.18206404785E+02  0.31885949424E+02  0.00000000000E+00 0. -1.
         11    1    3    3    0    0 -0.57724812755E+01 -0.47382290899E+01  0.58336551798E+01  0.94764913339E+01  0.51100000000E-03 0. -1.
        -11    1    3    3    0    0 -0.36867081595E+01  0.43760572776E+01  0.16843236607E+02  0.17788656891E+02  0.51100000000E-03 0.  1.
        -12    1    3    3    0    0  0.20794113511E+02  0.23957936086E+02 -0.44704870011E+01  0.32036902351E+02  0.00000000000E+00 0.  1.
</event>
<event>
 7    1  0.5837204E-012  0.5930194E+02  0.7816164E-02  0.1266605E+00
        -11   -1    0    0    0    0  0.00000000000E+00  0.00000000000E+00  0.45593999997E+02  0.45594000000E+02  0.51100000000E-03 0. -1.
         11   -1    0    0    0    0 -0.00000000000E+00 -0.00000000000E+00 -0.45593999997E+02  0.45594000000E+02  0.51100000000E-03 0.  1.
    9900012    2    1    2    0    0  0.25351378889E+02  0.17365233013E+01 -0.19261689605E+02  0.59301943311E+02  0.49999998693E+02 0.  0.
         12    1    1    2    0    0 -0.25351378889E+02 -0.17365233013E+01  0.19261689605E+02  0.31886056689E+02  0.00000000000E+00 0. -1.
         11    1    3    3    0    0  0.91223115038E+00  0.57881695924E+01 -0.21099411574E+02  0.21897950633E+02  0.51100000000E-03 0.  1.
        -11    1    3    3    0    0  0.51750341133E+01 -0.14240745198E+02 -0.19755588071E+01  0.15280138570E+02  0.51100000000E-03 0. -1.
        -12    1    3    3    0    0  0.19264113625E+02  0.10189098907E+02  0.38132807766E+01  0.22123854108E+02  0.00000000000E+00 0.  1.
</event>
<event>
 7    1  0.5837204E-012  0.5930178E+02  0.7816164E-02  0.1266605E+00
        -11   -1    0    0    0    0  0.00000000000E+00  0.00000000000E+00  0.45593999997E+02  0.45594000000E+02  0.51100000000E-03 0.  1.
         11   -1    0    0    0    0 -0.00000000000E+00 -0.00000000000E+00 -0.45593999997E+02  0.45594000000E+02  0.51100000000E-03 0. -1.
    9900012    2    1    2    0    0  0.70627069136E+01 -0.21335480237E+02  0.22619605524E+02  0.59301778839E+02  0.49999698734E+02 0.  0.
         12    1    1    2    0    0 -0.70627069136E+01  0.21335480237E+02 -0.22619605524E+02  0.31886221161E+02  0.00000000000E+00 0. -1.
         11    1    3    3    0    0  0.85987772778E+01 -0.58417381319E+01 -0.81019946091E+01  0.13179802426E+02  0.51100000000E-03 0. -1.
        -11    1    3    3    0    0 -0.23904739400E+01  0.76179265797E+01  0.18081298762E+02  0.19765640294E+02  0.51100000000E-03 0.  1.
        -12    1    3    3    0    0  0.85440357578E+00 -0.23111668685E+02  0.12640301371E+02  0.26356336119E+02  0.00000000000E+00 0.  1.
</event>
<event>
 7    1  0.5837204E-012  0.5930199E+02  0.7816164E-02  0.1266605E+00
        -11   -1    0    0    0    0  0.00000000000E+00  0.00000000000E+00  0.45593999997E+02  0.45594000000E+02  0.51100000000E-03 0.  1.
         11   -1    0    0    0    0 -0.00000000000E+00 -0.00000000000E+00 -0.45593999997E+02  0.45594000000E+02  0.51100000000E-03 0. -1.
    9900012    2    1    2    0    0  0.24209501813E+02  0.20573073012E+02 -0.27140493370E+01  0.59301994057E+02  0.50000091241E+02 0.  0.
         12    1    1    2    0    0 -0.24209501813E+02 -0.20573073012E+02  0.27140493370E+01  0.31886005943E+02  0.00000000000E+00 0. -1.
         11    1    3    3    0    0  0.46974200164E+01  0.25753449865E+02  0.68851463734E+01  0.27068638229E+02  0.51100000000E-03 0.  1.
        -11    1    3    3    0    0  0.33783975781E+01  0.80510918596E+01 -0.70314647515E+01  0.11210492725E+02  0.51100000000E-03 0. -1.
         12    1    3    3    0    0  0.16133684219E+02 -0.13231468712E+02 -0.25677309589E+01  0.21022863103E+02  0.00000000000E+00 0. -1.
</event>
<event>
 7    1  0.5837204E-012  0.5930195E+02  0.7816164E-02  0.1266605E+00
        -11   -1    0    0    0    0  0.00000000000E+00  0.00000000000E+00  0.45593999997E+02  0.45594000000E+02  0.51100000000E-03 0.  1.
         11   -1    0    0    0    0 -0.00000000000E+00 -0.00000000000E+00 -0.45593999997E+02  0.45594000000E+02  0.51100000000E-03 0. -1.
    9900012    2    1    2    0    0  0.73680995552E+01  0.30645144208E+02  0.48276955112E+01  0.59301946646E+02  0.50000004775E+02 0.  0.
         12    1    1    2    0    0 -0.73680995552E+01 -0.30645144208E+02 -0.48276955112E+01  0.31886053354E+02  0.00000000000E+00 0. -1.
         11    1    3    3    0    0  0.94220615174E+01 -0.39115382968E+01 -0.10263797998E+02  0.14471382957E+02  0.51100000000E-03 0. -1.
        -11    1    3    3    0    0  0.78300680781E+01  0.15151477557E+02 -0.19659955207E+01  0.17168062701E+02  0.51100000000E-03 0.  1.
        -12    1    3    3    0    0 -0.98840300404E+01  0.19405204948E+02  0.17057489030E+02  0.27662500988E+02  0.00000000000E+00 0.  1.
</event>
<event>
 7    1  0.5837204E-012  0.5930197E+02  0.7816164E-02  0.1266605E+00
        -11   -1    0    0    0    0  0.00000000000E+00  0.00000000000E+00  0.45593999997E+02  0.45594000000E+02  0.51100000000E-03 0. -1.
         11   -1    0    0    0    0 -0.00000000000E+00 -0.00000000000E+00 -0.45593999997E+02  0.45594000000E+02  0.51100000000E-03 0.  1.
    9900012    2    1    2    0    0  0.24207927049E+02 -0.19861079643E+02 -0.60193679046E+01  0.59301968473E+02  0.50000044582E+02 0.  0.
         12    1    1    2    0    0 -0.24207927049E+02  0.19861079643E+02  0.60193679046E+01  0.31886031527E+02  0.00000000000E+00 0. -1.
         11    1    3    3    0    0 -0.31541946769E+01 -0.15812073253E+02 -0.49874503929E+01  0.16877359577E+02  0.51100000000E-03 0. -1.
        -11    1    3    3    0    0  0.18720214547E+02 -0.16457201290E+02 -0.74244308364E+01  0.26007846518E+02  0.51100000000E-03 0.  1.
         12    1    3    3    0    0  0.86419071781E+01  0.12408194900E+02  0.63925133247E+01  0.16416762377E+02  0.00000000000E+00 0. -1.
</event>
<event>
 7    1  0.5837204E-012  0.5930195E+02  0.7816164E-02  0.1266605E+00
        -11   -1    0    0    0    0  0.00000000000E+00  0.00000000000E+00  0.45593999997E+02  0.45594000000E+02  0.51100000000E-03 0.  1.
         11   -1    0    0    0    0 -0.00000000000E+00 -0.00000000000E+00 -0.45593999997E+02  0.45594000000E+02  0.51100000000E-03 0. -1.
    9900012    2    1    2    0    0  0.64183021360E+01  0.21786141520E+02  0.22380569106E+02  0.59301946024E+02  0.50000003641E+02 0.  0.
         12    1    1    2    0    0 -0.64183021360E+01 -0.21786141520E+02 -0.22380569106E+02  0.31886053976E+02  0.00000000000E+00 0. -1.
         11    1    3    3    0    0  0.21857944187E+02  0.95964989324E+01  0.69352090966E+00  0.23881865241E+02  0.51100000000E-03 0. -1.
        -11    1    3    3    0    0 -0.47105981770E+01 -0.41107570541E+01  0.85197010160E-02  0.62520501909E+01  0.51100000000E-03 0.  1.
        -12    1    3    3    0    0 -0.10729043874E+02  0.16300399642E+02  0.21678528495E+02  0.29168030593E+02  0.00000000000E+00 0.  1.
</event>
<event>
 7    1  0.7392877E-012  0.5930191E+02  0.7816164E-02  0.1266605E+00
        -11   -1    0    0    0    0  0.00000000000E+00  0.00000000000E+00  0.45593999997E+02  0.45594000000E+02  0.51100000000E-03 0. -1.
         11   -1    0    0    0    0 -0.00000000000E+00 -0.00000000000E+00 -0.45593999997E+02  0.45594000000E+02  0.51100000000E-03 0.  1.
    9900012    2    1    2    0    0  0.27977125462E+02  0.99334391857E+01 -0.11633145541E+02  0.59301908387E+02  0.49999935000E+02 0.  0.
         12    1    1    2    0    0 -0.27977125462E+02 -0.99334391857E+01  0.11633145541E+02  0.31886091613E+02  0.00000000000E+00 0. -1.
         11    1    3    3    0    0 -0.64514275405E+01  0.10701610621E+02 -0.15070383367E+01  0.12586363732E+02  0.51100000000E-03 0. -1.
        -11    1    3    3    0    0  0.47606060517E+01  0.11298300022E+02  0.20896462162E+01  0.12437104765E+02  0.51100000000E-03 0.  1.
        -12    1    3    3    0    0  0.29667946951E+02 -0.12066471457E+02 -0.12215753420E+02  0.34278439890E+02  0.00000000000E+00 0.  1.
</event>
<event>
 7    1  0.5837204E-012  0.5930191E+02  0.7816164E-02  0.1266605E+00
        -11   -1    0    0    0    0  0.00000000000E+00  0.00000000000E+00  0.45593999997E+02  0.45594000000E+02  0.51100000000E-03 0. -1.
         11   -1    0    0    0    0 -0.00000000000E+00 -0.00000000000E+00 -0.45593999997E+02  0.45594000000E+02  0.51100000000E-03 0.  1.
    9900012    2    1    2    0    0 -0.19199905607E+02 -0.19850575130E+02  0.15938669565E+02  0.59301907486E+02  0.49999933357E+02 0.  0.
         12    1    1    2    0    0  0.19199905607E+02  0.19850575130E+02 -0.15938669565E+02  0.31886092514E+02  0.00000000000E+00 0. -1.
         11    1    3    3    0    0 -0.52918622326E+01 -0.94556906353E+01 -0.10730175750E+02  0.15249608623E+02  0.51100000000E-03 0. -1.
        -11    1    3    3    0    0  0.21875800972E+01 -0.16440286278E+02  0.19016345379E+02  0.25232715102E+02  0.51100000000E-03 0.  1.
         12    1    3    3    0    0 -0.16095623472E+02  0.60454017828E+01  0.76524999359E+01  0.18819583761E+02  0.00000000000E+00 0. -1.
</event>
<event>
 7    1  0.5837204E-012  0.5930194E+02  0.7816164E-02  0.1266605E+00
        -11   -1    0    0    0    0  0.00000000000E+00  0.00000000000E+00  0.45593999997E+02  0.45594000000E+02  0.51100000000E-03 0.  1.
         11   -1    0    0    0    0 -0.00000000000E+00 -0.00000000000E+00 -0.45593999997E+02  0.45594000000E+02  0.51100000000E-03 0. -1.
    9900012    2    1    2    0    0 -0.92119483502E+01 -0.22767114324E+02  0.20335180251E+02  0.59301936542E+02  0.49999986347E+02 0.  0.
         12    1    1    2    0    0  0.92119483502E+01  0.22767114324E+02 -0.20335180251E+02  0.31886063458E+02  0.00000000000E+00 0. -1.
         11    1    3    3    0    0  0.96667838279E+00  0.18694190756E+01 -0.11599229903E+02  0.11788610155E+02  0.51100000000E-03 0. -1.
        -11    1    3    3    0    0 -0.54084579903E+01  0.32957715765E+01  0.29783468889E+01  0.69988626625E+01  0.51100000000E-03 0.  1.
         12    1    3    3    0    0 -0.47701687427E+01 -0.27932304976E+02  0.28956063265E+02  0.40514463725E+02  0.00000000000E+00 0. -1.
</event>
<event>
 7    1  0.5837204E-012  0.5930194E+02  0.7816164E-02  0.1266605E+00
        -11   -1    0    0    0    0  0.00000000000E+00  0.00000000000E+00  0.45593999997E+02  0.45594000000E+02  0.51100000000E-03 0. -1.
         11   -1    0    0    0    0 -0.00000000000E+00 -0.00000000000E+00 -0.45593999997E+02  0.45594000000E+02  0.51100000000E-03 0.  1.
    9900012    2    1    2    0    0 -0.31365474997E+01  0.31151607908E+02  0.60382279747E+01  0.59301940310E+02  0.49999993220E+02 0.  0.
         12    1    1    2    0    0  0.31365474997E+01 -0.31151607908E+02 -0.60382279747E+01  0.31886059690E+02  0.00000000000E+00 0. -1.
         11    1    3    3    0    0 -0.24298249575E+01  0.35947138001E+02  0.12631918814E+02  0.38179394351E+02  0.51100000000E-03 0. -1.
        -11    1    3    3    0    0 -0.11566930452E+01  0.81326853898E+00  0.66154544028E+01  0.67648785454E+01  0.51100000000E-03 0.  1.
        -12    1    3    3    0    0  0.44997050299E+00 -0.56087986323E+01 -0.13209145242E+02  0.14357667414E+02  0.00000000000E+00 0.  1.
</event>
<event>
 7    1  0.5837204E-012  0.5930199E+02  0.7816164E-02  0.1266605E+00
        -11   -1    0    0    0    0  0.00000000000E+00  0.00000000000E+00  0.45593999997E+02  0.45594000000E+02  0.51100000000E-03 0. -1.
         11   -1    0    0    0    0 -0.00000000000E+00 -0.00000000000E+00 -0.45593999997E+02  0.45594000000E+02  0.51100000000E-03 0.  1.
    9900012    2    1    2    0    0  0.13565910579E+02  0.16002645680E+01 -0.28811856960E+02  0.59301986169E+02  0.50000076855E+02 0.  0.
         12    1    1    2    0    0 -0.13565910579E+02 -0.16002645680E+01  0.28811856960E+02  0.31886013831E+02  0.00000000000E+00 0. -1.
         11    1    3    3    0    0 -0.98232222309E+01 -0.38912427685E+00  0.27356114152E+01  0.10204444266E+02  0.51100000000E-03 0. -1.
        -11    1    3    3    0    0  0.63030729258E+01 -0.12308959764E+02 -0.19087448454E+02  0.23570530489E+02  0.51100000000E-03 0.  1.
        -12    1    3    3    0    0  0.17086059884E+02  0.14298348609E+02 -0.12460019922E+02  0.25527011414E+02  0.00000000000E+00 0.  1.
</event>
<event>
 7    1  0.5837204E-012  0.5930186E+02  0.7816164E-02  0.1266605E+00
        -11   -1    0    0    0    0  0.00000000000E+00  0.00000000000E+00  0.45593999997E+02  0.45594000000E+02  0.51100000000E-03 0. -1.
         11   -1    0    0    0    0 -0.00000000000E+00 -0.00000000000E+00 -0.45593999997E+02  0.45594000000E+02  0.51100000000E-03 0.  1.
    9900012    2    1    2    0    0 -0.28839003436E+02  0.13566896062E+02 -0.98846393045E+00  0.59301861179E+02  0.49999848904E+02 0.  0.
         12    1    1    2    0    0  0.28839003436E+02 -0.13566896062E+02  0.98846393045E+00  0.31886138821E+02  0.00000000000E+00 0. -1.
         11    1    3    3    0    0 -0.41846631258E+01  0.25559930336E+01 -0.78727175146E+01  0.92749224898E+01  0.51100000000E-03 0. -1.
        -11    1    3    3    0    0 -0.50537912939E+00  0.12050181142E+02 -0.13718603013E+02  0.18266426649E+02  0.51100000000E-03 0.  1.
         12    1    3    3    0    0 -0.24148961181E+02 -0.10392781135E+01  0.20602856598E+02  0.31760512041E+02  0.00000000000E+00 0. -1.
</event>
<event>
 7    1  0.5837204E-012  0.5930195E+02  0.7816164E-02  0.1266605E+00
        -11   -1    0    0    0    0  0.00000000000E+00  0.00000000000E+00  0.45593999997E+02  0.45594000000E+02  0.51100000000E-03 0.  1.
         11   -1    0    0    0    0 -0.00000000000E+00 -0.00000000000E+00 -0.45593999997E+02  0.45594000000E+02  0.51100000000E-03 0. -1.
    9900012    2    1    2    0    0 -0.14200461102E+02  0.24130712558E+02  0.15256999387E+02  0.59301946397E+02  0.50000004322E+02 0.  0.
         12    1    1    2    0    0  0.14200461102E+02 -0.24130712558E+02 -0.15256999387E+02  0.31886053603E+02  0.00000000000E+00 0. -1.
         11    1    3    3    0    0 -0.75554243643E+00 -0.31298121119E+01  0.27722422176E+00  0.32316283448E+01  0.51100000000E-03 0. -1.
        -11    1    3    3    0    0 -0.73645777852E+01  0.10376934662E+01  0.25955596383E+02  0.27000125880E+02  0.51100000000E-03 0.  1.
         12    1    3    3    0    0 -0.60803408801E+01  0.26222831204E+02 -0.10975821218E+02  0.29070192173E+02  0.00000000000E+00 0. -1.
</event>
<event>
 7    1  0.5837204E-012  0.5930196E+02  0.7816164E-02  0.1266605E+00
        -11   -1    0    0    0    0  0.00000000000E+00  0.00000000000E+00  0.45593999997E+02  0.45594000000E+02  0.51100000000E-03 0.  1.
         11   -1    0    0    0    0 -0.00000000000E+00 -0.00000000000E+00 -0.45593999997E+02  0.45594000000E+02  0.51100000000E-03 0. -1.
    9900012    2    1    2    0    0  0.74909925786E+01 -0.28514634383E+02  0.12145780862E+02  0.59301963298E+02  0.50000035145E+02 0.  0.
         12    1    1    2    0    0 -0.74909925786E+01  0.28514634383E+02 -0.12145780862E+02  0.31886036702E+02  0.00000000000E+00 0. -1.
         11    1    3    3    0    0  0.53174535303E+01 -0.24805773148E+02 -0.86547389694E+01  0.26804965966E+02  0.51100000000E-03 0. -1.
        -11    1    3    3    0    0  0.78241067984E+01  0.20231568029E+01 -0.19934368600E+01  0.83236771572E+01  0.51100000000E-03 0.  1.
         12    1    3    3    0    0 -0.56505677501E+01 -0.57320180374E+01  0.22793956691E+02  0.24173320176E+02  0.00000000000E+00 0. -1.
</event>
<event>
 7    1  0.5837204E-012  0.5930195E+02  0.7816164E-02  0.1266605E+00
        -11   -1    0    0    0    0  0.00000000000E+00  0.00000000000E+00  0.45593999997E+02  0.45594000000E+02  0.51100000000E-03 0.  1.
         11   -1    0    0    0    0 -0.00000000000E+00 -0.00000000000E+00 -0.45593999997E+02  0.45594000000E+02  0.51100000000E-03 0. -1.
    9900012    2    1    2    0    0  0.33815157710E+01  0.22514752988E+02  0.22324238291E+02  0.59301947151E+02  0.50000005697E+02 0.  0.
         12    1    1    2    0    0 -0.33815157710E+01 -0.22514752988E+02 -0.22324238291E+02  0.31886052849E+02  0.00000000000E+00 0. -1.
         11    1    3    3    0    0  0.10333516962E+02  0.27300552731E+02  0.15332216121E+01  0.29231019842E+02  0.51100000000E-03 0. -1.
        -11    1    3    3    0    0  0.26103226733E+01 -0.70381367937E+01  0.49569856578E+00  0.75229562882E+01  0.51100000000E-03 0.  1.
        -12    1    3    3    0    0 -0.95623238642E+01  0.22523370499E+01  0.20295318113E+02  0.22547971021E+02  0.00000000000E+00 0.  1.
</event>
<event>
 7    1  0.5837204E-012  0.5930193E+02  0.7816164E-02  0.1266605E+00
        -11   -1    0    0    0    0  0.00000000000E+00  0.00000000000E+00  0.45593999997E+02  0.45594000000E+02  0.51100000000E-03 0.  1.
         11   -1    0    0    0    0 -0.00000000000E+00 -0.00000000000E+00 -0.45593999997E+02  0.45594000000E+02  0.51100000000E-03 0. -1.
    9900012    2    1    2    0    0  0.15132421106E+02 -0.77296500857E+00  0.28055901787E+02  0.59301933003E+02  0.49999979894E+02 0.  0.
         12    1    1    2    0    0 -0.15132421106E+02  0.77296500857E+00 -0.28055901787E+02  0.31886066997E+02  0.00000000000E+00 0. -1.
         11    1    3    3    0    0  0.14856206813E+01  0.49145994508E+01  0.78221887884E+01  0.93566550793E+01  0.51100000000E-03 0. -1.
        -11    1    3    3    0    0  0.16382385285E+02 -0.14940710406E+01  0.32648590825E+02  0.36558792089E+02  0.51100000000E-03 0.  1.
         12    1    3    3    0    0 -0.27355848601E+01 -0.41934934187E+01 -0.12414877826E+02  0.13386485835E+02  0.00000000000E+00 0. -1.
</event>
<event>
 7    1  0.5837204E-012  0.5930196E+02  0.7816164E-02  0.1266605E+00
        -11   -1    0    0    0    0  0.00000000000E+00  0.00000000000E+00  0.45593999997E+02  0.45594000000E+02  0.51100000000E-03 0.  1.
         11   -1    0    0    0    0 -0.00000000000E+00 -0.00000000000E+00 -0.45593999997E+02  0.45594000000E+02  0.51100000000E-03 0. -1.
    9900012    2    1    2    0    0 -0.20314142516E+02  0.18722509029E+02  0.15922406139E+02  0.59301956850E+02  0.50000023385E+02 0.  0.
         12    1    1    2    0    0  0.20314142516E+02 -0.18722509029E+02 -0.15922406139E+02  0.31886043150E+02  0.00000000000E+00 0. -1.
         11    1    3    3    0    0  0.86358722428E+01 -0.65083016158E+01  0.12494905823E+02  0.16524495487E+02  0.51100000000E-03 0. -1.
        -11    1    3    3    0    0 -0.70621921841E+01  0.12936044172E+00  0.61456054814E+01  0.93626790804E+01  0.51100000000E-03 0.  1.
        -12    1    3    3    0    0 -0.21887822575E+02  0.25101450203E+02 -0.27181051647E+01  0.33414782283E+02  0.00000000000E+00 0.  1.
</event>
<event>
 7    1  0.5837204E-012  0.5930194E+02  0.7816164E-02  0.1266605E+00
        -11   -1    0    0    0    0  0.00000000000E+00  0.00000000000E+00  0.45593999997E+02  0.45594000000E+02  0.51100000000E-03 0. -1.
         11   -1    0    0    0    0 -0.00000000000E+00 -0.00000000000E+00 -0.45593999997E+02  0.45594000000E+02  0.51100000000E-03 0.  1.
    9900012    2    1    2    0    0  0.48356648046E+01  0.29164140712E+02 -0.11949470780E+02  0.59301943338E+02  0.49999998741E+02 0.  0.
         12    1    1    2    0    0 -0.48356648046E+01 -0.29164140712E+02  0.11949470780E+02  0.31886056662E+02  0.00000000000E+00 0. -1.
         11    1    3    3    0    0 -0.20730159490E+01 -0.36040809855E+00  0.53337719382E+01  0.57337956427E+01  0.51100000000E-03 0. -1.
        -11    1    3    3    0    0  0.15069350665E+02 -0.15052933234E+01 -0.15135893270E+02  0.21411363871E+02  0.51100000000E-03 0.  1.
         12    1    3    3    0    0 -0.81606699118E+01  0.31029842134E+02 -0.21473494481E+01  0.32156783824E+02  0.00000000000E+00 0. -1.
</event>
<event>
 7    1  0.5837204E-012  0.5930197E+02  0.7816164E-02  0.1266605E+00
        -11   -1    0    0    0    0  0.00000000000E+00  0.00000000000E+00  0.45593999997E+02  0.45594000000E+02  0.51100000000E-03 0. -1.
         11   -1    0    0    0    0 -0.00000000000E+00 -0.00000000000E+00 -0.45593999997E+02  0.45594000000E+02  0.51100000000E-03 0.  1.
    9900012    2    1    2    0    0 -0.28806338066E+02 -0.88086485650E+01  0.10455683905E+02  0.59301972837E+02  0.50000052541E+02 0.  0.
         12    1    1    2    0    0  0.28806338066E+02  0.88086485650E+01 -0.10455683905E+02  0.31886027163E+02  0.00000000000E+00 0. -1.
         11    1    3    3    0    0  0.18931475022E+01  0.53757581759E+00  0.11100208012E+02  0.11273314215E+02  0.51100000000E-03 0. -1.
        -11    1    3    3    0    0 -0.25706497965E+02  0.40459841616E+01  0.12265432984E+02  0.28768643903E+02  0.51100000000E-03 0.  1.
         12    1    3    3    0    0 -0.49929876034E+01 -0.13392208544E+02 -0.12909957091E+02  0.19260014719E+02  0.00000000000E+00 0. -1.
</event>
<event>
 7    1  0.5837204E-012  0.5930182E+02  0.7816164E-02  0.1266605E+00
        -11   -1    0    0    0    0  0.00000000000E+00  0.00000000000E+00  0.45593999997E+02  0.45594000000E+02  0.51100000000E-03 0. -1.
         11   -1    0    0    0    0 -0.00000000000E+00 -0.00000000000E+00 -0.45593999997E+02  0.45594000000E+02  0.51100000000E-03 0.  1.
    9900012    2    1    2    0    0  0.12858470405E+02  0.28647107388E+02  0.55435827889E+01  0.59301822227E+02  0.49999777863E+02 0.  0.
         12    1    1    2    0    0 -0.12858470405E+02 -0.28647107388E+02 -0.55435827889E+01  0.31886177773E+02  0.00000000000E+00 0. -1.
         11    1    3    3    0    0 -0.30299317721E+00 -0.10647564163E+01  0.16821193603E+02  0.16857581843E+02  0.51100000000E-03 0. -1.
        -11    1    3    3    0    0  0.13983800599E+02  0.21706343872E+02  0.30610302431E+01  0.26001575912E+02  0.51100000000E-03 0.  1.
        -12    1    3    3    0    0 -0.82233701688E+00  0.80055199322E+01 -0.14338641057E+02  0.16442664472E+02  0.00000000000E+00 0.  1.
</event>
<event>
 7    1  0.5837204E-012  0.5930193E+02  0.7816164E-02  0.1266605E+00
        -11   -1    0    0    0    0  0.00000000000E+00  0.00000000000E+00  0.45593999997E+02  0.45594000000E+02  0.51100000000E-03 0. -1.
         11   -1    0    0    0    0 -0.00000000000E+00 -0.00000000000E+00 -0.45593999997E+02  0.45594000000E+02  0.51100000000E-03 0.  1.
    9900012    2    1    2    0    0 -0.13215376645E+02  0.66611066212E+01 -0.28243675714E+02  0.59301925624E+02  0.49999966436E+02 0.  0.
         12    1    1    2    0    0  0.13215376645E+02 -0.66611066212E+01  0.28243675714E+02  0.31886074376E+02  0.00000000000E+00 0. -1.
         11    1    3    3    0    0  0.17942659175E+01  0.16904469170E+02 -0.14920999439E+02  0.22618945436E+02  0.51100000000E-03 0. -1.
        -11    1    3    3    0    0  0.47058269334E+01  0.48241559925E+01  0.25736718806E+01  0.72139500537E+01  0.51100000000E-03 0.  1.
        -12    1    3    3    0    0 -0.19715469496E+02 -0.15067518541E+02 -0.15896348155E+02  0.29469030135E+02  0.00000000000E+00 0.  1.
</event>
<event>
 7    1  0.5837204E-012  0.5930194E+02  0.7816164E-02  0.1266605E+00
        -11   -1    0    0    0    0  0.00000000000E+00  0.00000000000E+00  0.45593999997E+02  0.45594000000E+02  0.51100000000E-03 0.  1.
         11   -1    0    0    0    0 -0.00000000000E+00 -0.00000000000E+00 -0.45593999997E+02  0.45594000000E+02  0.51100000000E-03 0. -1.
    9900012    2    1    2    0    0 -0.31785169957E+02 -0.18892864465E+01  0.16894275376E+01  0.59301943519E+02  0.49999999073E+02 0.  0.
         12    1    1    2    0    0  0.31785169957E+02  0.18892864465E+01 -0.16894275376E+01  0.31886056481E+02  0.00000000000E+00 0. -1.
         11    1    3    3    0    0 -0.14713671190E+02 -0.75928009115E+01 -0.15433017346E+02  0.22634503976E+02  0.51100000000E-03 0. -1.
        -11    1    3    3    0    0 -0.13026363562E+02 -0.93878757090E+01  0.12575499069E+02  0.20395135083E+02  0.51100000000E-03 0.  1.
        -12    1    3    3    0    0 -0.40451352058E+01  0.15091390174E+02  0.45469458146E+01  0.16272304461E+02  0.00000000000E+00 0.  1.
</event>
<event>
 7    1  0.5837204E-012  0.5930194E+02  0.7816164E-02  0.1266605E+00
        -11   -1    0    0    0    0  0.00000000000E+00  0.00000000000E+00  0.45593999997E+02  0.45594000000E+02  0.51100000000E-03 0.  1.
         11   -1    0    0    0    0 -0.00000000000E+00 -0.00000000000E+00 -0.45593999997E+02  0.45594000000E+02  0.51100000000E-03 0. -1.
    9900012    2    1    2    0    0 -0.24648000921E+02 -0.16056644618E+02  0.12303691807E+02  0.59301943205E+02  0.49999998500E+02 0.  0.
         12    1    1    2    0    0  0.24648000921E+02  0.16056644618E+02 -0.12303691807E+02  0.31886056795E+02  0.00000000000E+00 0. -1.
         11    1    3    3    0    0 -0.22813089766E+02 -0.19169661444E+02 -0.65056563365E+00  0.29804969727E+02  0.51100000000E-03 0. -1.
        -11    1    3    3    0    0  0.12663322094E+01  0.13896782241E+01 -0.80135356699E+01  0.82311333986E+01  0.51100000000E-03 0.  1.
        -12    1    3    3    0    0 -0.31012433647E+01  0.17233386016E+01  0.20967793111E+02  0.21265840079E+02  0.00000000000E+00 0.  1.
</event>
<event>
 7    1  0.5837204E-012  0.5930194E+02  0.7816164E-02  0.1266605E+00
        -11   -1    0    0    0    0  0.00000000000E+00  0.00000000000E+00  0.45593999997E+02  0.45594000000E+02  0.51100000000E-03 0. -1.
         11   -1    0    0    0    0 -0.00000000000E+00 -0.00000000000E+00 -0.45593999997E+02  0.45594000000E+02  0.51100000000E-03 0.  1.
    9900012    2    1    2    0    0 -0.29489955608E+02  0.10331919542E+02 -0.63493729518E+01  0.59301943799E+02  0.49999999583E+02 0.  0.
         12    1    1    2    0    0  0.29489955608E+02 -0.10331919542E+02  0.63493729518E+01  0.31886056201E+02  0.00000000000E+00 0. -1.
         11    1    3    3    0    0  0.43336999435E+01 -0.57818370816E+01  0.10415844300E+02  0.12676766464E+02  0.51100000000E-03 0. -1.
        -11    1    3    3    0    0 -0.24071509369E+01 -0.42690148010E+01 -0.58210313548E+01  0.76094197742E+01  0.51100000000E-03 0.  1.
        -12    1    3    3    0    0 -0.31416504614E+02  0.20382771424E+02 -0.10944185897E+02  0.39015757561E+02  0.00000000000E+00 0.  1.
</event>
<event>
 7    1  0.5837204E-012  0.5930192E+02  0.7816164E-02  0.1266605E+00
        -11   -1    0    0    0    0  0.00000000000E+00  0.00000000000E+00  0.45593999997E+02  0.45594000000E+02  0.51100000000E-03 0.  1.
         11   -1    0    0    0    0 -0.00000000000E+00 -0.00000000000E+00 -0.45593999997E+02  0.45594000000E+02  0.51100000000E-03 0. -1.
    9900012    2    1    2    0    0 -0.11369416722E+01  0.79085417748E+01  0.30868827788E+02  0.59301918423E+02  0.49999953303E+02 0.  0.
         12    1    1    2    0    0  0.11369416722E+01 -0.79085417748E+01 -0.30868827788E+02  0.31886081577E+02  0.00000000000E+00 0. -1.
         11    1    3    3    0    0 -0.16095793352E+02  0.41479770592E+01 -0.46714614882E+01  0.17265654636E+02  0.51100000000E-03 0. -1.
        -11    1    3    3    0    0 -0.27829864500E+01  0.16704594585E+01  0.12312591240E+02  0.12733238068E+02  0.51100000000E-03 0.  1.
         12    1    3    3    0    0  0.17741838130E+02  0.20901052570E+01  0.23227698036E+02  0.29303025718E+02  0.00000000000E+00 0. -1.
</event>
<event>
 7    1  0.5837204E-012  0.5930195E+02  0.7816164E-02  0.1266605E+00
        -11   -1    0    0    0    0  0.00000000000E+00  0.00000000000E+00  0.45593999997E+02  0.45594000000E+02  0.51100000000E-03 0. -1.
         11   -1    0    0    0    0 -0.00000000000E+00 -0.00000000000E+00 -0.45593999997E+02  0.45594000000E+02  0.51100000000E-03 0.  1.
    9900012    2    1    2    0    0 -0.12884758981E+01  0.23479883645E+02 -0.21534979559E+02  0.59301945827E+02  0.50000003282E+02 0.  0.
         12    1    1    2    0    0  0.12884758981E+01 -0.23479883645E+02  0.21534979559E+02  0.31886054173E+02  0.00000000000E+00 0. -1.
         11    1    3    3    0    0  0.52001459840E+01  0.10646616314E+02  0.65201932708E+01  0.13524232982E+02  0.51100000000E-03 0. -1.
        -11    1    3    3    0    0 -0.80737082411E+00 -0.11252269259E+02 -0.69229249442E+01  0.13236022860E+02  0.51100000000E-03 0.  1.
        -12    1    3    3    0    0 -0.56812510580E+01  0.24085536590E+02 -0.21132247885E+02  0.32541689985E+02  0.00000000000E+00 0.  1.
</event>
<event>
 7    1  0.5837204E-012  0.5930195E+02  0.7816164E-02  0.1266605E+00
        -11   -1    0    0    0    0  0.00000000000E+00  0.00000000000E+00  0.45593999997E+02  0.45594000000E+02  0.51100000000E-03 0. -1.
         11   -1    0    0    0    0 -0.00000000000E+00 -0.00000000000E+00 -0.45593999997E+02  0.45594000000E+02  0.51100000000E-03 0.  1.
    9900012    2    1    2    0    0  0.28940234596E+02 -0.12453038029E+02 -0.49096600872E+01  0.59301951377E+02  0.50000013403E+02 0.  0.
         12    1    1    2    0    0 -0.28940234596E+02  0.12453038029E+02  0.49096600872E+01  0.31886048623E+02  0.00000000000E+00 0. -1.
         11    1    3    3    0    0  0.53715548520E+01  0.17767479427E+01  0.10641050651E+02  0.12051655239E+02  0.51100000000E-03 0. -1.
        -11    1    3    3    0    0  0.10671960793E+02 -0.18827519354E+02  0.53230154175E+01  0.22286783653E+02  0.51100000000E-03 0.  1.
         12    1    3    3    0    0  0.12896718951E+02  0.45977333823E+01 -0.20873726156E+02  0.24963512485E+02  0.00000000000E+00 0. -1.
</event>
<event>
 7    1  0.5837204E-012  0.5930192E+02  0.7816164E-02  0.1266605E+00
        -11   -1    0    0    0    0  0.00000000000E+00  0.00000000000E+00  0.45593999997E+02  0.45594000000E+02  0.51100000000E-03 0.  1.
         11   -1    0    0    0    0 -0.00000000000E+00 -0.00000000000E+00 -0.45593999997E+02  0.45594000000E+02  0.51100000000E-03 0. -1.
    9900012    2    1    2    0    0  0.23746102453E+02 -0.21055078377E+02  0.30867752273E+01  0.59301923282E+02  0.49999962164E+02 0.  0.
         12    1    1    2    0    0 -0.23746102453E+02  0.21055078377E+02 -0.30867752273E+01  0.31886076718E+02  0.00000000000E+00 0. -1.
         11    1    3    3    0    0 -0.28684295012E+01 -0.11540186807E+02 -0.13842139332E+02  0.18248523801E+02  0.51100000000E-03 0. -1.
        -11    1    3    3    0    0  0.88348126916E+01  0.74123931621E+00 -0.56704276719E+01  0.10524119976E+02  0.51100000000E-03 0.  1.
        -12    1    3    3    0    0  0.17779719263E+02 -0.10256130886E+02  0.22599342232E+02  0.30529279505E+02  0.00000000000E+00 0.  1.
</event>
<event>
 7    1  0.5837204E-012  0.5930192E+02  0.7816164E-02  0.1266605E+00
        -11   -1    0    0    0    0  0.00000000000E+00  0.00000000000E+00  0.45593999997E+02  0.45594000000E+02  0.51100000000E-03 0.  1.
         11   -1    0    0    0    0 -0.00000000000E+00 -0.00000000000E+00 -0.45593999997E+02  0.45594000000E+02  0.51100000000E-03 0. -1.
    9900012    2    1    2    0    0 -0.23929275387E+02  0.10820548727E+02  0.18083909179E+02  0.59301917354E+02  0.49999951354E+02 0.  0.
         12    1    1    2    0    0  0.23929275387E+02 -0.10820548727E+02 -0.18083909179E+02  0.31886082646E+02  0.00000000000E+00 0. -1.
         11    1    3    3    0    0 -0.91306955362E+00 -0.22086123341E+01  0.10330611794E+02  0.10603452492E+02  0.51100000000E-03 0. -1.
        -11    1    3    3    0    0 -0.77579055614E+01  0.20634315938E+02  0.18300740627E+02  0.28650954621E+02  0.51100000000E-03 0.  1.
         12    1    3    3    0    0 -0.15258300272E+02 -0.76051548777E+01 -0.10547443242E+02  0.20047510241E+02  0.00000000000E+00 0. -1.
</event>
<event>
 7    1  0.5837204E-012  0.5930197E+02  0.7816164E-02  0.1266605E+00
        -11   -1    0    0    0    0  0.00000000000E+00  0.00000000000E+00  0.45593999997E+02  0.45594000000E+02  0.51100000000E-03 0.  1.
         11   -1    0    0    0    0 -0.00000000000E+00 -0.00000000000E+00 -0.45593999997E+02  0.45594000000E+02  0.51100000000E-03 0. -1.
    9900012    2    1    2    0    0 -0.23697912279E+02 -0.16681446589E+02 -0.13298761065E+02  0.59301972456E+02  0.50000051846E+02 0.  0.
         12    1    1    2    0    0  0.23697912279E+02  0.16681446589E+02  0.13298761065E+02  0.31886027544E+02  0.00000000000E+00 0. -1.
         11    1    3    3    0    0  0.52272297605E+01 -0.24906419564E+01  0.10133990502E+02  0.11671546260E+02  0.51100000000E-03 0. -1.
        -11    1    3    3    0    0 -0.10607420661E+02 -0.50958133942E+01  0.48499190430E+01  0.12728173562E+02  0.51100000000E-03 0.  1.
        -12    1    3    3    0    0 -0.18317721379E+02 -0.90949912386E+01 -0.28282670610E+02  0.34902252635E+02  0.00000000000E+00 0.  1.
</event>
<event>
 7    1  0.5837204E-012  0.5930192E+02  0.7816164E-02  0.1266605E+00
        -11   -1    0    0    0    0  0.00000000000E+00  0.00000000000E+00  0.45593999997E+02  0.45594000000E+02  0.51100000000E-03 0. -1.
         11   -1    0    0    0    0 -0.00000000000E+00 -0.00000000000E+00 -0.45593999997E+02  0.45594000000E+02  0.51100000000E-03 0.  1.
    9900012    2    1    2    0    0  0.54926907200E+01  0.20394294416E+02 -0.23887759084E+02  0.59301922628E+02  0.49999960973E+02 0.  0.
         12    1    1    2    0    0 -0.54926907200E+01 -0.20394294416E+02  0.23887759084E+02  0.31886077372E+02  0.00000000000E+00 0. -1.
         11    1    3    3    0    0 -0.84339191371E+01  0.57800826048E+01  0.90571037406E+01  0.13659116932E+02  0.51100000000E-03 0. -1.
        -11    1    3    3    0    0 -0.33321846093E+01 -0.45598018421E+01 -0.43339326739E+01  0.71188636588E+01  0.51100000000E-03 0.  1.
        -12    1    3    3    0    0  0.17258794466E+02  0.19174013654E+02 -0.28610930151E+02  0.38523942038E+02  0.00000000000E+00 0.  1.
</event>
<event>
 7    1  0.5837204E-012  0.5930194E+02  0.7816164E-02  0.1266605E+00
        -11   -1    0    0    0    0  0.00000000000E+00  0.00000000000E+00  0.45593999997E+02  0.45594000000E+02  0.51100000000E-03 0. -1.
         11   -1    0    0    0    0 -0.00000000000E+00 -0.00000000000E+00 -0.45593999997E+02  0.45594000000E+02  0.51100000000E-03 0.  1.
    9900012    2    1    2    0    0  0.10277152741E+01 -0.24528458641E+02 -0.20347460563E+02  0.59301942963E+02  0.49999998059E+02 0.  0.
         12    1    1    2    0    0 -0.10277152741E+01  0.24528458641E+02  0.20347460563E+02  0.31886057037E+02  0.00000000000E+00 0. -1.
         11    1    3    3    0    0 -0.13365617473E+02 -0.13190071933E+02 -0.25712595229E+01  0.18953340175E+02  0.51100000000E-03 0. -1.
        -11    1    3    3    0    0 -0.48347476728E+01 -0.46646117430E+01 -0.18805271315E+02  0.19969266819E+02  0.51100000000E-03 0.  1.
         12    1    3    3    0    0  0.19228080420E+02 -0.66737749653E+01  0.10290702750E+01  0.20379335969E+02  0.00000000000E+00 0. -1.
</event>
<event>
 7    1  0.5837204E-012  0.5930206E+02  0.7816164E-02  0.1266604E+00
        -11   -1    0    0    0    0  0.00000000000E+00  0.00000000000E+00  0.45593999997E+02  0.45594000000E+02  0.51100000000E-03 0.  1.
         11   -1    0    0    0    0 -0.00000000000E+00 -0.00000000000E+00 -0.45593999997E+02  0.45594000000E+02  0.51100000000E-03 0. -1.
    9900012    2    1    2    0    0  0.26157364845E+02 -0.18025662729E+02  0.27533121122E+01  0.59302062974E+02  0.50000216929E+02 0.  0.
         12    1    1    2    0    0 -0.26157364845E+02  0.18025662729E+02 -0.27533121122E+01  0.31885937026E+02  0.00000000000E+00 0. -1.
         11    1    3    3    0    0  0.22912162280E+01 -0.12326363385E+02  0.41754829173E+01  0.13214520950E+02  0.51100000000E-03 0. -1.
        -11    1    3    3    0    0  0.23945234827E+02 -0.19651478920E+02 -0.56943587669E+01  0.31495723784E+02  0.51100000000E-03 0.  1.
        -12    1    3    3    0    0 -0.79086210491E-01  0.13952179576E+02  0.42721879618E+01  0.14591818239E+02  0.00000000000E+00 0.  1.
</event>
<event>
 7    1  0.5837204E-012  0.5930197E+02  0.7816164E-02  0.1266605E+00
        -11   -1    0    0    0    0  0.00000000000E+00  0.00000000000E+00  0.45593999997E+02  0.45594000000E+02  0.51100000000E-03 0. -1.
         11   -1    0    0    0    0 -0.00000000000E+00 -0.00000000000E+00 -0.45593999997E+02  0.45594000000E+02  0.51100000000E-03 0.  1.
    9900012    2    1    2    0    0  0.44600230518E+01 -0.26483031313E+02 -0.17189423450E+02  0.59301968079E+02  0.50000043863E+02 0.  0.
         12    1    1    2    0    0 -0.44600230518E+01  0.26483031313E+02  0.17189423450E+02  0.31886031921E+02  0.00000000000E+00 0. -1.
         11    1    3    3    0    0  0.19027302182E+02  0.17645589812E+01 -0.12094587029E+02  0.22614838765E+02  0.51100000000E-03 0. -1.
        -11    1    3    3    0    0 -0.44028577409E+01 -0.95890684552E+01 -0.10370273461E+02  0.14794524732E+02  0.51100000000E-03 0.  1.
         12    1    3    3    0    0 -0.10164421389E+02 -0.18658521839E+02  0.52754370402E+01  0.21892604581E+02  0.00000000000E+00 0. -1.
</event>
<event>
 7    1  0.5837204E-012  0.5930194E+02  0.7816164E-02  0.1266605E+00
        -11   -1    0    0    0    0  0.00000000000E+00  0.00000000000E+00  0.45593999997E+02  0.45594000000E+02  0.51100000000E-03 0.  1.
         11   -1    0    0    0    0 -0.00000000000E+00 -0.00000000000E+00 -0.45593999997E+02  0.45594000000E+02  0.51100000000E-03 0. -1.
    9900012    2    1    2    0    0  0.12902939892E+02  0.24108007926E+02  0.16402411097E+02  0.59301937311E+02  0.49999987750E+02 0.  0.
         12    1    1    2    0    0 -0.12902939892E+02 -0.24108007926E+02 -0.16402411097E+02  0.31886062689E+02  0.00000000000E+00 0. -1.
         11    1    3    3    0    0  0.57262651461E+01 -0.62177838856E+01 -0.79127779078E+00  0.84898215396E+01  0.51100000000E-03 0. -1.
        -11    1    3    3    0    0  0.15477694192E+02  0.32116244494E+01 -0.28827181845E+01  0.16068093026E+02  0.51100000000E-03 0.  1.
        -12    1    3    3    0    0 -0.83010194461E+01  0.27114167362E+02  0.20076407072E+02  0.34744022745E+02  0.00000000000E+00 0.  1.
</event>
<event>
 7    1  0.5837204E-012  0.5930194E+02  0.7816164E-02  0.1266605E+00
        -11   -1    0    0    0    0  0.00000000000E+00  0.00000000000E+00  0.45593999997E+02  0.45594000000E+02  0.51100000000E-03 0.  1.
         11   -1    0    0    0    0 -0.00000000000E+00 -0.00000000000E+00 -0.45593999997E+02  0.45594000000E+02  0.51100000000E-03 0. -1.
    9900012    2    1    2    0    0  0.20074348976E+02  0.16342072108E+02  0.18619287559E+02  0.59301942282E+02  0.49999996816E+02 0.  0.
         12    1    1    2    0    0 -0.20074348976E+02 -0.16342072108E+02 -0.18619287559E+02  0.31886057718E+02  0.00000000000E+00 0. -1.
         11    1    3    3    0    0  0.80321402495E+01  0.11187965988E+02  0.40624971174E+01  0.14359308585E+02  0.51100000000E-03 0. -1.
        -11    1    3    3    0    0 -0.19981269056E+01  0.20800977128E+02  0.34941457371E+01  0.21186840616E+02  0.51100000000E-03 0.  1.
         12    1    3    3    0    0  0.14040335632E+02 -0.15646871009E+02  0.11062644705E+02  0.23755793081E+02  0.00000000000E+00 0. -1.
</event>
<event>
 7    1  0.5837204E-012  0.5930195E+02  0.7816164E-02  0.1266605E+00
        -11   -1    0    0    0    0  0.00000000000E+00  0.00000000000E+00  0.45593999997E+02  0.45594000000E+02  0.51100000000E-03 0.  1.
         11   -1    0    0    0    0 -0.00000000000E+00 -0.00000000000E+00 -0.45593999997E+02  0.45594000000E+02  0.51100000000E-03 0. -1.
    9900012    2    1    2    0    0 -0.22617537539E+02  0.20218640464E+02  0.98170153306E+01  0.59301949499E+02  0.50000009978E+02 0.  0.
         12    1    1    2    0    0  0.22617537539E+02 -0.20218640464E+02 -0.98170153306E+01  0.31886050501E+02  0.00000000000E+00 0. -1.
         11    1    3    3    0    0 -0.41071070817E+01 -0.73652811949E+01 -0.69296901616E+01  0.10914957703E+02  0.51100000000E-03 0. -1.
        -11    1    3    3    0    0 -0.25880693351E+02  0.24817420388E+02  0.18460921985E+02  0.40330141134E+02  0.51100000000E-03 0.  1.
         12    1    3    3    0    0  0.73702628941E+01  0.27665012708E+01 -0.17142164931E+01  0.80568506623E+01  0.00000000000E+00 0. -1.
</event>
<event>
 7    1  0.5837204E-012  0.5930194E+02  0.7816164E-02  0.1266605E+00
        -11   -1    0    0    0    0  0.00000000000E+00  0.00000000000E+00  0.45593999997E+02  0.45594000000E+02  0.51100000000E-03 0. -1.
         11   -1    0    0    0    0 -0.00000000000E+00 -0.00000000000E+00 -0.45593999997E+02  0.45594000000E+02  0.51100000000E-03 0.  1.
    9900012    2    1    2    0    0 -0.10359322389E+02  0.15788120937E+02  0.25693196020E+02  0.59301942784E+02  0.49999997732E+02 0.  0.
         12    1    1    2    0    0  0.10359322389E+02 -0.15788120937E+02 -0.25693196020E+02  0.31886057216E+02  0.00000000000E+00 0. -1.
         11    1    3    3    0    0 -0.13489806640E+02  0.13290839506E+02  0.28438581512E+02  0.34166858454E+02  0.51100000000E-03 0. -1.
        -11    1    3    3    0    0 -0.78751462697E+01  0.60032217309E+01  0.51328445428E+01  0.11153595532E+02  0.51100000000E-03 0.  1.
         12    1    3    3    0    0  0.11005630520E+02 -0.35059402999E+01 -0.78782300348E+01  0.13981488798E+02  0.00000000000E+00 0. -1.
</event>
<event>
 7    1  0.5837204E-012  0.5930200E+02  0.7816164E-02  0.1266605E+00
        -11   -1    0    0    0    0  0.00000000000E+00  0.00000000000E+00  0.45593999997E+02  0.45594000000E+02  0.51100000000E-03 0. -1.
         11   -1    0    0    0    0 -0.00000000000E+00 -0.00000000000E+00 -0.45593999997E+02  0.45594000000E+02  0.51100000000E-03 0.  1.
    9900012    2    1    2    0    0  0.19410169096E+02 -0.22658019044E+02  0.11250627353E+02  0.59301998257E+02  0.50000098901E+02 0.  0.
         12    1    1    2    0    0 -0.19410169096E+02  0.22658019044E+02 -0.11250627353E+02  0.31886001743E+02  0.00000000000E+00 0. -1.
         11    1    3    3    0    0  0.62692570282E+01  0.56273238804E+01 -0.11979195827E+02  0.14644845191E+02  0.51100000000E-03 0. -1.
        -11    1    3    3    0    0  0.13389443355E+02 -0.18211283452E+02  0.40112493946E+01  0.22956876100E+02  0.51100000000E-03 0.  1.
         12    1    3    3    0    0 -0.24853128722E+00 -0.10074059472E+02  0.19218573786E+02  0.21700276966E+02  0.00000000000E+00 0. -1.
</event>
<event>
 7    1  0.5837204E-012  0.5930198E+02  0.7816164E-02  0.1266605E+00
        -11   -1    0    0    0    0  0.00000000000E+00  0.00000000000E+00  0.45593999997E+02  0.45594000000E+02  0.51100000000E-03 0. -1.
         11   -1    0    0    0    0 -0.00000000000E+00 -0.00000000000E+00 -0.45593999997E+02  0.45594000000E+02  0.51100000000E-03 0.  1.
    9900012    2    1    2    0    0  0.30526826093E+02  0.77753197531E+01 -0.49371779873E+01  0.59301977435E+02  0.50000060926E+02 0.  0.
         12    1    1    2    0    0 -0.30526826093E+02 -0.77753197531E+01  0.49371779873E+01  0.31886022565E+02  0.00000000000E+00 0. -1.
         11    1    3    3    0    0 -0.40458879103E+01  0.10213838060E+02 -0.98050621070E+00  0.11029645941E+02  0.51100000000E-03 0. -1.
        -11    1    3    3    0    0  0.36305344600E+02  0.70401037391E+01 -0.79759950773E+01  0.37831965385E+02  0.51100000000E-03 0.  1.
         12    1    3    3    0    0 -0.17326305969E+01 -0.94786220459E+01  0.40193233007E+01  0.10440366108E+02  0.00000000000E+00 0. -1.
</event>
<event>
 7    1  0.5837204E-012  0.5930191E+02  0.7816164E-02  0.1266605E+00
        -11   -1    0    0    0    0  0.00000000000E+00  0.00000000000E+00  0.45593999997E+02  0.45594000000E+02  0.51100000000E-03 0.  1.
         11   -1    0    0    0    0 -0.00000000000E+00 -0.00000000000E+00 -0.45593999997E+02  0.45594000000E+02  0.51100000000E-03 0. -1.
    9900012    2    1    2    0    0  0.22780751542E+02  0.22036842685E+02 -0.34839560401E+01  0.59301905444E+02  0.49999929632E+02 0.  0.
         12    1    1    2    0    0 -0.22780751542E+02 -0.22036842685E+02  0.34839560401E+01  0.31886094556E+02  0.00000000000E+00 0. -1.
         11    1    3    3    0    0  0.10085527403E+02 -0.25382396965E+01 -0.89367423311E+01  0.13712253189E+02  0.51100000000E-03 0. -1.
        -11    1    3    3    0    0  0.21278235029E+02  0.25297419345E+01  0.46044512984E+01  0.21917204480E+02  0.51100000000E-03 0.  1.
        -12    1    3    3    0    0 -0.85830108905E+01  0.22045340447E+02  0.84833499262E+00  0.23672447775E+02  0.00000000000E+00 0.  1.
</event>
<event>
 7    1  0.5837204E-012  0.5930194E+02  0.7816164E-02  0.1266605E+00
        -11   -1    0    0    0    0  0.00000000000E+00  0.00000000000E+00  0.45593999997E+02  0.45594000000E+02  0.51100000000E-03 0.  1.
         11   -1    0    0    0    0 -0.00000000000E+00 -0.00000000000E+00 -0.45593999997E+02  0.45594000000E+02  0.51100000000E-03 0. -1.
    9900012    2    1    2    0    0 -0.20456692640E+02  0.23882543200E+02  0.52790768267E+01  0.59301940419E+02  0.49999993418E+02 0.  0.
         12    1    1    2    0    0  0.20456692640E+02 -0.23882543200E+02 -0.52790768267E+01  0.31886059581E+02  0.00000000000E+00 0. -1.
         11    1    3    3    0    0 -0.18352910702E+02  0.45714990061E+01  0.73406470778E+01  0.20288248672E+02  0.51100000000E-03 0.  1.
        -11    1    3    3    0    0 -0.15830329120E+02  0.10924784832E+01 -0.31470481012E+01  0.16177043651E+02  0.51100000000E-03 0. -1.
        -12    1    3    3    0    0  0.13726547182E+02  0.18218565711E+02  0.10854778500E+01  0.22836648096E+02  0.00000000000E+00 0.  1.
</event>
<event>
 7    1  0.5837204E-012  0.5930193E+02  0.7816164E-02  0.1266605E+00
        -11   -1    0    0    0    0  0.00000000000E+00  0.00000000000E+00  0.45593999997E+02  0.45594000000E+02  0.51100000000E-03 0. -1.
         11   -1    0    0    0    0 -0.00000000000E+00 -0.00000000000E+00 -0.45593999997E+02  0.45594000000E+02  0.51100000000E-03 0.  1.
    9900012    2    1    2    0    0  0.20881388727E+02  0.17042053686E+02 -0.17036946016E+02  0.59301929082E+02  0.49999972743E+02 0.  0.
         12    1    1    2    0    0 -0.20881388727E+02 -0.17042053686E+02  0.17036946016E+02  0.31886070918E+02  0.00000000000E+00 0. -1.
         11    1    3    3    0    0  0.16840811909E+01  0.14176638444E+02  0.20429883022E+01  0.14421754695E+02  0.51100000000E-03 0. -1.
        -11    1    3    3    0    0 -0.69646331485E+01 -0.11680918250E+01  0.53493673412E+01  0.88592485357E+01  0.51100000000E-03 0.  1.
        -12    1    3    3    0    0  0.26161940684E+02  0.40335070675E+01 -0.24429301660E+02  0.36020925852E+02  0.00000000000E+00 0.  1.
</event>
<event>
 7    1  0.5837204E-012  0.5930198E+02  0.7816164E-02  0.1266605E+00
        -11   -1    0    0    0    0  0.00000000000E+00  0.00000000000E+00  0.45593999997E+02  0.45594000000E+02  0.51100000000E-03 0. -1.
         11   -1    0    0    0    0 -0.00000000000E+00 -0.00000000000E+00 -0.45593999997E+02  0.45594000000E+02  0.51100000000E-03 0.  1.
    9900012    2    1    2    0    0  0.95314444891E+01  0.27620189282E+02 -0.12766942380E+02  0.59301982567E+02  0.50000070286E+02 0.  0.
         12    1    1    2    0    0 -0.95314444891E+01 -0.27620189282E+02  0.12766942380E+02  0.31886017433E+02  0.00000000000E+00 0. -1.
         11    1    3    3    0    0  0.73050103254E+01  0.19962999152E+02 -0.20598777501E+02  0.29600576781E+02  0.51100000000E-03 0.  1.
        -11    1    3    3    0    0  0.83333097848E+01 -0.35942271940E+00 -0.75908695922E+01  0.11278055599E+02  0.51100000000E-03 0. -1.
         12    1    3    3    0    0 -0.61068756211E+01  0.80166128496E+01  0.15422704713E+02  0.18423350187E+02  0.00000000000E+00 0. -1.
</event>
<event>
 7    1  0.5837204E-012  0.5930193E+02  0.7816164E-02  0.1266605E+00
        -11   -1    0    0    0    0  0.00000000000E+00  0.00000000000E+00  0.45593999997E+02  0.45594000000E+02  0.51100000000E-03 0.  1.
         11   -1    0    0    0    0 -0.00000000000E+00 -0.00000000000E+00 -0.45593999997E+02  0.45594000000E+02  0.51100000000E-03 0. -1.
    9900012    2    1    2    0    0 -0.88048675253E+01 -0.16864673042E+02  0.25588647508E+02  0.59301925136E+02  0.49999965546E+02 0.  0.
         12    1    1    2    0    0  0.88048675253E+01  0.16864673042E+02 -0.25588647508E+02  0.31886074864E+02  0.00000000000E+00 0. -1.
         11    1    3    3    0    0 -0.37275624148E+01  0.46613576083E+01 -0.13271399730E+01  0.61142683191E+01  0.51100000000E-03 0. -1.
        -11    1    3    3    0    0 -0.86012273854E+01 -0.15405469460E+02 -0.66735384276E+01  0.18863873335E+02  0.51100000000E-03 0.  1.
        -12    1    3    3    0    0  0.35239222749E+01 -0.61205611903E+01  0.33589325909E+02  0.34323783482E+02  0.00000000000E+00 0.  1.
</event>
<event>
 7    1  0.5837204E-012  0.5930194E+02  0.7816164E-02  0.1266605E+00
        -11   -1    0    0    0    0  0.00000000000E+00  0.00000000000E+00  0.45593999997E+02  0.45594000000E+02  0.51100000000E-03 0.  1.
         11   -1    0    0    0    0 -0.00000000000E+00 -0.00000000000E+00 -0.45593999997E+02  0.45594000000E+02  0.51100000000E-03 0. -1.
    9900012    2    1    2    0    0 -0.74674090025E+01 -0.27823057904E+02 -0.13668798177E+02  0.59301940476E+02  0.49999993523E+02 0.  0.
         12    1    1    2    0    0  0.74674090025E+01  0.27823057904E+02  0.13668798177E+02  0.31886059524E+02  0.00000000000E+00 0. -1.
         11    1    3    3    0    0 -0.17869539497E+02 -0.22409378281E+02 -0.55390681249E+01  0.29192155671E+02  0.51100000000E-03 0. -1.
        -11    1    3    3    0    0  0.53637698189E+01 -0.39497059360E+01  0.95637058696E+01  0.11654813335E+02  0.51100000000E-03 0.  1.
         12    1    3    3    0    0  0.50383606751E+01 -0.14639736870E+01 -0.17693435922E+02  0.18454971471E+02  0.00000000000E+00 0. -1.
</event>
<event>
 7    1  0.5837204E-012  0.5930193E+02  0.7816164E-02  0.1266605E+00
        -11   -1    0    0    0    0  0.00000000000E+00  0.00000000000E+00  0.45593999997E+02  0.45594000000E+02  0.51100000000E-03 0.  1.
         11   -1    0    0    0    0 -0.00000000000E+00 -0.00000000000E+00 -0.45593999997E+02  0.45594000000E+02  0.51100000000E-03 0. -1.
    9900012    2    1    2    0    0 -0.17742671014E+02  0.22392704298E+02  0.14159313145E+02  0.59301925779E+02  0.49999966718E+02 0.  0.
         12    1    1    2    0    0  0.17742671014E+02 -0.22392704298E+02 -0.14159313145E+02  0.31886074221E+02  0.00000000000E+00 0. -1.
         11    1    3    3    0    0  0.51832483267E+01  0.14246793873E+02  0.81201765748E+01  0.17198094858E+02  0.51100000000E-03 0. -1.
        -11    1    3    3    0    0 -0.19919519585E+02  0.79483839413E+00  0.18585438738E+02  0.27255046540E+02  0.51100000000E-03 0.  1.
        -12    1    3    3    0    0 -0.30063997555E+01  0.73510720311E+01 -0.12546302167E+02  0.14848784380E+02  0.00000000000E+00 0.  1.
</event>
<event>
 7    1  0.5837204E-012  0.5930197E+02  0.7816164E-02  0.1266605E+00
        -11   -1    0    0    0    0  0.00000000000E+00  0.00000000000E+00  0.45593999997E+02  0.45594000000E+02  0.51100000000E-03 0.  1.
         11   -1    0    0    0    0 -0.00000000000E+00 -0.00000000000E+00 -0.45593999997E+02  0.45594000000E+02  0.51100000000E-03 0. -1.
    9900012    2    1    2    0    0 -0.69424374907E+01  0.31114047417E+02 -0.66158511286E+00  0.59301967323E+02  0.50000042485E+02 0.  0.
         12    1    1    2    0    0  0.69424374907E+01 -0.31114047417E+02  0.66158511286E+00  0.31886032677E+02  0.00000000000E+00 0. -1.
         11    1    3    3    0    0  0.22930164282E+01  0.10494788486E+02 -0.12688053376E+02  0.16624837095E+02  0.51100000000E-03 0. -1.
        -11    1    3    3    0    0  0.12452251917E+02  0.70256857226E+01 -0.22743999670E+00  0.14299320505E+02  0.51100000000E-03 0.  1.
         12    1    3    3    0    0 -0.21687705836E+02  0.13593573209E+02  0.12253908260E+02  0.28377809723E+02  0.00000000000E+00 0. -1.
</event>
<event>
 7    1  0.5837204E-012  0.5930193E+02  0.7816164E-02  0.1266605E+00
        -11   -1    0    0    0    0  0.00000000000E+00  0.00000000000E+00  0.45593999997E+02  0.45594000000E+02  0.51100000000E-03 0.  1.
         11   -1    0    0    0    0 -0.00000000000E+00 -0.00000000000E+00 -0.45593999997E+02  0.45594000000E+02  0.51100000000E-03 0. -1.
    9900012    2    1    2    0    0  0.99114371739E+01 -0.27024685096E+01  0.30185784670E+02  0.59301929075E+02  0.49999972729E+02 0.  0.
         12    1    1    2    0    0 -0.99114371739E+01  0.27024685096E+01 -0.30185784670E+02  0.31886070925E+02  0.00000000000E+00 0. -1.
         11    1    3    3    0    0  0.16989345039E+02  0.73554419317E+01  0.30756180237E+01  0.18766986901E+02  0.51100000000E-03 0. -1.
        -11    1    3    3    0    0  0.63649608052E+01  0.52369416051E+01  0.14217026657E+02  0.16433567192E+02  0.51100000000E-03 0.  1.
        -12    1    3    3    0    0 -0.13442868670E+02 -0.15294852046E+02  0.12893139989E+02  0.24101374981E+02  0.00000000000E+00 0.  1.
</event>
<event>
 7    1  0.5837204E-012  0.5930196E+02  0.7816164E-02  0.1266605E+00
        -11   -1    0    0    0    0  0.00000000000E+00  0.00000000000E+00  0.45593999997E+02  0.45594000000E+02  0.51100000000E-03 0. -1.
         11   -1    0    0    0    0 -0.00000000000E+00 -0.00000000000E+00 -0.45593999997E+02  0.45594000000E+02  0.51100000000E-03 0.  1.
    9900012    2    1    2    0    0 -0.98728799961E+01 -0.29147322534E+02 -0.83474256361E+01  0.59301957833E+02  0.50000025178E+02 0.  0.
         12    1    1    2    0    0  0.98728799961E+01  0.29147322534E+02  0.83474256361E+01  0.31886042167E+02  0.00000000000E+00 0. -1.
         11    1    3    3    0    0 -0.14497878267E+02  0.89542236985E+01  0.19384928029E+01  0.17150053962E+02  0.51100000000E-03 0. -1.
        -11    1    3    3    0    0 -0.49761273153E+01 -0.99330147713E+01 -0.24243727356E+01  0.11371200857E+02  0.51100000000E-03 0.  1.
        -12    1    3    3    0    0  0.96011255863E+01 -0.28168531461E+02 -0.78615457034E+01  0.30780703014E+02  0.00000000000E+00 0.  1.
</event>
<event>
 7    1  0.5837204E-012  0.5930195E+02  0.7816164E-02  0.1266605E+00
        -11   -1    0    0    0    0  0.00000000000E+00  0.00000000000E+00  0.45593999997E+02  0.45594000000E+02  0.51100000000E-03 0.  1.
         11   -1    0    0    0    0 -0.00000000000E+00 -0.00000000000E+00 -0.45593999997E+02  0.45594000000E+02  0.51100000000E-03 0. -1.
    9900012    2    1    2    0    0 -0.22184812189E+02  0.19626628542E+02 -0.11804654643E+02  0.59301948017E+02  0.50000007276E+02 0.  0.
         12    1    1    2    0    0  0.22184812189E+02 -0.19626628542E+02  0.11804654643E+02  0.31886051983E+02  0.00000000000E+00 0. -1.
         11    1    3    3    0    0  0.10824176076E+02  0.15871858121E+02  0.22800568234E+00  0.19212773220E+02  0.51100000000E-03 0. -1.
        -11    1    3    3    0    0 -0.17625009607E+02  0.73726447444E+01 -0.14643461219E+02  0.24071306797E+02  0.51100000000E-03 0.  1.
        -12    1    3    3    0    0 -0.15383978658E+02 -0.36178743227E+01  0.26108008937E+01  0.16017868000E+02  0.00000000000E+00 0.  1.
</event>
<event>
 7    1  0.5837204E-012  0.5930191E+02  0.7816164E-02  0.1266605E+00
        -11   -1    0    0    0    0  0.00000000000E+00  0.00000000000E+00  0.45593999997E+02  0.45594000000E+02  0.51100000000E-03 0. -1.
         11   -1    0    0    0    0 -0.00000000000E+00 -0.00000000000E+00 -0.45593999997E+02  0.45594000000E+02  0.51100000000E-03 0.  1.
    9900012    2    1    2    0    0 -0.22546721454E+02 -0.11177517173E+02 -0.19581406906E+02  0.59301905305E+02  0.49999929379E+02 0.  0.
         12    1    1    2    0    0  0.22546721454E+02  0.11177517173E+02  0.19581406906E+02  0.31886094695E+02  0.00000000000E+00 0. -1.
         11    1    3    3    0    0  0.10515739736E+00  0.52293490220E+00 -0.86786399991E+01  0.86950164741E+01  0.51100000000E-03 0. -1.
        -11    1    3    3    0    0 -0.22962149122E+02  0.11347732767E+02 -0.10130287220E+02  0.27543675330E+02  0.51100000000E-03 0.  1.
         12    1    3    3    0    0  0.31027027141E+00 -0.23048184841E+02 -0.77247968724E+00  0.23063213501E+02  0.00000000000E+00 0. -1.
</event>
<event>
 7    1  0.5837204E-012  0.5930192E+02  0.7816164E-02  0.1266605E+00
        -11   -1    0    0    0    0  0.00000000000E+00  0.00000000000E+00  0.45593999997E+02  0.45594000000E+02  0.51100000000E-03 0.  1.
         11   -1    0    0    0    0 -0.00000000000E+00 -0.00000000000E+00 -0.45593999997E+02  0.45594000000E+02  0.51100000000E-03 0. -1.
    9900012    2    1    2    0    0 -0.31393799386E+02  0.36388308434E+01 -0.42320822140E+01  0.59301917618E+02  0.49999951836E+02 0.  0.
         12    1    1    2    0    0  0.31393799386E+02 -0.36388308434E+01  0.42320822140E+01  0.31886082382E+02  0.00000000000E+00 0. -1.
         11    1    3    3    0    0  0.49595469618E-02 -0.56636719256E+01 -0.42934910750E+01  0.71071281225E+01  0.51100000000E-03 0. -1.
        -11    1    3    3    0    0 -0.15108832234E+02  0.28713059821E+01  0.20276005980E+02  0.25448725474E+02  0.51100000000E-03 0.  1.
         12    1    3    3    0    0 -0.16289926699E+02  0.64311967869E+01 -0.20214597119E+02  0.26746064022E+02  0.00000000000E+00 0. -1.
</event>
<event>
 7    1  0.5837204E-012  0.5930222E+02  0.7816164E-02  0.1266604E+00
        -11   -1    0    0    0    0  0.00000000000E+00  0.00000000000E+00  0.45593999997E+02  0.45594000000E+02  0.51100000000E-03 0.  1.
         11   -1    0    0    0    0 -0.00000000000E+00 -0.00000000000E+00 -0.45593999997E+02  0.45594000000E+02  0.51100000000E-03 0. -1.
    9900012    2    1    2    0    0 -0.79269763010E+01  0.30823181213E+02 -0.19487225060E+01  0.59302219897E+02  0.50000503117E+02 0.  0.
         12    1    1    2    0    0  0.79269763010E+01 -0.30823181213E+02  0.19487225060E+01  0.31885780103E+02  0.00000000000E+00 0. -1.
         11    1    3    3    0    0 -0.43870720757E+01 -0.11708895832E+01  0.20901358048E+01  0.49986049811E+01  0.51100000000E-03 0. -1.
        -11    1    3    3    0    0  0.77028131235E+01  0.25507525421E+01  0.15305779574E+02  0.17323583844E+02  0.51100000000E-03 0.  1.
        -12    1    3    3    0    0 -0.11242717349E+02  0.29443318254E+02 -0.19344637885E+02  0.36980031072E+02  0.00000000000E+00 0.  1.
</event>
<event>
 7    1  0.5837204E-012  0.5930194E+02  0.7816164E-02  0.1266605E+00
        -11   -1    0    0    0    0  0.00000000000E+00  0.00000000000E+00  0.45593999997E+02  0.45594000000E+02  0.51100000000E-03 0. -1.
         11   -1    0    0    0    0 -0.00000000000E+00 -0.00000000000E+00 -0.45593999997E+02  0.45594000000E+02  0.51100000000E-03 0.  1.
    9900012    2    1    2    0    0  0.26815154464E+02 -0.62954142124E+01 -0.16063506721E+02  0.59301937257E+02  0.49999987652E+02 0.  0.
         12    1    1    2    0    0 -0.26815154464E+02  0.62954142124E+01  0.16063506721E+02  0.31886062743E+02  0.00000000000E+00 0. -1.
         11    1    3    3    0    0 -0.50759936570E+01  0.14344077873E+01 -0.12331232572E+02  0.13412029463E+02  0.51100000000E-03 0. -1.
        -11    1    3    3    0    0  0.18541116196E+02 -0.19033642588E+02 -0.82503231862E+01  0.27823018759E+02  0.51100000000E-03 0.  1.
         12    1    3    3    0    0  0.13350031926E+02  0.11303820588E+02  0.45180490376E+01  0.18066889035E+02  0.00000000000E+00 0. -1.
</event>
<event>
 7    1  0.5837204E-012  0.5930185E+02  0.7816164E-02  0.1266605E+00
        -11   -1    0    0    0    0  0.00000000000E+00  0.00000000000E+00  0.45593999997E+02  0.45594000000E+02  0.51100000000E-03 0. -1.
         11   -1    0    0    0    0 -0.00000000000E+00 -0.00000000000E+00 -0.45593999997E+02  0.45594000000E+02  0.51100000000E-03 0.  1.
    9900012    2    1    2    0    0 -0.10378699215E+02 -0.24568371307E+02 -0.17475821979E+02  0.59301849089E+02  0.49999826854E+02 0.  0.
         12    1    1    2    0    0  0.10378699215E+02  0.24568371307E+02  0.17475821979E+02  0.31886150911E+02  0.00000000000E+00 0. -1.
         11    1    3    3    0    0 -0.81074525363E+01 -0.26545657224E+02 -0.17431787083E+02  0.32776056890E+02  0.51100000000E-03 0. -1.
        -11    1    3    3    0    0 -0.38330703657E+01 -0.16266539404E+01 -0.12652303337E+02  0.13319880310E+02  0.51100000000E-03 0.  1.
         12    1    3    3    0    0  0.15618236870E+01  0.36039398578E+01  0.12608268441E+02  0.13205911889E+02  0.00000000000E+00 0. -1.
</event>
<event>
 7    1  0.5837204E-012  0.5930208E+02  0.7816164E-02  0.1266604E+00
        -11   -1    0    0    0    0  0.00000000000E+00  0.00000000000E+00  0.45593999997E+02  0.45594000000E+02  0.51100000000E-03 0.  1.
         11   -1    0    0    0    0 -0.00000000000E+00 -0.00000000000E+00 -0.45593999997E+02  0.45594000000E+02  0.51100000000E-03 0. -1.
    9900012    2    1    2    0    0  0.22517786953E+02  0.16822352206E+02  0.15055555054E+02  0.59302078326E+02  0.50000244928E+02 0.  0.
         12    1    1    2    0    0 -0.22517786953E+02 -0.16822352206E+02 -0.15055555054E+02  0.31885921674E+02  0.00000000000E+00 0. -1.
         11    1    3    3    0    0  0.18583348409E+02 -0.65622456286E+01  0.53098654818E+01  0.20410746617E+02  0.51100000000E-03 0. -1.
        -11    1    3    3    0    0  0.44138785127E+01 -0.48417274487E+01  0.83675059850E+01  0.10627314095E+02  0.51100000000E-03 0.  1.
         12    1    3    3    0    0 -0.47943996840E+00  0.28226325283E+02  0.13781835875E+01  0.28264017614E+02  0.00000000000E+00 0. -1.
</event>
<event>
 7    1  0.5837204E-012  0.5930195E+02  0.7816164E-02  0.1266605E+00
        -11   -1    0    0    0    0  0.00000000000E+00  0.00000000000E+00  0.45593999997E+02  0.45594000000E+02  0.51100000000E-03 0.  1.
         11   -1    0    0    0    0 -0.00000000000E+00 -0.00000000000E+00 -0.45593999997E+02  0.45594000000E+02  0.51100000000E-03 0. -1.
    9900012    2    1    2    0    0  0.21325878538E+02 -0.19645892303E+02  0.13265219735E+02  0.59301949219E+02  0.50000009467E+02 0.  0.
         12    1    1    2    0    0 -0.21325878538E+02  0.19645892303E+02 -0.13265219735E+02  0.31886050781E+02  0.00000000000E+00 0. -1.
         11    1    3    3    0    0  0.18558521284E+02  0.55806889744E+01 -0.20634572855E+01  0.19488988119E+02  0.51100000000E-03 0. -1.
        -11    1    3    3    0    0  0.10857783960E+02 -0.24907904981E+01 -0.15411686744E+00  0.11140882465E+02  0.51100000000E-03 0.  1.
        -12    1    3    3    0    0 -0.80904267063E+01 -0.22735790779E+02  0.15482793888E+02  0.28672078634E+02  0.00000000000E+00 0.  1.
</event>
<event>
 7    1  0.5837204E-012  0.5930194E+02  0.7816164E-02  0.1266605E+00
        -11   -1    0    0    0    0  0.00000000000E+00  0.00000000000E+00  0.45593999997E+02  0.45594000000E+02  0.51100000000E-03 0.  1.
         11   -1    0    0    0    0 -0.00000000000E+00 -0.00000000000E+00 -0.45593999997E+02  0.45594000000E+02  0.51100000000E-03 0. -1.
    9900012    2    1    2    0    0 -0.25523301978E+02 -0.76960710994E+01  0.17494355926E+02  0.59301938100E+02  0.49999989190E+02 0.  0.
         12    1    1    2    0    0  0.25523301978E+02  0.76960710994E+01 -0.17494355926E+02  0.31886061900E+02  0.00000000000E+00 0. -1.
         11    1    3    3    0    0  0.90875521455E+00 -0.51808209802E+00 -0.18397487939E+01  0.21163461404E+01  0.51100000000E-03 0. -1.
        -11    1    3    3    0    0  0.26009506345E+01 -0.18980256463E+02  0.17244616343E+02  0.25775800137E+02  0.51100000000E-03 0.  1.
         12    1    3    3    0    0 -0.29033007827E+02  0.11802267461E+02  0.20894883764E+01  0.31409791823E+02  0.00000000000E+00 0. -1.
</event>
<event>
 7    1  0.5837204E-012  0.5930195E+02  0.7816164E-02  0.1266605E+00
        -11   -1    0    0    0    0  0.00000000000E+00  0.00000000000E+00  0.45593999997E+02  0.45594000000E+02  0.51100000000E-03 0. -1.
         11   -1    0    0    0    0 -0.00000000000E+00 -0.00000000000E+00 -0.45593999997E+02  0.45594000000E+02  0.51100000000E-03 0.  1.
    9900012    2    1    2    0    0 -0.11092965123E+01  0.48120040718E+01 -0.31501334669E+02  0.59301952771E+02  0.50000015946E+02 0.  0.
         12    1    1    2    0    0  0.11092965123E+01 -0.48120040718E+01  0.31501334669E+02  0.31886047229E+02  0.00000000000E+00 0. -1.
         11    1    3    3    0    0 -0.10403003242E+02  0.77111426847E+00 -0.15536130703E+02  0.18713322825E+02  0.51100000000E-03 0. -1.
        -11    1    3    3    0    0 -0.38471775774E+01  0.14117584925E+02  0.34872362770E+01  0.15042200521E+02  0.51100000000E-03 0.  1.
         12    1    3    3    0    0  0.13140884308E+02 -0.10076695121E+02 -0.19452440243E+02  0.25546429425E+02  0.00000000000E+00 0. -1.
</event>
<event>
 7    1  0.5837204E-012  0.5930192E+02  0.7816164E-02  0.1266605E+00
        -11   -1    0    0    0    0  0.00000000000E+00  0.00000000000E+00  0.45593999997E+02  0.45594000000E+02  0.51100000000E-03 0.  1.
         11   -1    0    0    0    0 -0.00000000000E+00 -0.00000000000E+00 -0.45593999997E+02  0.45594000000E+02  0.51100000000E-03 0. -1.
    9900012    2    1    2    0    0  0.39951057814E+01  0.27043623247E+02  0.16413528280E+02  0.59301916215E+02  0.49999949276E+02 0.  0.
         12    1    1    2    0    0 -0.39951057814E+01 -0.27043623247E+02 -0.16413528280E+02  0.31886083785E+02  0.00000000000E+00 0. -1.
         11    1    3    3    0    0  0.16490711362E+02  0.16870382887E+02  0.25731374571E+01  0.23731296143E+02  0.51100000000E-03 0. -1.
        -11    1    3    3    0    0 -0.47415403826E+00  0.34903891023E+01 -0.85758755861E+01  0.92710992049E+01  0.51100000000E-03 0.  1.
        -12    1    3    3    0    0 -0.12021451543E+02  0.66828512578E+01  0.22416266409E+02  0.26299520867E+02  0.00000000000E+00 0.  1.
</event>
<event>
 7    1  0.5837204E-012  0.5930201E+02  0.7816164E-02  0.1266605E+00
        -11   -1    0    0    0    0  0.00000000000E+00  0.00000000000E+00  0.45593999997E+02  0.45594000000E+02  0.51100000000E-03 0.  1.
         11   -1    0    0    0    0 -0.00000000000E+00 -0.00000000000E+00 -0.45593999997E+02  0.45594000000E+02  0.51100000000E-03 0. -1.
    9900012    2    1    2    0    0 -0.27329523150E+02  0.16115282271E+02  0.31798519416E+01  0.59302005949E+02  0.50000112929E+02 0.  0.
         12    1    1    2    0    0  0.27329523150E+02 -0.16115282271E+02 -0.31798519416E+01  0.31885994051E+02  0.00000000000E+00 0. -1.
         11    1    3    3    0    0 -0.11198819963E+02 -0.11226051182E+01 -0.16630181596E+02  0.20080755738E+02  0.51100000000E-03 0. -1.
        -11    1    3    3    0    0  0.26460645867E+01  0.17948542081E+01 -0.40481507696E+01  0.51585544816E+01  0.51100000000E-03 0.  1.
         12    1    3    3    0    0 -0.18776767773E+02  0.15443033182E+02  0.23858184308E+02  0.34062695729E+02  0.00000000000E+00 0. -1.
</event>
<event>
 7    1  0.5837204E-012  0.5930197E+02  0.7816164E-02  0.1266605E+00
        -11   -1    0    0    0    0  0.00000000000E+00  0.00000000000E+00  0.45593999997E+02  0.45594000000E+02  0.51100000000E-03 0. -1.
         11   -1    0    0    0    0 -0.00000000000E+00 -0.00000000000E+00 -0.45593999997E+02  0.45594000000E+02  0.51100000000E-03 0.  1.
    9900012    2    1    2    0    0  0.11785811688E+02 -0.23912684664E+02 -0.17492770011E+02  0.59301970965E+02  0.50000049127E+02 0.  0.
         12    1    1    2    0    0 -0.11785811688E+02  0.23912684664E+02  0.17492770011E+02  0.31886029035E+02  0.00000000000E+00 0. -1.
         11    1    3    3    0    0  0.60336677894E+01 -0.69673860376E+01  0.38103360124E+01  0.99733783634E+01  0.51100000000E-03 0. -1.
        -11    1    3    3    0    0  0.19315576284E+02 -0.14464898762E+02 -0.25309537994E+02  0.34969951346E+02  0.51100000000E-03 0.  1.
         12    1    3    3    0    0 -0.13563432386E+02 -0.24803998644E+01  0.40064319715E+01  0.14358641256E+02  0.00000000000E+00 0. -1.
</event>
<event>
 7    1  0.5837204E-012  0.5930194E+02  0.7816164E-02  0.1266605E+00
        -11   -1    0    0    0    0  0.00000000000E+00  0.00000000000E+00  0.45593999997E+02  0.45594000000E+02  0.51100000000E-03 0.  1.
         11   -1    0    0    0    0 -0.00000000000E+00 -0.00000000000E+00 -0.45593999997E+02  0.45594000000E+02  0.51100000000E-03 0. -1.
    9900012    2    1    2    0    0 -0.31077822756E+02 -0.38868342236E+01 -0.59818353085E+01  0.59301938763E+02  0.49999990398E+02 0.  0.
         12    1    1    2    0    0  0.31077822756E+02  0.38868342236E+01  0.59818353085E+01  0.31886061237E+02  0.00000000000E+00 0. -1.
         11    1    3    3    0    0 -0.11704539058E+02  0.58857929141E+01  0.28562274620E+01  0.13408833968E+02  0.51100000000E-03 0.  1.
        -11    1    3    3    0    0 -0.16538176337E+02  0.10685340715E+02 -0.14528931759E+02  0.24469933409E+02  0.51100000000E-03 0. -1.
        -12    1    3    3    0    0 -0.28351073611E+01 -0.20457967852E+02  0.56908689886E+01  0.21423171386E+02  0.00000000000E+00 0.  1.
</event>
<event>
 7    1  0.5837204E-012  0.5930194E+02  0.7816164E-02  0.1266605E+00
        -11   -1    0    0    0    0  0.00000000000E+00  0.00000000000E+00  0.45593999997E+02  0.45594000000E+02  0.51100000000E-03 0.  1.
         11   -1    0    0    0    0 -0.00000000000E+00 -0.00000000000E+00 -0.45593999997E+02  0.45594000000E+02  0.51100000000E-03 0. -1.
    9900012    2    1    2    0    0 -0.41941635659E+01 -0.19752027791E+02  0.24677663209E+02  0.59301942368E+02  0.49999996973E+02 0.  0.
         12    1    1    2    0    0  0.41941635659E+01  0.19752027791E+02 -0.24677663209E+02  0.31886057632E+02  0.00000000000E+00 0. -1.
         11    1    3    3    0    0 -0.31233258183E+01 -0.51142282064E+01 -0.36764010425E+01  0.70303925354E+01  0.51100000000E-03 0. -1.
        -11    1    3    3    0    0  0.17859965151E+01 -0.28494393660E+02  0.24465287089E+02  0.37598810170E+02  0.51100000000E-03 0.  1.
         12    1    3    3    0    0 -0.28568342627E+01  0.13856594076E+02  0.38887771622E+01  0.14672739662E+02  0.00000000000E+00 0. -1.
</event>
<event>
 7    1  0.5837204E-012  0.5930196E+02  0.7816164E-02  0.1266605E+00
        -11   -1    0    0    0    0  0.00000000000E+00  0.00000000000E+00  0.45593999997E+02  0.45594000000E+02  0.51100000000E-03 0. -1.
         11   -1    0    0    0    0 -0.00000000000E+00 -0.00000000000E+00 -0.45593999997E+02  0.45594000000E+02  0.51100000000E-03 0.  1.
    9900012    2    1    2    0    0 -0.17203320536E+02 -0.13613307806E+02 -0.23139642005E+02  0.59301962005E+02  0.50000032787E+02 0.  0.
         12    1    1    2    0    0  0.17203320536E+02  0.13613307806E+02  0.23139642005E+02  0.31886037995E+02  0.00000000000E+00 0. -1.
         11    1    3    3    0    0 -0.19159716895E+02  0.52868327514E+01  0.45136314603E+01  0.20381811040E+02  0.51100000000E-03 0. -1.
        -11    1    3    3    0    0  0.29608943885E+01 -0.82138291678E+00  0.23556750958E+01  0.38717916904E+01  0.51100000000E-03 0.  1.
         12    1    3    3    0    0 -0.10044980293E+01 -0.18078757640E+02 -0.30008948561E+02  0.35048359275E+02  0.00000000000E+00 0. -1.
</event>
<event>
 7    1  0.5837204E-012  0.5930176E+02  0.7816164E-02  0.1266605E+00
        -11   -1    0    0    0    0  0.00000000000E+00  0.00000000000E+00  0.45593999997E+02  0.45594000000E+02  0.51100000000E-03 0.  1.
         11   -1    0    0    0    0 -0.00000000000E+00 -0.00000000000E+00 -0.45593999997E+02  0.45594000000E+02  0.51100000000E-03 0. -1.
    9900012    2    1    2    0    0 -0.43771822048E+01 -0.72212663929E+01  0.30747777877E+02  0.59301760699E+02  0.49999665651E+02 0.  0.
         12    1    1    2    0    0  0.43771822048E+01  0.72212663929E+01 -0.30747777877E+02  0.31886239301E+02  0.00000000000E+00 0. -1.
         11    1    3    3    0    0 -0.76115285202E+01 -0.24088648055E+00  0.23094917710E+02  0.24318071819E+02  0.51100000000E-03 0. -1.
        -11    1    3    3    0    0  0.53461881437E+01 -0.34738715567E+01  0.20516579190E+02  0.21484402090E+02  0.51100000000E-03 0.  1.
         12    1    3    3    0    0 -0.21118418282E+01 -0.35065083556E+01 -0.12863719022E+02  0.13499286790E+02  0.00000000000E+00 0. -1.
</event>
<event>
 7    1  0.5837204E-012  0.5930194E+02  0.7816164E-02  0.1266605E+00
        -11   -1    0    0    0    0  0.00000000000E+00  0.00000000000E+00  0.45593999997E+02  0.45594000000E+02  0.51100000000E-03 0. -1.
         11   -1    0    0    0    0 -0.00000000000E+00 -0.00000000000E+00 -0.45593999997E+02  0.45594000000E+02  0.51100000000E-03 0.  1.
    9900012    2    1    2    0    0 -0.31371821922E+02 -0.57026022093E+01 -0.99482812522E-01  0.59301940672E+02  0.49999993879E+02 0.  0.
         12    1    1    2    0    0  0.31371821922E+02  0.57026022093E+01  0.99482812522E-01  0.31886059328E+02  0.00000000000E+00 0. -1.
         11    1    3    3    0    0 -0.20349336074E+02  0.14803025809E+02  0.55990864155E+01  0.25779348725E+02  0.51100000000E-03 0. -1.
        -11    1    3    3    0    0  0.36107957513E+01 -0.98751444437E+01 -0.10447524835E+02  0.14822520001E+02  0.51100000000E-03 0.  1.
         12    1    3    3    0    0 -0.14633281600E+02 -0.10630483574E+02  0.47489556073E+01  0.18700071945E+02  0.00000000000E+00 0. -1.
</event>
<event>
 7    1  0.5837204E-012  0.5930201E+02  0.7816164E-02  0.1266605E+00
        -11   -1    0    0    0    0  0.00000000000E+00  0.00000000000E+00  0.45593999997E+02  0.45594000000E+02  0.51100000000E-03 0. -1.
         11   -1    0    0    0    0 -0.00000000000E+00 -0.00000000000E+00 -0.45593999997E+02  0.45594000000E+02  0.51100000000E-03 0.  1.
    9900012    2    1    2    0    0 -0.28455552275E+02  0.14197511710E+02 -0.23299908509E+01  0.59302005404E+02  0.50000111935E+02 0.  0.
         12    1    1    2    0    0  0.28455552275E+02 -0.14197511710E+02  0.23299908509E+01  0.31885994596E+02  0.00000000000E+00 0. -1.
         11    1    3    3    0    0 -0.17410570477E+02 -0.14006105228E+02  0.33214477060E+01  0.22590506039E+02  0.51100000000E-03 0. -1.
        -11    1    3    3    0    0 -0.39294104791E+01  0.31884251773E+00  0.46942172786E+01  0.61300573720E+01  0.51100000000E-03 0.  1.
        -12    1    3    3    0    0 -0.71155713195E+01  0.27884774420E+02 -0.10345655836E+02  0.30581441992E+02  0.00000000000E+00 0.  1.
</event>
<event>
 7    1  0.5837204E-012  0.5930200E+02  0.7816164E-02  0.1266605E+00
        -11   -1    0    0    0    0  0.00000000000E+00  0.00000000000E+00  0.45593999997E+02  0.45594000000E+02  0.51100000000E-03 0.  1.
         11   -1    0    0    0    0 -0.00000000000E+00 -0.00000000000E+00 -0.45593999997E+02  0.45594000000E+02  0.51100000000E-03 0. -1.
    9900012    2    1    2    0    0  0.17220682943E+02  0.22782833936E+02  0.14181243335E+02  0.59301998280E+02  0.50000098943E+02 0.  0.
         12    1    1    2    0    0 -0.17220682943E+02 -0.22782833936E+02 -0.14181243335E+02  0.31886001720E+02  0.00000000000E+00 0. -1.
         11    1    3    3    0    0  0.23230787552E+02  0.43110534172E+01 -0.59885096580E+01  0.24374513739E+02  0.51100000000E-03 0. -1.
        -11    1    3    3    0    0 -0.92526413015E+01 -0.26616595844E+00  0.45283316331E+01  0.10304756330E+02  0.51100000000E-03 0.  1.
        -12    1    3    3    0    0  0.32425366926E+01  0.18737946477E+02  0.15641421360E+02  0.24622728211E+02  0.00000000000E+00 0.  1.
</event>
<event>
 7    1  0.5837204E-012  0.5930195E+02  0.7816164E-02  0.1266605E+00
        -11   -1    0    0    0    0  0.00000000000E+00  0.00000000000E+00  0.45593999997E+02  0.45594000000E+02  0.51100000000E-03 0.  1.
         11   -1    0    0    0    0 -0.00000000000E+00 -0.00000000000E+00 -0.45593999997E+02  0.45594000000E+02  0.51100000000E-03 0. -1.
    9900012    2    1    2    0    0 -0.13261743278E+02  0.16417627125E+02  0.23902048055E+02  0.59301949501E+02  0.50000009982E+02 0.  0.
         12    1    1    2    0    0  0.13261743278E+02 -0.16417627125E+02 -0.23902048055E+02  0.31886050499E+02  0.00000000000E+00 0. -1.
         11    1    3    3    0    0  0.16568673774E+00  0.30338149641E+02  0.12344272800E+02  0.32753806603E+02  0.51100000000E-03 0. -1.
        -11    1    3    3    0    0 -0.67983663143E+01 -0.76119660057E+00 -0.13341530177E+01  0.69697323725E+01  0.51100000000E-03 0.  1.
        -12    1    3    3    0    0 -0.66290637019E+01 -0.13159325916E+02  0.12891928273E+02  0.19578410526E+02  0.00000000000E+00 0.  1.
</event>
<event>
 7    1  0.5837204E-012  0.5930186E+02  0.7816164E-02  0.1266605E+00
        -11   -1    0    0    0    0  0.00000000000E+00  0.00000000000E+00  0.45593999997E+02  0.45594000000E+02  0.51100000000E-03 0. -1.
         11   -1    0    0    0    0 -0.00000000000E+00 -0.00000000000E+00 -0.45593999997E+02  0.45594000000E+02  0.51100000000E-03 0.  1.
    9900012    2    1    2    0    0 -0.22188845742E+02  0.39344359953E+01 -0.22558836706E+02  0.59301862330E+02  0.49999851002E+02 0.  0.
         12    1    1    2    0    0  0.22188845742E+02 -0.39344359953E+01  0.22558836706E+02  0.31886137670E+02  0.00000000000E+00 0. -1.
         11    1    3    3    0    0 -0.40906324263E+01 -0.56321575372E+01 -0.78030889854E+01  0.10456704555E+02  0.51100000000E-03 0.  1.
        -11    1    3    3    0    0 -0.23646911544E+02 -0.92371335840E+01 -0.20219068241E+01  0.25467413883E+02  0.51100000000E-03 0. -1.
         12    1    3    3    0    0  0.55486982279E+01  0.18803727116E+02 -0.12733840897E+02  0.23377743892E+02  0.00000000000E+00 0. -1.
</event>
<event>
 7    1  0.5837204E-012  0.5930193E+02  0.7816164E-02  0.1266605E+00
        -11   -1    0    0    0    0  0.00000000000E+00  0.00000000000E+00  0.45593999997E+02  0.45594000000E+02  0.51100000000E-03 0.  1.
         11   -1    0    0    0    0 -0.00000000000E+00 -0.00000000000E+00 -0.45593999997E+02  0.45594000000E+02  0.51100000000E-03 0. -1.
    9900012    2    1    2    0    0 -0.63887106223E+01 -0.29794288917E+02  0.93918108681E+01  0.59301931147E+02  0.49999976509E+02 0.  0.
         12    1    1    2    0    0  0.63887106223E+01  0.29794288917E+02 -0.93918108681E+01  0.31886068853E+02  0.00000000000E+00 0. -1.
         11    1    3    3    0    0  0.16519342203E+01 -0.58802562387E+01  0.27396604994E+00  0.61140295844E+01  0.51100000000E-03 0. -1.
        -11    1    3    3    0    0 -0.18438064450E+02 -0.33442214331E+02  0.81750614440E+01  0.39053496001E+02  0.51100000000E-03 0.  1.
        -12    1    3    3    0    0  0.10397419608E+02  0.95281816522E+01  0.94278337411E+00  0.14134405562E+02  0.00000000000E+00 0.  1.
</event>
<event>
 7    1  0.5837204E-012  0.5930205E+02  0.7816164E-02  0.1266604E+00
        -11   -1    0    0    0    0  0.00000000000E+00  0.00000000000E+00  0.45593999997E+02  0.45594000000E+02  0.51100000000E-03 0. -1.
         11   -1    0    0    0    0 -0.00000000000E+00 -0.00000000000E+00 -0.45593999997E+02  0.45594000000E+02  0.51100000000E-03 0.  1.
    9900012    2    1    2    0    0  0.16316961803E+02 -0.26954052685E+02 -0.48938505467E+01  0.59302047422E+02  0.50000188565E+02 0.  0.
         12    1    1    2    0    0 -0.16316961803E+02  0.26954052685E+02  0.48938505467E+01  0.31885952578E+02  0.00000000000E+00 0. -1.
         11    1    3    3    0    0  0.21841292313E+01 -0.50893697715E+01  0.65270448553E+01  0.85600478956E+01  0.51100000000E-03 0. -1.
        -11    1    3    3    0    0 -0.13199948338E+02 -0.12384118544E+02 -0.12154811699E+02  0.21802396106E+02  0.51100000000E-03 0.  1.
         12    1    3    3    0    0  0.27332780909E+02 -0.94805643698E+01  0.73391629752E+00  0.28939603421E+02  0.00000000000E+00 0. -1.
</event>
<event>
 7    1  0.5837204E-012  0.5930195E+02  0.7816164E-02  0.1266605E+00
        -11   -1    0    0    0    0  0.00000000000E+00  0.00000000000E+00  0.45593999997E+02  0.45594000000E+02  0.51100000000E-03 0.  1.
         11   -1    0    0    0    0 -0.00000000000E+00 -0.00000000000E+00 -0.45593999997E+02  0.45594000000E+02  0.51100000000E-03 0. -1.
    9900012    2    1    2    0    0  0.25115391751E+02 -0.15307397140E+02  0.12313453827E+02  0.59301945758E+02  0.50000003155E+02 0.  0.
         12    1    1    2    0    0 -0.25115391751E+02  0.15307397140E+02 -0.12313453827E+02  0.31886054242E+02  0.00000000000E+00 0. -1.
         11    1    3    3    0    0  0.20725340832E+02 -0.43319167735E+01 -0.84850475643E+01  0.22810113721E+02  0.51100000000E-03 0. -1.
        -11    1    3    3    0    0  0.12160167451E+02  0.42284157520E+01  0.80606355310E+01  0.15189569369E+02  0.51100000000E-03 0.  1.
         12    1    3    3    0    0 -0.77701165314E+01 -0.15203896118E+02  0.12737865860E+02  0.21302262668E+02  0.00000000000E+00 0. -1.
</event>
<event>
 7    1  0.5837204E-012  0.5930194E+02  0.7816164E-02  0.1266605E+00
        -11   -1    0    0    0    0  0.00000000000E+00  0.00000000000E+00  0.45593999997E+02  0.45594000000E+02  0.51100000000E-03 0. -1.
         11   -1    0    0    0    0 -0.00000000000E+00 -0.00000000000E+00 -0.45593999997E+02  0.45594000000E+02  0.51100000000E-03 0.  1.
    9900012    2    1    2    0    0 -0.29933550514E+02  0.47055180787E+00  0.10976414749E+02  0.59301944331E+02  0.50000000553E+02 0.  0.
         12    1    1    2    0    0  0.29933550514E+02 -0.47055180787E+00 -0.10976414749E+02  0.31886055669E+02  0.00000000000E+00 0. -1.
         11    1    3    3    0    0 -0.31232681262E+02 -0.68730241774E+01  0.11435742016E+01  0.32000415659E+02  0.51100000000E-03 0. -1.
        -11    1    3    3    0    0 -0.86491186283E+01  0.34801970021E+01 -0.37316078116E+01  0.10042107415E+02  0.51100000000E-03 0.  1.
         12    1    3    3    0    0  0.99482493764E+01  0.38633789832E+01  0.13564448359E+02  0.17259421256E+02  0.00000000000E+00 0. -1.
</event>
<event>
 7    1  0.5837204E-012  0.5930189E+02  0.7816164E-02  0.1266605E+00
        -11   -1    0    0    0    0  0.00000000000E+00  0.00000000000E+00  0.45593999997E+02  0.45594000000E+02  0.51100000000E-03 0. -1.
         11   -1    0    0    0    0 -0.00000000000E+00 -0.00000000000E+00 -0.45593999997E+02  0.45594000000E+02  0.51100000000E-03 0.  1.
    9900012    2    1    2    0    0 -0.24687530480E+02  0.58126685382E+00 -0.20172066903E+02  0.59301885224E+02  0.49999892757E+02 0.  0.
         12    1    1    2    0    0  0.24687530480E+02 -0.58126685382E+00  0.20172066903E+02  0.31886114776E+02  0.00000000000E+00 0. -1.
         11    1    3    3    0    0  0.11676584714E+01  0.74980899566E+01  0.96597860735E+01  0.12283983334E+02  0.51100000000E-03 0. -1.
        -11    1    3    3    0    0  0.24230888245E+01  0.47803503419E+00 -0.13115937710E+02  0.13346448937E+02  0.51100000000E-03 0.  1.
        -12    1    3    3    0    0 -0.28278277775E+02 -0.73948581369E+01 -0.16715915267E+02  0.33671452954E+02  0.00000000000E+00 0.  1.
</event>
<event>
 7    1  0.5837204E-012  0.5930194E+02  0.7816164E-02  0.1266605E+00
        -11   -1    0    0    0    0  0.00000000000E+00  0.00000000000E+00  0.45593999997E+02  0.45594000000E+02  0.51100000000E-03 0.  1.
         11   -1    0    0    0    0 -0.00000000000E+00 -0.00000000000E+00 -0.45593999997E+02  0.45594000000E+02  0.51100000000E-03 0. -1.
    9900012    2    1    2    0    0  0.23737472207E+02  0.21108156582E+02  0.27747160869E+01  0.59301938619E+02  0.49999990135E+02 0.  0.
         12    1    1    2    0    0 -0.23737472207E+02 -0.21108156582E+02 -0.27747160869E+01  0.31886061381E+02  0.00000000000E+00 0. -1.
         11    1    3    3    0    0  0.25306443900E+02  0.27524555678E+02  0.13309325770E+02  0.39688227736E+02  0.51100000000E-03 0. -1.
        -11    1    3    3    0    0 -0.32870017781E+01  0.33154217554E+01  0.62174355154E+00  0.47098797660E+01  0.51100000000E-03 0.  1.
         12    1    3    3    0    0  0.17180300844E+01 -0.97318208515E+01 -0.11156353234E+02  0.14903831116E+02  0.00000000000E+00 0. -1.
</event>
<event>
 7    1  0.5837204E-012  0.5930195E+02  0.7816164E-02  0.1266605E+00
        -11   -1    0    0    0    0  0.00000000000E+00  0.00000000000E+00  0.45593999997E+02  0.45594000000E+02  0.51100000000E-03 0. -1.
         11   -1    0    0    0    0 -0.00000000000E+00 -0.00000000000E+00 -0.45593999997E+02  0.45594000000E+02  0.51100000000E-03 0.  1.
    9900012    2    1    2    0    0  0.25043114931E+02 -0.99836106711E+01 -0.17026161093E+02  0.59301948990E+02  0.50000009049E+02 0.  0.
         12    1    1    2    0    0 -0.25043114931E+02  0.99836106711E+01  0.17026161093E+02  0.31886051010E+02  0.00000000000E+00 0. -1.
         11    1    3    3    0    0  0.23641475576E+01 -0.62847044806E+01  0.61590538133E+01  0.91115667269E+01  0.51100000000E-03 0. -1.
        -11    1    3    3    0    0 -0.95454904312E+01 -0.73054040765E+01 -0.50505852366E+01  0.13038164280E+02  0.51100000000E-03 0.  1.
         12    1    3    3    0    0  0.32224457805E+02  0.36064978860E+01 -0.18134629669E+02  0.37152217983E+02  0.00000000000E+00 0. -1.
</event>
<event>
 7    1  0.5837204E-012  0.5930196E+02  0.7816164E-02  0.1266605E+00
        -11   -1    0    0    0    0  0.00000000000E+00  0.00000000000E+00  0.45593999997E+02  0.45594000000E+02  0.51100000000E-03 0.  1.
         11   -1    0    0    0    0 -0.00000000000E+00 -0.00000000000E+00 -0.45593999997E+02  0.45594000000E+02  0.51100000000E-03 0. -1.
    9900012    2    1    2    0    0 -0.20238406175E+02  0.21059219809E+02  0.12792014713E+02  0.59301961301E+02  0.50000031503E+02 0.  0.
         12    1    1    2    0    0  0.20238406175E+02 -0.21059219809E+02 -0.12792014713E+02  0.31886038699E+02  0.00000000000E+00 0. -1.
         11    1    3    3    0    0 -0.81644444454E+01  0.39673505011E+01 -0.50638684098E+01  0.10394267008E+02  0.51100000000E-03 0. -1.
        -11    1    3    3    0    0 -0.95356697100E+00 -0.12929646542E+02  0.86857203257E+01  0.15605344838E+02  0.51100000000E-03 0.  1.
         12    1    3    3    0    0 -0.11120394759E+02  0.30021515850E+02  0.91701627968E+01  0.33302349455E+02  0.00000000000E+00 0. -1.
</event>
<event>
 7    1  0.5837204E-012  0.5930196E+02  0.7816164E-02  0.1266605E+00
        -11   -1    0    0    0    0  0.00000000000E+00  0.00000000000E+00  0.45593999997E+02  0.45594000000E+02  0.51100000000E-03 0. -1.
         11   -1    0    0    0    0 -0.00000000000E+00 -0.00000000000E+00 -0.45593999997E+02  0.45594000000E+02  0.51100000000E-03 0.  1.
    9900012    2    1    2    0    0 -0.91145606566E+01 -0.28775261973E+02 -0.10277571651E+02  0.59301962357E+02  0.50000033427E+02 0.  0.
         12    1    1    2    0    0  0.91145606566E+01  0.28775261973E+02  0.10277571651E+02  0.31886037643E+02  0.00000000000E+00 0. -1.
         11    1    3    3    0    0 -0.63160253898E+01 -0.24886966800E+02 -0.75113605622E+00  0.25686912988E+02  0.51100000000E-03 0. -1.
        -11    1    3    3    0    0 -0.13719172889E+02 -0.10607170562E+02 -0.11259921884E+02  0.20676402327E+02  0.51100000000E-03 0.  1.
         12    1    3    3    0    0  0.10920637622E+02  0.67188753887E+01  0.17334862897E+01  0.12938647042E+02  0.00000000000E+00 0. -1.
</event>
<event>
 7    1  0.5837204E-012  0.5930193E+02  0.7816164E-02  0.1266605E+00
        -11   -1    0    0    0    0  0.00000000000E+00  0.00000000000E+00  0.45593999997E+02  0.45594000000E+02  0.51100000000E-03 0. -1.
         11   -1    0    0    0    0 -0.00000000000E+00 -0.00000000000E+00 -0.45593999997E+02  0.45594000000E+02  0.51100000000E-03 0.  1.
    9900012    2    1    2    0    0 -0.26222977819E+02  0.12842176162E+02 -0.12812303145E+02  0.59301934609E+02  0.49999982822E+02 0.  0.
         12    1    1    2    0    0  0.26222977819E+02 -0.12842176162E+02  0.12812303145E+02  0.31886065391E+02  0.00000000000E+00 0. -1.
         11    1    3    3    0    0 -0.56057446369E+01 -0.50084826532E+00 -0.20145320005E+02  0.20916719157E+02  0.51100000000E-03 0. -1.
        -11    1    3    3    0    0  0.21132327590E+01 -0.13978222538E+01 -0.72061517597E+01  0.76386047935E+01  0.51100000000E-03 0.  1.
         12    1    3    3    0    0 -0.22730465941E+02  0.14740846681E+02  0.14539168620E+02  0.30746610658E+02  0.00000000000E+00 0. -1.
</event>
<event>
 7    1  0.5837204E-012  0.5930196E+02  0.7816164E-02  0.1266605E+00
        -11   -1    0    0    0    0  0.00000000000E+00  0.00000000000E+00  0.45593999997E+02  0.45594000000E+02  0.51100000000E-03 0. -1.
         11   -1    0    0    0    0 -0.00000000000E+00 -0.00000000000E+00 -0.45593999997E+02  0.45594000000E+02  0.51100000000E-03 0.  1.
    9900012    2    1    2    0    0  0.15470528336E+02  0.12358322207E+02 -0.24993077107E+02  0.59301964216E+02  0.50000036818E+02 0.  0.
         12    1    1    2    0    0 -0.15470528336E+02 -0.12358322207E+02  0.24993077107E+02  0.31886035784E+02  0.00000000000E+00 0. -1.
         11    1    3    3    0    0 -0.33518663282E+01  0.87401806798E+01  0.21428795504E+01  0.96030046978E+01  0.51100000000E-03 0. -1.
        -11    1    3    3    0    0  0.79604675809E+01  0.63543111102E+00 -0.35039972944E+02  0.35938454627E+02  0.51100000000E-03 0.  1.
         12    1    3    3    0    0  0.10861927084E+02  0.29827104159E+01  0.79040162864E+01  0.13760504891E+02  0.00000000000E+00 0. -1.
</event>
<event>
 7    1  0.5837204E-012  0.5930198E+02  0.7816164E-02  0.1266605E+00
        -11   -1    0    0    0    0  0.00000000000E+00  0.00000000000E+00  0.45593999997E+02  0.45594000000E+02  0.51100000000E-03 0. -1.
         11   -1    0    0    0    0 -0.00000000000E+00 -0.00000000000E+00 -0.45593999997E+02  0.45594000000E+02  0.51100000000E-03 0.  1.
    9900012    2    1    2    0    0 -0.23415599374E+02 -0.89833608475E+01 -0.19690789270E+02  0.59301980364E+02  0.50000066269E+02 0.  0.
         12    1    1    2    0    0  0.23415599374E+02  0.89833608475E+01  0.19690789270E+02  0.31886019636E+02  0.00000000000E+00 0. -1.
         11    1    3    3    0    0 -0.94524625330E+01  0.33191739362E+00  0.23601039573E+01  0.97482976998E+01  0.51100000000E-03 0. -1.
        -11    1    3    3    0    0 -0.27583169833E+02 -0.43075603050E+01 -0.21131296100E+02  0.35013111957E+02  0.51100000000E-03 0.  1.
        -12    1    3    3    0    0  0.13620032992E+02 -0.50077179361E+01 -0.91959712773E+00  0.14540570707E+02  0.00000000000E+00 0.  1.
</event>
<event>
 7    1  0.5837204E-012  0.5930195E+02  0.7816164E-02  0.1266605E+00
        -11   -1    0    0    0    0  0.00000000000E+00  0.00000000000E+00  0.45593999997E+02  0.45594000000E+02  0.51100000000E-03 0.  1.
         11   -1    0    0    0    0 -0.00000000000E+00 -0.00000000000E+00 -0.45593999997E+02  0.45594000000E+02  0.51100000000E-03 0. -1.
    9900012    2    1    2    0    0 -0.26759436414E+02  0.11007387394E+02  0.13397396408E+02  0.59301949054E+02  0.50000009167E+02 0.  0.
         12    1    1    2    0    0  0.26759436414E+02 -0.11007387394E+02 -0.13397396408E+02  0.31886050946E+02  0.00000000000E+00 0. -1.
         11    1    3    3    0    0  0.64328222363E+01 -0.81234047456E+01  0.79236255524E+01  0.13044337804E+02  0.51100000000E-03 0. -1.
        -11    1    3    3    0    0 -0.10848652153E+02  0.19139586827E+01  0.13023086374E+02  0.17057469635E+02  0.51100000000E-03 0.  1.
         12    1    3    3    0    0 -0.22343606497E+02  0.17216833457E+02 -0.75493155186E+01  0.29200141615E+02  0.00000000000E+00 0. -1.
</event>
<event>
 7    1  0.5837204E-012  0.5930194E+02  0.7816164E-02  0.1266605E+00
        -11   -1    0    0    0    0  0.00000000000E+00  0.00000000000E+00  0.45593999997E+02  0.45594000000E+02  0.51100000000E-03 0. -1.
         11   -1    0    0    0    0 -0.00000000000E+00 -0.00000000000E+00 -0.45593999997E+02  0.45594000000E+02  0.51100000000E-03 0.  1.
    9900012    2    1    2    0    0  0.86067621486E+01 -0.32121214396E+01 -0.30534022505E+02  0.59301943342E+02  0.49999998750E+02 0.  0.
         12    1    1    2    0    0 -0.86067621486E+01  0.32121214396E+01  0.30534022505E+02  0.31886056658E+02  0.00000000000E+00 0. -1.
         11    1    3    3    0    0  0.11305932765E+02  0.24726314379E+01 -0.53774927225E+01  0.12761483070E+02  0.51100000000E-03 0. -1.
        -11    1    3    3    0    0  0.10796176350E+02  0.86525612263E+01 -0.22855222001E+02  0.26716762762E+02  0.51100000000E-03 0.  1.
         12    1    3    3    0    0 -0.13495346966E+02 -0.14337314104E+02 -0.23013077820E+01  0.19823697510E+02  0.00000000000E+00 0. -1.
</event>
<event>
 7    1  0.5837204E-012  0.5930194E+02  0.7816164E-02  0.1266605E+00
        -11   -1    0    0    0    0  0.00000000000E+00  0.00000000000E+00  0.45593999997E+02  0.45594000000E+02  0.51100000000E-03 0. -1.
         11   -1    0    0    0    0 -0.00000000000E+00 -0.00000000000E+00 -0.45593999997E+02  0.45594000000E+02  0.51100000000E-03 0.  1.
    9900012    2    1    2    0    0 -0.13872436261E+02 -0.12154066880E+02 -0.26010676549E+02  0.59301935268E+02  0.49999984025E+02 0.  0.
         12    1    1    2    0    0  0.13872436261E+02  0.12154066880E+02  0.26010676549E+02  0.31886064732E+02  0.00000000000E+00 0. -1.
         11    1    3    3    0    0 -0.37877452063E+01  0.60053723526E+01  0.34314133801E+01  0.78858169448E+01  0.51100000000E-03 0. -1.
        -11    1    3    3    0    0 -0.16519604082E+02  0.47912163535E+01 -0.18267720736E+02  0.25091087946E+02  0.51100000000E-03 0.  1.
         12    1    3    3    0    0  0.64349130275E+01 -0.22950655586E+02 -0.11174369193E+02  0.26325030377E+02  0.00000000000E+00 0. -1.
</event>
<event>
 7    1  0.5837204E-012  0.5930194E+02  0.7816164E-02  0.1266605E+00
        -11   -1    0    0    0    0  0.00000000000E+00  0.00000000000E+00  0.45593999997E+02  0.45594000000E+02  0.51100000000E-03 0.  1.
         11   -1    0    0    0    0 -0.00000000000E+00 -0.00000000000E+00 -0.45593999997E+02  0.45594000000E+02  0.51100000000E-03 0. -1.
    9900012    2    1    2    0    0  0.20291121721E+02  0.19521524516E+01  0.24518984412E+02  0.59301935387E+02  0.49999984242E+02 0.  0.
         12    1    1    2    0    0 -0.20291121721E+02 -0.19521524516E+01 -0.24518984412E+02  0.31886064613E+02  0.00000000000E+00 0. -1.
         11    1    3    3    0    0 -0.86991059972E+01  0.40824465972E+01  0.25630559582E+01  0.99453542660E+01  0.51100000000E-03 0. -1.
        -11    1    3    3    0    0 -0.35743310927E+00  0.49883397829E+01 -0.62702494959E+01  0.80204314858E+01  0.51100000000E-03 0.  1.
        -12    1    3    3    0    0  0.29347660827E+02 -0.71186339286E+01  0.28226177950E+02  0.41336149636E+02  0.00000000000E+00 0.  1.
</event>
<event>
 7    1  0.5837204E-012  0.5930195E+02  0.7816164E-02  0.1266605E+00
        -11   -1    0    0    0    0  0.00000000000E+00  0.00000000000E+00  0.45593999997E+02  0.45594000000E+02  0.51100000000E-03 0. -1.
         11   -1    0    0    0    0 -0.00000000000E+00 -0.00000000000E+00 -0.45593999997E+02  0.45594000000E+02  0.51100000000E-03 0.  1.
    9900012    2    1    2    0    0  0.66192962141E+01  0.92020898371E+01 -0.29803136158E+02  0.59301945609E+02  0.50000002884E+02 0.  0.
         12    1    1    2    0    0 -0.66192962141E+01 -0.92020898371E+01  0.29803136158E+02  0.31886054391E+02  0.00000000000E+00 0. -1.
         11    1    3    3    0    0  0.47733156530E+01 -0.49867303542E+01 -0.24833066957E+02  0.25774662688E+02  0.51100000000E-03 0. -1.
        -11    1    3    3    0    0 -0.11813164789E+02  0.21100191974E+01 -0.88183997604E+01  0.14891850722E+02  0.51100000000E-03 0.  1.
        -12    1    3    3    0    0  0.13659145350E+02  0.12078800994E+02  0.38483305591E+01  0.18635432199E+02  0.00000000000E+00 0.  1.
</event>
<event>
 7    1  0.5837204E-012  0.5930192E+02  0.7816164E-02  0.1266605E+00
        -11   -1    0    0    0    0  0.00000000000E+00  0.00000000000E+00  0.45593999997E+02  0.45594000000E+02  0.51100000000E-03 0.  1.
         11   -1    0    0    0    0 -0.00000000000E+00 -0.00000000000E+00 -0.45593999997E+02  0.45594000000E+02  0.51100000000E-03 0. -1.
    9900012    2    1    2    0    0  0.22777617236E+02 -0.21952637020E+02 -0.39980036241E+01  0.59301919148E+02  0.49999954626E+02 0.  0.
         12    1    1    2    0    0 -0.22777617236E+02  0.21952637020E+02  0.39980036241E+01  0.31886080852E+02  0.00000000000E+00 0. -1.
         11    1    3    3    0    0  0.59042109940E+01  0.60876094753E+01 -0.81885977381E+01  0.11788631378E+02  0.51100000000E-03 0. -1.
        -11    1    3    3    0    0  0.26575526716E+02 -0.14148381374E+02  0.21117472387E+00  0.30107804815E+02  0.51100000000E-03 0.  1.
        -12    1    3    3    0    0 -0.97021204734E+01 -0.13891865122E+02  0.39794193902E+01  0.17405482956E+02  0.00000000000E+00 0.  1.
</event>
<event>
 7    1  0.5837204E-012  0.5930193E+02  0.7816164E-02  0.1266605E+00
        -11   -1    0    0    0    0  0.00000000000E+00  0.00000000000E+00  0.45593999997E+02  0.45594000000E+02  0.51100000000E-03 0.  1.
         11   -1    0    0    0    0 -0.00000000000E+00 -0.00000000000E+00 -0.45593999997E+02  0.45594000000E+02  0.51100000000E-03 0. -1.
    9900012    2    1    2    0    0  0.22768428356E+02 -0.17753253365E+02  0.13532994634E+02  0.59301932845E+02  0.49999979606E+02 0.  0.
         12    1    1    2    0    0 -0.22768428356E+02  0.17753253365E+02 -0.13532994634E+02  0.31886067155E+02  0.00000000000E+00 0. -1.
         11    1    3    3    0    0  0.16541103917E+02 -0.43202929145E+01 -0.69880613489E+00  0.17110271183E+02  0.51100000000E-03 0. -1.
        -11    1    3    3    0    0  0.20799487299E+02 -0.93096993018E+01  0.14562829963E+02  0.27043764342E+02  0.51100000000E-03 0.  1.
        -12    1    3    3    0    0 -0.14572162860E+02 -0.41232611490E+01 -0.33102919418E+00  0.15147897321E+02  0.00000000000E+00 0.  1.
</event>
<event>
 7    1  0.5837204E-012  0.5930194E+02  0.7816164E-02  0.1266605E+00
        -11   -1    0    0    0    0  0.00000000000E+00  0.00000000000E+00  0.45593999997E+02  0.45594000000E+02  0.51100000000E-03 0. -1.
         11   -1    0    0    0    0 -0.00000000000E+00 -0.00000000000E+00 -0.45593999997E+02  0.45594000000E+02  0.51100000000E-03 0.  1.
    9900012    2    1    2    0    0 -0.26924313604E+02  0.17065201711E+02  0.76222376434E+00  0.59301941016E+02  0.49999994507E+02 0.  0.
         12    1    1    2    0    0  0.26924313604E+02 -0.17065201711E+02 -0.76222376434E+00  0.31886058984E+02  0.00000000000E+00 0. -1.
         11    1    3    3    0    0 -0.21602761704E+02  0.77344365584E+01  0.18775155202E+02  0.29648056855E+02  0.51100000000E-03 0. -1.
        -11    1    3    3    0    0 -0.63099043616E+01 -0.56908929085E+01 -0.62131063864E+01  0.10526340598E+02  0.51100000000E-03 0.  1.
        -12    1    3    3    0    0  0.98835246204E+00  0.15021658061E+02 -0.11799825052E+02  0.19127543563E+02  0.00000000000E+00 0.  1.
</event>
<event>
 7    1  0.5837204E-012  0.5930177E+02  0.7816164E-02  0.1266605E+00
        -11   -1    0    0    0    0  0.00000000000E+00  0.00000000000E+00  0.45593999997E+02  0.45594000000E+02  0.51100000000E-03 0.  1.
         11   -1    0    0    0    0 -0.00000000000E+00 -0.00000000000E+00 -0.45593999997E+02  0.45594000000E+02  0.51100000000E-03 0. -1.
    9900012    2    1    2    0    0  0.30204683344E+02 -0.97391449430E+01  0.30916146573E+01  0.59301765959E+02  0.49999675244E+02 0.  0.
         12    1    1    2    0    0 -0.30204683344E+02  0.97391449430E+01 -0.30916146573E+01  0.31886234041E+02  0.00000000000E+00 0. -1.
         11    1    3    3    0    0  0.90560922349E+01  0.55427829070E+01  0.90438598959E+01  0.13947281133E+02  0.51100000000E-03 0.  1.
        -11    1    3    3    0    0  0.16522984943E+02 -0.72852559149E+01  0.14339537396E+02  0.23058757950E+02  0.51100000000E-03 0. -1.
         12    1    3    3    0    0  0.46256061662E+01 -0.79966719351E+01 -0.20291782635E+02  0.22295726876E+02  0.00000000000E+00 0. -1.
</event>
<event>
 7    1  0.5837204E-012  0.5930189E+02  0.7816164E-02  0.1266605E+00
        -11   -1    0    0    0    0  0.00000000000E+00  0.00000000000E+00  0.45593999997E+02  0.45594000000E+02  0.51100000000E-03 0. -1.
         11   -1    0    0    0    0 -0.00000000000E+00 -0.00000000000E+00 -0.45593999997E+02  0.45594000000E+02  0.51100000000E-03 0.  1.
    9900012    2    1    2    0    0 -0.30579167804E+02 -0.70936460258E+01 -0.55963034745E+01  0.59301891268E+02  0.49999903778E+02 0.  0.
         12    1    1    2    0    0  0.30579167804E+02  0.70936460258E+01  0.55963034745E+01  0.31886108732E+02  0.00000000000E+00 0. -1.
         11    1    3    3    0    0  0.62942087586E+01  0.10729909402E+01 -0.12629418787E+02  0.14151699283E+02  0.51100000000E-03 0. -1.
        -11    1    3    3    0    0 -0.53449962200E+01 -0.70276320940E+01 -0.63545275113E+01  0.10878263538E+02  0.51100000000E-03 0.  1.
         12    1    3    3    0    0 -0.31528380342E+02 -0.11390048720E+01  0.13387642823E+02  0.34271928447E+02  0.00000000000E+00 0. -1.
</event>
<event>
 7    1  0.5837204E-012  0.5930193E+02  0.7816164E-02  0.1266605E+00
        -11   -1    0    0    0    0  0.00000000000E+00  0.00000000000E+00  0.45593999997E+02  0.45594000000E+02  0.51100000000E-03 0. -1.
         11   -1    0    0    0    0 -0.00000000000E+00 -0.00000000000E+00 -0.45593999997E+02  0.45594000000E+02  0.51100000000E-03 0.  1.
    9900012    2    1    2    0    0  0.22992393550E+02  0.16153712266E+02 -0.15070801652E+02  0.59301927122E+02  0.49999969168E+02 0.  0.
         12    1    1    2    0    0 -0.22992393550E+02 -0.16153712266E+02  0.15070801652E+02  0.31886072878E+02  0.00000000000E+00 0. -1.
         11    1    3    3    0    0 -0.64478397965E+01  0.26633798023E+01  0.86655697791E+01  0.11124762014E+02  0.51100000000E-03 0. -1.
        -11    1    3    3    0    0  0.30390447962E+02  0.94080966309E+01 -0.93002994333E+01  0.33144941988E+02  0.51100000000E-03 0.  1.
        -12    1    3    3    0    0 -0.95021461596E+00  0.40822358331E+01 -0.14436071998E+02  0.15032223120E+02  0.00000000000E+00 0.  1.
</event>
<event>
 7    1  0.5837204E-012  0.5930196E+02  0.7816164E-02  0.1266605E+00
        -11   -1    0    0    0    0  0.00000000000E+00  0.00000000000E+00  0.45593999997E+02  0.45594000000E+02  0.51100000000E-03 0.  1.
         11   -1    0    0    0    0 -0.00000000000E+00 -0.00000000000E+00 -0.45593999997E+02  0.45594000000E+02  0.51100000000E-03 0. -1.
    9900012    2    1    2    0    0  0.30503826270E+02  0.71953433913E+01  0.58705254627E+01  0.59301961475E+02  0.50000031819E+02 0.  0.
         12    1    1    2    0    0 -0.30503826270E+02 -0.71953433913E+01 -0.58705254627E+01  0.31886038525E+02  0.00000000000E+00 0. -1.
         11    1    3    3    0    0  0.10783339489E+01  0.13241769535E+02 -0.47288482982E+01  0.14102101653E+02  0.51100000000E-03 0. -1.
        -11    1    3    3    0    0 -0.35484444281E+01  0.70552984863E+01  0.48163524878E+01  0.92501862758E+01  0.51100000000E-03 0.  1.
         12    1    3    3    0    0  0.32973936749E+02 -0.13101724630E+02  0.57830212731E+01  0.35949673546E+02  0.00000000000E+00 0. -1.
</event>
<event>
 7    1  0.5837204E-012  0.5930196E+02  0.7816164E-02  0.1266605E+00
        -11   -1    0    0    0    0  0.00000000000E+00  0.00000000000E+00  0.45593999997E+02  0.45594000000E+02  0.51100000000E-03 0. -1.
         11   -1    0    0    0    0 -0.00000000000E+00 -0.00000000000E+00 -0.45593999997E+02  0.45594000000E+02  0.51100000000E-03 0.  1.
    9900012    2    1    2    0    0 -0.30864752525E+02  0.53898765936E+01 -0.59190921446E+01  0.59301962775E+02  0.50000034190E+02 0.  0.
         12    1    1    2    0    0  0.30864752525E+02 -0.53898765936E+01  0.59190921446E+01  0.31886037225E+02  0.00000000000E+00 0. -1.
         11    1    3    3    0    0 -0.17246532738E+02  0.48497522524E+01  0.16242659940E+02  0.24182369416E+02  0.51100000000E-03 0. -1.
        -11    1    3    3    0    0 -0.16972042957E+02  0.79706438159E+01 -0.12784959187E+02  0.22694417522E+02  0.51100000000E-03 0.  1.
         12    1    3    3    0    0  0.33538231701E+01 -0.74305194746E+01 -0.93767928982E+01  0.12425175837E+02  0.00000000000E+00 0. -1.
</event>
<event>
 7    1  0.5837204E-012  0.5930196E+02  0.7816164E-02  0.1266605E+00
        -11   -1    0    0    0    0  0.00000000000E+00  0.00000000000E+00  0.45593999997E+02  0.45594000000E+02  0.51100000000E-03 0. -1.
         11   -1    0    0    0    0 -0.00000000000E+00 -0.00000000000E+00 -0.45593999997E+02  0.45594000000E+02  0.51100000000E-03 0.  1.
    9900012    2    1    2    0    0  0.21465938545E+02 -0.56817096697E+01 -0.22883425898E+02  0.59301960371E+02  0.50000029807E+02 0.  0.
         12    1    1    2    0    0 -0.21465938545E+02  0.56817096697E+01  0.22883425898E+02  0.31886039629E+02  0.00000000000E+00 0. -1.
         11    1    3    3    0    0  0.20211928714E+02  0.27782635075E+01 -0.33378047078E+01  0.20673213369E+02  0.51100000000E-03 0. -1.
        -11    1    3    3    0    0 -0.92338851480E+01 -0.76888177395E+00  0.52350862970E+01  0.10642459439E+02  0.51100000000E-03 0.  1.
         12    1    3    3    0    0  0.10487894978E+02 -0.76910914032E+01 -0.24780707487E+02  0.27986287564E+02  0.00000000000E+00 0. -1.
</event>
<event>
 7    1  0.5837204E-012  0.5930193E+02  0.7816164E-02  0.1266605E+00
        -11   -1    0    0    0    0  0.00000000000E+00  0.00000000000E+00  0.45593999997E+02  0.45594000000E+02  0.51100000000E-03 0.  1.
         11   -1    0    0    0    0 -0.00000000000E+00 -0.00000000000E+00 -0.45593999997E+02  0.45594000000E+02  0.51100000000E-03 0. -1.
    9900012    2    1    2    0    0 -0.27772135444E+02  0.10115811060E+02  0.11962445146E+02  0.59301933539E+02  0.49999980870E+02 0.  0.
         12    1    1    2    0    0  0.27772135444E+02 -0.10115811060E+02 -0.11962445146E+02  0.31886066461E+02  0.00000000000E+00 0. -1.
         11    1    3    3    0    0 -0.39301495949E+01  0.14996437028E+02 -0.60892773693E+01  0.16655884802E+02  0.51100000000E-03 0. -1.
        -11    1    3    3    0    0 -0.20525743469E+02  0.83757059020E+01  0.18646757805E+02  0.28968261446E+02  0.51100000000E-03 0.  1.
         12    1    3    3    0    0 -0.33162423798E+01 -0.13256331870E+02 -0.59503528963E+00  0.13677787291E+02  0.00000000000E+00 0. -1.
</event>
<event>
 7    1  0.5837204E-012  0.5930194E+02  0.7816164E-02  0.1266605E+00
        -11   -1    0    0    0    0  0.00000000000E+00  0.00000000000E+00  0.45593999997E+02  0.45594000000E+02  0.51100000000E-03 0.  1.
         11   -1    0    0    0    0 -0.00000000000E+00 -0.00000000000E+00 -0.45593999997E+02  0.45594000000E+02  0.51100000000E-03 0. -1.
    9900012    2    1    2    0    0  0.29105691470E+02 -0.99284513142E+01  0.84264661036E+01  0.59301941096E+02  0.49999994654E+02 0.  0.
         12    1    1    2    0    0 -0.29105691470E+02  0.99284513142E+01 -0.84264661036E+01  0.31886058904E+02  0.00000000000E+00 0. -1.
         11    1    3    3    0    0  0.51839334940E+01 -0.15063136065E+02  0.14605467049E+01  0.15997013206E+02  0.51100000000E-03 0. -1.
        -11    1    3    3    0    0 -0.28616103138E+01 -0.98186885472E+01  0.74055038060E+01  0.12626834332E+02  0.51100000000E-03 0.  1.
         12    1    3    3    0    0  0.26783368289E+02  0.14953373298E+02 -0.43958440729E+00  0.30678093558E+02  0.00000000000E+00 0. -1.
</event>
<event>
 7    1  0.5837204E-012  0.5930193E+02  0.7816164E-02  0.1266605E+00
        -11   -1    0    0    0    0  0.00000000000E+00  0.00000000000E+00  0.45593999997E+02  0.45594000000E+02  0.51100000000E-03 0.  1.
         11   -1    0    0    0    0 -0.00000000000E+00 -0.00000000000E+00 -0.45593999997E+02  0.45594000000E+02  0.51100000000E-03 0. -1.
    9900012    2    1    2    0    0  0.16429933648E+02 -0.83139862276E+01  0.26031834138E+02  0.59301929762E+02  0.49999973982E+02 0.  0.
         12    1    1    2    0    0 -0.16429933648E+02  0.83139862276E+01 -0.26031834138E+02  0.31886070238E+02  0.00000000000E+00 0. -1.
         11    1    3    3    0    0 -0.52453767700E+01 -0.76400035896E+01  0.18730311972E+02  0.20897564909E+02  0.51100000000E-03 0. -1.
        -11    1    3    3    0    0 -0.58301170743E+01  0.46308734140E+01  0.72497143811E+01  0.10391997524E+02  0.51100000000E-03 0.  1.
         12    1    3    3    0    0  0.27505427492E+02 -0.53048560520E+01  0.51807784717E-01  0.28012367328E+02  0.00000000000E+00 0. -1.
</event>
<event>
 7    1  0.5837204E-012  0.5930195E+02  0.7816164E-02  0.1266605E+00
        -11   -1    0    0    0    0  0.00000000000E+00  0.00000000000E+00  0.45593999997E+02  0.45594000000E+02  0.51100000000E-03 0. -1.
         11   -1    0    0    0    0 -0.00000000000E+00 -0.00000000000E+00 -0.45593999997E+02  0.45594000000E+02  0.51100000000E-03 0.  1.
    9900012    2    1    2    0    0 -0.17411606799E+02  0.89812209180E+00 -0.26697368707E+02  0.59301950221E+02  0.50000011296E+02 0.  0.
         12    1    1    2    0    0  0.17411606799E+02 -0.89812209180E+00  0.26697368707E+02  0.31886049779E+02  0.00000000000E+00 0. -1.
         11    1    3    3    0    0  0.53025402183E+01 -0.13553219021E+02 -0.78262214734E+01  0.16524418943E+02  0.51100000000E-03 0. -1.
        -11    1    3    3    0    0 -0.18986140721E+01 -0.48536929221E+01 -0.12695939063E+02  0.13724064242E+02  0.51100000000E-03 0.  1.
         12    1    3    3    0    0 -0.20815532945E+02  0.19305034035E+02 -0.61752081708E+01  0.29053467036E+02  0.00000000000E+00 0. -1.
</event>
<event>
 7    1  0.5837204E-012  0.5930197E+02  0.7816164E-02  0.1266605E+00
        -11   -1    0    0    0    0  0.00000000000E+00  0.00000000000E+00  0.45593999997E+02  0.45594000000E+02  0.51100000000E-03 0.  1.
         11   -1    0    0    0    0 -0.00000000000E+00 -0.00000000000E+00 -0.45593999997E+02  0.45594000000E+02  0.51100000000E-03 0. -1.
    9900012    2    1    2    0    0 -0.25672860504E+01  0.74809071985E+01  0.30889546077E+02  0.59301968780E+02  0.50000045141E+02 0.  0.
         12    1    1    2    0    0  0.25672860504E+01 -0.74809071985E+01 -0.30889546077E+02  0.31886031220E+02  0.00000000000E+00 0. -1.
         11    1    3    3    0    0  0.10360468118E+02  0.45746845203E+01  0.55487562079E+01  0.12611730008E+02  0.51100000000E-03 0. -1.
        -11    1    3    3    0    0  0.16319287488E+01 -0.17829796763E+01  0.30463359323E+02  0.30559097982E+02  0.51100000000E-03 0.  1.
         12    1    3    3    0    0 -0.14559682917E+02  0.46892023545E+01 -0.51225694541E+01  0.16131140790E+02  0.00000000000E+00 0. -1.
</event>
<event>
 7    1  0.5837204E-012  0.5930194E+02  0.7816164E-02  0.1266605E+00
        -11   -1    0    0    0    0  0.00000000000E+00  0.00000000000E+00  0.45593999997E+02  0.45594000000E+02  0.51100000000E-03 0. -1.
         11   -1    0    0    0    0 -0.00000000000E+00 -0.00000000000E+00 -0.45593999997E+02  0.45594000000E+02  0.51100000000E-03 0.  1.
    9900012    2    1    2    0    0  0.51534702465E-01  0.87467610337E+01 -0.30662885506E+02  0.59301936712E+02  0.49999986659E+02 0.  0.
         12    1    1    2    0    0 -0.51534702465E-01 -0.87467610337E+01  0.30662885506E+02  0.31886063288E+02  0.00000000000E+00 0. -1.
         11    1    3    3    0    0 -0.61651945596E+01  0.27293923614E+01  0.52765825499E+01  0.85616312866E+01  0.51100000000E-03 0. -1.
        -11    1    3    3    0    0  0.18982140832E+02 -0.30998418172E+01 -0.25320678747E+02  0.31797287027E+02  0.51100000000E-03 0.  1.
         12    1    3    3    0    0 -0.12765411570E+02  0.91172104895E+01 -0.10618789310E+02  0.18943018399E+02  0.00000000000E+00 0. -1.
</event>
<event>
 7    1  0.5837204E-012  0.5930195E+02  0.7816164E-02  0.1266605E+00
        -11   -1    0    0    0    0  0.00000000000E+00  0.00000000000E+00  0.45593999997E+02  0.45594000000E+02  0.51100000000E-03 0.  1.
         11   -1    0    0    0    0 -0.00000000000E+00 -0.00000000000E+00 -0.45593999997E+02  0.45594000000E+02  0.51100000000E-03 0. -1.
    9900012    2    1    2    0    0 -0.56209217489E+01 -0.23945248320E+01  0.31295237976E+02  0.59301946144E+02  0.50000003860E+02 0.  0.
         12    1    1    2    0    0  0.56209217489E+01  0.23945248320E+01 -0.31295237976E+02  0.31886053856E+02  0.00000000000E+00 0. -1.
         11    1    3    3    0    0 -0.11507395245E+01  0.71005791205E+01  0.60504359232E+01  0.93994787314E+01  0.51100000000E-03 0. -1.
        -11    1    3    3    0    0 -0.10999330525E+02 -0.11365985752E+02  0.34773071766E+02  0.38201275168E+02  0.51100000000E-03 0.  1.
        -12    1    3    3    0    0  0.65291483009E+01  0.18708817997E+01 -0.95282697129E+01  0.11701192245E+02  0.00000000000E+00 0.  1.
</event>
<event>
 7    1  0.5837204E-012  0.5930194E+02  0.7816164E-02  0.1266605E+00
        -11   -1    0    0    0    0  0.00000000000E+00  0.00000000000E+00  0.45593999997E+02  0.45594000000E+02  0.51100000000E-03 0.  1.
         11   -1    0    0    0    0 -0.00000000000E+00 -0.00000000000E+00 -0.45593999997E+02  0.45594000000E+02  0.51100000000E-03 0. -1.
    9900012    2    1    2    0    0  0.19595132854E+02  0.20843104063E+02  0.14082492558E+02  0.59301940112E+02  0.49999992858E+02 0.  0.
         12    1    1    2    0    0 -0.19595132854E+02 -0.20843104063E+02 -0.14082492558E+02  0.31886059888E+02  0.00000000000E+00 0. -1.
         11    1    3    3    0    0 -0.58190865855E+01  0.25662170593E+02  0.11847411032E+02  0.28857753146E+02  0.51100000000E-03 0. -1.
        -11    1    3    3    0    0  0.10876166561E+02  0.55096160719E+01  0.31324066611E+01  0.12588043537E+02  0.51100000000E-03 0.  1.
        -12    1    3    3    0    0  0.14538052878E+02 -0.10328682601E+02 -0.89732513549E+00  0.17856143429E+02  0.00000000000E+00 0.  1.
</event>
<event>
 7    1  0.5837204E-012  0.5930194E+02  0.7816164E-02  0.1266605E+00
        -11   -1    0    0    0    0  0.00000000000E+00  0.00000000000E+00  0.45593999997E+02  0.45594000000E+02  0.51100000000E-03 0.  1.
         11   -1    0    0    0    0 -0.00000000000E+00 -0.00000000000E+00 -0.45593999997E+02  0.45594000000E+02  0.51100000000E-03 0. -1.
    9900012    2    1    2    0    0 -0.34347865130E+01 -0.31497848881E+02 -0.35789397520E+01  0.59301936395E+02  0.49999986079E+02 0.  0.
         12    1    1    2    0    0  0.34347865130E+01  0.31497848881E+02  0.35789397520E+01  0.31886063605E+02  0.00000000000E+00 0. -1.
         11    1    3    3    0    0 -0.37290087191E+01 -0.57204811762E+01 -0.85723295628E+01  0.10959664471E+02  0.51100000000E-03 0. -1.
        -11    1    3    3    0    0  0.17144471900E+02 -0.26088004891E+02  0.37853429588E+01  0.31445917660E+02  0.51100000000E-03 0.  1.
         12    1    3    3    0    0 -0.16850249694E+02  0.31063718630E+00  0.12080468519E+01  0.16896354264E+02  0.00000000000E+00 0. -1.
</event>
<event>
 7    1  0.5837204E-012  0.5930201E+02  0.7816164E-02  0.1266605E+00
        -11   -1    0    0    0    0  0.00000000000E+00  0.00000000000E+00  0.45593999997E+02  0.45594000000E+02  0.51100000000E-03 0. -1.
         11   -1    0    0    0    0 -0.00000000000E+00 -0.00000000000E+00 -0.45593999997E+02  0.45594000000E+02  0.51100000000E-03 0.  1.
    9900012    2    1    2    0    0  0.14797781113E+02 -0.23384166541E+02 -0.15840546793E+02  0.59302007881E+02  0.50000116453E+02 0.  0.
         12    1    1    2    0    0 -0.14797781113E+02  0.23384166541E+02  0.15840546793E+02  0.31885992119E+02  0.00000000000E+00 0. -1.
         11    1    3    3    0    0  0.45301629015E+00 -0.55115733205E+01  0.11652120346E+02  0.12897851489E+02  0.51100000000E-03 0. -1.
        -11    1    3    3    0    0  0.73688009041E+01 -0.20805705537E+02 -0.49433245319E+01  0.22618865297E+02  0.51100000000E-03 0.  1.
         12    1    3    3    0    0  0.69759639188E+01  0.29331123160E+01 -0.22549342607E+02  0.23785291095E+02  0.00000000000E+00 0. -1.
</event>
<event>
 7    1  0.5837204E-012  0.5930177E+02  0.7816164E-02  0.1266605E+00
        -11   -1    0    0    0    0  0.00000000000E+00  0.00000000000E+00  0.45593999997E+02  0.45594000000E+02  0.51100000000E-03 0. -1.
         11   -1    0    0    0    0 -0.00000000000E+00 -0.00000000000E+00 -0.45593999997E+02  0.45594000000E+02  0.51100000000E-03 0.  1.
    9900012    2    1    2    0    0  0.65526171068E+01 -0.23622217530E+02 -0.20390830060E+02  0.59301766254E+02  0.49999675782E+02 0.  0.
         12    1    1    2    0    0 -0.65526171068E+01  0.23622217530E+02  0.20390830060E+02  0.31886233746E+02  0.00000000000E+00 0. -1.
         11    1    3    3    0    0 -0.21683223145E+01  0.92959660861E+01 -0.36744702998E+01  0.10228310681E+02  0.51100000000E-03 0. -1.
        -11    1    3    3    0    0  0.14826503889E+02 -0.86177658796E+01 -0.16815230995E+02  0.24017558160E+02  0.51100000000E-03 0.  1.
        -12    1    3    3    0    0 -0.61055644675E+01 -0.24300417737E+02  0.98871234268E-01  0.25055897413E+02  0.00000000000E+00 0.  1.
</event>
<event>
 7    1  0.5837204E-012  0.5930194E+02  0.7816164E-02  0.1266605E+00
        -11   -1    0    0    0    0  0.00000000000E+00  0.00000000000E+00  0.45593999997E+02  0.45594000000E+02  0.51100000000E-03 0.  1.
         11   -1    0    0    0    0 -0.00000000000E+00 -0.00000000000E+00 -0.45593999997E+02  0.45594000000E+02  0.51100000000E-03 0. -1.
    9900012    2    1    2    0    0 -0.12567129572E+01 -0.12234275384E+02  0.29418773827E+02  0.59301936036E+02  0.49999985424E+02 0.  0.
         12    1    1    2    0    0  0.12567129572E+01  0.12234275384E+02 -0.29418773827E+02  0.31886063964E+02  0.00000000000E+00 0. -1.
         11    1    3    3    0    0 -0.43673162563E+01 -0.25773759024E+01 -0.34572833043E+01  0.61375178967E+01  0.51100000000E-03 0. -1.
        -11    1    3    3    0    0 -0.17834515329E+02 -0.97189130170E+01  0.11992671586E+02  0.23587101969E+02  0.51100000000E-03 0.  1.
        -12    1    3    3    0    0  0.20945118628E+02  0.62013535153E-01  0.20883385545E+02  0.29577316170E+02  0.00000000000E+00 0.  1.
</event>
<event>
 7    1  0.5837204E-012  0.5930194E+02  0.7816164E-02  0.1266605E+00
        -11   -1    0    0    0    0  0.00000000000E+00  0.00000000000E+00  0.45593999997E+02  0.45594000000E+02  0.51100000000E-03 0.  1.
         11   -1    0    0    0    0 -0.00000000000E+00 -0.00000000000E+00 -0.45593999997E+02  0.45594000000E+02  0.51100000000E-03 0. -1.
    9900012    2    1    2    0    0 -0.24623259587E+02  0.18503746884E+02 -0.82478642335E+01  0.59301939945E+02  0.49999992554E+02 0.  0.
         12    1    1    2    0    0  0.24623259587E+02 -0.18503746884E+02  0.82478642335E+01  0.31886060055E+02  0.00000000000E+00 0. -1.
         11    1    3    3    0    0 -0.10444878244E+02 -0.28415254535E+01 -0.16125512750E+02  0.19421686594E+02  0.51100000000E-03 0. -1.
        -11    1    3    3    0    0  0.14991621430E+01  0.18597717265E+02 -0.51012296927E+01  0.19342831211E+02  0.51100000000E-03 0.  1.
        -12    1    3    3    0    0 -0.15677543485E+02  0.27475550727E+01  0.12978878209E+02  0.20537422141E+02  0.00000000000E+00 0.  1.
</event>
<event>
 7    1  0.5837204E-012  0.5930195E+02  0.7816164E-02  0.1266605E+00
        -11   -1    0    0    0    0  0.00000000000E+00  0.00000000000E+00  0.45593999997E+02  0.45594000000E+02  0.51100000000E-03 0. -1.
         11   -1    0    0    0    0 -0.00000000000E+00 -0.00000000000E+00 -0.45593999997E+02  0.45594000000E+02  0.51100000000E-03 0.  1.
    9900012    2    1    2    0    0 -0.10886242867E+01  0.10303221794E+02 -0.30155901409E+02  0.59301954902E+02  0.50000019833E+02 0.  0.
         12    1    1    2    0    0  0.10886242867E+01 -0.10303221794E+02  0.30155901409E+02  0.31886045098E+02  0.00000000000E+00 0. -1.
         11    1    3    3    0    0  0.76175116728E+01  0.20587700546E+02 -0.25875704266E+01  0.22103742191E+02  0.51100000000E-03 0. -1.
        -11    1    3    3    0    0 -0.53181999467E+01  0.35431231227E+01 -0.25288409270E+00  0.63953829253E+01  0.51100000000E-03 0.  1.
        -12    1    3    3    0    0 -0.33879360128E+01 -0.13827601875E+02 -0.27315446890E+02  0.30802829786E+02  0.00000000000E+00 0.  1.
</event>
<event>
 7    1  0.5837204E-012  0.5930194E+02  0.7816164E-02  0.1266605E+00
        -11   -1    0    0    0    0  0.00000000000E+00  0.00000000000E+00  0.45593999997E+02  0.45594000000E+02  0.51100000000E-03 0. -1.
         11   -1    0    0    0    0 -0.00000000000E+00 -0.00000000000E+00 -0.45593999997E+02  0.45594000000E+02  0.51100000000E-03 0.  1.
    9900012    2    1    2    0    0 -0.26783365137E+02 -0.11478121091E+02 -0.12946999061E+02  0.59301941973E+02  0.49999996253E+02 0.  0.
         12    1    1    2    0    0  0.26783365137E+02  0.11478121091E+02  0.12946999061E+02  0.31886058027E+02  0.00000000000E+00 0. -1.
         11    1    3    3    0    0  0.44200339590E+01  0.10939662445E+02 -0.12431498064E+02  0.17139284086E+02  0.51100000000E-03 0. -1.
        -11    1    3    3    0    0 -0.84532569747E+01 -0.16341706663E+01 -0.64806102374E+01  0.10776194902E+02  0.51100000000E-03 0.  1.
         12    1    3    3    0    0 -0.22750142121E+02 -0.20783612869E+02  0.59651092410E+01  0.31386462985E+02  0.00000000000E+00 0. -1.
</event>
<event>
 7    1  0.5837204E-012  0.5930200E+02  0.7816164E-02  0.1266605E+00
        -11   -1    0    0    0    0  0.00000000000E+00  0.00000000000E+00  0.45593999997E+02  0.45594000000E+02  0.51100000000E-03 0.  1.
         11   -1    0    0    0    0 -0.00000000000E+00 -0.00000000000E+00 -0.45593999997E+02  0.45594000000E+02  0.51100000000E-03 0. -1.
    9900012    2    1    2    0    0 -0.26442226238E+02 -0.36746698920E+00  0.17815460394E+02  0.59302000102E+02  0.50000102266E+02 0.  0.
         12    1    1    2    0    0  0.26442226238E+02  0.36746698920E+00 -0.17815460394E+02  0.31885999898E+02  0.00000000000E+00 0. -1.
         11    1    3    3    0    0 -0.10308319955E+02  0.89151297768E+01 -0.12003342175E+02  0.18160980779E+02  0.51100000000E-03 0. -1.
        -11    1    3    3    0    0  0.34125745276E+01  0.10982754590E+01 -0.48299576070E+00  0.36173414348E+01  0.51100000000E-03 0.  1.
        -12    1    3    3    0    0 -0.19546480811E+02 -0.10380872225E+02  0.30301798330E+02  0.37523677888E+02  0.00000000000E+00 0.  1.
</event>
<event>
 7    1  0.5837204E-012  0.5930222E+02  0.7816164E-02  0.1266604E+00
        -11   -1    0    0    0    0  0.00000000000E+00  0.00000000000E+00  0.45593999997E+02  0.45594000000E+02  0.51100000000E-03 0. -1.
         11   -1    0    0    0    0 -0.00000000000E+00 -0.00000000000E+00 -0.45593999997E+02  0.45594000000E+02  0.51100000000E-03 0.  1.
    9900012    2    1    2    0    0  0.14565087928E+02  0.11722495182E+02 -0.25829135319E+02  0.59302220866E+02  0.50000504884E+02 0.  0.
         12    1    1    2    0    0 -0.14565087928E+02 -0.11722495182E+02  0.25829135319E+02  0.31885779134E+02  0.00000000000E+00 0. -1.
         11    1    3    3    0    0 -0.63638806915E+01  0.30107101005E+01  0.76890608208E+01  0.10425210278E+02  0.51100000000E-03 0. -1.
        -11    1    3    3    0    0  0.12268428587E+02  0.99960115914E+01 -0.17466760508E+01  0.15921226875E+02  0.51100000000E-03 0.  1.
         12    1    3    3    0    0  0.86605400333E+01 -0.12842265095E+01 -0.31771520089E+02  0.32955783713E+02  0.00000000000E+00 0. -1.
</event>
<event>
 7    1  0.5837204E-012  0.5930195E+02  0.7816164E-02  0.1266605E+00
        -11   -1    0    0    0    0  0.00000000000E+00  0.00000000000E+00  0.45593999997E+02  0.45594000000E+02  0.51100000000E-03 0. -1.
         11   -1    0    0    0    0 -0.00000000000E+00 -0.00000000000E+00 -0.45593999997E+02  0.45594000000E+02  0.51100000000E-03 0.  1.
    9900012    2    1    2    0    0  0.61684432672E+01  0.29548517817E+02  0.10274011232E+02  0.59301954395E+02  0.50000018908E+02 0.  0.
         12    1    1    2    0    0 -0.61684432672E+01 -0.29548517817E+02 -0.10274011232E+02  0.31886045605E+02  0.00000000000E+00 0. -1.
         11    1    3    3    0    0  0.36718114571E+01  0.85921319828E+01 -0.72441905466E+00  0.93718575861E+01  0.51100000000E-03 0.  1.
        -11    1    3    3    0    0  0.15306259821E+02  0.28822257468E+02  0.12223132393E+02  0.34848372717E+02  0.51100000000E-03 0. -1.
         12    1    3    3    0    0 -0.12809628011E+02 -0.78658716339E+01 -0.12247021063E+01  0.15081724092E+02  0.00000000000E+00 0. -1.
</event>
<event>
 7    1  0.5837204E-012  0.5930191E+02  0.7816164E-02  0.1266605E+00
        -11   -1    0    0    0    0  0.00000000000E+00  0.00000000000E+00  0.45593999997E+02  0.45594000000E+02  0.51100000000E-03 0.  1.
         11   -1    0    0    0    0 -0.00000000000E+00 -0.00000000000E+00 -0.45593999997E+02  0.45594000000E+02  0.51100000000E-03 0. -1.
    9900012    2    1    2    0    0  0.12838316458E+02 -0.10949446490E+01  0.29166790643E+02  0.59301906642E+02  0.49999931817E+02 0.  0.
         12    1    1    2    0    0 -0.12838316458E+02  0.10949446490E+01 -0.29166790643E+02  0.31886093358E+02  0.00000000000E+00 0. -1.
         11    1    3    3    0    0  0.93758765140E+01  0.13401026902E+02  0.89632726515E+01  0.18650330810E+02  0.51100000000E-03 0. -1.
        -11    1    3    3    0    0  0.98105011257E+01 -0.50475515846E+00 -0.50851072734E+01  0.11061601437E+02  0.51100000000E-03 0.  1.
        -12    1    3    3    0    0 -0.63480611815E+01 -0.13991216393E+02  0.25288625264E+02  0.29589974395E+02  0.00000000000E+00 0.  1.
</event>
<event>
 7    1  0.5837204E-012  0.5930184E+02  0.7816164E-02  0.1266605E+00
        -11   -1    0    0    0    0  0.00000000000E+00  0.00000000000E+00  0.45593999997E+02  0.45594000000E+02  0.51100000000E-03 0.  1.
         11   -1    0    0    0    0 -0.00000000000E+00 -0.00000000000E+00 -0.45593999997E+02  0.45594000000E+02  0.51100000000E-03 0. -1.
    9900012    2    1    2    0    0  0.25718665842E+02 -0.91311232366E+01  0.16489396184E+02  0.59301837315E+02  0.49999805382E+02 0.  0.
         12    1    1    2    0    0 -0.25718665842E+02  0.91311232366E+01 -0.16489396184E+02  0.31886162685E+02  0.00000000000E+00 0. -1.
         11    1    3    3    0    0  0.31956872666E+02 -0.42652070054E+01  0.88213012989E+01  0.33425275739E+02  0.51100000000E-03 0. -1.
        -11    1    3    3    0    0  0.89567468300E+01 -0.27171545981E+01  0.25794081014E+01  0.97087377811E+01  0.51100000000E-03 0.  1.
         12    1    3    3    0    0 -0.15194953654E+02 -0.21487616331E+01  0.50886867834E+01  0.16167823795E+02  0.00000000000E+00 0. -1.
</event>
<event>
 7    1  0.5837204E-012  0.5930194E+02  0.7816164E-02  0.1266605E+00
        -11   -1    0    0    0    0  0.00000000000E+00  0.00000000000E+00  0.45593999997E+02  0.45594000000E+02  0.51100000000E-03 0.  1.
         11   -1    0    0    0    0 -0.00000000000E+00 -0.00000000000E+00 -0.45593999997E+02  0.45594000000E+02  0.51100000000E-03 0. -1.
    9900012    2    1    2    0    0 -0.22431068766E+00  0.23384231973E+02  0.21675980447E+02  0.59301941156E+02  0.49999994763E+02 0.  0.
         12    1    1    2    0    0  0.22431068766E+00 -0.23384231973E+02 -0.21675980447E+02  0.31886058844E+02  0.00000000000E+00 0. -1.
         11    1    3    3    0    0  0.14582742016E+02  0.63013999961E+01  0.77682989301E+01  0.17683621664E+02  0.51100000000E-03 0. -1.
        -11    1    3    3    0    0  0.43117527761E+01 -0.71288222006E+01  0.37753895598E+01  0.91468510735E+01  0.51100000000E-03 0.  1.
         12    1    3    3    0    0 -0.19118805480E+02  0.24211654178E+02  0.10132291957E+02  0.32471468419E+02  0.00000000000E+00 0. -1.
</event>
<event>
 7    1  0.5837204E-012  0.5930195E+02  0.7816164E-02  0.1266605E+00
        -11   -1    0    0    0    0  0.00000000000E+00  0.00000000000E+00  0.45593999997E+02  0.45594000000E+02  0.51100000000E-03 0. -1.
         11   -1    0    0    0    0 -0.00000000000E+00 -0.00000000000E+00 -0.45593999997E+02  0.45594000000E+02  0.51100000000E-03 0.  1.
    9900012    2    1    2    0    0 -0.17066853784E+02 -0.23584649475E+02  0.13007957555E+02  0.59301950563E+02  0.50000011919E+02 0.  0.
         12    1    1    2    0    0  0.17066853784E+02  0.23584649475E+02 -0.13007957555E+02  0.31886049437E+02  0.00000000000E+00 0. -1.
         11    1    3    3    0    0 -0.15028164327E+02 -0.65581728762E+01  0.20691501275E+02  0.26400635973E+02  0.51100000000E-03 0. -1.
        -11    1    3    3    0    0  0.99471140337E+01 -0.43068913159E+01  0.43525248668E+01  0.11680704747E+02  0.51100000000E-03 0.  1.
        -12    1    3    3    0    0 -0.11985803490E+02 -0.12719585283E+02 -0.12036068587E+02  0.21220609843E+02  0.00000000000E+00 0.  1.
</event>
<event>
 7    1  0.5837204E-012  0.5930194E+02  0.7816164E-02  0.1266605E+00
        -11   -1    0    0    0    0  0.00000000000E+00  0.00000000000E+00  0.45593999997E+02  0.45594000000E+02  0.51100000000E-03 0. -1.
         11   -1    0    0    0    0 -0.00000000000E+00 -0.00000000000E+00 -0.45593999997E+02  0.45594000000E+02  0.51100000000E-03 0.  1.
    9900012    2    1    2    0    0 -0.16761138210E+02  0.36578687367E+01 -0.26877597052E+02  0.59301937511E+02  0.49999988115E+02 0.  0.
         12    1    1    2    0    0  0.16761138210E+02 -0.36578687367E+01  0.26877597052E+02  0.31886062489E+02  0.00000000000E+00 0. -1.
         11    1    3    3    0    0 -0.15166170032E+02  0.27092654545E+01 -0.10813019704E+02  0.18822173842E+02  0.51100000000E-03 0.  1.
        -11    1    3    3    0    0 -0.16043411900E+02  0.77619120674E-01  0.32237676676E+01  0.16364283313E+02  0.51100000000E-03 0. -1.
        -12    1    3    3    0    0  0.14448443722E+02  0.87098416154E+00 -0.19288345015E+02  0.24115480356E+02  0.00000000000E+00 0.  1.
</event>
<event>
 7    1  0.5837204E-012  0.5930195E+02  0.7816164E-02  0.1266605E+00
        -11   -1    0    0    0    0  0.00000000000E+00  0.00000000000E+00  0.45593999997E+02  0.45594000000E+02  0.51100000000E-03 0.  1.
         11   -1    0    0    0    0 -0.00000000000E+00 -0.00000000000E+00 -0.45593999997E+02  0.45594000000E+02  0.51100000000E-03 0. -1.
    9900012    2    1    2    0    0  0.21878958100E+02  0.20062655476E+02  0.11641372131E+02  0.59301945095E+02  0.50000001947E+02 0.  0.
         12    1    1    2    0    0 -0.21878958100E+02 -0.20062655476E+02 -0.11641372131E+02  0.31886054905E+02  0.00000000000E+00 0. -1.
         11    1    3    3    0    0  0.13351952328E+02  0.13086118036E+01  0.16349165469E+02  0.21149049804E+02  0.51100000000E-03 0. -1.
        -11    1    3    3    0    0 -0.95500198293E+01  0.46263632662E+01  0.66803098089E+01  0.12539244603E+02  0.51100000000E-03 0.  1.
         12    1    3    3    0    0  0.18077025601E+02  0.14127680407E+02 -0.11388103147E+02  0.25613650688E+02  0.00000000000E+00 0. -1.
</event>
<event>
 7    1  0.5837204E-012  0.5930194E+02  0.7816164E-02  0.1266605E+00
        -11   -1    0    0    0    0  0.00000000000E+00  0.00000000000E+00  0.45593999997E+02  0.45594000000E+02  0.51100000000E-03 0.  1.
         11   -1    0    0    0    0 -0.00000000000E+00 -0.00000000000E+00 -0.45593999997E+02  0.45594000000E+02  0.51100000000E-03 0. -1.
    9900012    2    1    2    0    0 -0.30915180159E+02 -0.75141579728E+01 -0.21236520632E+01  0.59301939842E+02  0.49999992366E+02 0.  0.
         12    1    1    2    0    0  0.30915180159E+02  0.75141579728E+01  0.21236520632E+01  0.31886060158E+02  0.00000000000E+00 0. -1.
         11    1    3    3    0    0 -0.51114937895E+01 -0.64476750117E+01 -0.71522094310E+01  0.10902017328E+02  0.51100000000E-03 0. -1.
        -11    1    3    3    0    0 -0.29531193588E+02  0.29454643934E+01  0.17728383699E+02  0.34569679548E+02  0.51100000000E-03 0.  1.
         12    1    3    3    0    0  0.37275072182E+01 -0.40119473546E+01 -0.12699826331E+02  0.13830242965E+02  0.00000000000E+00 0. -1.
</event>
<event>
 7    1  0.5837204E-012  0.5930196E+02  0.7816164E-02  0.1266605E+00
        -11   -1    0    0    0    0  0.00000000000E+00  0.00000000000E+00  0.45593999997E+02  0.45594000000E+02  0.51100000000E-03 0. -1.
         11   -1    0    0    0    0 -0.00000000000E+00 -0.00000000000E+00 -0.45593999997E+02  0.45594000000E+02  0.51100000000E-03 0.  1.
    9900012    2    1    2    0    0 -0.22511032057E+02  0.81516248387E+00 -0.22567861497E+02  0.59301961885E+02  0.50000032568E+02 0.  0.
         12    1    1    2    0    0  0.22511032057E+02 -0.81516248387E+00  0.22567861497E+02  0.31886038115E+02  0.00000000000E+00 0. -1.
         11    1    3    3    0    0  0.15824192134E+01 -0.15358842649E+01  0.48193402800E+01  0.52999086820E+01  0.51100000000E-03 0. -1.
        -11    1    3    3    0    0  0.34514532814E+01 -0.81346409058E+01  0.50474394845E+01  0.10176519937E+02  0.51100000000E-03 0.  1.
        -12    1    3    3    0    0 -0.27544904551E+02  0.10485687655E+02 -0.32434641261E+02  0.43825533266E+02  0.00000000000E+00 0.  1.
</event>
<event>
 7    1  0.5837204E-012  0.5930196E+02  0.7816164E-02  0.1266605E+00
        -11   -1    0    0    0    0  0.00000000000E+00  0.00000000000E+00  0.45593999997E+02  0.45594000000E+02  0.51100000000E-03 0. -1.
         11   -1    0    0    0    0 -0.00000000000E+00 -0.00000000000E+00 -0.45593999997E+02  0.45594000000E+02  0.51100000000E-03 0.  1.
    9900012    2    1    2    0    0 -0.28489839207E+02 -0.18080229124E+01 -0.14204916819E+02  0.59301960002E+02  0.50000029134E+02 0.  0.
         12    1    1    2    0    0  0.28489839207E+02  0.18080229124E+01  0.14204916819E+02  0.31886039998E+02  0.00000000000E+00 0. -1.
         11    1    3    3    0    0  0.43673694765E+01 -0.13910572329E+02 -0.17110094577E+02  0.22479619111E+02  0.51100000000E-03 0. -1.
        -11    1    3    3    0    0 -0.53374140153E+01 -0.19351014444E+01 -0.69599181147E+00  0.57198785681E+01  0.51100000000E-03 0.  1.
        -12    1    3    3    0    0 -0.27519794668E+02  0.14037650861E+02  0.36011695697E+01  0.31102462323E+02  0.00000000000E+00 0.  1.
</event>
<event>
 7    1  0.5837204E-012  0.5930194E+02  0.7816164E-02  0.1266605E+00
        -11   -1    0    0    0    0  0.00000000000E+00  0.00000000000E+00  0.45593999997E+02  0.45594000000E+02  0.51100000000E-03 0.  1.
         11   -1    0    0    0    0 -0.00000000000E+00 -0.00000000000E+00 -0.45593999997E+02  0.45594000000E+02  0.51100000000E-03 0. -1.
    9900012    2    1    2    0    0 -0.57492774165E+01 -0.32750536568E+01  0.31191992495E+02  0.59301944066E+02  0.50000000069E+02 0.  0.
         12    1    1    2    0    0  0.57492774165E+01  0.32750536568E+01 -0.31191992495E+02  0.31886055934E+02  0.00000000000E+00 0. -1.
         11    1    3    3    0    0 -0.21193124635E+00 -0.13912815749E+01  0.61269542558E+01  0.62865052285E+01  0.51100000000E-03 0. -1.
        -11    1    3    3    0    0 -0.22530076450E+02 -0.11355361049E+02  0.21687960108E+02  0.33270349912E+02  0.51100000000E-03 0.  1.
         12    1    3    3    0    0  0.16992730280E+02  0.94715889676E+01  0.33770781313E+01  0.19745088925E+02  0.00000000000E+00 0. -1.
</event>
<event>
 7    1  0.5837204E-012  0.5930198E+02  0.7816164E-02  0.1266605E+00
        -11   -1    0    0    0    0  0.00000000000E+00  0.00000000000E+00  0.45593999997E+02  0.45594000000E+02  0.51100000000E-03 0. -1.
         11   -1    0    0    0    0 -0.00000000000E+00 -0.00000000000E+00 -0.45593999997E+02  0.45594000000E+02  0.51100000000E-03 0.  1.
    9900012    2    1    2    0    0  0.66940309506E+01 -0.28054197819E+02 -0.13596693641E+02  0.59301982005E+02  0.50000069261E+02 0.  0.
         12    1    1    2    0    0 -0.66940309506E+01  0.28054197819E+02  0.13596693641E+02  0.31886017995E+02  0.00000000000E+00 0. -1.
         11    1    3    3    0    0  0.64247643660E+01  0.53569446272E+00  0.89771243768E+00  0.65092590667E+01  0.51100000000E-03 0. -1.
        -11    1    3    3    0    0 -0.68794028935E+01 -0.33043555448E+02  0.24805563100E+01  0.33843107137E+02  0.51100000000E-03 0.  1.
         12    1    3    3    0    0  0.71486694781E+01  0.44536631666E+01 -0.16974962388E+02  0.18949615801E+02  0.00000000000E+00 0. -1.
</event>
<event>
 7    1  0.5837204E-012  0.5930194E+02  0.7816164E-02  0.1266605E+00
        -11   -1    0    0    0    0  0.00000000000E+00  0.00000000000E+00  0.45593999997E+02  0.45594000000E+02  0.51100000000E-03 0.  1.
         11   -1    0    0    0    0 -0.00000000000E+00 -0.00000000000E+00 -0.45593999997E+02  0.45594000000E+02  0.51100000000E-03 0. -1.
    9900012    2    1    2    0    0 -0.29191986619E+02 -0.31244910573E+01  0.12441309573E+02  0.59301941745E+02  0.49999995837E+02 0.  0.
         12    1    1    2    0    0  0.29191986619E+02  0.31244910573E+01 -0.12441309573E+02  0.31886058255E+02  0.00000000000E+00 0. -1.
         11    1    3    3    0    0 -0.13744185929E+02  0.10983624180E+02 -0.58946130043E+01  0.18555029230E+02  0.51100000000E-03 0. -1.
        -11    1    3    3    0    0 -0.18594131002E+02  0.29312208152E+01  0.11862555692E+02  0.22249808786E+02  0.51100000000E-03 0.  1.
        -12    1    3    3    0    0  0.31463303119E+01 -0.17039336053E+02  0.64733668857E+01  0.18497103730E+02  0.00000000000E+00 0.  1.
</event>
<event>
 7    1  0.5837204E-012  0.5930195E+02  0.7816164E-02  0.1266605E+00
        -11   -1    0    0    0    0  0.00000000000E+00  0.00000000000E+00  0.45593999997E+02  0.45594000000E+02  0.51100000000E-03 0.  1.
         11   -1    0    0    0    0 -0.00000000000E+00 -0.00000000000E+00 -0.45593999997E+02  0.45594000000E+02  0.51100000000E-03 0. -1.
    9900012    2    1    2    0    0 -0.80760662163E+01 -0.14853187743E+02  0.27034789418E+02  0.59301954925E+02  0.50000019875E+02 0.  0.
         12    1    1    2    0    0  0.80760662163E+01  0.14853187743E+02 -0.27034789418E+02  0.31886045075E+02  0.00000000000E+00 0. -1.
         11    1    3    3    0    0  0.63312907178E+01  0.59937899158E+01  0.40387907873E+01  0.96084645492E+01  0.51100000000E-03 0.  1.
        -11    1    3    3    0    0  0.10427887569E+02 -0.13787834989E+02  0.14344601415E+02  0.22463588824E+02  0.51100000000E-03 0. -1.
        -12    1    3    3    0    0 -0.24835244503E+02 -0.70591426700E+01  0.86513972157E+01  0.27229901553E+02  0.00000000000E+00 0.  1.
</event>
<event>
 7    1  0.5837204E-012  0.5930192E+02  0.7816164E-02  0.1266605E+00
        -11   -1    0    0    0    0  0.00000000000E+00  0.00000000000E+00  0.45593999997E+02  0.45594000000E+02  0.51100000000E-03 0. -1.
         11   -1    0    0    0    0 -0.00000000000E+00 -0.00000000000E+00 -0.45593999997E+02  0.45594000000E+02  0.51100000000E-03 0.  1.
    9900012    2    1    2    0    0 -0.67160591169E+01  0.19890675367E+02 -0.23999529815E+02  0.59301923917E+02  0.49999963322E+02 0.  0.
         12    1    1    2    0    0  0.67160591169E+01 -0.19890675367E+02  0.23999529815E+02  0.31886076083E+02  0.00000000000E+00 0. -1.
         11    1    3    3    0    0  0.78788875141E+01  0.15540832865E+02  0.61558353844E+01  0.18479411899E+02  0.51100000000E-03 0. -1.
        -11    1    3    3    0    0  0.57792938665E+01  0.41864244803E+01 -0.74886759906E+01  0.10344402152E+02  0.51100000000E-03 0.  1.
         12    1    3    3    0    0 -0.20374240497E+02  0.16341802232E+00 -0.22666689209E+02  0.30478109866E+02  0.00000000000E+00 0. -1.
</event>
<event>
 7    1  0.5837204E-012  0.5930193E+02  0.7816164E-02  0.1266605E+00
        -11   -1    0    0    0    0  0.00000000000E+00  0.00000000000E+00  0.45593999997E+02  0.45594000000E+02  0.51100000000E-03 0.  1.
         11   -1    0    0    0    0 -0.00000000000E+00 -0.00000000000E+00 -0.45593999997E+02  0.45594000000E+02  0.51100000000E-03 0. -1.
    9900012    2    1    2    0    0  0.49901997070E+01 -0.27405670013E+01  0.31373689052E+02  0.59301934621E+02  0.49999982845E+02 0.  0.
         12    1    1    2    0    0 -0.49901997070E+01  0.27405670013E+01 -0.31373689052E+02  0.31886065379E+02  0.00000000000E+00 0. -1.
         11    1    3    3    0    0  0.20421135250E+01  0.54794598171E+01  0.22623994663E+02  0.23367495423E+02  0.51100000000E-03 0. -1.
        -11    1    3    3    0    0  0.11065355952E+02 -0.84651102730E+01  0.18554761021E+02  0.23203003062E+02  0.51100000000E-03 0.  1.
         12    1    3    3    0    0 -0.81172697702E+01  0.24508345460E+00 -0.98050666330E+01  0.12731436137E+02  0.00000000000E+00 0. -1.
</event>
<event>
 7    1  0.5837204E-012  0.5930193E+02  0.7816164E-02  0.1266605E+00
        -11   -1    0    0    0    0  0.00000000000E+00  0.00000000000E+00  0.45593999997E+02  0.45594000000E+02  0.51100000000E-03 0. -1.
         11   -1    0    0    0    0 -0.00000000000E+00 -0.00000000000E+00 -0.45593999997E+02  0.45594000000E+02  0.51100000000E-03 0.  1.
    9900012    2    1    2    0    0  0.36927195836E+01  0.24664525633E+02 -0.19868229001E+02  0.59301928962E+02  0.49999972524E+02 0.  0.
         12    1    1    2    0    0 -0.36927195836E+01 -0.24664525633E+02  0.19868229001E+02  0.31886071038E+02  0.00000000000E+00 0. -1.
         11    1    3    3    0    0  0.49424687719E+01  0.14808928661E+02 -0.48730122688E+01  0.16354773447E+02  0.51100000000E-03 0. -1.
        -11    1    3    3    0    0 -0.25011661854E+01  0.18777506394E+02 -0.23753595420E+02  0.30382295409E+02  0.51100000000E-03 0.  1.
         12    1    3    3    0    0  0.12514169971E+01 -0.89219094231E+01  0.87583786878E+01  0.12564860106E+02  0.00000000000E+00 0. -1.
</event>
<event>
 7    1  0.5837204E-012  0.5930194E+02  0.7816164E-02  0.1266605E+00
        -11   -1    0    0    0    0  0.00000000000E+00  0.00000000000E+00  0.45593999997E+02  0.45594000000E+02  0.51100000000E-03 0.  1.
         11   -1    0    0    0    0 -0.00000000000E+00 -0.00000000000E+00 -0.45593999997E+02  0.45594000000E+02  0.51100000000E-03 0. -1.
    9900012    2    1    2    0    0  0.10731404400E+02 -0.10577065301E+02  0.28101306831E+02  0.59301940407E+02  0.49999993396E+02 0.  0.
         12    1    1    2    0    0 -0.10731404400E+02  0.10577065301E+02 -0.28101306831E+02  0.31886059593E+02  0.00000000000E+00 0. -1.
         11    1    3    3    0    0 -0.75426743375E+01 -0.58600846139E+01  0.33013090973E+01  0.10105996728E+02  0.51100000000E-03 0. -1.
        -11    1    3    3    0    0  0.60402436984E+01 -0.78811800680E+01  0.32779870636E+02  0.34250802361E+02  0.51100000000E-03 0.  1.
        -12    1    3    3    0    0  0.12233835039E+02  0.31641993812E+01 -0.79798729022E+01  0.14945141318E+02  0.00000000000E+00 0.  1.
</event>
<event>
 7    1  0.5837204E-012  0.5930194E+02  0.7816164E-02  0.1266605E+00
        -11   -1    0    0    0    0  0.00000000000E+00  0.00000000000E+00  0.45593999997E+02  0.45594000000E+02  0.51100000000E-03 0. -1.
         11   -1    0    0    0    0 -0.00000000000E+00 -0.00000000000E+00 -0.45593999997E+02  0.45594000000E+02  0.51100000000E-03 0.  1.
    9900012    2    1    2    0    0  0.19151494325E+02 -0.25452350703E+02 -0.14556094873E+01  0.59301942072E+02  0.49999996433E+02 0.  0.
         12    1    1    2    0    0 -0.19151494325E+02  0.25452350703E+02  0.14556094873E+01  0.31886057928E+02  0.00000000000E+00 0. -1.
         11    1    3    3    0    0 -0.49597912370E+01  0.28260314722E+01 -0.34667807752E+01  0.66786639533E+01  0.51100000000E-03 0. -1.
        -11    1    3    3    0    0  0.63449465284E+01 -0.26616248672E+02 -0.12056887583E+02  0.29900695280E+02  0.51100000000E-03 0.  1.
         12    1    3    3    0    0  0.17766339034E+02 -0.16621335035E+01  0.14068058871E+02  0.22722582838E+02  0.00000000000E+00 0. -1.
</event>
<event>
 7    1  0.5837204E-012  0.5930193E+02  0.7816164E-02  0.1266605E+00
        -11   -1    0    0    0    0  0.00000000000E+00  0.00000000000E+00  0.45593999997E+02  0.45594000000E+02  0.51100000000E-03 0.  1.
         11   -1    0    0    0    0 -0.00000000000E+00 -0.00000000000E+00 -0.45593999997E+02  0.45594000000E+02  0.51100000000E-03 0. -1.
    9900012    2    1    2    0    0 -0.11733668906E+00  0.13234081887E+02  0.29009768023E+02  0.59301932008E+02  0.49999978078E+02 0.  0.
         12    1    1    2    0    0  0.11733668906E+00 -0.13234081887E+02 -0.29009768023E+02  0.31886067992E+02  0.00000000000E+00 0. -1.
         11    1    3    3    0    0 -0.56928522160E+01  0.24703732437E+02  0.14345429029E+02  0.29128582131E+02  0.51100000000E-03 0. -1.
        -11    1    3    3    0    0  0.28500765187E+01  0.34802563082E+01  0.14280459221E+02  0.14972195429E+02  0.51100000000E-03 0.  1.
        -12    1    3    3    0    0  0.27254390082E+01 -0.14949906858E+02  0.38387977279E+00  0.15201154448E+02  0.00000000000E+00 0.  1.
</event>
<event>
 7    1  0.5837204E-012  0.5930195E+02  0.7816164E-02  0.1266605E+00
        -11   -1    0    0    0    0  0.00000000000E+00  0.00000000000E+00  0.45593999997E+02  0.45594000000E+02  0.51100000000E-03 0.  1.
         11   -1    0    0    0    0 -0.00000000000E+00 -0.00000000000E+00 -0.45593999997E+02  0.45594000000E+02  0.51100000000E-03 0. -1.
    9900012    2    1    2    0    0 -0.22146160415E+02  0.12083928907E+02  0.19499901847E+02  0.59301953977E+02  0.50000018144E+02 0.  0.
         12    1    1    2    0    0  0.22146160415E+02 -0.12083928907E+02 -0.19499901847E+02  0.31886046023E+02  0.00000000000E+00 0. -1.
         11    1    3    3    0    0 -0.12387621588E+02 -0.87522808390E+01  0.12095257341E+01  0.15215733346E+02  0.51100000000E-03 0. -1.
        -11    1    3    3    0    0 -0.10821125456E+02  0.94317611928E+01 -0.72599311055E+01  0.16086064629E+02  0.51100000000E-03 0.  1.
        -12    1    3    3    0    0  0.10625866292E+01  0.11404448553E+02  0.25550307218E+02  0.28000156001E+02  0.00000000000E+00 0.  1.
</event>
<event>
 7    1  0.5837204E-012  0.5930212E+02  0.7816164E-02  0.1266604E+00
        -11   -1    0    0    0    0  0.00000000000E+00  0.00000000000E+00  0.45593999997E+02  0.45594000000E+02  0.51100000000E-03 0. -1.
         11   -1    0    0    0    0 -0.00000000000E+00 -0.00000000000E+00 -0.45593999997E+02  0.45594000000E+02  0.51100000000E-03 0.  1.
    9900012    2    1    2    0    0 -0.20984153794E+01 -0.31800655810E+02 -0.10120217465E+01  0.59302121542E+02  0.50000323742E+02 0.  0.
         12    1    1    2    0    0  0.20984153794E+01  0.31800655810E+02  0.10120217465E+01  0.31885878458E+02  0.00000000000E+00 0. -1.
         11    1    3    3    0    0 -0.97672729851E+01 -0.15877732214E+02 -0.14470119448E+02  0.23598439756E+02  0.51100000000E-03 0. -1.
        -11    1    3    3    0    0 -0.38993819783E+01  0.14509716459E+01 -0.59110088008E+01  0.72284523817E+01  0.51100000000E-03 0.  1.
         12    1    3    3    0    0  0.11568239584E+02 -0.17373895242E+02  0.19369106502E+02  0.28475229404E+02  0.00000000000E+00 0. -1.
</event>
<event>
 7    1  0.5837204E-012  0.5930196E+02  0.7816164E-02  0.1266605E+00
        -11   -1    0    0    0    0  0.00000000000E+00  0.00000000000E+00  0.45593999997E+02  0.45594000000E+02  0.51100000000E-03 0. -1.
         11   -1    0    0    0    0 -0.00000000000E+00 -0.00000000000E+00 -0.45593999997E+02  0.45594000000E+02  0.51100000000E-03 0.  1.
    9900012    2    1    2    0    0 -0.62476236198E+01 -0.27547264683E+02 -0.14793064890E+02  0.59301962911E+02  0.50000034438E+02 0.  0.
         12    1    1    2    0    0  0.62476236198E+01  0.27547264683E+02  0.14793064890E+02  0.31886037089E+02  0.00000000000E+00 0. -1.
         11    1    3    3    0    0  0.39298701124E+01 -0.11269325837E+02  0.34054560899E+01  0.12411233434E+02  0.51100000000E-03 0. -1.
        -11    1    3    3    0    0 -0.12662886880E+02 -0.40116712448E+01  0.96104417962E+01  0.16395206680E+02  0.51100000000E-03 0.  1.
         12    1    3    3    0    0  0.24853931473E+01 -0.12266267601E+02 -0.27808962776E+02  0.30495522797E+02  0.00000000000E+00 0. -1.
</event>
<event>
 7    1  0.5837204E-012  0.5930192E+02  0.7816164E-02  0.1266605E+00
        -11   -1    0    0    0    0  0.00000000000E+00  0.00000000000E+00  0.45593999997E+02  0.45594000000E+02  0.51100000000E-03 0. -1.
         11   -1    0    0    0    0 -0.00000000000E+00 -0.00000000000E+00 -0.45593999997E+02  0.45594000000E+02  0.51100000000E-03 0.  1.
    9900012    2    1    2    0    0 -0.14123914823E+02  0.26509059309E+02  0.10700776755E+02  0.59301924379E+02  0.49999964165E+02 0.  0.
         12    1    1    2    0    0  0.14123914823E+02 -0.26509059309E+02 -0.10700776755E+02  0.31886075621E+02  0.00000000000E+00 0. -1.
         11    1    3    3    0    0 -0.24904774681E+02 -0.37591233347E+00  0.43431328157E+01  0.25283431629E+02  0.51100000000E-03 0. -1.
        -11    1    3    3    0    0 -0.19937148882E+01  0.44861298914E+01 -0.38976993755E+01  0.62683587279E+01  0.51100000000E-03 0.  1.
        -12    1    3    3    0    0  0.12774574746E+02  0.22398841751E+02  0.10255343314E+02  0.27750134022E+02  0.00000000000E+00 0.  1.
</event>
<event>
 7    1  0.5837204E-012  0.5930196E+02  0.7816164E-02  0.1266605E+00
        -11   -1    0    0    0    0  0.00000000000E+00  0.00000000000E+00  0.45593999997E+02  0.45594000000E+02  0.51100000000E-03 0.  1.
         11   -1    0    0    0    0 -0.00000000000E+00 -0.00000000000E+00 -0.45593999997E+02  0.45594000000E+02  0.51100000000E-03 0. -1.
    9900012    2    1    2    0    0  0.34198178964E+00  0.53800120181E+01  0.31427030615E+02  0.59301957064E+02  0.50000023774E+02 0.  0.
         12    1    1    2    0    0 -0.34198178964E+00 -0.53800120181E+01 -0.31427030615E+02  0.31886042936E+02  0.00000000000E+00 0. -1.
         11    1    3    3    0    0 -0.13987856253E+01 -0.12126920765E+01  0.12177184775E+00  0.18552767831E+01  0.51100000000E-03 0. -1.
        -11    1    3    3    0    0  0.90102374381E+01  0.63226562959E+01  0.42607161213E+02  0.44006028544E+02  0.51100000000E-03 0.  1.
        -12    1    3    3    0    0 -0.72694700231E+01  0.27004779870E+00 -0.11301902445E+02  0.13440651737E+02  0.00000000000E+00 0.  1.
</event>
<event>
 7    1  0.5837204E-012  0.5930196E+02  0.7816164E-02  0.1266605E+00
        -11   -1    0    0    0    0  0.00000000000E+00  0.00000000000E+00  0.45593999997E+02  0.45594000000E+02  0.51100000000E-03 0. -1.
         11   -1    0    0    0    0 -0.00000000000E+00 -0.00000000000E+00 -0.45593999997E+02  0.45594000000E+02  0.51100000000E-03 0.  1.
    9900012    2    1    2    0    0 -0.24076905421E+02  0.20902829150E+02  0.30620295651E+00  0.59301962282E+02  0.50000033291E+02 0.  0.
         12    1    1    2    0    0  0.24076905421E+02 -0.20902829150E+02 -0.30620295651E+00  0.31886037718E+02  0.00000000000E+00 0. -1.
         11    1    3    3    0    0 -0.21201941795E+02  0.85153797444E+01  0.38577862440E+00  0.22851320607E+02  0.51100000000E-03 0. -1.
        -11    1    3    3    0    0 -0.14221650616E+02  0.11823286825E+02  0.10207654039E+02  0.21124432746E+02  0.51100000000E-03 0.  1.
         12    1    3    3    0    0  0.11346686990E+02  0.56416258030E+00 -0.10287229707E+02  0.15326208929E+02  0.00000000000E+00 0. -1.
</event>
<event>
 7    1  0.5837204E-012  0.5930221E+02  0.7816164E-02  0.1266604E+00
        -11   -1    0    0    0    0  0.00000000000E+00  0.00000000000E+00  0.45593999997E+02  0.45594000000E+02  0.51100000000E-03 0. -1.
         11   -1    0    0    0    0 -0.00000000000E+00 -0.00000000000E+00 -0.45593999997E+02  0.45594000000E+02  0.51100000000E-03 0.  1.
    9900012    2    1    2    0    0 -0.27085656027E+02 -0.19369312404E+01 -0.16712847787E+02  0.59302207769E+02  0.50000480998E+02 0.  0.
         12    1    1    2    0    0  0.27085656027E+02  0.19369312404E+01  0.16712847787E+02  0.31885792231E+02  0.00000000000E+00 0. -1.
         11    1    3    3    0    0 -0.76541027473E+01  0.97321280202E+01  0.61304698544E+01  0.13816014822E+02  0.51100000000E-03 0. -1.
        -11    1    3    3    0    0  0.72405952043E+01  0.31200697685E+01 -0.90835495127E+01  0.12027964345E+02  0.51100000000E-03 0.  1.
         12    1    3    3    0    0 -0.26672148484E+02 -0.14789129029E+02 -0.13759768129E+02  0.33458228602E+02  0.00000000000E+00 0. -1.
</event>
<event>
 7    1  0.5837204E-012  0.5930193E+02  0.7816164E-02  0.1266605E+00
        -11   -1    0    0    0    0  0.00000000000E+00  0.00000000000E+00  0.45593999997E+02  0.45594000000E+02  0.51100000000E-03 0. -1.
         11   -1    0    0    0    0 -0.00000000000E+00 -0.00000000000E+00 -0.45593999997E+02  0.45594000000E+02  0.51100000000E-03 0.  1.
    9900012    2    1    2    0    0 -0.20554495415E+02  0.99975323577E+01  0.22232490606E+02  0.59301928220E+02  0.49999971171E+02 0.  0.
         12    1    1    2    0    0  0.20554495415E+02 -0.99975323577E+01 -0.22232490606E+02  0.31886071780E+02  0.00000000000E+00 0. -1.
         11    1    3    3    0    0 -0.29177006057E+02  0.95499825463E+01  0.24821929251E+02  0.39479463283E+02  0.51100000000E-03 0.  1.
        -11    1    3    3    0    0  0.34124747834E+01 -0.72705072993E+01  0.34311336743E+01  0.87337242393E+01  0.51100000000E-03 0. -1.
        -12    1    3    3    0    0  0.52100358588E+01  0.77180571107E+01 -0.60205723192E+01  0.11088740698E+02  0.00000000000E+00 0.  1.
</event>
<event>
 7    1  0.5837204E-012  0.5930194E+02  0.7816164E-02  0.1266605E+00
        -11   -1    0    0    0    0  0.00000000000E+00  0.00000000000E+00  0.45593999997E+02  0.45594000000E+02  0.51100000000E-03 0.  1.
         11   -1    0    0    0    0 -0.00000000000E+00 -0.00000000000E+00 -0.45593999997E+02  0.45594000000E+02  0.51100000000E-03 0. -1.
    9900012    2    1    2    0    0  0.67488486580E+01 -0.23958803456E+02  0.19928608188E+02  0.59301942772E+02  0.49999997709E+02 0.  0.
         12    1    1    2    0    0 -0.67488486580E+01  0.23958803456E+02 -0.19928608188E+02  0.31886057228E+02  0.00000000000E+00 0. -1.
         11    1    3    3    0    0  0.12628136142E+02 -0.37429219951E+02  0.13837044356E+02  0.41855467090E+02  0.51100000000E-03 0.  1.
        -11    1    3    3    0    0 -0.68943388174E+00 -0.49302044589E-01  0.24058735723E+01  0.25031934955E+01  0.51100000000E-03 0. -1.
        -12    1    3    3    0    0 -0.51898536019E+01  0.13519718540E+02  0.36856902594E+01  0.14943282186E+02  0.00000000000E+00 0.  1.
</event>
<event>
 7    1  0.5837204E-012  0.5930193E+02  0.7816164E-02  0.1266605E+00
        -11   -1    0    0    0    0  0.00000000000E+00  0.00000000000E+00  0.45593999997E+02  0.45594000000E+02  0.51100000000E-03 0.  1.
         11   -1    0    0    0    0 -0.00000000000E+00 -0.00000000000E+00 -0.45593999997E+02  0.45594000000E+02  0.51100000000E-03 0. -1.
    9900012    2    1    2    0    0 -0.27140277322E+01  0.36453889810E+01  0.31560519928E+02  0.59301933678E+02  0.49999981125E+02 0.  0.
         12    1    1    2    0    0  0.27140277322E+01 -0.36453889810E+01 -0.31560519928E+02  0.31886066322E+02  0.00000000000E+00 0. -1.
         11    1    3    3    0    0 -0.88075369187E+01 -0.12269486908E+02  0.88560297970E+01  0.17508348854E+02  0.51100000000E-03 0. -1.
        -11    1    3    3    0    0  0.42449768618E+01  0.47075887010E+01  0.28391648088E+02  0.29090666912E+02  0.51100000000E-03 0.  1.
        -12    1    3    3    0    0  0.18485323248E+01  0.11207287188E+02 -0.56871579571E+01  0.12702917913E+02  0.00000000000E+00 0.  1.
</event>
<event>
 7    1  0.5837204E-012  0.5930197E+02  0.7816164E-02  0.1266605E+00
        -11   -1    0    0    0    0  0.00000000000E+00  0.00000000000E+00  0.45593999997E+02  0.45594000000E+02  0.51100000000E-03 0.  1.
         11   -1    0    0    0    0 -0.00000000000E+00 -0.00000000000E+00 -0.45593999997E+02  0.45594000000E+02  0.51100000000E-03 0. -1.
    9900012    2    1    2    0    0 -0.24091591931E+02 -0.17465237235E+02  0.11457722905E+02  0.59301972847E+02  0.50000052559E+02 0.  0.
         12    1    1    2    0    0  0.24091591931E+02  0.17465237235E+02 -0.11457722905E+02  0.31886027153E+02  0.00000000000E+00 0. -1.
         11    1    3    3    0    0  0.52585828705E+01 -0.37057618324E+01  0.63169541863E+01  0.90160565114E+01  0.51100000000E-03 0. -1.
        -11    1    3    3    0    0 -0.29417357900E+01 -0.84544411209E+00  0.17957520865E+02  0.18216507379E+02  0.51100000000E-03 0.  1.
         12    1    3    3    0    0 -0.26408439012E+02 -0.12914031290E+02 -0.12816752147E+02  0.32069408956E+02  0.00000000000E+00 0. -1.
</event>
<event>
 7    1  0.5837204E-012  0.5930193E+02  0.7816164E-02  0.1266605E+00
        -11   -1    0    0    0    0  0.00000000000E+00  0.00000000000E+00  0.45593999997E+02  0.45594000000E+02  0.51100000000E-03 0.  1.
         11   -1    0    0    0    0 -0.00000000000E+00 -0.00000000000E+00 -0.45593999997E+02  0.45594000000E+02  0.51100000000E-03 0. -1.
    9900012    2    1    2    0    0  0.10092408306E+02  0.43123631540E+01  0.29937737197E+02  0.59301932668E+02  0.49999979283E+02 0.  0.
         12    1    1    2    0    0 -0.10092408306E+02 -0.43123631540E+01 -0.29937737197E+02  0.31886067332E+02  0.00000000000E+00 0. -1.
         11    1    3    3    0    0  0.14091684631E+02 -0.17160447788E+02  0.56441181049E+01  0.22910971465E+02  0.51100000000E-03 0. -1.
        -11    1    3    3    0    0 -0.34254740206E+01 -0.15572701819E+01  0.17191477943E+01  0.41369592801E+01  0.51100000000E-03 0.  1.
         12    1    3    3    0    0 -0.57380230472E+00  0.23030081124E+02  0.22574471298E+02  0.32254001923E+02  0.00000000000E+00 0. -1.
</event>
<event>
 7    1  0.5837204E-012  0.5930196E+02  0.7816164E-02  0.1266605E+00
        -11   -1    0    0    0    0  0.00000000000E+00  0.00000000000E+00  0.45593999997E+02  0.45594000000E+02  0.51100000000E-03 0.  1.
         11   -1    0    0    0    0 -0.00000000000E+00 -0.00000000000E+00 -0.45593999997E+02  0.45594000000E+02  0.51100000000E-03 0. -1.
    9900012    2    1    2    0    0 -0.14094086001E+02  0.22344343761E+02 -0.17855160749E+02  0.59301957228E+02  0.50000024074E+02 0.  0.
         12    1    1    2    0    0  0.14094086001E+02 -0.22344343761E+02  0.17855160749E+02  0.31886042772E+02  0.00000000000E+00 0. -1.
         11    1    3    3    0    0  0.68103440702E+01  0.17007941721E+02 -0.29153867225E+00  0.18323096436E+02  0.51100000000E-03 0.  1.
        -11    1    3    3    0    0 -0.23369370111E+02  0.12120247723E+02 -0.20317038568E+02  0.33253720403E+02  0.51100000000E-03 0. -1.
         12    1    3    3    0    0  0.24649400398E+01 -0.67838456832E+01  0.27534164911E+01  0.77251403888E+01  0.00000000000E+00 0. -1.
</event>
<event>
 7    1  0.5837204E-012  0.5930194E+02  0.7816164E-02  0.1266605E+00
        -11   -1    0    0    0    0  0.00000000000E+00  0.00000000000E+00  0.45593999997E+02  0.45594000000E+02  0.51100000000E-03 0. -1.
         11   -1    0    0    0    0 -0.00000000000E+00 -0.00000000000E+00 -0.45593999997E+02  0.45594000000E+02  0.51100000000E-03 0.  1.
    9900012    2    1    2    0    0  0.96557450583E+01 -0.29432480772E+02 -0.75641673893E+01  0.59301937758E+02  0.49999988566E+02 0.  0.
         12    1    1    2    0    0 -0.96557450583E+01  0.29432480772E+02  0.75641673893E+01  0.31886062242E+02  0.00000000000E+00 0. -1.
         11    1    3    3    0    0  0.77905663412E+01 -0.35401302341E+01 -0.76368695106E+01  0.11469403741E+02  0.51100000000E-03 0. -1.
        -11    1    3    3    0    0  0.20201822536E+02 -0.19809297597E+02 -0.22056403048E+01  0.28379336752E+02  0.51100000000E-03 0.  1.
         12    1    3    3    0    0 -0.18336643819E+02 -0.60830529405E+01  0.22783424261E+01  0.19453197265E+02  0.00000000000E+00 0. -1.
</event>
<event>
 7    1  0.5837204E-012  0.5930192E+02  0.7816164E-02  0.1266605E+00
        -11   -1    0    0    0    0  0.00000000000E+00  0.00000000000E+00  0.45593999997E+02  0.45594000000E+02  0.51100000000E-03 0. -1.
         11   -1    0    0    0    0 -0.00000000000E+00 -0.00000000000E+00 -0.45593999997E+02  0.45594000000E+02  0.51100000000E-03 0.  1.
    9900012    2    1    2    0    0  0.28664127016E+02 -0.91729199551E+01  0.10533154667E+02  0.59301921763E+02  0.49999959394E+02 0.  0.
         12    1    1    2    0    0 -0.28664127016E+02  0.91729199551E+01 -0.10533154667E+02  0.31886078237E+02  0.00000000000E+00 0. -1.
         11    1    3    3    0    0 -0.63263743597E+01 -0.30303895527E+01  0.91923419796E+01  0.11563106188E+02  0.51100000000E-03 0. -1.
        -11    1    3    3    0    0  0.51075984161E+01 -0.61854227604E+01  0.13316178266E+02  0.15545662424E+02  0.51100000000E-03 0.  1.
         12    1    3    3    0    0  0.29882902960E+02  0.42892357938E-01 -0.11975365579E+02  0.32193153151E+02  0.00000000000E+00 0. -1.
</event>
<event>
 7    1  0.5837204E-012  0.5930193E+02  0.7816164E-02  0.1266605E+00
        -11   -1    0    0    0    0  0.00000000000E+00  0.00000000000E+00  0.45593999997E+02  0.45594000000E+02  0.51100000000E-03 0.  1.
         11   -1    0    0    0    0 -0.00000000000E+00 -0.00000000000E+00 -0.45593999997E+02  0.45594000000E+02  0.51100000000E-03 0. -1.
    9900012    2    1    2    0    0  0.10168732288E+02  0.91454500026E+01  0.28804147943E+02  0.59301932340E+02  0.49999978684E+02 0.  0.
         12    1    1    2    0    0 -0.10168732288E+02 -0.91454500026E+01 -0.28804147943E+02  0.31886067660E+02  0.00000000000E+00 0. -1.
         11    1    3    3    0    0  0.34765392468E+01  0.74936772761E+01  0.70397471692E+01  0.10853550789E+02  0.51100000000E-03 0.  1.
        -11    1    3    3    0    0  0.19968688920E+02 -0.89133139255E+01  0.13583177629E+01  0.21909831805E+02  0.51100000000E-03 0. -1.
         12    1    3    3    0    0 -0.13276495879E+02  0.10565086652E+02  0.20406083011E+02  0.26538549746E+02  0.00000000000E+00 0. -1.
</event>
<event>
 7    1  0.5837204E-012  0.5930195E+02  0.7816164E-02  0.1266605E+00
        -11   -1    0    0    0    0  0.00000000000E+00  0.00000000000E+00  0.45593999997E+02  0.45594000000E+02  0.51100000000E-03 0. -1.
         11   -1    0    0    0    0 -0.00000000000E+00 -0.00000000000E+00 -0.45593999997E+02  0.45594000000E+02  0.51100000000E-03 0.  1.
    9900012    2    1    2    0    0  0.26371039844E+02 -0.17621404230E+02 -0.32824932611E+01  0.59301946756E+02  0.50000004975E+02 0.  0.
         12    1    1    2    0    0 -0.26371039844E+02  0.17621404230E+02  0.32824932611E+01  0.31886053244E+02  0.00000000000E+00 0. -1.
         11    1    3    3    0    0 -0.21794030697E+01  0.54336420120E+01  0.17626106059E+01  0.61140052064E+01  0.51100000000E-03 0. -1.
        -11    1    3    3    0    0  0.30793357340E+02 -0.57407652796E+01 -0.13109420691E+02  0.33956503845E+02  0.51100000000E-03 0.  1.
         12    1    3    3    0    0 -0.22429144254E+01 -0.17314280962E+02  0.80643168238E+01  0.19231437705E+02  0.00000000000E+00 0. -1.
</event>
<event>
 7    1  0.5837204E-012  0.5930197E+02  0.7816164E-02  0.1266605E+00
        -11   -1    0    0    0    0  0.00000000000E+00  0.00000000000E+00  0.45593999997E+02  0.45594000000E+02  0.51100000000E-03 0. -1.
         11   -1    0    0    0    0 -0.00000000000E+00 -0.00000000000E+00 -0.45593999997E+02  0.45594000000E+02  0.51100000000E-03 0.  1.
    9900012    2    1    2    0    0 -0.12039987981E+02 -0.20904078495E+02 -0.20851305744E+02  0.59301972346E+02  0.50000051646E+02 0.  0.
         12    1    1    2    0    0  0.12039987981E+02  0.20904078495E+02  0.20851305744E+02  0.31886027654E+02  0.00000000000E+00 0. -1.
         11    1    3    3    0    0  0.31612042434E+01 -0.36885008264E+01 -0.89880236113E+01  0.10216791048E+02  0.51100000000E-03 0. -1.
        -11    1    3    3    0    0 -0.30939780841E+01  0.82745576297E+01 -0.18139527261E+02  0.20176309223E+02  0.51100000000E-03 0.  1.
         12    1    3    3    0    0 -0.12107214140E+02 -0.25490135298E+02  0.62762451285E+01  0.28908872075E+02  0.00000000000E+00 0. -1.
</event>
<event>
 7    1  0.5837204E-012  0.5930194E+02  0.7816164E-02  0.1266605E+00
        -11   -1    0    0    0    0  0.00000000000E+00  0.00000000000E+00  0.45593999997E+02  0.45594000000E+02  0.51100000000E-03 0. -1.
         11   -1    0    0    0    0 -0.00000000000E+00 -0.00000000000E+00 -0.45593999997E+02  0.45594000000E+02  0.51100000000E-03 0.  1.
    9900012    2    1    2    0    0 -0.25582047189E+02  0.37701626080E+01 -0.18656510358E+02  0.59301942809E+02  0.49999997777E+02 0.  0.
         12    1    1    2    0    0  0.25582047189E+02 -0.37701626080E+01  0.18656510358E+02  0.31886057191E+02  0.00000000000E+00 0. -1.
         11    1    3    3    0    0  0.92855292369E+01 -0.46440344926E+00  0.18344856035E+01  0.94763949614E+01  0.51100000000E-03 0. -1.
        -11    1    3    3    0    0 -0.15531954105E+02 -0.83124972379E+01 -0.20161175826E+02  0.26773349055E+02  0.51100000000E-03 0.  1.
        -12    1    3    3    0    0 -0.19335622321E+02  0.12547063295E+02 -0.32982013546E+00  0.23052198793E+02  0.00000000000E+00 0.  1.
</event>
<event>
 7    1  0.5837204E-012  0.5930194E+02  0.7816164E-02  0.1266605E+00
        -11   -1    0    0    0    0  0.00000000000E+00  0.00000000000E+00  0.45593999997E+02  0.45594000000E+02  0.51100000000E-03 0. -1.
         11   -1    0    0    0    0 -0.00000000000E+00 -0.00000000000E+00 -0.45593999997E+02  0.45594000000E+02  0.51100000000E-03 0.  1.
    9900012    2    1    2    0    0  0.71980346809E+01  0.18923127618E+02 -0.24633803736E+02  0.59301941156E+02  0.49999994763E+02 0.  0.
         12    1    1    2    0    0 -0.71980346809E+01 -0.18923127618E+02  0.24633803736E+02  0.31886058844E+02  0.00000000000E+00 0. -1.
         11    1    3    3    0    0  0.11185980678E+02  0.38238004994E+01 -0.32995508815E+01  0.12273330855E+02  0.51100000000E-03 0. -1.
        -11    1    3    3    0    0  0.98277959003E+00  0.23697989538E+02 -0.26721562689E+02  0.35729574258E+02  0.51100000000E-03 0.  1.
        -12    1    3    3    0    0 -0.49707255872E+01 -0.85986624191E+01  0.53873098347E+01  0.11299036044E+02  0.00000000000E+00 0.  1.
</event>
<event>
 7    1  0.5837204E-012  0.5930197E+02  0.7816164E-02  0.1266605E+00
        -11   -1    0    0    0    0  0.00000000000E+00  0.00000000000E+00  0.45593999997E+02  0.45594000000E+02  0.51100000000E-03 0.  1.
         11   -1    0    0    0    0 -0.00000000000E+00 -0.00000000000E+00 -0.45593999997E+02  0.45594000000E+02  0.51100000000E-03 0. -1.
    9900012    2    1    2    0    0 -0.20700634308E+02 -0.47608574838E+01  0.23781016037E+02  0.59301972520E+02  0.50000051963E+02 0.  0.
         12    1    1    2    0    0  0.20700634308E+02  0.47608574838E+01 -0.23781016037E+02  0.31886027480E+02  0.00000000000E+00 0. -1.
         11    1    3    3    0    0  0.22502195534E+01  0.32453968344E+01 -0.19185355081E+01  0.43905429514E+01  0.51100000000E-03 0. -1.
        -11    1    3    3    0    0 -0.56899693097E+01 -0.22697672304E+02  0.21663338907E+02  0.31888247547E+02  0.51100000000E-03 0.  1.
         12    1    3    3    0    0 -0.17260884551E+02  0.14691417985E+02  0.40362126376E+01  0.23023182021E+02  0.00000000000E+00 0. -1.
</event>
<event>
 7    1  0.5837204E-012  0.5930193E+02  0.7816164E-02  0.1266605E+00
        -11   -1    0    0    0    0  0.00000000000E+00  0.00000000000E+00  0.45593999997E+02  0.45594000000E+02  0.51100000000E-03 0. -1.
         11   -1    0    0    0    0 -0.00000000000E+00 -0.00000000000E+00 -0.45593999997E+02  0.45594000000E+02  0.51100000000E-03 0.  1.
    9900012    2    1    2    0    0  0.14550710707E+02  0.23458589907E+02 -0.15959091875E+02  0.59301933513E+02  0.49999980824E+02 0.  0.
         12    1    1    2    0    0 -0.14550710707E+02 -0.23458589907E+02  0.15959091875E+02  0.31886066487E+02  0.00000000000E+00 0. -1.
         11    1    3    3    0    0  0.14378445695E+02 -0.82872903790E+01 -0.97878635765E+01  0.19267100355E+02  0.51100000000E-03 0. -1.
        -11    1    3    3    0    0  0.66600973276E+01  0.56721861588E+01  0.59280643491E+01  0.10567522861E+02  0.51100000000E-03 0.  1.
         12    1    3    3    0    0 -0.64878323153E+01  0.26073694127E+02 -0.12099292648E+02  0.29467310297E+02  0.00000000000E+00 0. -1.
</event>
<event>
 7    1  0.5837204E-012  0.5930195E+02  0.7816164E-02  0.1266605E+00
        -11   -1    0    0    0    0  0.00000000000E+00  0.00000000000E+00  0.45593999997E+02  0.45594000000E+02  0.51100000000E-03 0.  1.
         11   -1    0    0    0    0 -0.00000000000E+00 -0.00000000000E+00 -0.45593999997E+02  0.45594000000E+02  0.51100000000E-03 0. -1.
    9900012    2    1    2    0    0 -0.13056673767E+02  0.25607856325E+02 -0.13801489353E+02  0.59301950640E+02  0.50000012059E+02 0.  0.
         12    1    1    2    0    0  0.13056673767E+02 -0.25607856325E+02  0.13801489353E+02  0.31886049360E+02  0.00000000000E+00 0. -1.
         11    1    3    3    0    0 -0.14091515740E+02  0.12025049215E+02  0.12154630147E+02  0.22156436057E+02  0.51100000000E-03 0. -1.
        -11    1    3    3    0    0  0.46273725741E+01  0.18603227574E+02 -0.14163690470E+02  0.23834906777E+02  0.51100000000E-03 0.  1.
        -12    1    3    3    0    0 -0.35925306012E+01 -0.50204204637E+01 -0.11792429029E+02  0.13310607806E+02  0.00000000000E+00 0.  1.
</event>
<event>
 7    1  0.5837204E-012  0.5930193E+02  0.7816164E-02  0.1266605E+00
        -11   -1    0    0    0    0  0.00000000000E+00  0.00000000000E+00  0.45593999997E+02  0.45594000000E+02  0.51100000000E-03 0. -1.
         11   -1    0    0    0    0 -0.00000000000E+00 -0.00000000000E+00 -0.45593999997E+02  0.45594000000E+02  0.51100000000E-03 0.  1.
    9900012    2    1    2    0    0 -0.15305040915E+02 -0.27772713496E+02 -0.33396654695E+01  0.59301933171E+02  0.49999980201E+02 0.  0.
         12    1    1    2    0    0  0.15305040915E+02  0.27772713496E+02  0.33396654695E+01  0.31886066829E+02  0.00000000000E+00 0. -1.
         11    1    3    3    0    0 -0.32159433303E+00 -0.93252462603E+01  0.73471147448E+00  0.93596710381E+01  0.51100000000E-03 0. -1.
        -11    1    3    3    0    0 -0.13400915294E+02 -0.28677375440E+02 -0.14881224050E+02  0.34977524531E+02  0.51100000000E-03 0.  1.
         12    1    3    3    0    0 -0.15825312881E+01  0.10229908204E+02  0.10806847106E+02  0.14964737602E+02  0.00000000000E+00 0. -1.
</event>
<event>
 7    1  0.5837204E-012  0.5930195E+02  0.7816164E-02  0.1266605E+00
        -11   -1    0    0    0    0  0.00000000000E+00  0.00000000000E+00  0.45593999997E+02  0.45594000000E+02  0.51100000000E-03 0.  1.
         11   -1    0    0    0    0 -0.00000000000E+00 -0.00000000000E+00 -0.45593999997E+02  0.45594000000E+02  0.51100000000E-03 0. -1.
    9900012    2    1    2    0    0 -0.11467431766E+02 -0.23861175217E+02  0.17772515438E+02  0.59301953223E+02  0.50000016770E+02 0.  0.
         12    1    1    2    0    0  0.11467431766E+02  0.23861175217E+02 -0.17772515438E+02  0.31886046777E+02  0.00000000000E+00 0. -1.
         11    1    3    3    0    0 -0.58378560461E+01 -0.27840962951E+01 -0.38631764233E+00  0.64792744175E+01  0.51100000000E-03 0. -1.
        -11    1    3    3    0    0 -0.21670086705E+01  0.19878053301E+01  0.27530365045E+02  0.27686969794E+02  0.51100000000E-03 0.  1.
         12    1    3    3    0    0 -0.34625670496E+01 -0.23064884252E+02 -0.93715319645E+01  0.25135709011E+02  0.00000000000E+00 0. -1.
</event>
<event>
 7    1  0.5837204E-012  0.5930193E+02  0.7816164E-02  0.1266605E+00
        -11   -1    0    0    0    0  0.00000000000E+00  0.00000000000E+00  0.45593999997E+02  0.45594000000E+02  0.51100000000E-03 0.  1.
         11   -1    0    0    0    0 -0.00000000000E+00 -0.00000000000E+00 -0.45593999997E+02  0.45594000000E+02  0.51100000000E-03 0. -1.
    9900012    2    1    2    0    0 -0.12502563797E+02  0.18970195067E+02  0.22372727157E+02  0.59301932152E+02  0.49999978341E+02 0.  0.
         12    1    1    2    0    0  0.12502563797E+02 -0.18970195067E+02 -0.22372727157E+02  0.31886067848E+02  0.00000000000E+00 0. -1.
         11    1    3    3    0    0 -0.15919972797E+02  0.19607566266E+02  0.29136306009E+00  0.25258406154E+02  0.51100000000E-03 0. -1.
        -11    1    3    3    0    0 -0.10096729818E+02  0.15148702026E+01  0.31509358922E+01  0.10684904398E+02  0.51100000000E-03 0.  1.
        -12    1    3    3    0    0  0.13514138818E+02 -0.21522414008E+01  0.18930428204E+02  0.23358621600E+02  0.00000000000E+00 0.  1.
</event>
<event>
 7    1  0.5837204E-012  0.5930194E+02  0.7816164E-02  0.1266605E+00
        -11   -1    0    0    0    0  0.00000000000E+00  0.00000000000E+00  0.45593999997E+02  0.45594000000E+02  0.51100000000E-03 0. -1.
         11   -1    0    0    0    0 -0.00000000000E+00 -0.00000000000E+00 -0.45593999997E+02  0.45594000000E+02  0.51100000000E-03 0.  1.
    9900012    2    1    2    0    0  0.21403715101E+02  0.45400586330E+01 -0.23194607980E+02  0.59301937341E+02  0.49999987806E+02 0.  0.
         12    1    1    2    0    0 -0.21403715101E+02 -0.45400586330E+01  0.23194607980E+02  0.31886062659E+02  0.00000000000E+00 0. -1.
         11    1    3    3    0    0 -0.11747754148E+01 -0.16089576493E+02 -0.67667937237E+01  0.17494115198E+02  0.51100000000E-03 0. -1.
        -11    1    3    3    0    0  0.11497662269E+02 -0.33882229985E+01 -0.47345421388E+01  0.12887675596E+02  0.51100000000E-03 0.  1.
        -12    1    3    3    0    0  0.11080828247E+02  0.24017858124E+02 -0.11693272118E+02  0.28920146547E+02  0.00000000000E+00 0.  1.
</event>
<event>
 7    1  0.5837204E-012  0.5930194E+02  0.7816164E-02  0.1266605E+00
        -11   -1    0    0    0    0  0.00000000000E+00  0.00000000000E+00  0.45593999997E+02  0.45594000000E+02  0.51100000000E-03 0.  1.
         11   -1    0    0    0    0 -0.00000000000E+00 -0.00000000000E+00 -0.45593999997E+02  0.45594000000E+02  0.51100000000E-03 0. -1.
    9900012    2    1    2    0    0 -0.26701206615E+01 -0.30717560622E+02  0.81254367816E+01  0.59301940385E+02  0.49999993356E+02 0.  0.
         12    1    1    2    0    0  0.26701206615E+01  0.30717560622E+02 -0.81254367816E+01  0.31886059615E+02  0.00000000000E+00 0. -1.
         11    1    3    3    0    0  0.28342026247E+00  0.62200682328E+01 -0.91486757861E+00  0.62933741994E+01  0.51100000000E-03 0. -1.
        -11    1    3    3    0    0  0.12440663796E+02 -0.13521653990E+02  0.15741966175E+02  0.24195345454E+02  0.51100000000E-03 0.  1.
        -12    1    3    3    0    0 -0.15394204720E+02 -0.23415974865E+02 -0.67016618153E+01  0.28813220731E+02  0.00000000000E+00 0.  1.
</event>
<event>
 7    1  0.5837204E-012  0.5930193E+02  0.7816164E-02  0.1266605E+00
        -11   -1    0    0    0    0  0.00000000000E+00  0.00000000000E+00  0.45593999997E+02  0.45594000000E+02  0.51100000000E-03 0.  1.
         11   -1    0    0    0    0 -0.00000000000E+00 -0.00000000000E+00 -0.45593999997E+02  0.45594000000E+02  0.51100000000E-03 0. -1.
    9900012    2    1    2    0    0  0.28514115338E+01  0.79891531468E+01  0.30737017559E+02  0.59301931504E+02  0.49999977159E+02 0.  0.
         12    1    1    2    0    0 -0.28514115338E+01 -0.79891531468E+01 -0.30737017559E+02  0.31886068496E+02  0.00000000000E+00 0. -1.
         11    1    3    3    0    0 -0.11656184581E+02 -0.70350247433E+01  0.55276505782E+01  0.14693982894E+02  0.51100000000E-03 0. -1.
        -11    1    3    3    0    0  0.21220115465E+02  0.14959248903E+02  0.97133498789E+01  0.27720418363E+02  0.51100000000E-03 0.  1.
         12    1    3    3    0    0 -0.67125193509E+01  0.64928987530E-01  0.15496017102E+02  0.16887530247E+02  0.00000000000E+00 0. -1.
</event>
<event>
 7    1  0.5837204E-012  0.5930190E+02  0.7816164E-02  0.1266605E+00
        -11   -1    0    0    0    0  0.00000000000E+00  0.00000000000E+00  0.45593999997E+02  0.45594000000E+02  0.51100000000E-03 0. -1.
         11   -1    0    0    0    0 -0.00000000000E+00 -0.00000000000E+00 -0.45593999997E+02  0.45594000000E+02  0.51100000000E-03 0.  1.
    9900012    2    1    2    0    0 -0.27705035722E+02 -0.82675718927E+01 -0.13446237653E+02  0.59301904968E+02  0.49999928764E+02 0.  0.
         12    1    1    2    0    0  0.27705035722E+02  0.82675718927E+01  0.13446237653E+02  0.31886095032E+02  0.00000000000E+00 0. -1.
         11    1    3    3    0    0 -0.22327866652E+02 -0.10867278505E+02  0.54530937185E+01  0.25423760593E+02  0.51100000000E-03 0. -1.
        -11    1    3    3    0    0 -0.43234413736E+01 -0.11090960187E+02 -0.15833096779E+02  0.19808798476E+02  0.51100000000E-03 0.  1.
        -12    1    3    3    0    0 -0.10537276968E+01  0.13690666799E+02 -0.30662345924E+01  0.14069345899E+02  0.00000000000E+00 0.  1.
</event>
<event>
 7    1  0.5837204E-012  0.5930195E+02  0.7816164E-02  0.1266605E+00
        -11   -1    0    0    0    0  0.00000000000E+00  0.00000000000E+00  0.45593999997E+02  0.45594000000E+02  0.51100000000E-03 0.  1.
         11   -1    0    0    0    0 -0.00000000000E+00 -0.00000000000E+00 -0.45593999997E+02  0.45594000000E+02  0.51100000000E-03 0. -1.
    9900012    2    1    2    0    0 -0.16053503025E+02 -0.26429171168E+02  0.77784360897E+01  0.59301951076E+02  0.50000012855E+02 0.  0.
         12    1    1    2    0    0  0.16053503025E+02  0.26429171168E+02 -0.77784360897E+01  0.31886048924E+02  0.00000000000E+00 0. -1.
         11    1    3    3    0    0 -0.18241175906E+01 -0.17937335068E+02 -0.16053706133E+02  0.24141186284E+02  0.51100000000E-03 0. -1.
        -11    1    3    3    0    0  0.27098217156E+01 -0.55922958948E+01  0.57194508767E+00  0.62405150869E+01  0.51100000000E-03 0.  1.
         12    1    3    3    0    0 -0.16939207150E+02 -0.28995402047E+01  0.23260197135E+02  0.28920249705E+02  0.00000000000E+00 0. -1.
</event>
<event>
 7    1  0.5837204E-012  0.5930186E+02  0.7816164E-02  0.1266605E+00
        -11   -1    0    0    0    0  0.00000000000E+00  0.00000000000E+00  0.45593999997E+02  0.45594000000E+02  0.51100000000E-03 0.  1.
         11   -1    0    0    0    0 -0.00000000000E+00 -0.00000000000E+00 -0.45593999997E+02  0.45594000000E+02  0.51100000000E-03 0. -1.
    9900012    2    1    2    0    0 -0.18640119089E+02 -0.15328628328E+02  0.20839984163E+02  0.59301861539E+02  0.49999849561E+02 0.  0.
         12    1    1    2    0    0  0.18640119089E+02  0.15328628328E+02 -0.20839984163E+02  0.31886138461E+02  0.00000000000E+00 0. -1.
         11    1    3    3    0    0 -0.12904237434E+02  0.14538178183E+01  0.82611144810E+01  0.15390872059E+02  0.51100000000E-03 0.  1.
        -11    1    3    3    0    0  0.10049721088E+02 -0.14379372818E+02  0.19741994767E+02  0.26410407309E+02  0.51100000000E-03 0. -1.
         12    1    3    3    0    0 -0.15785602742E+02 -0.24030733274E+01 -0.71631250852E+01  0.17500582172E+02  0.00000000000E+00 0. -1.
</event>
<event>
 7    1  0.5837204E-012  0.5930195E+02  0.7816164E-02  0.1266605E+00
        -11   -1    0    0    0    0  0.00000000000E+00  0.00000000000E+00  0.45593999997E+02  0.45594000000E+02  0.51100000000E-03 0. -1.
         11   -1    0    0    0    0 -0.00000000000E+00 -0.00000000000E+00 -0.45593999997E+02  0.45594000000E+02  0.51100000000E-03 0.  1.
    9900012    2    1    2    0    0 -0.27891294627E+02 -0.14861478015E+02  0.42346578516E+01  0.59301950200E+02  0.50000011256E+02 0.  0.
         12    1    1    2    0    0  0.27891294627E+02  0.14861478015E+02 -0.42346578516E+01  0.31886049800E+02  0.00000000000E+00 0. -1.
         11    1    3    3    0    0 -0.72391394059E+01  0.20741241254E+01  0.19725928044E+02  0.21114435055E+02  0.51100000000E-03 0. -1.
        -11    1    3    3    0    0 -0.70292988995E+00 -0.14432929106E+02 -0.38468241056E+01  0.14953314314E+02  0.51100000000E-03 0.  1.
        -12    1    3    3    0    0 -0.19949225331E+02 -0.25026730348E+01 -0.11644446087E+02  0.23234200832E+02  0.00000000000E+00 0.  1.
</event>
<event>
 7    1  0.5837204E-012  0.5930198E+02  0.7816164E-02  0.1266605E+00
        -11   -1    0    0    0    0  0.00000000000E+00  0.00000000000E+00  0.45593999997E+02  0.45594000000E+02  0.51100000000E-03 0.  1.
         11   -1    0    0    0    0 -0.00000000000E+00 -0.00000000000E+00 -0.45593999997E+02  0.45594000000E+02  0.51100000000E-03 0. -1.
    9900012    2    1    2    0    0  0.21775500773E+02 -0.17474139194E+02  0.15401314325E+02  0.59301977084E+02  0.50000060286E+02 0.  0.
         12    1    1    2    0    0 -0.21775500773E+02  0.17474139194E+02 -0.15401314325E+02  0.31886022916E+02  0.00000000000E+00 0. -1.
         11    1    3    3    0    0 -0.25246485716E+01  0.12806305405E+02  0.72753642863E+01  0.14943434488E+02  0.51100000000E-03 0. -1.
        -11    1    3    3    0    0  0.13665597899E+01 -0.83322265452E+01  0.93407995501E+01  0.12591426502E+02  0.51100000000E-03 0.  1.
        -12    1    3    3    0    0  0.22933589555E+02 -0.21948218053E+02 -0.12148495111E+01  0.31767116094E+02  0.00000000000E+00 0.  1.
</event>
<event>
 7    1  0.5837204E-012  0.5930193E+02  0.7816164E-02  0.1266605E+00
        -11   -1    0    0    0    0  0.00000000000E+00  0.00000000000E+00  0.45593999997E+02  0.45594000000E+02  0.51100000000E-03 0.  1.
         11   -1    0    0    0    0 -0.00000000000E+00 -0.00000000000E+00 -0.45593999997E+02  0.45594000000E+02  0.51100000000E-03 0. -1.
    9900012    2    1    2    0    0 -0.76286963402E+01 -0.20154770499E+02  0.23501269278E+02  0.59301930324E+02  0.49999975007E+02 0.  0.
         12    1    1    2    0    0  0.76286963402E+01  0.20154770499E+02 -0.23501269278E+02  0.31886069676E+02  0.00000000000E+00 0. -1.
         11    1    3    3    0    0 -0.14844069764E+02  0.86576595854E+01  0.53928806953E+01  0.18010681251E+02  0.51100000000E-03 0. -1.
        -11    1    3    3    0    0  0.16972010299E+01  0.33121384085E+01 -0.50534095849E+00  0.37558117523E+01  0.51100000000E-03 0.  1.
        -12    1    3    3    0    0  0.55181723940E+01 -0.32124568493E+02  0.18613729541E+02  0.37535437321E+02  0.00000000000E+00 0.  1.
</event>
<event>
 7    1  0.5837204E-012  0.5930194E+02  0.7816164E-02  0.1266605E+00
        -11   -1    0    0    0    0  0.00000000000E+00  0.00000000000E+00  0.45593999997E+02  0.45594000000E+02  0.51100000000E-03 0.  1.
         11   -1    0    0    0    0 -0.00000000000E+00 -0.00000000000E+00 -0.45593999997E+02  0.45594000000E+02  0.51100000000E-03 0. -1.
    9900012    2    1    2    0    0  0.12869038534E+02  0.29098608534E+02  0.20927641651E+01  0.59301939829E+02  0.49999992342E+02 0.  0.
         12    1    1    2    0    0 -0.12869038534E+02 -0.29098608534E+02 -0.20927641651E+01  0.31886060171E+02  0.00000000000E+00 0. -1.
         11    1    3    3    0    0 -0.20778449311E+01 -0.89189554406E+00  0.13789510253E+01  0.26484756768E+01  0.51100000000E-03 0. -1.
        -11    1    3    3    0    0  0.16232186391E+02  0.17447498372E+02  0.21661165487E+02  0.32204117206E+02  0.51100000000E-03 0.  1.
         12    1    3    3    0    0 -0.12853029252E+01  0.12543005706E+02 -0.20947352347E+02  0.24449346946E+02  0.00000000000E+00 0. -1.
</event>
<event>
 7    1  0.5837204E-012  0.5930194E+02  0.7816164E-02  0.1266605E+00
        -11   -1    0    0    0    0  0.00000000000E+00  0.00000000000E+00  0.45593999997E+02  0.45594000000E+02  0.51100000000E-03 0. -1.
         11   -1    0    0    0    0 -0.00000000000E+00 -0.00000000000E+00 -0.45593999997E+02  0.45594000000E+02  0.51100000000E-03 0.  1.
    9900012    2    1    2    0    0 -0.33783047990E+01 -0.78271462278E+00 -0.31696924509E+02  0.59301943348E+02  0.49999998760E+02 0.  0.
         12    1    1    2    0    0  0.33783047990E+01  0.78271462278E+00  0.31696924509E+02  0.31886056652E+02  0.00000000000E+00 0. -1.
         11    1    3    3    0    0 -0.15382573481E+02 -0.26604380504E+01 -0.10021011026E+02  0.18550529905E+02  0.51100000000E-03 0. -1.
        -11    1    3    3    0    0 -0.59124398601E+00 -0.23728344387E+01 -0.26497893303E+02  0.26610491587E+02  0.51100000000E-03 0.  1.
        -12    1    3    3    0    0  0.12595512668E+02  0.42505578663E+01  0.48219798202E+01  0.14140921856E+02  0.00000000000E+00 0.  1.
</event>
<event>
 7    1  0.5837204E-012  0.5930191E+02  0.7816164E-02  0.1266605E+00
        -11   -1    0    0    0    0  0.00000000000E+00  0.00000000000E+00  0.45593999997E+02  0.45594000000E+02  0.51100000000E-03 0.  1.
         11   -1    0    0    0    0 -0.00000000000E+00 -0.00000000000E+00 -0.45593999997E+02  0.45594000000E+02  0.51100000000E-03 0. -1.
    9900012    2    1    2    0    0  0.12878033978E+02 -0.12325177855E+02  0.26438023320E+02  0.59301908277E+02  0.49999934799E+02 0.  0.
         12    1    1    2    0    0 -0.12878033978E+02  0.12325177855E+02 -0.26438023320E+02  0.31886091723E+02  0.00000000000E+00 0. -1.
         11    1    3    3    0    0  0.30523129244E+01  0.43473074586E+01 -0.60454713822E+01  0.80475723558E+01  0.51100000000E-03 0. -1.
        -11    1    3    3    0    0 -0.11660254254E+02 -0.11930168018E+01  0.16775610214E+02  0.20464748145E+02  0.51100000000E-03 0.  1.
        -12    1    3    3    0    0  0.21485975307E+02 -0.15479468512E+02  0.15707884488E+02  0.30789587776E+02  0.00000000000E+00 0.  1.
</event>
<event>
 7    1  0.5837204E-012  0.5930196E+02  0.7816164E-02  0.1266605E+00
        -11   -1    0    0    0    0  0.00000000000E+00  0.00000000000E+00  0.45593999997E+02  0.45594000000E+02  0.51100000000E-03 0.  1.
         11   -1    0    0    0    0 -0.00000000000E+00 -0.00000000000E+00 -0.45593999997E+02  0.45594000000E+02  0.51100000000E-03 0. -1.
    9900012    2    1    2    0    0 -0.13138672310E+02 -0.10703691833E+02  0.27009738449E+02  0.59301957599E+02  0.50000024750E+02 0.  0.
         12    1    1    2    0    0  0.13138672310E+02  0.10703691833E+02 -0.27009738449E+02  0.31886042401E+02  0.00000000000E+00 0. -1.
         11    1    3    3    0    0  0.53059302520E+00  0.66685106684E+01  0.24370048748E+00  0.66940237288E+01  0.51100000000E-03 0.  1.
        -11    1    3    3    0    0  0.20969764987E+01  0.11341484493E+02  0.12102758967E+02  0.16718353860E+02  0.51100000000E-03 0. -1.
         12    1    3    3    0    0 -0.15766241834E+02 -0.28713686994E+02  0.14663278995E+02  0.35889580009E+02  0.00000000000E+00 0. -1.
</event>
<event>
 7    1  0.5837204E-012  0.5930184E+02  0.7816164E-02  0.1266605E+00
        -11   -1    0    0    0    0  0.00000000000E+00  0.00000000000E+00  0.45593999997E+02  0.45594000000E+02  0.51100000000E-03 0.  1.
         11   -1    0    0    0    0 -0.00000000000E+00 -0.00000000000E+00 -0.45593999997E+02  0.45594000000E+02  0.51100000000E-03 0. -1.
    9900012    2    1    2    0    0  0.26042644703E+02  0.14743676817E+02  0.11005991549E+02  0.59301840005E+02  0.49999810288E+02 0.  0.
         12    1    1    2    0    0 -0.26042644703E+02 -0.14743676817E+02 -0.11005991549E+02  0.31886159995E+02  0.00000000000E+00 0. -1.
         11    1    3    3    0    0  0.24757939561E+02  0.10462401474E+02 -0.74220567751E+01  0.27883764863E+02  0.51100000000E-03 0. -1.
        -11    1    3    3    0    0  0.87589384226E+01  0.11561533435E+02  0.75774383798E+01  0.16364767958E+02  0.51100000000E-03 0.  1.
        -12    1    3    3    0    0 -0.74742332805E+01 -0.72802580919E+01  0.10850609944E+02  0.15053307184E+02  0.00000000000E+00 0.  1.
</event>
<event>
 7    1  0.5837204E-012  0.5930194E+02  0.7816164E-02  0.1266605E+00
        -11   -1    0    0    0    0  0.00000000000E+00  0.00000000000E+00  0.45593999997E+02  0.45594000000E+02  0.51100000000E-03 0.  1.
         11   -1    0    0    0    0 -0.00000000000E+00 -0.00000000000E+00 -0.45593999997E+02  0.45594000000E+02  0.51100000000E-03 0. -1.
    9900012    2    1    2    0    0 -0.21712514252E+02  0.10290555237E+02  0.20961677707E+02  0.59301941377E+02  0.49999995166E+02 0.  0.
         12    1    1    2    0    0  0.21712514252E+02 -0.10290555237E+02 -0.20961677707E+02  0.31886058623E+02  0.00000000000E+00 0. -1.
         11    1    3    3    0    0  0.63539630788E+01 -0.64667103919E+01 -0.49139622996E+01  0.10312042273E+02  0.51100000000E-03 0. -1.
        -11    1    3    3    0    0 -0.19520240990E+02 -0.32587036445E+01  0.11195547273E+02  0.22737617218E+02  0.51100000000E-03 0.  1.
        -12    1    3    3    0    0 -0.85462363408E+01  0.20015969274E+02  0.14680092733E+02  0.26252281886E+02  0.00000000000E+00 0.  1.
</event>
<event>
 7    1  0.5837204E-012  0.5930197E+02  0.7816164E-02  0.1266605E+00
        -11   -1    0    0    0    0  0.00000000000E+00  0.00000000000E+00  0.45593999997E+02  0.45594000000E+02  0.51100000000E-03 0. -1.
         11   -1    0    0    0    0 -0.00000000000E+00 -0.00000000000E+00 -0.45593999997E+02  0.45594000000E+02  0.51100000000E-03 0.  1.
    9900012    2    1    2    0    0 -0.18475290921E+02  0.20915608266E+02 -0.15424650376E+02  0.59301970411E+02  0.50000048117E+02 0.  0.
         12    1    1    2    0    0  0.18475290921E+02 -0.20915608266E+02  0.15424650376E+02  0.31886029589E+02  0.00000000000E+00 0. -1.
         11    1    3    3    0    0 -0.10261607486E+02  0.13670205634E+02 -0.90451154348E+01  0.19338800991E+02  0.51100000000E-03 0. -1.
        -11    1    3    3    0    0 -0.21058983695E+02  0.11555856946E+02  0.18804035511E+01  0.24094699454E+02  0.51100000000E-03 0.  1.
         12    1    3    3    0    0  0.12845300260E+02 -0.43104543143E+01 -0.82599384925E+01  0.15868469966E+02  0.00000000000E+00 0. -1.
</event>
<event>
 7    1  0.5837204E-012  0.5930195E+02  0.7816164E-02  0.1266605E+00
        -11   -1    0    0    0    0  0.00000000000E+00  0.00000000000E+00  0.45593999997E+02  0.45594000000E+02  0.51100000000E-03 0. -1.
         11   -1    0    0    0    0 -0.00000000000E+00 -0.00000000000E+00 -0.45593999997E+02  0.45594000000E+02  0.51100000000E-03 0.  1.
    9900012    2    1    2    0    0  0.10800119653E+02 -0.25795658320E+02 -0.15318660133E+02  0.59301954134E+02  0.50000018432E+02 0.  0.
         12    1    1    2    0    0 -0.10800119653E+02  0.25795658320E+02  0.15318660133E+02  0.31886045866E+02  0.00000000000E+00 0. -1.
         11    1    3    3    0    0  0.15059826612E+00 -0.20686452882E+02  0.59398449812E+01  0.21522866243E+02  0.51100000000E-03 0. -1.
        -11    1    3    3    0    0  0.21435632304E+01  0.47701294236E+01  0.57600002181E+01  0.77798843703E+01  0.51100000000E-03 0.  1.
        -12    1    3    3    0    0  0.85059581567E+01 -0.98793348616E+01 -0.27018505333E+02  0.29999203521E+02  0.00000000000E+00 0.  1.
</event>
<event>
 7    1  0.5837204E-012  0.5930195E+02  0.7816164E-02  0.1266605E+00
        -11   -1    0    0    0    0  0.00000000000E+00  0.00000000000E+00  0.45593999997E+02  0.45594000000E+02  0.51100000000E-03 0. -1.
         11   -1    0    0    0    0 -0.00000000000E+00 -0.00000000000E+00 -0.45593999997E+02  0.45594000000E+02  0.51100000000E-03 0.  1.
    9900012    2    1    2    0    0  0.14272824393E+02 -0.20332060939E+01 -0.28440692413E+02  0.59301946182E+02  0.50000003928E+02 0.  0.
         12    1    1    2    0    0 -0.14272824393E+02  0.20332060939E+01  0.28440692413E+02  0.31886053818E+02  0.00000000000E+00 0. -1.
         11    1    3    3    0    0 -0.31116270137E+01 -0.17095719031E+02 -0.50967900201E+00  0.17384061804E+02  0.51100000000E-03 0. -1.
        -11    1    3    3    0    0  0.57368823709E+00  0.47524747100E+01  0.26938345691E+01  0.54928935006E+01  0.51100000000E-03 0.  1.
        -12    1    3    3    0    0  0.16810763170E+02  0.10310038227E+02 -0.30624847980E+02  0.36424990877E+02  0.00000000000E+00 0.  1.
</event>
<event>
 7    1  0.5837204E-012  0.5930198E+02  0.7816164E-02  0.1266605E+00
        -11   -1    0    0    0    0  0.00000000000E+00  0.00000000000E+00  0.45593999997E+02  0.45594000000E+02  0.51100000000E-03 0.  1.
         11   -1    0    0    0    0 -0.00000000000E+00 -0.00000000000E+00 -0.45593999997E+02  0.45594000000E+02  0.51100000000E-03 0. -1.
    9900012    2    1    2    0    0 -0.18052588427E+02  0.25114089995E+02  0.77527458848E+01  0.59301975884E+02  0.50000058098E+02 0.  0.
         12    1    1    2    0    0  0.18052588427E+02 -0.25114089995E+02 -0.77527458848E+01  0.31886024116E+02  0.00000000000E+00 0. -1.
         11    1    3    3    0    0 -0.17373516189E+02  0.92293341476E+01  0.86597314583E+01  0.21494432367E+02  0.51100000000E-03 0.  1.
        -11    1    3    3    0    0 -0.36158395002E+01 -0.48089945405E+01 -0.12524493687E+02  0.13894735195E+02  0.51100000000E-03 0. -1.
         12    1    3    3    0    0  0.29367672627E+01  0.20693750388E+02  0.11617508113E+02  0.23912808322E+02  0.00000000000E+00 0. -1.
</event>
<event>
 7    1  0.5837204E-012  0.5930194E+02  0.7816164E-02  0.1266605E+00
        -11   -1    0    0    0    0  0.00000000000E+00  0.00000000000E+00  0.45593999997E+02  0.45594000000E+02  0.51100000000E-03 0.  1.
         11   -1    0    0    0    0 -0.00000000000E+00 -0.00000000000E+00 -0.45593999997E+02  0.45594000000E+02  0.51100000000E-03 0. -1.
    9900012    2    1    2    0    0  0.28015365806E+02 -0.13900231354E+02 -0.62163860849E+01  0.59301943347E+02  0.49999998758E+02 0.  0.
         12    1    1    2    0    0 -0.28015365806E+02  0.13900231354E+02  0.62163860849E+01  0.31886056653E+02  0.00000000000E+00 0. -1.
         11    1    3    3    0    0 -0.94291842840E+01  0.58542141679E+01  0.45599390037E+01  0.11998932609E+02  0.51100000000E-03 0. -1.
        -11    1    3    3    0    0  0.91761235294E+01  0.12099267272E+01  0.26620325332E+01  0.96307623365E+01  0.51100000000E-03 0.  1.
        -12    1    3    3    0    0  0.28268426561E+02 -0.20964372249E+02 -0.13438357622E+02  0.37672248401E+02  0.00000000000E+00 0.  1.
</event>
<event>
 7    1  0.5837204E-012  0.5930195E+02  0.7816164E-02  0.1266605E+00
        -11   -1    0    0    0    0  0.00000000000E+00  0.00000000000E+00  0.45593999997E+02  0.45594000000E+02  0.51100000000E-03 0.  1.
         11   -1    0    0    0    0 -0.00000000000E+00 -0.00000000000E+00 -0.45593999997E+02  0.45594000000E+02  0.51100000000E-03 0. -1.
    9900012    2    1    2    0    0 -0.30167696644E+02  0.84342798909E+01 -0.59575982092E+01  0.59301953295E+02  0.50000016901E+02 0.  0.
         12    1    1    2    0    0  0.30167696644E+02 -0.84342798909E+01  0.59575982092E+01  0.31886046705E+02  0.00000000000E+00 0. -1.
         11    1    3    3    0    0 -0.29739851086E+02 -0.85935077634E+01 -0.77573003793E+01  0.31913677753E+02  0.51100000000E-03 0. -1.
        -11    1    3    3    0    0 -0.75213421326E+01  0.95638587352E+00  0.55862184375E+01  0.94175951339E+01  0.51100000000E-03 0.  1.
        -12    1    3    3    0    0  0.70934965749E+01  0.16071401781E+02 -0.37865162673E+01  0.17970680407E+02  0.00000000000E+00 0.  1.
</event>
