<event>
 7    1  0.5022032E-011  0.4778727E+02  0.7816164E-02  0.1312668E+00
        -11   -1    0    0    0    0  0.00000000000E+00  0.00000000000E+00  0.45593999997E+02  0.45594000000E+02  0.51100000000E-03 0. -1.
         11   -1    0    0    0    0 -0.00000000000E+00 -0.00000000000E+00 -0.45593999997E+02  0.45594000000E+02  0.51100000000E-03 0.  1.
    9900012    2    1    2    0    0  0.13006109780E+02 -0.35006994129E+02 -0.22112775454E+02  0.47787269962E+02  0.19999995067E+02 0.  0.
         12    1    1    2    0    0 -0.13006109780E+02  0.35006994129E+02  0.22112775454E+02  0.43400730038E+02  0.00000000000E+00 0. -1.
         11    1    3    3    0    0  0.18607194852E+01 -0.22642975311E+01 -0.49238620966E+00  0.29718285200E+01  0.51100000000E-03 0. -1.
        -11    1    3    3    0    0  0.65217984937E+01 -0.32161859950E+02 -0.22859657576E+02  0.39993537425E+02  0.51100000000E-03 0.  1.
         12    1    3    3    0    0  0.46235918010E+01 -0.58083664770E+00  0.12392683320E+01  0.48219040173E+01  0.00000000000E+00 0. -1.
</event>
<event>
 7    1  0.5022032E-011  0.4778727E+02  0.7816164E-02  0.1312668E+00
        -11   -1    0    0    0    0  0.00000000000E+00  0.00000000000E+00  0.45593999997E+02  0.45594000000E+02  0.51100000000E-03 0. -1.
         11   -1    0    0    0    0 -0.00000000000E+00 -0.00000000000E+00 -0.45593999997E+02  0.45594000000E+02  0.51100000000E-03 0.  1.
    9900012    2    1    2    0    0 -0.33629619881E+02  0.24743629769E+02  0.11850095416E+02  0.47787270642E+02  0.19999998166E+02 0.  0.
        -12    1    1    2    0    0  0.33629619881E+02 -0.24743629769E+02 -0.11850095416E+02  0.43400729358E+02  0.00000000000E+00 0.  1.
         11    1    3    3    0    0 -0.10516639465E+02  0.98931996525E+01 -0.29522393044E+01  0.14737395366E+02  0.51100000000E-03 0. -1.
        -11    1    3    3    0    0 -0.18037884101E+02  0.14748787730E+02  0.81548343149E+01  0.24685893245E+02  0.51100000000E-03 0.  1.
        -12    1    3    3    0    0 -0.50750963153E+01  0.10164238574E+00  0.66475004051E+01  0.83639820313E+01  0.00000000000E+00 0.  1.
</event>
<event>
 7    1  0.5022032E-011  0.4778728E+02  0.7816164E-02  0.1312668E+00
        -11   -1    0    0    0    0  0.00000000000E+00  0.00000000000E+00  0.45593999997E+02  0.45594000000E+02  0.51100000000E-03 0. -1.
         11   -1    0    0    0    0 -0.00000000000E+00 -0.00000000000E+00 -0.45593999997E+02  0.45594000000E+02  0.51100000000E-03 0.  1.
    9900012    2    1    2    0    0 -0.17295321929E+02 -0.28868499631E+02  0.27406285194E+02  0.47787275355E+02  0.20000019655E+02 0.  0.
        -12    1    1    2    0    0  0.17295321929E+02  0.28868499631E+02 -0.27406285194E+02  0.43400724645E+02  0.00000000000E+00 0.  1.
         11    1    3    3    0    0 -0.12529135605E+02 -0.59186716835E+01  0.14833476457E+02  0.20298816161E+02  0.51100000000E-03 0. -1.
        -11    1    3    3    0    0 -0.52041320837E+01 -0.92299450189E+01  0.41263485235E+01  0.11371087380E+02  0.51100000000E-03 0.  1.
         12    1    3    3    0    0  0.43794575944E+00 -0.13719882929E+02  0.84464602136E+01  0.16117371814E+02  0.00000000000E+00 0. -1.
</event>
<event>
 7    1  0.5022032E-011  0.4778727E+02  0.7816164E-02  0.1312668E+00
        -11   -1    0    0    0    0  0.00000000000E+00  0.00000000000E+00  0.45593999997E+02  0.45594000000E+02  0.51100000000E-03 0. -1.
         11   -1    0    0    0    0 -0.00000000000E+00 -0.00000000000E+00 -0.45593999997E+02  0.45594000000E+02  0.51100000000E-03 0.  1.
    9900012    2    1    2    0    0 -0.33875734774E+02  0.81448472294E+01  0.25878932129E+02  0.47787273382E+02  0.20000010657E+02 0.  0.
        -12    1    1    2    0    0  0.33875734774E+02 -0.81448472294E+01 -0.25878932129E+02  0.43400726618E+02  0.00000000000E+00 0.  1.
         11    1    3    3    0    0 -0.37014440371E+01  0.11163531747E+01  0.10585276873E+02  0.11269206676E+02  0.51100000000E-03 0. -1.
        -11    1    3    3    0    0 -0.13657403359E+02  0.81767101419E+01  0.11198100541E+02  0.19462289465E+02  0.51100000000E-03 0.  1.
        -12    1    3    3    0    0 -0.16516887378E+02 -0.11482160873E+01  0.40955547144E+01  0.17055777240E+02  0.00000000000E+00 0.  1.
</event>
<event>
 7    1  0.5022032E-011  0.4778727E+02  0.7816164E-02  0.1312668E+00
        -11   -1    0    0    0    0  0.00000000000E+00  0.00000000000E+00  0.45593999997E+02  0.45594000000E+02  0.51100000000E-03 0.  1.
         11   -1    0    0    0    0 -0.00000000000E+00 -0.00000000000E+00 -0.45593999997E+02  0.45594000000E+02  0.51100000000E-03 0. -1.
    9900012    2    1    2    0    0  0.41177331122E+02  0.11285891911E+02  0.77896930245E+01  0.47787271066E+02  0.20000000101E+02 0.  0.
        -12    1    1    2    0    0 -0.41177331122E+02 -0.11285891911E+02 -0.77896930245E+01  0.43400728934E+02  0.00000000000E+00 0.  1.
         11    1    3    3    0    0  0.13547079902E+02  0.44593712242E+01 -0.27608786432E+01  0.14526934182E+02  0.51100000000E-03 0. -1.
        -11    1    3    3    0    0  0.24198633580E+02  0.10072199654E+02  0.64206924205E+01  0.26986077233E+02  0.51100000000E-03 0.  1.
        -12    1    3    3    0    0  0.34316176397E+01 -0.32456789663E+01  0.41298792473E+01  0.62742596515E+01  0.00000000000E+00 0.  1.
</event>
<event>
 7    1  0.5022032E-011  0.4778727E+02  0.7816164E-02  0.1312668E+00
        -11   -1    0    0    0    0  0.00000000000E+00  0.00000000000E+00  0.45593999997E+02  0.45594000000E+02  0.51100000000E-03 0. -1.
         11   -1    0    0    0    0 -0.00000000000E+00 -0.00000000000E+00 -0.45593999997E+02  0.45594000000E+02  0.51100000000E-03 0.  1.
    9900012    2    1    2    0    0  0.27338987108E+02  0.64656183442E+01  0.33081697178E+02  0.47787272761E+02  0.20000007828E+02 0.  0.
        -12    1    1    2    0    0 -0.27338987108E+02 -0.64656183442E+01 -0.33081697178E+02  0.43400727239E+02  0.00000000000E+00 0.  1.
         11    1    3    3    0    0  0.19141658779E+02  0.37909192777E+01  0.17693857060E+02  0.26340970895E+02  0.51100000000E-03 0. -1.
        -11    1    3    3    0    0  0.70134513344E+01  0.72988408317E+01  0.96830507650E+01  0.14007963788E+02  0.51100000000E-03 0.  1.
         12    1    3    3    0    0  0.11838769946E+01 -0.46241417653E+01  0.57047893529E+01  0.74383380781E+01  0.00000000000E+00 0. -1.
</event>
<event>
 7    1  0.5022032E-011  0.4778727E+02  0.7816164E-02  0.1312668E+00
        -11   -1    0    0    0    0  0.00000000000E+00  0.00000000000E+00  0.45593999997E+02  0.45594000000E+02  0.51100000000E-03 0. -1.
         11   -1    0    0    0    0 -0.00000000000E+00 -0.00000000000E+00 -0.45593999997E+02  0.45594000000E+02  0.51100000000E-03 0.  1.
    9900012    2    1    2    0    0  0.13214915863E+02 -0.19600402879E+02  0.36397991265E+02  0.47787267720E+02  0.19999984844E+02 0.  0.
        -12    1    1    2    0    0 -0.13214915863E+02  0.19600402879E+02 -0.36397991265E+02  0.43400732280E+02  0.00000000000E+00 0.  1.
         11    1    3    3    0    0  0.30815872389E+01  0.20743924199E+01  0.11715507965E+02  0.12290338114E+02  0.51100000000E-03 0. -1.
        -11    1    3    3    0    0  0.14789560857E+01 -0.58689526865E+01  0.12067055589E+02  0.13499842503E+02  0.51100000000E-03 0.  1.
        -12    1    3    3    0    0  0.86543725388E+01 -0.15805842612E+02  0.12615427711E+02  0.21997087104E+02  0.00000000000E+00 0.  1.
</event>
<event>
 7    1  0.5022032E-011  0.4778727E+02  0.7816164E-02  0.1312668E+00
        -11   -1    0    0    0    0  0.00000000000E+00  0.00000000000E+00  0.45593999997E+02  0.45594000000E+02  0.51100000000E-03 0. -1.
         11   -1    0    0    0    0 -0.00000000000E+00 -0.00000000000E+00 -0.45593999997E+02  0.45594000000E+02  0.51100000000E-03 0.  1.
    9900012    2    1    2    0    0 -0.88088939709E+01 -0.17027762034E+02  0.38936896414E+02  0.47787271951E+02  0.20000004132E+02 0.  0.
        -12    1    1    2    0    0  0.88088939709E+01  0.17027762034E+02 -0.38936896414E+02  0.43400728049E+02  0.00000000000E+00 0.  1.
         11    1    3    3    0    0 -0.95616172097E+01 -0.86341911651E+01  0.16652859259E+02  0.21054488892E+02  0.51100000000E-03 0. -1.
        -11    1    3    3    0    0 -0.22683820361E+01  0.16449076959E+01  0.10911952073E+02  0.11265965413E+02  0.51100000000E-03 0.  1.
        -12    1    3    3    0    0  0.30211052749E+01 -0.10038478564E+02  0.11372085082E+02  0.15466817646E+02  0.00000000000E+00 0.  1.
</event>
<event>
 7    1  0.5022032E-011  0.4778727E+02  0.7816164E-02  0.1312668E+00
        -11   -1    0    0    0    0  0.00000000000E+00  0.00000000000E+00  0.45593999997E+02  0.45594000000E+02  0.51100000000E-03 0. -1.
         11   -1    0    0    0    0 -0.00000000000E+00 -0.00000000000E+00 -0.45593999997E+02  0.45594000000E+02  0.51100000000E-03 0.  1.
    9900012    2    1    2    0    0 -0.24805191081E+02 -0.14780495350E+02  0.32401581664E+02  0.47787273720E+02  0.20000012197E+02 0.  0.
        -12    1    1    2    0    0  0.24805191081E+02  0.14780495350E+02 -0.32401581664E+02  0.43400726280E+02  0.00000000000E+00 0.  1.
         11    1    3    3    0    0 -0.12167540057E+02 -0.10718362458E+02  0.19374803538E+02  0.25264903269E+02  0.51100000000E-03 0. -1.
        -11    1    3    3    0    0 -0.57011587140E+01 -0.76379015586E+01  0.33763247071E+01  0.10111395536E+02  0.51100000000E-03 0.  1.
        -12    1    3    3    0    0 -0.69364923104E+01  0.35757686667E+01  0.96504534185E+01  0.12410974914E+02  0.00000000000E+00 0.  1.
</event>
<event>
 7    1  0.5022032E-011  0.4778727E+02  0.7816164E-02  0.1312668E+00
        -11   -1    0    0    0    0  0.00000000000E+00  0.00000000000E+00  0.45593999997E+02  0.45594000000E+02  0.51100000000E-03 0. -1.
         11   -1    0    0    0    0 -0.00000000000E+00 -0.00000000000E+00 -0.45593999997E+02  0.45594000000E+02  0.51100000000E-03 0.  1.
    9900012    2    1    2    0    0 -0.15355705600E+02 -0.20875958333E+02 -0.34814080845E+02  0.47787267795E+02  0.19999985187E+02 0.  0.
         12    1    1    2    0    0  0.15355705600E+02  0.20875958333E+02  0.34814080845E+02  0.43400732205E+02  0.00000000000E+00 0. -1.
         11    1    3    3    0    0 -0.10813847737E+02 -0.18749732456E+02 -0.34349374928E+02  0.40600139510E+02  0.51100000000E-03 0. -1.
        -11    1    3    3    0    0 -0.16490966927E+01 -0.15131308012E+01 -0.26805167981E+01  0.34920273896E+01  0.51100000000E-03 0.  1.
         12    1    3    3    0    0 -0.28927611709E+01 -0.61309507606E+00  0.22158108816E+01  0.36951008954E+01  0.00000000000E+00 0. -1.
</event>
<event>
 7    1  0.5022032E-011  0.4778727E+02  0.7816164E-02  0.1312668E+00
        -11   -1    0    0    0    0  0.00000000000E+00  0.00000000000E+00  0.45593999997E+02  0.45594000000E+02  0.51100000000E-03 0. -1.
         11   -1    0    0    0    0 -0.00000000000E+00 -0.00000000000E+00 -0.45593999997E+02  0.45594000000E+02  0.51100000000E-03 0.  1.
    9900012    2    1    2    0    0  0.26618338458E+02  0.18646178552E+02 -0.28764691510E+02  0.47787269655E+02  0.19999993663E+02 0.  0.
         12    1    1    2    0    0 -0.26618338458E+02 -0.18646178552E+02  0.28764691510E+02  0.43400730345E+02  0.00000000000E+00 0. -1.
         11    1    3    3    0    0  0.10165560254E+01  0.81849491937E+01 -0.11036584657E+02  0.13777988990E+02  0.51100000000E-03 0. -1.
        -11    1    3    3    0    0  0.23536294224E+01 -0.92770852092E+00  0.17169121205E+00  0.25356838705E+01  0.51100000000E-03 0.  1.
        -12    1    3    3    0    0  0.23248153010E+02  0.11388937879E+02 -0.17899798065E+02  0.31473596794E+02  0.00000000000E+00 0.  1.
</event>
<event>
 7    1  0.5022032E-011  0.4778728E+02  0.7816164E-02  0.1312668E+00
        -11   -1    0    0    0    0  0.00000000000E+00  0.00000000000E+00  0.45593999997E+02  0.45594000000E+02  0.51100000000E-03 0. -1.
         11   -1    0    0    0    0 -0.00000000000E+00 -0.00000000000E+00 -0.45593999997E+02  0.45594000000E+02  0.51100000000E-03 0.  1.
    9900012    2    1    2    0    0 -0.19466812666E+02  0.31343925671E+02 -0.22852225808E+02  0.47787277699E+02  0.20000030340E+02 0.  0.
         12    1    1    2    0    0  0.19466812666E+02 -0.31343925671E+02  0.22852225808E+02  0.43400722301E+02  0.00000000000E+00 0. -1.
         11    1    3    3    0    0 -0.26087989801E+01  0.10986011334E+02 -0.20610724454E+01  0.11478078978E+02  0.51100000000E-03 0. -1.
        -11    1    3    3    0    0  0.27755250204E-01  0.50823756904E+01  0.53664055281E+00  0.51107040960E+01  0.51100000000E-03 0.  1.
        -12    1    3    3    0    0 -0.16885768936E+02  0.15275538647E+02 -0.21327793916E+02  0.31198494624E+02  0.00000000000E+00 0.  1.
</event>
<event>
 7    1  0.5022032E-011  0.4778727E+02  0.7816164E-02  0.1312668E+00
        -11   -1    0    0    0    0  0.00000000000E+00  0.00000000000E+00  0.45593999997E+02  0.45594000000E+02  0.51100000000E-03 0.  1.
         11   -1    0    0    0    0 -0.00000000000E+00 -0.00000000000E+00 -0.45593999997E+02  0.45594000000E+02  0.51100000000E-03 0. -1.
    9900012    2    1    2    0    0 -0.40649373536E+02  0.15062737812E+02 -0.20894303482E+01  0.47787270070E+02  0.19999995558E+02 0.  0.
         12    1    1    2    0    0  0.40649373536E+02 -0.15062737812E+02  0.20894303482E+01  0.43400729930E+02  0.00000000000E+00 0. -1.
         11    1    3    3    0    0 -0.44761659518E+01 -0.14249632089E+01  0.29454041806E+01  0.55445457725E+01  0.51100000000E-03 0. -1.
        -11    1    3    3    0    0 -0.19827737473E+02  0.38378699766E+01  0.22661193355E+01  0.20322492868E+02  0.51100000000E-03 0.  1.
         12    1    3    3    0    0 -0.16345470111E+02  0.12649831044E+02 -0.73009538643E+01  0.21920231430E+02  0.00000000000E+00 0. -1.
</event>
<event>
 7    1  0.5022032E-011  0.4778728E+02  0.7816164E-02  0.1312668E+00
        -11   -1    0    0    0    0  0.00000000000E+00  0.00000000000E+00  0.45593999997E+02  0.45594000000E+02  0.51100000000E-03 0. -1.
         11   -1    0    0    0    0 -0.00000000000E+00 -0.00000000000E+00 -0.45593999997E+02  0.45594000000E+02  0.51100000000E-03 0.  1.
    9900012    2    1    2    0    0 -0.50434589313E+01  0.34085878193E+01 -0.42971710842E+02  0.47787275564E+02  0.20000020606E+02 0.  0.
         12    1    1    2    0    0  0.50434589313E+01 -0.34085878193E+01  0.42971710842E+02  0.43400724436E+02  0.00000000000E+00 0. -1.
         11    1    3    3    0    0 -0.25577935261E+01  0.38026052747E+01 -0.90507659022E+00  0.46713251324E+01  0.51100000000E-03 0. -1.
        -11    1    3    3    0    0  0.25611620206E+01  0.24319483872E+01 -0.12527993784E+02  0.13016318695E+02  0.51100000000E-03 0.  1.
        -12    1    3    3    0    0 -0.50468274258E+01 -0.28259658426E+01 -0.29538640468E+02  0.30099631737E+02  0.00000000000E+00 0.  1.
</event>
<event>
 7    1  0.5022032E-011  0.4778727E+02  0.7816164E-02  0.1312668E+00
        -11   -1    0    0    0    0  0.00000000000E+00  0.00000000000E+00  0.45593999997E+02  0.45594000000E+02  0.51100000000E-03 0. -1.
         11   -1    0    0    0    0 -0.00000000000E+00 -0.00000000000E+00 -0.45593999997E+02  0.45594000000E+02  0.51100000000E-03 0.  1.
    9900012    2    1    2    0    0  0.24293563039E+02  0.23778561649E+01 -0.35885816536E+02  0.47787271509E+02  0.20000002118E+02 0.  0.
         12    1    1    2    0    0 -0.24293563039E+02 -0.23778561649E+01  0.35885816536E+02  0.43400728491E+02  0.00000000000E+00 0. -1.
         11    1    3    3    0    0  0.28431044603E+00  0.44230641932E+01 -0.98710159907E+00  0.45407817735E+01  0.51100000000E-03 0. -1.
        -11    1    3    3    0    0  0.11203774242E+02 -0.16263251368E+00 -0.92998127335E+01  0.14561508292E+02  0.51100000000E-03 0.  1.
        -12    1    3    3    0    0  0.12805478351E+02 -0.18825755146E+01 -0.25598902204E+02  0.28684981443E+02  0.00000000000E+00 0.  1.
</event>
<event>
 7    1  0.5022032E-011  0.4778728E+02  0.7816164E-02  0.1312668E+00
        -11   -1    0    0    0    0  0.00000000000E+00  0.00000000000E+00  0.45593999997E+02  0.45594000000E+02  0.51100000000E-03 0.  1.
         11   -1    0    0    0    0 -0.00000000000E+00 -0.00000000000E+00 -0.45593999997E+02  0.45594000000E+02  0.51100000000E-03 0. -1.
    9900012    2    1    2    0    0 -0.37269824985E+02  0.22216695015E+02 -0.10007643695E+01  0.47787275109E+02  0.20000018530E+02 0.  0.
        -12    1    1    2    0    0  0.37269824985E+02 -0.22216695015E+02  0.10007643695E+01  0.43400724891E+02  0.00000000000E+00 0.  1.
         11    1    3    3    0    0 -0.15392778582E+02  0.92801408870E+01 -0.27813318315E+01  0.18187755617E+02  0.51100000000E-03 0. -1.
        -11    1    3    3    0    0 -0.12700862492E+02  0.12831944185E+01 -0.44396994981E+01  0.13515525438E+02  0.51100000000E-03 0.  1.
         12    1    3    3    0    0 -0.91761839106E+01  0.11653359709E+02  0.62202669601E+01  0.16083994054E+02  0.00000000000E+00 0. -1.
</event>
<event>
 7    1  0.5022032E-011  0.4778727E+02  0.7816164E-02  0.1312668E+00
        -11   -1    0    0    0    0  0.00000000000E+00  0.00000000000E+00  0.45593999997E+02  0.45594000000E+02  0.51100000000E-03 0. -1.
         11   -1    0    0    0    0 -0.00000000000E+00 -0.00000000000E+00 -0.45593999997E+02  0.45594000000E+02  0.51100000000E-03 0.  1.
    9900012    2    1    2    0    0 -0.23330556698E+02  0.15976512005E+01  0.36561678552E+02  0.47787266092E+02  0.19999977421E+02 0.  0.
        -12    1    1    2    0    0  0.23330556698E+02 -0.15976512005E+01 -0.36561678552E+02  0.43400733908E+02  0.00000000000E+00 0.  1.
         11    1    3    3    0    0 -0.23864687096E+01 -0.44134118612E+00 -0.20188222538E+00  0.24353175642E+01  0.51100000000E-03 0.  1.
        -11    1    3    3    0    0  0.18074844891E+01 -0.26877487022E+01  0.34238697203E+01  0.47131600214E+01  0.51100000000E-03 0. -1.
         12    1    3    3    0    0 -0.22751572477E+02  0.47267410888E+01  0.33339691057E+02  0.40638788507E+02  0.00000000000E+00 0. -1.
</event>
<event>
 7    1  0.5022032E-011  0.4778727E+02  0.7816164E-02  0.1312668E+00
        -11   -1    0    0    0    0  0.00000000000E+00  0.00000000000E+00  0.45593999997E+02  0.45594000000E+02  0.51100000000E-03 0. -1.
         11   -1    0    0    0    0 -0.00000000000E+00 -0.00000000000E+00 -0.45593999997E+02  0.45594000000E+02  0.51100000000E-03 0.  1.
    9900012    2    1    2    0    0  0.22329672997E+02  0.14560872883E+02  0.34248944585E+02  0.47787268204E+02  0.19999987049E+02 0.  0.
        -12    1    1    2    0    0 -0.22329672997E+02 -0.14560872883E+02 -0.34248944585E+02  0.43400731796E+02  0.00000000000E+00 0.  1.
         11    1    3    3    0    0  0.29428496870E+01  0.59348017655E+00  0.10625919946E+02  0.11041863881E+02  0.51100000000E-03 0. -1.
        -11    1    3    3    0    0  0.44497639734E+00  0.45251239487E+01  0.11472693682E+02  0.12340885354E+02  0.51100000000E-03 0.  1.
         12    1    3    3    0    0  0.18941846913E+02  0.94422687575E+01  0.12150330957E+02  0.24404518969E+02  0.00000000000E+00 0. -1.
</event>
<event>
 7    1  0.5022032E-011  0.4778728E+02  0.7816164E-02  0.1312668E+00
        -11   -1    0    0    0    0  0.00000000000E+00  0.00000000000E+00  0.45593999997E+02  0.45594000000E+02  0.51100000000E-03 0. -1.
         11   -1    0    0    0    0 -0.00000000000E+00 -0.00000000000E+00 -0.45593999997E+02  0.45594000000E+02  0.51100000000E-03 0.  1.
    9900012    2    1    2    0    0  0.30473529029E+02  0.16855158605E+02 -0.25901554952E+02  0.47787275443E+02  0.20000020057E+02 0.  0.
         12    1    1    2    0    0 -0.30473529029E+02 -0.16855158605E+02  0.25901554952E+02  0.43400724557E+02  0.00000000000E+00 0. -1.
         11    1    3    3    0    0 -0.58950382502E+00  0.20963572689E+01 -0.15643017333E+01  0.26812811737E+01  0.51100000000E-03 0. -1.
        -11    1    3    3    0    0  0.18113290792E+02 -0.30007898862E+00 -0.11629013424E+02  0.21527083040E+02  0.51100000000E-03 0.  1.
        -12    1    3    3    0    0  0.12949742062E+02  0.15058880325E+02 -0.12708239795E+02  0.23578911230E+02  0.00000000000E+00 0.  1.
</event>
<event>
 7    1  0.5022032E-011  0.4778727E+02  0.7816164E-02  0.1312668E+00
        -11   -1    0    0    0    0  0.00000000000E+00  0.00000000000E+00  0.45593999997E+02  0.45594000000E+02  0.51100000000E-03 0. -1.
         11   -1    0    0    0    0 -0.00000000000E+00 -0.00000000000E+00 -0.45593999997E+02  0.45594000000E+02  0.51100000000E-03 0.  1.
    9900012    2    1    2    0    0 -0.13714568960E+02 -0.26127860428E+02  0.31825602608E+02  0.47787268743E+02  0.19999989506E+02 0.  0.
        -12    1    1    2    0    0  0.13714568960E+02  0.26127860428E+02 -0.31825602608E+02  0.43400731257E+02  0.00000000000E+00 0.  1.
         11    1    3    3    0    0 -0.11325380837E+02 -0.19271134235E+02  0.23033391006E+02  0.32096385580E+02  0.51100000000E-03 0. -1.
        -11    1    3    3    0    0 -0.48143121156E+01 -0.33237419160E+01  0.96839290691E+01  0.11313856281E+02  0.51100000000E-03 0.  1.
        -12    1    3    3    0    0  0.24251239918E+01 -0.35329842775E+01 -0.89171746786E+00  0.43770268818E+01  0.00000000000E+00 0.  1.
</event>
<event>
 7    1  0.5022032E-011  0.4778727E+02  0.7816164E-02  0.1312668E+00
        -11   -1    0    0    0    0  0.00000000000E+00  0.00000000000E+00  0.45593999997E+02  0.45594000000E+02  0.51100000000E-03 0. -1.
         11   -1    0    0    0    0 -0.00000000000E+00 -0.00000000000E+00 -0.45593999997E+02  0.45594000000E+02  0.51100000000E-03 0.  1.
    9900012    2    1    2    0    0 -0.15551133979E+02 -0.12528348941E+02  0.38533439573E+02  0.47787271198E+02  0.20000000699E+02 0.  0.
        -12    1    1    2    0    0  0.15551133979E+02  0.12528348941E+02 -0.38533439573E+02  0.43400728802E+02  0.00000000000E+00 0.  1.
         11    1    3    3    0    0 -0.17219364404E+02 -0.72238226215E+01  0.27038109462E+02  0.32859541800E+02  0.51100000000E-03 0. -1.
        -11    1    3    3    0    0 -0.14981820204E+01 -0.13239613280E+01 -0.35619945798E+00  0.20308375807E+01  0.51100000000E-03 0.  1.
        -12    1    3    3    0    0  0.31664124449E+01 -0.39805649914E+01  0.11851529569E+02  0.12896891817E+02  0.00000000000E+00 0.  1.
</event>
<event>
 7    1  0.5022032E-011  0.4778726E+02  0.7816164E-02  0.1312668E+00
        -11   -1    0    0    0    0  0.00000000000E+00  0.00000000000E+00  0.45593999997E+02  0.45594000000E+02  0.51100000000E-03 0. -1.
         11   -1    0    0    0    0 -0.00000000000E+00 -0.00000000000E+00 -0.45593999997E+02  0.45594000000E+02  0.51100000000E-03 0.  1.
    9900012    2    1    2    0    0 -0.71633307127E+01  0.13937979451E+02  0.40472747650E+02  0.47787264057E+02  0.19999968143E+02 0.  0.
        -12    1    1    2    0    0  0.71633307127E+01 -0.13937979451E+02 -0.40472747650E+02  0.43400735943E+02  0.00000000000E+00 0.  1.
         11    1    3    3    0    0 -0.10984248334E+02  0.72763966084E+01  0.14228354865E+02  0.19391898862E+02  0.51100000000E-03 0. -1.
        -11    1    3    3    0    0 -0.22644608917E+01  0.12865717025E+01  0.83129216788E+01  0.87113556335E+01  0.51100000000E-03 0.  1.
        -12    1    3    3    0    0  0.60853785129E+01  0.53750111397E+01  0.17931471106E+02  0.19684009562E+02  0.00000000000E+00 0.  1.
</event>
<event>
 7    1  0.5022032E-011  0.4778728E+02  0.7816164E-02  0.1312668E+00
        -11   -1    0    0    0    0  0.00000000000E+00  0.00000000000E+00  0.45593999997E+02  0.45594000000E+02  0.51100000000E-03 0. -1.
         11   -1    0    0    0    0 -0.00000000000E+00 -0.00000000000E+00 -0.45593999997E+02  0.45594000000E+02  0.51100000000E-03 0.  1.
    9900012    2    1    2    0    0  0.18585247336E+02 -0.33878360475E+02  0.19760260160E+02  0.47787278709E+02  0.20000034944E+02 0.  0.
        -12    1    1    2    0    0 -0.18585247336E+02  0.33878360475E+02 -0.19760260160E+02  0.43400721291E+02  0.00000000000E+00 0.  1.
         11    1    3    3    0    0  0.92350293911E+01 -0.17640409658E+02  0.18348939720E+02  0.27076805755E+02  0.51100000000E-03 0. -1.
        -11    1    3    3    0    0  0.64225321934E+01 -0.46443508382E+01  0.33355036272E+01  0.85990987430E+01  0.51100000000E-03 0.  1.
        -12    1    3    3    0    0  0.29276857514E+01 -0.11593599979E+02 -0.19241831878E+01  0.12111374210E+02  0.00000000000E+00 0.  1.
</event>
<event>
 7    1  0.5022032E-011  0.4778725E+02  0.7816164E-02  0.1312668E+00
        -11   -1    0    0    0    0  0.00000000000E+00  0.00000000000E+00  0.45593999997E+02  0.45594000000E+02  0.51100000000E-03 0. -1.
         11   -1    0    0    0    0 -0.00000000000E+00 -0.00000000000E+00 -0.45593999997E+02  0.45594000000E+02  0.51100000000E-03 0.  1.
    9900012    2    1    2    0    0  0.13870751162E+02 -0.58629925408E+01 -0.40704450334E+02  0.47787254657E+02  0.19999925283E+02 0.  0.
         12    1    1    2    0    0 -0.13870751162E+02  0.58629925408E+01  0.40704450334E+02  0.43400745343E+02  0.00000000000E+00 0. -1.
         11    1    3    3    0    0  0.16743516303E+01  0.22898763907E+01 -0.20102656924E+02  0.20301817725E+02  0.51100000000E-03 0. -1.
        -11    1    3    3    0    0 -0.12398403388E+01 -0.22728325186E+01 -0.55751260379E+00  0.26483565258E+01  0.51100000000E-03 0.  1.
        -12    1    3    3    0    0  0.13436239870E+02 -0.58800364128E+01 -0.20044280806E+02  0.24837080406E+02  0.00000000000E+00 0.  1.
</event>
<event>
 7    1  0.5022032E-011  0.4778727E+02  0.7816164E-02  0.1312668E+00
        -11   -1    0    0    0    0  0.00000000000E+00  0.00000000000E+00  0.45593999997E+02  0.45594000000E+02  0.51100000000E-03 0. -1.
         11   -1    0    0    0    0 -0.00000000000E+00 -0.00000000000E+00 -0.45593999997E+02  0.45594000000E+02  0.51100000000E-03 0.  1.
    9900012    2    1    2    0    0 -0.18800527305E+02 -0.47552943316E+01 -0.38827191458E+02  0.47787269042E+02  0.19999990872E+02 0.  0.
         12    1    1    2    0    0  0.18800527305E+02  0.47552943316E+01  0.38827191458E+02  0.43400730958E+02  0.00000000000E+00 0. -1.
         11    1    3    3    0    0 -0.75056497698E+01  0.76673805056E+00 -0.48483664956E+01  0.89682397181E+01  0.51100000000E-03 0. -1.
        -11    1    3    3    0    0 -0.14198952560E+02 -0.23648989885E+01 -0.24520144361E+02  0.28433087781E+02  0.51100000000E-03 0.  1.
        -12    1    3    3    0    0  0.29040750249E+01 -0.31571333937E+01 -0.94586806018E+01  0.10385941543E+02  0.00000000000E+00 0.  1.
</event>
<event>
 7    1  0.5022032E-011  0.4778727E+02  0.7816164E-02  0.1312668E+00
        -11   -1    0    0    0    0  0.00000000000E+00  0.00000000000E+00  0.45593999997E+02  0.45594000000E+02  0.51100000000E-03 0. -1.
         11   -1    0    0    0    0 -0.00000000000E+00 -0.00000000000E+00 -0.45593999997E+02  0.45594000000E+02  0.51100000000E-03 0.  1.
    9900012    2    1    2    0    0 -0.12507121787E+02 -0.26805268751E+02  0.31759615542E+02  0.47787266048E+02  0.19999977218E+02 0.  0.
        -12    1    1    2    0    0  0.12507121787E+02  0.26805268751E+02 -0.31759615542E+02  0.43400733952E+02  0.00000000000E+00 0.  1.
         11    1    3    3    0    0 -0.76231345070E+01 -0.19437589761E+02  0.30866151127E+02  0.37264612719E+02  0.51100000000E-03 0. -1.
        -11    1    3    3    0    0 -0.35736824748E+00  0.88919049342E+00  0.53947597757E+00  0.10997301439E+01  0.51100000000E-03 0.  1.
         12    1    3    3    0    0 -0.45266190329E+01 -0.82568694840E+01  0.35398843736E+00  0.94229231854E+01  0.00000000000E+00 0. -1.
</event>
<event>
 7    1  0.5022032E-011  0.4778727E+02  0.7816164E-02  0.1312668E+00
        -11   -1    0    0    0    0  0.00000000000E+00  0.00000000000E+00  0.45593999997E+02  0.45594000000E+02  0.51100000000E-03 0. -1.
         11   -1    0    0    0    0 -0.00000000000E+00 -0.00000000000E+00 -0.45593999997E+02  0.45594000000E+02  0.51100000000E-03 0.  1.
    9900012    2    1    2    0    0  0.29435703956E+02 -0.22894142318E+01  0.31810708043E+02  0.47787271537E+02  0.20000002245E+02 0.  0.
        -12    1    1    2    0    0 -0.29435703956E+02  0.22894142318E+01 -0.31810708043E+02  0.43400728463E+02  0.00000000000E+00 0.  1.
         11    1    3    3    0    0  0.67642075418E+01  0.27264310463E+01  0.77427373577E+01  0.10636630668E+02  0.51100000000E-03 0. -1.
        -11    1    3    3    0    0 -0.93409230253E+00 -0.48862692111E+00 -0.16444729655E+01  0.19533500181E+01  0.51100000000E-03 0.  1.
        -12    1    3    3    0    0  0.23605588717E+02 -0.45272183569E+01  0.25712443651E+02  0.35197290851E+02  0.00000000000E+00 0.  1.
</event>
<event>
 7    1  0.5022032E-011  0.4778727E+02  0.7816164E-02  0.1312668E+00
        -11   -1    0    0    0    0  0.00000000000E+00  0.00000000000E+00  0.45593999997E+02  0.45594000000E+02  0.51100000000E-03 0. -1.
         11   -1    0    0    0    0 -0.00000000000E+00 -0.00000000000E+00 -0.45593999997E+02  0.45594000000E+02  0.51100000000E-03 0.  1.
    9900012    2    1    2    0    0 -0.63835674204E+00  0.61636858366E+01  0.42956081026E+02  0.47787269367E+02  0.19999992351E+02 0.  0.
        -12    1    1    2    0    0  0.63835674204E+00 -0.61636858366E+01 -0.42956081026E+02  0.43400730633E+02  0.00000000000E+00 0.  1.
         11    1    3    3    0    0 -0.98474207305E-01 -0.40928159639E+00  0.87252971249E+00  0.96877084749E+00  0.51100000000E-03 0. -1.
        -11    1    3    3    0    0 -0.62111011934E+01 -0.40891129776E+01  0.94694507433E+01  0.12040312314E+02  0.51100000000E-03 0.  1.
        -12    1    3    3    0    0  0.56712186587E+01  0.10662080411E+02  0.32614100570E+02  0.34778186205E+02  0.00000000000E+00 0.  1.
</event>
<event>
 7    1  0.5022032E-011  0.4778728E+02  0.7816164E-02  0.1312668E+00
        -11   -1    0    0    0    0  0.00000000000E+00  0.00000000000E+00  0.45593999997E+02  0.45594000000E+02  0.51100000000E-03 0. -1.
         11   -1    0    0    0    0 -0.00000000000E+00 -0.00000000000E+00 -0.45593999997E+02  0.45594000000E+02  0.51100000000E-03 0.  1.
    9900012    2    1    2    0    0  0.42715796844E+02 -0.13850399150E+00  0.76788194692E+01  0.47787277058E+02  0.20000027420E+02 0.  0.
        -12    1    1    2    0    0 -0.42715796844E+02  0.13850399150E+00 -0.76788194692E+01  0.43400722942E+02  0.00000000000E+00 0.  1.
         11    1    3    3    0    0  0.35194371400E+01  0.87502383704E+00  0.29271281622E+01  0.46604918235E+01  0.51100000000E-03 0. -1.
        -11    1    3    3    0    0 -0.49324320636E+00 -0.12987146120E+01 -0.24229016949E+01  0.27929198678E+01  0.51100000000E-03 0.  1.
         12    1    3    3    0    0  0.39689602911E+02  0.28518678342E+00  0.71745930019E+01  0.40333865367E+02  0.00000000000E+00 0. -1.
</event>
<event>
 7    1  0.5022032E-011  0.4778726E+02  0.7816164E-02  0.1312668E+00
        -11   -1    0    0    0    0  0.00000000000E+00  0.00000000000E+00  0.45593999997E+02  0.45594000000E+02  0.51100000000E-03 0.  1.
         11   -1    0    0    0    0 -0.00000000000E+00 -0.00000000000E+00 -0.45593999997E+02  0.45594000000E+02  0.51100000000E-03 0. -1.
    9900012    2    1    2    0    0 -0.94505152448E+01  0.42357737161E+02 -0.36591334942E+00  0.47787262353E+02  0.19999960370E+02 0.  0.
         12    1    1    2    0    0  0.94505152448E+01 -0.42357737161E+02  0.36591334942E+00  0.43400737647E+02  0.00000000000E+00 0. -1.
         11    1    3    3    0    0 -0.12077636173E+01  0.12088643831E+02 -0.87526120095E+00  0.12180315474E+02  0.51100000000E-03 0. -1.
        -11    1    3    3    0    0 -0.12695637936E+01  0.25191895265E+02 -0.45147483357E+01  0.25624721112E+02  0.51100000000E-03 0.  1.
         12    1    3    3    0    0 -0.69731878338E+01  0.50771980651E+01  0.50240961873E+01  0.99822257667E+01  0.00000000000E+00 0. -1.
</event>
<event>
 7    1  0.5022032E-011  0.4778727E+02  0.7816164E-02  0.1312668E+00
        -11   -1    0    0    0    0  0.00000000000E+00  0.00000000000E+00  0.45593999997E+02  0.45594000000E+02  0.51100000000E-03 0. -1.
         11   -1    0    0    0    0 -0.00000000000E+00 -0.00000000000E+00 -0.45593999997E+02  0.45594000000E+02  0.51100000000E-03 0.  1.
    9900012    2    1    2    0    0  0.27942982971E+02  0.27779247895E+02  0.18196877078E+02  0.47787271362E+02  0.20000001448E+02 0.  0.
        -12    1    1    2    0    0 -0.27942982971E+02 -0.27779247895E+02 -0.18196877078E+02  0.43400728638E+02  0.00000000000E+00 0.  1.
         11    1    3    3    0    0  0.11384705676E+01  0.37871139034E+01  0.21392121623E+01  0.44960622646E+01  0.51100000000E-03 0. -1.
        -11    1    3    3    0    0  0.21382287263E+02  0.91214565432E+01  0.14472842781E+02  0.27383687781E+02  0.51100000000E-03 0.  1.
        -12    1    3    3    0    0  0.54222251406E+01  0.14870677448E+02  0.15848221352E+01  0.15907521317E+02  0.00000000000E+00 0.  1.
</event>
<event>
 7    1  0.5022032E-011  0.4778726E+02  0.7816164E-02  0.1312668E+00
        -11   -1    0    0    0    0  0.00000000000E+00  0.00000000000E+00  0.45593999997E+02  0.45594000000E+02  0.51100000000E-03 0. -1.
         11   -1    0    0    0    0 -0.00000000000E+00 -0.00000000000E+00 -0.45593999997E+02  0.45594000000E+02  0.51100000000E-03 0.  1.
    9900012    2    1    2    0    0 -0.20781552071E+01 -0.31917307036E+02  0.29335824618E+02  0.47787264713E+02  0.19999971131E+02 0.  0.
        -12    1    1    2    0    0  0.20781552071E+01  0.31917307036E+02 -0.29335824618E+02  0.43400735287E+02  0.00000000000E+00 0.  1.
         11    1    3    3    0    0  0.71611390206E+00 -0.37673785578E+01  0.95601381832E+01  0.10300592345E+02  0.51100000000E-03 0. -1.
        -11    1    3    3    0    0  0.52261474715E+01 -0.54657017812E+01  0.29050900458E+01  0.81009914078E+01  0.51100000000E-03 0.  1.
         12    1    3    3    0    0 -0.80204165807E+01 -0.22684226697E+02  0.16870596389E+02  0.29385680960E+02  0.00000000000E+00 0. -1.
</event>
<event>
 7    1  0.5022032E-011  0.4778727E+02  0.7816164E-02  0.1312668E+00
        -11   -1    0    0    0    0  0.00000000000E+00  0.00000000000E+00  0.45593999997E+02  0.45594000000E+02  0.51100000000E-03 0. -1.
         11   -1    0    0    0    0 -0.00000000000E+00 -0.00000000000E+00 -0.45593999997E+02  0.45594000000E+02  0.51100000000E-03 0.  1.
    9900012    2    1    2    0    0 -0.55535818710E+01 -0.18024337999E+02 -0.39088413065E+02  0.47787273418E+02  0.20000010821E+02 0.  0.
         12    1    1    2    0    0  0.55535818710E+01  0.18024337999E+02  0.39088413065E+02  0.43400726582E+02  0.00000000000E+00 0. -1.
         11    1    3    3    0    0 -0.97346794679E+00 -0.59407372621E+01 -0.51186728216E+01  0.79019498085E+01  0.51100000000E-03 0. -1.
        -11    1    3    3    0    0 -0.53768433836E+01  0.27524881764E+01 -0.10182732456E+02  0.11839538693E+02  0.51100000000E-03 0.  1.
        -12    1    3    3    0    0  0.79672945946E+00 -0.14836088913E+02 -0.23787007788E+02  0.28045784916E+02  0.00000000000E+00 0.  1.
</event>
<event>
 7    1  0.5022032E-011  0.4778727E+02  0.7816164E-02  0.1312668E+00
        -11   -1    0    0    0    0  0.00000000000E+00  0.00000000000E+00  0.45593999997E+02  0.45594000000E+02  0.51100000000E-03 0. -1.
         11   -1    0    0    0    0 -0.00000000000E+00 -0.00000000000E+00 -0.45593999997E+02  0.45594000000E+02  0.51100000000E-03 0.  1.
    9900012    2    1    2    0    0  0.37756718641E+02  0.58425134444E+01 -0.20589280930E+02  0.47787271261E+02  0.20000000987E+02 0.  0.
         12    1    1    2    0    0 -0.37756718641E+02 -0.58425134444E+01  0.20589280930E+02  0.43400728739E+02  0.00000000000E+00 0. -1.
         11    1    3    3    0    0  0.13202212833E+02 -0.23865024919E+01 -0.56135097213E+00  0.13427916183E+02  0.51100000000E-03 0. -1.
        -11    1    3    3    0    0  0.83137664891E+00  0.22971649662E+01 -0.52416715570E+01  0.57830160805E+01  0.51100000000E-03 0.  1.
         12    1    3    3    0    0  0.23723129158E+02  0.59318509701E+01 -0.14786258401E+02  0.28576338998E+02  0.00000000000E+00 0. -1.
</event>
<event>
 7    1  0.5022032E-011  0.4778727E+02  0.7816164E-02  0.1312668E+00
        -11   -1    0    0    0    0  0.00000000000E+00  0.00000000000E+00  0.45593999997E+02  0.45594000000E+02  0.51100000000E-03 0. -1.
         11   -1    0    0    0    0 -0.00000000000E+00 -0.00000000000E+00 -0.45593999997E+02  0.45594000000E+02  0.51100000000E-03 0.  1.
    9900012    2    1    2    0    0 -0.50185242684E+01  0.11477440772E+02 -0.41553649076E+02  0.47787274384E+02  0.20000015225E+02 0.  0.
         12    1    1    2    0    0  0.50185242684E+01 -0.11477440772E+02  0.41553649076E+02  0.43400725616E+02  0.00000000000E+00 0. -1.
         11    1    3    3    0    0 -0.47147740553E+01 -0.23976850404E+01 -0.57913614151E+01  0.78433318970E+01  0.51100000000E-03 0. -1.
        -11    1    3    3    0    0  0.31748131609E+01  0.16891797318E+01 -0.16495835566E+02  0.16883286352E+02  0.51100000000E-03 0.  1.
         12    1    3    3    0    0 -0.34785633741E+01  0.12185946080E+02 -0.19266452095E+02  0.23060656135E+02  0.00000000000E+00 0. -1.
</event>
<event>
 7    1  0.5022032E-011  0.4778728E+02  0.7816164E-02  0.1312668E+00
        -11   -1    0    0    0    0  0.00000000000E+00  0.00000000000E+00  0.45593999997E+02  0.45594000000E+02  0.51100000000E-03 0. -1.
         11   -1    0    0    0    0 -0.00000000000E+00 -0.00000000000E+00 -0.45593999997E+02  0.45594000000E+02  0.51100000000E-03 0.  1.
    9900012    2    1    2    0    0  0.17136441779E+02 -0.12890981650E+02  0.37733106227E+02  0.47787281685E+02  0.20000048513E+02 0.  0.
        -12    1    1    2    0    0 -0.17136441779E+02  0.12890981650E+02 -0.37733106227E+02  0.43400718315E+02  0.00000000000E+00 0.  1.
         11    1    3    3    0    0  0.21160009035E+00 -0.27285034257E+01 -0.21342058833E+00  0.27450053098E+01  0.51100000000E-03 0. -1.
        -11    1    3    3    0    0 -0.22682611060E+01 -0.83205103801E+00  0.16133119752E+01  0.29051838437E+01  0.51100000000E-03 0.  1.
         12    1    3    3    0    0  0.19193102795E+02 -0.93304271858E+01  0.36333214840E+02  0.42137092531E+02  0.00000000000E+00 0. -1.
</event>
<event>
 7    1  0.5022032E-011  0.4778726E+02  0.7816164E-02  0.1312668E+00
        -11   -1    0    0    0    0  0.00000000000E+00  0.00000000000E+00  0.45593999997E+02  0.45594000000E+02  0.51100000000E-03 0. -1.
         11   -1    0    0    0    0 -0.00000000000E+00 -0.00000000000E+00 -0.45593999997E+02  0.45594000000E+02  0.51100000000E-03 0.  1.
    9900012    2    1    2    0    0  0.62334398617E+01 -0.32598644310E+02  0.27965994202E+02  0.47787260201E+02  0.19999950560E+02 0.  0.
        -12    1    1    2    0    0 -0.62334398617E+01  0.32598644310E+02 -0.27965994202E+02  0.43400739799E+02  0.00000000000E+00 0.  1.
         11    1    3    3    0    0 -0.86124541451E+00 -0.50688092214E+01  0.77320693991E+01  0.92854438796E+01  0.51100000000E-03 0. -1.
        -11    1    3    3    0    0  0.87413601959E+00 -0.20032450896E+02  0.20607146140E+02  0.28752698568E+02  0.51100000000E-03 0.  1.
        -12    1    3    3    0    0  0.62205492567E+01 -0.74973841932E+01 -0.37322133676E+00  0.97491177530E+01  0.00000000000E+00 0.  1.
</event>
<event>
 7    1  0.5022032E-011  0.4778727E+02  0.7816164E-02  0.1312668E+00
        -11   -1    0    0    0    0  0.00000000000E+00  0.00000000000E+00  0.45593999997E+02  0.45594000000E+02  0.51100000000E-03 0.  1.
         11   -1    0    0    0    0 -0.00000000000E+00 -0.00000000000E+00 -0.45593999997E+02  0.45594000000E+02  0.51100000000E-03 0. -1.
    9900012    2    1    2    0    0 -0.37271276448E+02 -0.22235567101E+02  0.23396707224E+00  0.47787271516E+02  0.20000002151E+02 0.  0.
        -12    1    1    2    0    0  0.37271276448E+02  0.22235567101E+02 -0.23396707224E+00  0.43400728484E+02  0.00000000000E+00 0.  1.
         11    1    3    3    0    0 -0.12323856966E+02 -0.63063555681E+01 -0.38995335475E+01  0.14382417503E+02  0.51100000000E-03 0. -1.
        -11    1    3    3    0    0 -0.91695220685E+01  0.18131035496E+01  0.28086219579E+00  0.93512760242E+01  0.51100000000E-03 0.  1.
        -12    1    3    3    0    0 -0.15777897413E+02 -0.17742315082E+02  0.38526384240E+01  0.24053577989E+02  0.00000000000E+00 0.  1.
</event>
<event>
 7    1  0.5022032E-011  0.4778731E+02  0.7816164E-02  0.1312668E+00
        -11   -1    0    0    0    0  0.00000000000E+00  0.00000000000E+00  0.45593999997E+02  0.45594000000E+02  0.51100000000E-03 0. -1.
         11   -1    0    0    0    0 -0.00000000000E+00 -0.00000000000E+00 -0.45593999997E+02  0.45594000000E+02  0.51100000000E-03 0.  1.
    9900012    2    1    2    0    0  0.17959248044E+02  0.77495068624E+01  0.38743135544E+02  0.47787308777E+02  0.20000172036E+02 0.  0.
        -12    1    1    2    0    0 -0.17959248044E+02 -0.77495068624E+01 -0.38743135544E+02  0.43400691223E+02  0.00000000000E+00 0.  1.
         11    1    3    3    0    0  0.44909592328E+01 -0.15015580011E+00  0.34224168123E+01  0.56483801832E+01  0.51100000000E-03 0. -1.
        -11    1    3    3    0    0  0.90155114460E+01 -0.54277351094E+00  0.49408357862E+01  0.10294945762E+02  0.51100000000E-03 0.  1.
         12    1    3    3    0    0  0.44527773650E+01  0.84424361734E+01  0.30379882945E+02  0.31843982831E+02  0.00000000000E+00 0. -1.
</event>
<event>
 7    1  0.5022032E-011  0.4778727E+02  0.7816164E-02  0.1312668E+00
        -11   -1    0    0    0    0  0.00000000000E+00  0.00000000000E+00  0.45593999997E+02  0.45594000000E+02  0.51100000000E-03 0.  1.
         11   -1    0    0    0    0 -0.00000000000E+00 -0.00000000000E+00 -0.45593999997E+02  0.45594000000E+02  0.51100000000E-03 0. -1.
    9900012    2    1    2    0    0 -0.20525298675E+02  0.36123856057E+02  0.12546013920E+02  0.47787270427E+02  0.19999997186E+02 0.  0.
         12    1    1    2    0    0  0.20525298675E+02 -0.36123856057E+02 -0.12546013920E+02  0.43400729573E+02  0.00000000000E+00 0. -1.
         11    1    3    3    0    0 -0.78108974090E+01  0.25410206482E+02  0.32416767280E+01  0.26780537337E+02  0.51100000000E-03 0. -1.
        -11    1    3    3    0    0 -0.58456943875E+01  0.87741194711E+01  0.18824111671E+01  0.10709845350E+02  0.51100000000E-03 0.  1.
        -12    1    3    3    0    0 -0.68687068788E+01  0.19395301044E+01  0.74219260248E+01  0.10296887740E+02  0.00000000000E+00 0.  1.
</event>
<event>
 7    1  0.5022032E-011  0.4778727E+02  0.7816164E-02  0.1312668E+00
        -11   -1    0    0    0    0  0.00000000000E+00  0.00000000000E+00  0.45593999997E+02  0.45594000000E+02  0.51100000000E-03 0.  1.
         11   -1    0    0    0    0 -0.00000000000E+00 -0.00000000000E+00 -0.45593999997E+02  0.45594000000E+02  0.51100000000E-03 0. -1.
    9900012    2    1    2    0    0 -0.17881458273E+02  0.38390486290E+02 -0.94893230619E+01  0.47787271438E+02  0.20000001793E+02 0.  0.
         12    1    1    2    0    0  0.17881458273E+02 -0.38390486290E+02  0.94893230619E+01  0.43400728562E+02  0.00000000000E+00 0. -1.
         11    1    3    3    0    0 -0.56998151744E+01  0.94264796435E+01  0.44783023335E+01  0.11891240622E+02  0.51100000000E-03 0. -1.
        -11    1    3    3    0    0 -0.68875869641E+01  0.15794977830E+02 -0.20311186348E+01  0.17350666328E+02  0.51100000000E-03 0.  1.
        -12    1    3    3    0    0 -0.52940561342E+01  0.13169028816E+02 -0.11936506761E+02  0.18545364487E+02  0.00000000000E+00 0.  1.
</event>
<event>
 7    1  0.5022032E-011  0.4778727E+02  0.7816164E-02  0.1312668E+00
        -11   -1    0    0    0    0  0.00000000000E+00  0.00000000000E+00  0.45593999997E+02  0.45594000000E+02  0.51100000000E-03 0. -1.
         11   -1    0    0    0    0 -0.00000000000E+00 -0.00000000000E+00 -0.45593999997E+02  0.45594000000E+02  0.51100000000E-03 0.  1.
    9900012    2    1    2    0    0 -0.14090615220E+01 -0.14234270522E+02  0.40975889419E+02  0.47787269300E+02  0.19999992045E+02 0.  0.
        -12    1    1    2    0    0  0.14090615220E+01  0.14234270522E+02 -0.40975889419E+02  0.43400730700E+02  0.00000000000E+00 0.  1.
         11    1    3    3    0    0  0.44170797246E+01 -0.59157021704E+01  0.61832795007E+01  0.96301127256E+01  0.51100000000E-03 0. -1.
        -11    1    3    3    0    0 -0.22165487670E+01 -0.83304306285E+01  0.10442056500E+02  0.13540520932E+02  0.51100000000E-03 0.  1.
        -12    1    3    3    0    0 -0.36095924796E+01  0.11862277019E-01  0.24350553418E+02  0.24616635642E+02  0.00000000000E+00 0.  1.
</event>
<event>
 7    1  0.5022032E-011  0.4778727E+02  0.7816164E-02  0.1312668E+00
        -11   -1    0    0    0    0  0.00000000000E+00  0.00000000000E+00  0.45593999997E+02  0.45594000000E+02  0.51100000000E-03 0.  1.
         11   -1    0    0    0    0 -0.00000000000E+00 -0.00000000000E+00 -0.45593999997E+02  0.45594000000E+02  0.51100000000E-03 0. -1.
    9900012    2    1    2    0    0 -0.22137186021E+02 -0.37188373268E+02 -0.32547078714E+01  0.47787271497E+02  0.20000002063E+02 0.  0.
         12    1    1    2    0    0  0.22137186021E+02  0.37188373268E+02  0.32547078714E+01  0.43400728503E+02  0.00000000000E+00 0. -1.
         11    1    3    3    0    0 -0.16780118502E+02 -0.10475721257E+02 -0.31169892636E+01  0.20025701863E+02  0.51100000000E-03 0. -1.
        -11    1    3    3    0    0 -0.35956389388E+01 -0.61632601744E+01 -0.14091345217E+00  0.71368236784E+01  0.51100000000E-03 0.  1.
         12    1    3    3    0    0 -0.17614285809E+01 -0.20549391837E+02  0.31948443680E-02  0.20624745955E+02  0.00000000000E+00 0. -1.
</event>
<event>
 7    1  0.5022032E-011  0.4778729E+02  0.7816164E-02  0.1312668E+00
        -11   -1    0    0    0    0  0.00000000000E+00  0.00000000000E+00  0.45593999997E+02  0.45594000000E+02  0.51100000000E-03 0.  1.
         11   -1    0    0    0    0 -0.00000000000E+00 -0.00000000000E+00 -0.45593999997E+02  0.45594000000E+02  0.51100000000E-03 0. -1.
    9900012    2    1    2    0    0 -0.80470535895E+01 -0.35078616350E+02 -0.24256074185E+02  0.47787291119E+02  0.20000091528E+02 0.  0.
         12    1    1    2    0    0  0.80470535895E+01  0.35078616350E+02  0.24256074185E+02  0.43400708881E+02  0.00000000000E+00 0. -1.
         11    1    3    3    0    0 -0.25026198298E+01 -0.25819701389E+01 -0.50931574511E+01  0.62345752777E+01  0.51100000000E-03 0. -1.
        -11    1    3    3    0    0 -0.73316968326E+01 -0.17783450805E+02 -0.27383445466E+01  0.19429447550E+02  0.51100000000E-03 0.  1.
        -12    1    3    3    0    0  0.17872630729E+01 -0.14713195406E+02 -0.16424572187E+02  0.22123268291E+02  0.00000000000E+00 0.  1.
</event>
<event>
 7    1  0.5022032E-011  0.4778727E+02  0.7816164E-02  0.1312668E+00
        -11   -1    0    0    0    0  0.00000000000E+00  0.00000000000E+00  0.45593999997E+02  0.45594000000E+02  0.51100000000E-03 0. -1.
         11   -1    0    0    0    0 -0.00000000000E+00 -0.00000000000E+00 -0.45593999997E+02  0.45594000000E+02  0.51100000000E-03 0.  1.
    9900012    2    1    2    0    0  0.26930248526E+02  0.29497682802E+02  0.16978563385E+02  0.47787271999E+02  0.20000004354E+02 0.  0.
        -12    1    1    2    0    0 -0.26930248526E+02 -0.29497682802E+02 -0.16978563385E+02  0.43400728001E+02  0.00000000000E+00 0.  1.
         11    1    3    3    0    0  0.52878986180E+01  0.12563466405E+02  0.48054522540E+01  0.14453197969E+02  0.51100000000E-03 0. -1.
        -11    1    3    3    0    0  0.68475468500E+01  0.14303925347E+02  0.46314243990E+01  0.16520934309E+02  0.51100000000E-03 0.  1.
        -12    1    3    3    0    0  0.14794803058E+02  0.26302910496E+01  0.75416867317E+01  0.16813139722E+02  0.00000000000E+00 0.  1.
</event>
<event>
 7    1  0.5022032E-011  0.4778727E+02  0.7816164E-02  0.1312668E+00
        -11   -1    0    0    0    0  0.00000000000E+00  0.00000000000E+00  0.45593999997E+02  0.45594000000E+02  0.51100000000E-03 0. -1.
         11   -1    0    0    0    0 -0.00000000000E+00 -0.00000000000E+00 -0.45593999997E+02  0.45594000000E+02  0.51100000000E-03 0.  1.
    9900012    2    1    2    0    0  0.25297120262E+01 -0.34164608268E+00 -0.43325591701E+02  0.47787273494E+02  0.20000011171E+02 0.  0.
         12    1    1    2    0    0 -0.25297120262E+01  0.34164608268E+00  0.43325591701E+02  0.43400726506E+02  0.00000000000E+00 0. -1.
         11    1    3    3    0    0  0.48929838255E+01 -0.19834309933E+01 -0.20235573623E+02  0.20913003833E+02  0.51100000000E-03 0. -1.
        -11    1    3    3    0    0  0.50126714423E+01  0.61479063923E-02 -0.14952044488E+02  0.15769925410E+02  0.51100000000E-03 0.  1.
         12    1    3    3    0    0 -0.73759432416E+01  0.16356370042E+01 -0.81379735899E+01  0.11104344252E+02  0.00000000000E+00 0. -1.
</event>
<event>
 7    1  0.5022032E-011  0.4778728E+02  0.7816164E-02  0.1312668E+00
        -11   -1    0    0    0    0  0.00000000000E+00  0.00000000000E+00  0.45593999997E+02  0.45594000000E+02  0.51100000000E-03 0. -1.
         11   -1    0    0    0    0 -0.00000000000E+00 -0.00000000000E+00 -0.45593999997E+02  0.45594000000E+02  0.51100000000E-03 0.  1.
    9900012    2    1    2    0    0 -0.75948293233E+01  0.12386416661E+02 -0.40896430920E+02  0.47787276364E+02  0.20000024254E+02 0.  0.
         12    1    1    2    0    0  0.75948293233E+01 -0.12386416661E+02  0.40896430920E+02  0.43400723636E+02  0.00000000000E+00 0. -1.
         11    1    3    3    0    0 -0.20665842136E+01  0.82911571398E+00  0.18046213414E+01  0.28661579904E+01  0.51100000000E-03 0. -1.
        -11    1    3    3    0    0 -0.21089116766E+00  0.31362181650E+01 -0.48327090732E+01  0.57650166270E+01  0.51100000000E-03 0.  1.
        -12    1    3    3    0    0 -0.53173539420E+01  0.84210827817E+01 -0.37868343188E+02  0.39156101746E+02  0.00000000000E+00 0.  1.
</event>
<event>
 7    1  0.5022032E-011  0.4778728E+02  0.7816164E-02  0.1312668E+00
        -11   -1    0    0    0    0  0.00000000000E+00  0.00000000000E+00  0.45593999997E+02  0.45594000000E+02  0.51100000000E-03 0. -1.
         11   -1    0    0    0    0 -0.00000000000E+00 -0.00000000000E+00 -0.45593999997E+02  0.45594000000E+02  0.51100000000E-03 0.  1.
    9900012    2    1    2    0    0  0.13823862740E+02 -0.93914107104E+01  0.40054026065E+02  0.47787276732E+02  0.20000025932E+02 0.  0.
        -12    1    1    2    0    0 -0.13823862740E+02  0.93914107104E+01 -0.40054026065E+02  0.43400723268E+02  0.00000000000E+00 0.  1.
         11    1    3    3    0    0 -0.27779115100E+00 -0.40934948766E+01  0.40397250439E+01  0.57578856292E+01  0.51100000000E-03 0. -1.
        -11    1    3    3    0    0  0.37454557410E+01 -0.40152624545E+01  0.11145986232E+01  0.56029547239E+01  0.51100000000E-03 0.  1.
         12    1    3    3    0    0  0.10356198150E+02 -0.12826533793E+01  0.34899702398E+02  0.36426436379E+02  0.00000000000E+00 0. -1.
</event>
<event>
 7    1  0.5022032E-011  0.4778727E+02  0.7816164E-02  0.1312668E+00
        -11   -1    0    0    0    0  0.00000000000E+00  0.00000000000E+00  0.45593999997E+02  0.45594000000E+02  0.51100000000E-03 0. -1.
         11   -1    0    0    0    0 -0.00000000000E+00 -0.00000000000E+00 -0.45593999997E+02  0.45594000000E+02  0.51100000000E-03 0.  1.
    9900012    2    1    2    0    0 -0.89553360235E+01  0.28489271504E+02  0.31492641500E+02  0.47787273015E+02  0.20000008987E+02 0.  0.
        -12    1    1    2    0    0  0.89553360235E+01 -0.28489271504E+02 -0.31492641500E+02  0.43400726985E+02  0.00000000000E+00 0.  1.
         11    1    3    3    0    0 -0.89692444310E+00  0.56912907028E+01  0.97103439879E+01  0.11290971789E+02  0.51100000000E-03 0. -1.
        -11    1    3    3    0    0 -0.55394268163E+01  0.31116902933E+01 -0.83228743715E+00  0.64078521030E+01  0.51100000000E-03 0.  1.
        -12    1    3    3    0    0 -0.25189847641E+01  0.19686290508E+02  0.22614584950E+02  0.30088449123E+02  0.00000000000E+00 0.  1.
</event>
<event>
 7    1  0.5022032E-011  0.4778727E+02  0.7816164E-02  0.1312668E+00
        -11   -1    0    0    0    0  0.00000000000E+00  0.00000000000E+00  0.45593999997E+02  0.45594000000E+02  0.51100000000E-03 0. -1.
         11   -1    0    0    0    0 -0.00000000000E+00 -0.00000000000E+00 -0.45593999997E+02  0.45594000000E+02  0.51100000000E-03 0.  1.
    9900012    2    1    2    0    0 -0.32559095333E+02  0.21384111127E+02 -0.19137613593E+02  0.47787272453E+02  0.20000006420E+02 0.  0.
         12    1    1    2    0    0  0.32559095333E+02 -0.21384111127E+02  0.19137613593E+02  0.43400727547E+02  0.00000000000E+00 0. -1.
         11    1    3    3    0    0 -0.11717560945E+02  0.17904536093E+00 -0.28086274122E+01  0.12050795822E+02  0.51100000000E-03 0. -1.
        -11    1    3    3    0    0 -0.16713107674E+02  0.92371579164E+01 -0.90324271218E+01  0.21124341279E+02  0.51100000000E-03 0.  1.
         12    1    3    3    0    0 -0.41284267141E+01  0.11967907850E+02 -0.72965590593E+01  0.14612135352E+02  0.00000000000E+00 0. -1.
</event>
<event>
 7    1  0.5022032E-011  0.4778727E+02  0.7816164E-02  0.1312668E+00
        -11   -1    0    0    0    0  0.00000000000E+00  0.00000000000E+00  0.45593999997E+02  0.45594000000E+02  0.51100000000E-03 0. -1.
         11   -1    0    0    0    0 -0.00000000000E+00 -0.00000000000E+00 -0.45593999997E+02  0.45594000000E+02  0.51100000000E-03 0.  1.
    9900012    2    1    2    0    0  0.22751963185E+01  0.33936483700E+02  0.26958525566E+02  0.47787267922E+02  0.19999985763E+02 0.  0.
        -12    1    1    2    0    0 -0.22751963185E+01 -0.33936483700E+02 -0.26958525566E+02  0.43400732078E+02  0.00000000000E+00 0.  1.
         11    1    3    3    0    0 -0.19197292480E+01 -0.93808960947E+00  0.23789168936E+01  0.31975957138E+01  0.51100000000E-03 0. -1.
        -11    1    3    3    0    0 -0.14548916984E+01  0.14894438134E+02  0.43120829256E+01  0.15574179163E+02  0.51100000000E-03 0.  1.
         12    1    3    3    0    0  0.56498172649E+01  0.19980135176E+02  0.20267525747E+02  0.29015493045E+02  0.00000000000E+00 0. -1.
</event>
<event>
 7    1  0.5022032E-011  0.4778726E+02  0.7816164E-02  0.1312668E+00
        -11   -1    0    0    0    0  0.00000000000E+00  0.00000000000E+00  0.45593999997E+02  0.45594000000E+02  0.51100000000E-03 0. -1.
         11   -1    0    0    0    0 -0.00000000000E+00 -0.00000000000E+00 -0.45593999997E+02  0.45594000000E+02  0.51100000000E-03 0.  1.
    9900012    2    1    2    0    0 -0.13379236325E+02  0.23836521642E+02 -0.33711136261E+02  0.47787257649E+02  0.19999938924E+02 0.  0.
         12    1    1    2    0    0  0.13379236325E+02 -0.23836521642E+02  0.33711136261E+02  0.43400742351E+02  0.00000000000E+00 0. -1.
         11    1    3    3    0    0 -0.62636434349E+01  0.52486595678E+01 -0.14363226987E+02  0.16525251771E+02  0.51100000000E-03 0. -1.
        -11    1    3    3    0    0 -0.11025337167E+02  0.14558618322E+02 -0.11390499184E+02  0.21523357057E+02  0.51100000000E-03 0.  1.
        -12    1    3    3    0    0  0.39097442770E+01  0.40292437525E+01 -0.79574100892E+01  0.97386488208E+01  0.00000000000E+00 0.  1.
</event>
<event>
 7    1  0.5022032E-011  0.4778727E+02  0.7816164E-02  0.1312668E+00
        -11   -1    0    0    0    0  0.00000000000E+00  0.00000000000E+00  0.45593999997E+02  0.45594000000E+02  0.51100000000E-03 0.  1.
         11   -1    0    0    0    0 -0.00000000000E+00 -0.00000000000E+00 -0.45593999997E+02  0.45594000000E+02  0.51100000000E-03 0. -1.
    9900012    2    1    2    0    0  0.31302141612E+02 -0.25375364535E+02  0.16121105137E+02  0.47787271601E+02  0.20000002535E+02 0.  0.
        -12    1    1    2    0    0 -0.31302141612E+02  0.25375364535E+02 -0.16121105137E+02  0.43400728399E+02  0.00000000000E+00 0.  1.
         11    1    3    3    0    0  0.43357805595E+01  0.13587755242E+01  0.29052925836E+01  0.53931427983E+01  0.51100000000E-03 0. -1.
        -11    1    3    3    0    0  0.98531754660E+01 -0.93888164478E+01  0.11755401926E+02  0.17984004442E+02  0.51100000000E-03 0.  1.
         12    1    3    3    0    0  0.17113185587E+02 -0.17345323611E+02  0.14604106271E+01  0.24410124360E+02  0.00000000000E+00 0. -1.
</event>
<event>
 7    1  0.5022032E-011  0.4778727E+02  0.7816164E-02  0.1312668E+00
        -11   -1    0    0    0    0  0.00000000000E+00  0.00000000000E+00  0.45593999997E+02  0.45594000000E+02  0.51100000000E-03 0. -1.
         11   -1    0    0    0    0 -0.00000000000E+00 -0.00000000000E+00 -0.45593999997E+02  0.45594000000E+02  0.51100000000E-03 0.  1.
    9900012    2    1    2    0    0 -0.37066913129E+02 -0.68725155394E+00 -0.22565340287E+02  0.47787274823E+02  0.20000017229E+02 0.  0.
         12    1    1    2    0    0  0.37066913129E+02  0.68725155394E+00  0.22565340287E+02  0.43400725177E+02  0.00000000000E+00 0. -1.
         11    1    3    3    0    0 -0.20516663699E+01 -0.27350391280E+01 -0.25903237900E+01  0.42894698417E+01  0.51100000000E-03 0. -1.
        -11    1    3    3    0    0 -0.15199372897E+02  0.87942081715E+01 -0.11007968847E+02  0.20725211995E+02  0.51100000000E-03 0.  1.
        -12    1    3    3    0    0 -0.19815873862E+02 -0.67464205975E+01 -0.89670476499E+01  0.22772592987E+02  0.00000000000E+00 0.  1.
</event>
<event>
 7    1  0.5022032E-011  0.4778728E+02  0.7816164E-02  0.1312668E+00
        -11   -1    0    0    0    0  0.00000000000E+00  0.00000000000E+00  0.45593999997E+02  0.45594000000E+02  0.51100000000E-03 0. -1.
         11   -1    0    0    0    0 -0.00000000000E+00 -0.00000000000E+00 -0.45593999997E+02  0.45594000000E+02  0.51100000000E-03 0.  1.
    9900012    2    1    2    0    0 -0.20928859294E+02 -0.12742478766E+02  0.35822263536E+02  0.47787280176E+02  0.20000041633E+02 0.  0.
        -12    1    1    2    0    0  0.20928859294E+02  0.12742478766E+02 -0.35822263536E+02  0.43400719824E+02  0.00000000000E+00 0.  1.
         11    1    3    3    0    0 -0.10345899589E+02 -0.83815112733E+01  0.29283658263E+02  0.32168618420E+02  0.51100000000E-03 0. -1.
        -11    1    3    3    0    0  0.33564172222E+00 -0.10431627988E+01 -0.13552861534E+01  0.17428840492E+01  0.51100000000E-03 0.  1.
        -12    1    3    3    0    0 -0.10918601427E+02 -0.33178046941E+01  0.78938914261E+01  0.13875777706E+02  0.00000000000E+00 0.  1.
</event>
<event>
 7    1  0.5022032E-011  0.4778728E+02  0.7816164E-02  0.1312668E+00
        -11   -1    0    0    0    0  0.00000000000E+00  0.00000000000E+00  0.45593999997E+02  0.45594000000E+02  0.51100000000E-03 0.  1.
         11   -1    0    0    0    0 -0.00000000000E+00 -0.00000000000E+00 -0.45593999997E+02  0.45594000000E+02  0.51100000000E-03 0. -1.
    9900012    2    1    2    0    0  0.26584679818E+01  0.40837568009E+02 -0.14451592159E+02  0.47787275020E+02  0.20000018125E+02 0.  0.
         12    1    1    2    0    0 -0.26584679818E+01 -0.40837568009E+02  0.14451592159E+02  0.43400724980E+02  0.00000000000E+00 0. -1.
         11    1    3    3    0    0 -0.28350780049E+01  0.14162400393E+01  0.17905287280E+01  0.36399720507E+01  0.51100000000E-03 0. -1.
        -11    1    3    3    0    0 -0.16790251371E+01  0.21069662639E+02 -0.61696750992E+01  0.22018508129E+02  0.51100000000E-03 0.  1.
         12    1    3    3    0    0  0.71725711238E+01  0.18351665330E+02 -0.10072445788E+02  0.22128794840E+02  0.00000000000E+00 0. -1.
</event>
<event>
 7    1  0.5022032E-011  0.4778727E+02  0.7816164E-02  0.1312668E+00
        -11   -1    0    0    0    0  0.00000000000E+00  0.00000000000E+00  0.45593999997E+02  0.45594000000E+02  0.51100000000E-03 0. -1.
         11   -1    0    0    0    0 -0.00000000000E+00 -0.00000000000E+00 -0.45593999997E+02  0.45594000000E+02  0.51100000000E-03 0.  1.
    9900012    2    1    2    0    0  0.81858431620E+01 -0.35863018893E+01  0.42470622708E+02  0.47787269791E+02  0.19999994284E+02 0.  0.
        -12    1    1    2    0    0 -0.81858431620E+01  0.35863018893E+01 -0.42470622708E+02  0.43400730209E+02  0.00000000000E+00 0.  1.
         11    1    3    3    0    0  0.10926574529E+01  0.45342053159E+01  0.10396660446E+02  0.11394887750E+02  0.51100000000E-03 0. -1.
        -11    1    3    3    0    0 -0.41359309196E-01  0.13023534301E+01  0.17855649237E+02  0.17903129474E+02  0.51100000000E-03 0.  1.
        -12    1    3    3    0    0  0.71345450183E+01 -0.94228606352E+01  0.14218313025E+02  0.18489252566E+02  0.00000000000E+00 0.  1.
</event>
<event>
 7    1  0.5022032E-011  0.4778727E+02  0.7816164E-02  0.1312668E+00
        -11   -1    0    0    0    0  0.00000000000E+00  0.00000000000E+00  0.45593999997E+02  0.45594000000E+02  0.51100000000E-03 0. -1.
         11   -1    0    0    0    0 -0.00000000000E+00 -0.00000000000E+00 -0.45593999997E+02  0.45594000000E+02  0.51100000000E-03 0.  1.
    9900012    2    1    2    0    0 -0.12408708650E+02 -0.21073161404E+02  0.35854831795E+02  0.47787272530E+02  0.20000006772E+02 0.  0.
        -12    1    1    2    0    0  0.12408708650E+02  0.21073161404E+02 -0.35854831795E+02  0.43400727470E+02  0.00000000000E+00 0.  1.
         11    1    3    3    0    0 -0.72707144139E+01 -0.63519478380E+01  0.12790046173E+02  0.16024849790E+02  0.51100000000E-03 0. -1.
        -11    1    3    3    0    0 -0.23730770892E+01  0.29518338619E+01  0.56144873566E+01  0.67725391515E+01  0.51100000000E-03 0.  1.
        -12    1    3    3    0    0 -0.27649171469E+01 -0.17673047428E+02  0.17450298265E+02  0.24989883588E+02  0.00000000000E+00 0.  1.
</event>
<event>
 7    1  0.5022032E-011  0.4778727E+02  0.7816164E-02  0.1312668E+00
        -11   -1    0    0    0    0  0.00000000000E+00  0.00000000000E+00  0.45593999997E+02  0.45594000000E+02  0.51100000000E-03 0. -1.
         11   -1    0    0    0    0 -0.00000000000E+00 -0.00000000000E+00 -0.45593999997E+02  0.45594000000E+02  0.51100000000E-03 0.  1.
    9900012    2    1    2    0    0 -0.55521534709E+01  0.54786561620E+01  0.42694041095E+02  0.47787271590E+02  0.20000002486E+02 0.  0.
        -12    1    1    2    0    0  0.55521534709E+01 -0.54786561620E+01 -0.42694041095E+02  0.43400728410E+02  0.00000000000E+00 0.  1.
         11    1    3    3    0    0  0.15245670699E+01 -0.13438505752E+01  0.16440432433E+02  0.16565568447E+02  0.51100000000E-03 0. -1.
        -11    1    3    3    0    0  0.34423703042E+01  0.48818662901E+01  0.70537754129E+01  0.92432829461E+01  0.51100000000E-03 0.  1.
         12    1    3    3    0    0 -0.10519090845E+02  0.19406404471E+01  0.19199833249E+02  0.21978420196E+02  0.00000000000E+00 0. -1.
</event>
<event>
 7    1  0.5022032E-011  0.4778727E+02  0.7816164E-02  0.1312668E+00
        -11   -1    0    0    0    0  0.00000000000E+00  0.00000000000E+00  0.45593999997E+02  0.45594000000E+02  0.51100000000E-03 0. -1.
         11   -1    0    0    0    0 -0.00000000000E+00 -0.00000000000E+00 -0.45593999997E+02  0.45594000000E+02  0.51100000000E-03 0.  1.
    9900012    2    1    2    0    0 -0.37506605453E+02 -0.17065541482E+02  0.13625162659E+02  0.47787271710E+02  0.20000003034E+02 0.  0.
        -12    1    1    2    0    0  0.37506605453E+02  0.17065541482E+02 -0.13625162659E+02  0.43400728290E+02  0.00000000000E+00 0.  1.
         11    1    3    3    0    0 -0.96553472036E+01 -0.18072059722E+01 -0.27094060642E+01  0.10189828484E+02  0.51100000000E-03 0. -1.
        -11    1    3    3    0    0 -0.93396072034E+01 -0.16299676541E+01  0.14598289127E+00  0.94818968847E+01  0.51100000000E-03 0.  1.
         12    1    3    3    0    0 -0.18511651046E+02 -0.13628367855E+02  0.16188585832E+02  0.28115546341E+02  0.00000000000E+00 0. -1.
</event>
<event>
 7    1  0.5022032E-011  0.4778727E+02  0.7816164E-02  0.1312668E+00
        -11   -1    0    0    0    0  0.00000000000E+00  0.00000000000E+00  0.45593999997E+02  0.45594000000E+02  0.51100000000E-03 0. -1.
         11   -1    0    0    0    0 -0.00000000000E+00 -0.00000000000E+00 -0.45593999997E+02  0.45594000000E+02  0.51100000000E-03 0.  1.
    9900012    2    1    2    0    0 -0.96656922954E+01 -0.33661431226E+02  0.25634075112E+02  0.47787269976E+02  0.19999995130E+02 0.  0.
        -12    1    1    2    0    0  0.96656922954E+01  0.33661431226E+02 -0.25634075112E+02  0.43400730024E+02  0.00000000000E+00 0.  1.
         11    1    3    3    0    0  0.30936324280E+00 -0.17359439888E+01  0.21715707373E+01  0.27973070758E+01  0.51100000000E-03 0. -1.
        -11    1    3    3    0    0 -0.14518047191E+02 -0.25420517585E+02  0.13453505216E+02  0.32217591644E+02  0.51100000000E-03 0.  1.
        -12    1    3    3    0    0  0.45429916525E+01 -0.65049696518E+01  0.10008999160E+02  0.12772371256E+02  0.00000000000E+00 0.  1.
</event>
<event>
 7    1  0.5022032E-011  0.4778727E+02  0.7816164E-02  0.1312668E+00
        -11   -1    0    0    0    0  0.00000000000E+00  0.00000000000E+00  0.45593999997E+02  0.45594000000E+02  0.51100000000E-03 0. -1.
         11   -1    0    0    0    0 -0.00000000000E+00 -0.00000000000E+00 -0.45593999997E+02  0.45594000000E+02  0.51100000000E-03 0.  1.
    9900012    2    1    2    0    0 -0.31442949481E+02  0.16975813840E+02  0.24633029388E+02  0.47787268849E+02  0.19999989990E+02 0.  0.
        -12    1    1    2    0    0  0.31442949481E+02 -0.16975813840E+02 -0.24633029388E+02  0.43400731151E+02  0.00000000000E+00 0.  1.
         11    1    3    3    0    0 -0.50318942837E+01  0.12807627798E+01  0.74857269703E+01  0.91102372041E+01  0.51100000000E-03 0.  1.
        -11    1    3    3    0    0 -0.28259662773E+02  0.16402338806E+02  0.16417614998E+02  0.36567517565E+02  0.51100000000E-03 0. -1.
         12    1    3    3    0    0  0.18486075762E+01 -0.70728774480E+00  0.72968741981E+00  0.21095140804E+01  0.00000000000E+00 0. -1.
</event>
<event>
 7    1  0.5022032E-011  0.4778727E+02  0.7816164E-02  0.1312668E+00
        -11   -1    0    0    0    0  0.00000000000E+00  0.00000000000E+00  0.45593999997E+02  0.45594000000E+02  0.51100000000E-03 0. -1.
         11   -1    0    0    0    0 -0.00000000000E+00 -0.00000000000E+00 -0.45593999997E+02  0.45594000000E+02  0.51100000000E-03 0.  1.
    9900012    2    1    2    0    0 -0.17065864775E+02  0.82664660042E+01  0.39039019016E+02  0.47787271821E+02  0.20000003541E+02 0.  0.
        -12    1    1    2    0    0  0.17065864775E+02 -0.82664660042E+01 -0.39039019016E+02  0.43400728179E+02  0.00000000000E+00 0.  1.
         11    1    3    3    0    0 -0.11570271710E+02  0.69881150919E+01  0.13995913356E+02  0.19457402984E+02  0.51100000000E-03 0. -1.
        -11    1    3    3    0    0 -0.20964968877E+01 -0.17240299628E+01 -0.16280397155E+00  0.27192064848E+01  0.51100000000E-03 0.  1.
         12    1    3    3    0    0 -0.33990961778E+01  0.30023808752E+01  0.25205909632E+02  0.25610662352E+02  0.00000000000E+00 0. -1.
</event>
<event>
 7    1  0.5022032E-011  0.4778729E+02  0.7816164E-02  0.1312668E+00
        -11   -1    0    0    0    0  0.00000000000E+00  0.00000000000E+00  0.45593999997E+02  0.45594000000E+02  0.51100000000E-03 0. -1.
         11   -1    0    0    0    0 -0.00000000000E+00 -0.00000000000E+00 -0.45593999997E+02  0.45594000000E+02  0.51100000000E-03 0.  1.
    9900012    2    1    2    0    0 -0.14765583413E+02  0.80390602168E+01  0.40012160648E+02  0.47787286383E+02  0.20000069936E+02 0.  0.
        -12    1    1    2    0    0  0.14765583413E+02 -0.80390602168E+01 -0.40012160648E+02  0.43400713617E+02  0.00000000000E+00 0.  1.
         11    1    3    3    0    0 -0.48519577378E+01  0.18705835187E+01  0.12935312368E+02  0.13941408928E+02  0.51100000000E-03 0. -1.
        -11    1    3    3    0    0  0.88689309008E+00  0.87106435953E+01  0.84711288161E+01  0.12182853314E+02  0.51100000000E-03 0.  1.
        -12    1    3    3    0    0 -0.10800518766E+02 -0.25421668972E+01  0.18605719464E+02  0.21663024141E+02  0.00000000000E+00 0.  1.
</event>
<event>
 7    1  0.5022032E-011  0.4778727E+02  0.7816164E-02  0.1312668E+00
        -11   -1    0    0    0    0  0.00000000000E+00  0.00000000000E+00  0.45593999997E+02  0.45594000000E+02  0.51100000000E-03 0. -1.
         11   -1    0    0    0    0 -0.00000000000E+00 -0.00000000000E+00 -0.45593999997E+02  0.45594000000E+02  0.51100000000E-03 0.  1.
    9900012    2    1    2    0    0 -0.20967918602E+02 -0.61038355657E-01 -0.37999547594E+02  0.47787274735E+02  0.20000016827E+02 0.  0.
         12    1    1    2    0    0  0.20967918602E+02  0.61038355657E-01  0.37999547594E+02  0.43400725265E+02  0.00000000000E+00 0. -1.
         11    1    3    3    0    0 -0.14702425518E+01 -0.10977305426E+00  0.24809696225E+00  0.14950637606E+01  0.51100000000E-03 0. -1.
        -11    1    3    3    0    0 -0.11553399152E+01  0.85755758337E+00 -0.21165752360E+02  0.21214600834E+02  0.51100000000E-03 0.  1.
        -12    1    3    3    0    0 -0.18342336135E+02 -0.80882288477E+00 -0.17081892196E+02  0.25077610140E+02  0.00000000000E+00 0.  1.
</event>
<event>
 7    1  0.5022032E-011  0.4778725E+02  0.7816164E-02  0.1312668E+00
        -11   -1    0    0    0    0  0.00000000000E+00  0.00000000000E+00  0.45593999997E+02  0.45594000000E+02  0.51100000000E-03 0. -1.
         11   -1    0    0    0    0 -0.00000000000E+00 -0.00000000000E+00 -0.45593999997E+02  0.45594000000E+02  0.51100000000E-03 0.  1.
    9900012    2    1    2    0    0 -0.12683897441E+02  0.28726502353E+02  0.29958836574E+02  0.47787250230E+02  0.19999905098E+02 0.  0.
        -12    1    1    2    0    0  0.12683897441E+02 -0.28726502353E+02 -0.29958836574E+02  0.43400749770E+02  0.00000000000E+00 0.  1.
         11    1    3    3    0    0 -0.37592259787E+01 -0.13703602355E+01  0.35554601458E+01  0.53526595486E+01  0.51100000000E-03 0. -1.
        -11    1    3    3    0    0 -0.63364149211E+01  0.59604920344E+01  0.47822780449E+01  0.99271246040E+01  0.51100000000E-03 0.  1.
         12    1    3    3    0    0 -0.25882565410E+01  0.24136370554E+02  0.21621098383E+02  0.32507466077E+02  0.00000000000E+00 0. -1.
</event>
<event>
 7    1  0.5022032E-011  0.4778727E+02  0.7816164E-02  0.1312668E+00
        -11   -1    0    0    0    0  0.00000000000E+00  0.00000000000E+00  0.45593999997E+02  0.45594000000E+02  0.51100000000E-03 0. -1.
         11   -1    0    0    0    0 -0.00000000000E+00 -0.00000000000E+00 -0.45593999997E+02  0.45594000000E+02  0.51100000000E-03 0.  1.
    9900012    2    1    2    0    0 -0.17505075680E+02  0.35463257949E+02  0.17876048985E+02  0.47787268828E+02  0.19999989896E+02 0.  0.
        -12    1    1    2    0    0  0.17505075680E+02 -0.35463257949E+02 -0.17876048985E+02  0.43400731172E+02  0.00000000000E+00 0.  1.
         11    1    3    3    0    0 -0.16604109086E+01 -0.84785378638E+00  0.32617069130E+00  0.18926721875E+01  0.51100000000E-03 0. -1.
        -11    1    3    3    0    0 -0.54991016612E+01  0.36134169610E+01 -0.13779376384E+01  0.67227682996E+01  0.51100000000E-03 0.  1.
         12    1    3    3    0    0 -0.10345563110E+02  0.32697694775E+02  0.18927815932E+02  0.39171828341E+02  0.00000000000E+00 0. -1.
</event>
<event>
 7    1  0.5022032E-011  0.4778727E+02  0.7816164E-02  0.1312668E+00
        -11   -1    0    0    0    0  0.00000000000E+00  0.00000000000E+00  0.45593999997E+02  0.45594000000E+02  0.51100000000E-03 0. -1.
         11   -1    0    0    0    0 -0.00000000000E+00 -0.00000000000E+00 -0.45593999997E+02  0.45594000000E+02  0.51100000000E-03 0.  1.
    9900012    2    1    2    0    0 -0.22826837048E+02 -0.97900560546E+01 -0.35590919060E+02  0.47787271818E+02  0.20000003527E+02 0.  0.
         12    1    1    2    0    0  0.22826837048E+02  0.97900560546E+01  0.35590919060E+02  0.43400728182E+02  0.00000000000E+00 0. -1.
         11    1    3    3    0    0 -0.13146332310E+02 -0.74896600052E+00 -0.11354603031E+02  0.17387179574E+02  0.51100000000E-03 0. -1.
        -11    1    3    3    0    0 -0.17807002807E+01  0.22108835077E+01 -0.10835658491E+02  0.11201356819E+02  0.51100000000E-03 0.  1.
         12    1    3    3    0    0 -0.78998044571E+01 -0.11251973562E+02 -0.13400657538E+02  0.19198735426E+02  0.00000000000E+00 0. -1.
</event>
<event>
 7    1  0.5022032E-011  0.4778729E+02  0.7816164E-02  0.1312668E+00
        -11   -1    0    0    0    0  0.00000000000E+00  0.00000000000E+00  0.45593999997E+02  0.45594000000E+02  0.51100000000E-03 0.  1.
         11   -1    0    0    0    0 -0.00000000000E+00 -0.00000000000E+00 -0.45593999997E+02  0.45594000000E+02  0.51100000000E-03 0. -1.
    9900012    2    1    2    0    0 -0.15082029765E+02  0.36548565840E+02 -0.17898506578E+02  0.47787287742E+02  0.20000076130E+02 0.  0.
         12    1    1    2    0    0  0.15082029765E+02 -0.36548565840E+02  0.17898506578E+02  0.43400712258E+02  0.00000000000E+00 0. -1.
         11    1    3    3    0    0  0.13573041898E+00  0.37187387173E+01  0.32256383569E+00  0.37351690836E+01  0.51100000000E-03 0. -1.
        -11    1    3    3    0    0 -0.74398518679E+01  0.19838205263E+02 -0.11288467479E+01  0.21217447516E+02  0.51100000000E-03 0.  1.
         12    1    3    3    0    0 -0.77779083166E+01  0.12991621860E+02 -0.17092223665E+02  0.22834671142E+02  0.00000000000E+00 0. -1.
</event>
<event>
 7    1  0.5022032E-011  0.4778728E+02  0.7816164E-02  0.1312668E+00
        -11   -1    0    0    0    0  0.00000000000E+00  0.00000000000E+00  0.45593999997E+02  0.45594000000E+02  0.51100000000E-03 0. -1.
         11   -1    0    0    0    0 -0.00000000000E+00 -0.00000000000E+00 -0.45593999997E+02  0.45594000000E+02  0.51100000000E-03 0.  1.
    9900012    2    1    2    0    0 -0.25770050187E+02  0.31717751170E+02  0.14612037816E+02  0.47787275639E+02  0.20000020948E+02 0.  0.
        -12    1    1    2    0    0  0.25770050187E+02 -0.31717751170E+02 -0.14612037816E+02  0.43400724361E+02  0.00000000000E+00 0.  1.
         11    1    3    3    0    0 -0.61144260383E+00  0.87345761105E+00  0.28260728819E+01  0.30205096343E+01  0.51100000000E-03 0. -1.
        -11    1    3    3    0    0 -0.94434347975E+01  0.13324507724E+02 -0.35008743723E+01  0.16702607236E+02  0.51100000000E-03 0.  1.
         12    1    3    3    0    0 -0.15715172786E+02  0.17519785835E+02  0.15286839306E+02  0.28064158768E+02  0.00000000000E+00 0. -1.
</event>
<event>
 7    1  0.5022032E-011  0.4778727E+02  0.7816164E-02  0.1312668E+00
        -11   -1    0    0    0    0  0.00000000000E+00  0.00000000000E+00  0.45593999997E+02  0.45594000000E+02  0.51100000000E-03 0. -1.
         11   -1    0    0    0    0 -0.00000000000E+00 -0.00000000000E+00 -0.45593999997E+02  0.45594000000E+02  0.51100000000E-03 0.  1.
    9900012    2    1    2    0    0 -0.37298965048E+02  0.27360797057E+01  0.22020998997E+02  0.47787270483E+02  0.19999997440E+02 0.  0.
        -12    1    1    2    0    0  0.37298965048E+02 -0.27360797057E+01 -0.22020998997E+02  0.43400729517E+02  0.00000000000E+00 0.  1.
         11    1    3    3    0    0 -0.12107838580E+02  0.15220388941E+01  0.13849824392E+02  0.18458981376E+02  0.51100000000E-03 0. -1.
        -11    1    3    3    0    0 -0.33242446928E+01  0.45492411214E+01  0.37577996228E+01  0.67725368825E+01  0.51100000000E-03 0.  1.
         12    1    3    3    0    0 -0.21866881776E+02 -0.33352003099E+01  0.44133749814E+01  0.22555752225E+02  0.00000000000E+00 0. -1.
</event>
<event>
 7    1  0.5022032E-011  0.4778727E+02  0.7816164E-02  0.1312668E+00
        -11   -1    0    0    0    0  0.00000000000E+00  0.00000000000E+00  0.45593999997E+02  0.45594000000E+02  0.51100000000E-03 0. -1.
         11   -1    0    0    0    0 -0.00000000000E+00 -0.00000000000E+00 -0.45593999997E+02  0.45594000000E+02  0.51100000000E-03 0.  1.
    9900012    2    1    2    0    0  0.31668279152E+02  0.26609144247E+02  0.13141418692E+02  0.47787270199E+02  0.19999996146E+02 0.  0.
        -12    1    1    2    0    0 -0.31668279152E+02 -0.26609144247E+02 -0.13141418692E+02  0.43400729801E+02  0.00000000000E+00 0.  1.
         11    1    3    3    0    0  0.18898985075E+02  0.95394266952E+01  0.14298706336E+02  0.25546532087E+02  0.51100000000E-03 0.  1.
        -11    1    3    3    0    0  0.56840012507E+01  0.44462862857E+01 -0.26509245671E+01  0.76879602804E+01  0.51100000000E-03 0. -1.
        -12    1    3    3    0    0  0.70852928270E+01  0.12623431266E+02  0.14936369230E+01  0.14552777832E+02  0.00000000000E+00 0.  1.
</event>
<event>
 7    1  0.5022032E-011  0.4778727E+02  0.7816164E-02  0.1312668E+00
        -11   -1    0    0    0    0  0.00000000000E+00  0.00000000000E+00  0.45593999997E+02  0.45594000000E+02  0.51100000000E-03 0.  1.
         11   -1    0    0    0    0 -0.00000000000E+00 -0.00000000000E+00 -0.45593999997E+02  0.45594000000E+02  0.51100000000E-03 0. -1.
    9900012    2    1    2    0    0  0.43212465167E+02 -0.34523195017E+01  0.20947478065E+01  0.47787267010E+02  0.19999981603E+02 0.  0.
        -12    1    1    2    0    0 -0.43212465167E+02  0.34523195017E+01 -0.20947478065E+01  0.43400732990E+02  0.00000000000E+00 0.  1.
         11    1    3    3    0    0  0.10559010631E+02 -0.64264074616E+01  0.23625391034E+01  0.12584633870E+02  0.51100000000E-03 0. -1.
        -11    1    3    3    0    0  0.19324026757E+01  0.66543859393E+00  0.36134984522E+01  0.41514286635E+01  0.51100000000E-03 0.  1.
         12    1    3    3    0    0  0.30721051860E+02  0.23086493660E+01 -0.38812897491E+01  0.31051204476E+02  0.00000000000E+00 0. -1.
</event>
<event>
 7    1  0.5022032E-011  0.4778727E+02  0.7816164E-02  0.1312668E+00
        -11   -1    0    0    0    0  0.00000000000E+00  0.00000000000E+00  0.45593999997E+02  0.45594000000E+02  0.51100000000E-03 0. -1.
         11   -1    0    0    0    0 -0.00000000000E+00 -0.00000000000E+00 -0.45593999997E+02  0.45594000000E+02  0.51100000000E-03 0.  1.
    9900012    2    1    2    0    0 -0.30140406695E+02  0.20171809183E+02  0.23838568534E+02  0.47787270154E+02  0.19999995939E+02 0.  0.
        -12    1    1    2    0    0  0.30140406695E+02 -0.20171809183E+02 -0.23838568534E+02  0.43400729846E+02  0.00000000000E+00 0.  1.
         11    1    3    3    0    0 -0.26854227284E+02  0.21286401311E+02  0.23084145060E+02  0.41317528450E+02  0.51100000000E-03 0. -1.
        -11    1    3    3    0    0 -0.18719396263E+01  0.19255619151E+01 -0.75944904066E+00  0.27908259996E+01  0.51100000000E-03 0.  1.
         12    1    3    3    0    0 -0.14142397843E+01 -0.30401540427E+01  0.15138725143E+01  0.36789157044E+01  0.00000000000E+00 0. -1.
</event>
<event>
 7    1  0.5022032E-011  0.4778727E+02  0.7816164E-02  0.1312668E+00
        -11   -1    0    0    0    0  0.00000000000E+00  0.00000000000E+00  0.45593999997E+02  0.45594000000E+02  0.51100000000E-03 0. -1.
         11   -1    0    0    0    0 -0.00000000000E+00 -0.00000000000E+00 -0.45593999997E+02  0.45594000000E+02  0.51100000000E-03 0.  1.
    9900012    2    1    2    0    0  0.20819501046E+02 -0.14414876501E+02  0.35247452559E+02  0.47787271892E+02  0.20000003866E+02 0.  0.
        -12    1    1    2    0    0 -0.20819501046E+02  0.14414876501E+02 -0.35247452559E+02  0.43400728108E+02  0.00000000000E+00 0.  1.
         11    1    3    3    0    0  0.34260218565E+01  0.32813042470E+01  0.19248772924E+01  0.51195445281E+01  0.51100000000E-03 0. -1.
        -11    1    3    3    0    0  0.66302843163E+01 -0.13564147386E+01  0.58865070016E+01  0.89694757929E+01  0.51100000000E-03 0.  1.
         12    1    3    3    0    0  0.10763194874E+02 -0.16339766010E+02  0.27436068265E+02  0.33698251572E+02  0.00000000000E+00 0. -1.
</event>
<event>
 7    1  0.5022032E-011  0.4778727E+02  0.7816164E-02  0.1312668E+00
        -11   -1    0    0    0    0  0.00000000000E+00  0.00000000000E+00  0.45593999997E+02  0.45594000000E+02  0.51100000000E-03 0. -1.
         11   -1    0    0    0    0 -0.00000000000E+00 -0.00000000000E+00 -0.45593999997E+02  0.45594000000E+02  0.51100000000E-03 0.  1.
    9900012    2    1    2    0    0 -0.54140459870E-01  0.27471959707E+02  0.33599284153E+02  0.47787269627E+02  0.19999993538E+02 0.  0.
        -12    1    1    2    0    0  0.54140459870E-01 -0.27471959707E+02 -0.33599284153E+02  0.43400730373E+02  0.00000000000E+00 0.  1.
         11    1    3    3    0    0 -0.28073842738E+01  0.10228705998E+02  0.22635040241E+02  0.24997057423E+02  0.51100000000E-03 0. -1.
        -11    1    3    3    0    0 -0.30945844206E+01  0.86500004762E+01  0.74172542330E+01  0.11807396902E+02  0.51100000000E-03 0.  1.
        -12    1    3    3    0    0  0.58478282345E+01  0.85932532330E+01  0.35469896788E+01  0.10982815302E+02  0.00000000000E+00 0.  1.
</event>
<event>
 7    1  0.5022032E-011  0.4778728E+02  0.7816164E-02  0.1312668E+00
        -11   -1    0    0    0    0  0.00000000000E+00  0.00000000000E+00  0.45593999997E+02  0.45594000000E+02  0.51100000000E-03 0. -1.
         11   -1    0    0    0    0 -0.00000000000E+00 -0.00000000000E+00 -0.45593999997E+02  0.45594000000E+02  0.51100000000E-03 0.  1.
    9900012    2    1    2    0    0  0.49015667554E+01  0.28663394013E+01 -0.43027682573E+02  0.47787277359E+02  0.20000028789E+02 0.  0.
         12    1    1    2    0    0 -0.49015667554E+01 -0.28663394013E+01  0.43027682573E+02  0.43400722641E+02  0.00000000000E+00 0. -1.
         11    1    3    3    0    0  0.17313900203E+01 -0.15466257871E+01 -0.20917294209E+02  0.21045734960E+02  0.51100000000E-03 0. -1.
        -11    1    3    3    0    0  0.79095861680E+01 -0.40513071691E+00 -0.14799125942E+02  0.16785106886E+02  0.51100000000E-03 0.  1.
         12    1    3    3    0    0 -0.47394094330E+01  0.48180959053E+01 -0.73112624219E+01  0.99564355132E+01  0.00000000000E+00 0. -1.
</event>
<event>
 7    1  0.5022032E-011  0.4778727E+02  0.7816164E-02  0.1312668E+00
        -11   -1    0    0    0    0  0.00000000000E+00  0.00000000000E+00  0.45593999997E+02  0.45594000000E+02  0.51100000000E-03 0. -1.
         11   -1    0    0    0    0 -0.00000000000E+00 -0.00000000000E+00 -0.45593999997E+02  0.45594000000E+02  0.51100000000E-03 0.  1.
    9900012    2    1    2    0    0  0.27951486472E+02  0.66215587156E+01  0.32534483805E+02  0.47787271063E+02  0.20000000084E+02 0.  0.
        -12    1    1    2    0    0 -0.27951486472E+02 -0.66215587156E+01 -0.32534483805E+02  0.43400728937E+02  0.00000000000E+00 0.  1.
         11    1    3    3    0    0  0.36599527243E+01 -0.22795844406E+01  0.35800870562E+00  0.43266534019E+01  0.51100000000E-03 0. -1.
        -11    1    3    3    0    0  0.59717712605E+01  0.74151894737E+01  0.52889185232E+01  0.10891269271E+02  0.51100000000E-03 0.  1.
         12    1    3    3    0    0  0.18319762487E+02  0.14859536824E+01  0.26887556577E+02  0.32569348390E+02  0.00000000000E+00 0. -1.
</event>
<event>
 7    1  0.5022032E-011  0.4778727E+02  0.7816164E-02  0.1312668E+00
        -11   -1    0    0    0    0  0.00000000000E+00  0.00000000000E+00  0.45593999997E+02  0.45594000000E+02  0.51100000000E-03 0. -1.
         11   -1    0    0    0    0 -0.00000000000E+00 -0.00000000000E+00 -0.45593999997E+02  0.45594000000E+02  0.51100000000E-03 0.  1.
    9900012    2    1    2    0    0  0.24503249717E+02  0.69458084444E+01  0.35142137415E+02  0.47787270471E+02  0.19999997384E+02 0.  0.
        -12    1    1    2    0    0 -0.24503249717E+02 -0.69458084444E+01 -0.35142137415E+02  0.43400729529E+02  0.00000000000E+00 0.  1.
         11    1    3    3    0    0  0.11097849179E+02  0.86681135242E+01  0.28842681595E+02  0.32096709027E+02  0.51100000000E-03 0. -1.
        -11    1    3    3    0    0  0.29808140683E+00 -0.12123090895E+01  0.66375085428E+00  0.14138993285E+01  0.51100000000E-03 0.  1.
         12    1    3    3    0    0  0.13107319131E+02 -0.50999599024E+00  0.56357049649E+01  0.14276662115E+02  0.00000000000E+00 0. -1.
</event>
<event>
 7    1  0.5022032E-011  0.4778727E+02  0.7816164E-02  0.1312668E+00
        -11   -1    0    0    0    0  0.00000000000E+00  0.00000000000E+00  0.45593999997E+02  0.45594000000E+02  0.51100000000E-03 0. -1.
         11   -1    0    0    0    0 -0.00000000000E+00 -0.00000000000E+00 -0.45593999997E+02  0.45594000000E+02  0.51100000000E-03 0.  1.
    9900012    2    1    2    0    0  0.14012503183E+02  0.14310865090E+02  0.38502884943E+02  0.47787271273E+02  0.20000001042E+02 0.  0.
        -12    1    1    2    0    0 -0.14012503183E+02 -0.14310865090E+02 -0.38502884943E+02  0.43400728727E+02  0.00000000000E+00 0.  1.
         11    1    3    3    0    0  0.10479803730E+02  0.10260915378E+02  0.26625855326E+02  0.30398171700E+02  0.51100000000E-03 0. -1.
        -11    1    3    3    0    0  0.73272689798E+01  0.26193429000E+00  0.71525961722E+01  0.10242905473E+02  0.51100000000E-03 0.  1.
        -12    1    3    3    0    0 -0.37945695264E+01  0.37880154216E+01  0.47244334451E+01  0.71461940991E+01  0.00000000000E+00 0.  1.
</event>
<event>
 7    1  0.5022032E-011  0.4778727E+02  0.7816164E-02  0.1312668E+00
        -11   -1    0    0    0    0  0.00000000000E+00  0.00000000000E+00  0.45593999997E+02  0.45594000000E+02  0.51100000000E-03 0. -1.
         11   -1    0    0    0    0 -0.00000000000E+00 -0.00000000000E+00 -0.45593999997E+02  0.45594000000E+02  0.51100000000E-03 0.  1.
    9900012    2    1    2    0    0  0.17467528351E+02  0.11133584690E+01  0.39714847819E+02  0.47787271308E+02  0.20000001200E+02 0.  0.
        -12    1    1    2    0    0 -0.17467528351E+02 -0.11133584690E+01 -0.39714847819E+02  0.43400728692E+02  0.00000000000E+00 0.  1.
         11    1    3    3    0    0  0.34950416604E+01  0.53366782832E+01  0.78260135924E+01  0.10096630147E+02  0.51100000000E-03 0. -1.
        -11    1    3    3    0    0  0.12365200267E+02  0.29654746418E+01  0.19618955712E+02  0.23379384957E+02  0.51100000000E-03 0.  1.
         12    1    3    3    0    0  0.16072864245E+01 -0.71887944561E+01  0.12269878514E+02  0.14311256204E+02  0.00000000000E+00 0. -1.
</event>
<event>
 7    1  0.5022032E-011  0.4778727E+02  0.7816164E-02  0.1312668E+00
        -11   -1    0    0    0    0  0.00000000000E+00  0.00000000000E+00  0.45593999997E+02  0.45594000000E+02  0.51100000000E-03 0. -1.
         11   -1    0    0    0    0 -0.00000000000E+00 -0.00000000000E+00 -0.45593999997E+02  0.45594000000E+02  0.51100000000E-03 0.  1.
    9900012    2    1    2    0    0  0.30516140480E+02 -0.19885827269E+02 -0.23599619242E+02  0.47787274380E+02  0.20000015207E+02 0.  0.
         12    1    1    2    0    0 -0.30516140480E+02  0.19885827269E+02  0.23599619242E+02  0.43400725620E+02  0.00000000000E+00 0. -1.
         11    1    3    3    0    0  0.12243770446E+02 -0.56242980536E+00 -0.66797593922E+01  0.13958704375E+02  0.51100000000E-03 0. -1.
        -11    1    3    3    0    0  0.78682976197E+01 -0.20841627696E+01 -0.91487927705E+01  0.12245580889E+02  0.51100000000E-03 0.  1.
        -12    1    3    3    0    0  0.10404072414E+02 -0.17239234694E+02 -0.77710670795E+01  0.21582989116E+02  0.00000000000E+00 0.  1.
</event>
<event>
 7    1  0.5022032E-011  0.4778727E+02  0.7816164E-02  0.1312668E+00
        -11   -1    0    0    0    0  0.00000000000E+00  0.00000000000E+00  0.45593999997E+02  0.45594000000E+02  0.51100000000E-03 0. -1.
         11   -1    0    0    0    0 -0.00000000000E+00 -0.00000000000E+00 -0.45593999997E+02  0.45594000000E+02  0.51100000000E-03 0.  1.
    9900012    2    1    2    0    0  0.19974195786E+02  0.20297970473E+01  0.38477720062E+02  0.47787268272E+02  0.19999987360E+02 0.  0.
        -12    1    1    2    0    0 -0.19974195786E+02 -0.20297970473E+01 -0.38477720062E+02  0.43400731728E+02  0.00000000000E+00 0.  1.
         11    1    3    3    0    0  0.16059876916E+01  0.79441333676E+00  0.75105665807E+01  0.77213275827E+01  0.51100000000E-03 0. -1.
        -11    1    3    3    0    0 -0.27901048284E+01  0.10487103573E+01  0.93633882904E+01  0.98263685512E+01  0.51100000000E-03 0.  1.
         12    1    3    3    0    0  0.21158312923E+02  0.18667335320E+00  0.21603765191E+02  0.30239572138E+02  0.00000000000E+00 0. -1.
</event>
<event>
 7    1  0.5022032E-011  0.4778727E+02  0.7816164E-02  0.1312668E+00
        -11   -1    0    0    0    0  0.00000000000E+00  0.00000000000E+00  0.45593999997E+02  0.45594000000E+02  0.51100000000E-03 0. -1.
         11   -1    0    0    0    0 -0.00000000000E+00 -0.00000000000E+00 -0.45593999997E+02  0.45594000000E+02  0.51100000000E-03 0.  1.
    9900012    2    1    2    0    0 -0.23304208775E+00  0.42702985967E+02 -0.77475365521E+01  0.47787266807E+02  0.19999980678E+02 0.  0.
         12    1    1    2    0    0  0.23304208775E+00 -0.42702985967E+02  0.77475365521E+01  0.43400733193E+02  0.00000000000E+00 0. -1.
         11    1    3    3    0    0  0.19324138981E+01  0.10396153207E+02 -0.61052368154E+01  0.12210165511E+02  0.51100000000E-03 0. -1.
        -11    1    3    3    0    0 -0.46024405422E+01  0.26879847521E+01 -0.24073125005E+01  0.58483223841E+01  0.51100000000E-03 0.  1.
        -12    1    3    3    0    0  0.24369845564E+01  0.29618848008E+02  0.76501276383E+00  0.29728778911E+02  0.00000000000E+00 0.  1.
</event>
<event>
 7    1  0.5022032E-011  0.4778727E+02  0.7816164E-02  0.1312668E+00
        -11   -1    0    0    0    0  0.00000000000E+00  0.00000000000E+00  0.45593999997E+02  0.45594000000E+02  0.51100000000E-03 0. -1.
         11   -1    0    0    0    0 -0.00000000000E+00 -0.00000000000E+00 -0.45593999997E+02  0.45594000000E+02  0.51100000000E-03 0.  1.
    9900012    2    1    2    0    0  0.21589768791E+02 -0.30627772136E+02 -0.21896224791E+02  0.47787271866E+02  0.20000003744E+02 0.  0.
         12    1    1    2    0    0 -0.21589768791E+02  0.30627772136E+02  0.21896224791E+02  0.43400728134E+02  0.00000000000E+00 0. -1.
         11    1    3    3    0    0  0.87350864690E+01 -0.29725562571E+01  0.13400545323E+01  0.93238174979E+01  0.51100000000E-03 0. -1.
        -11    1    3    3    0    0  0.53566807277E+01 -0.10240456037E+02 -0.70792137030E+01  0.13552720582E+02  0.51100000000E-03 0.  1.
         12    1    3    3    0    0  0.74980015944E+01 -0.17414759842E+02 -0.16157065621E+02  0.24910733786E+02  0.00000000000E+00 0. -1.
</event>
<event>
 7    1  0.5022032E-011  0.4778727E+02  0.7816164E-02  0.1312668E+00
        -11   -1    0    0    0    0  0.00000000000E+00  0.00000000000E+00  0.45593999997E+02  0.45594000000E+02  0.51100000000E-03 0.  1.
         11   -1    0    0    0    0 -0.00000000000E+00 -0.00000000000E+00 -0.45593999997E+02  0.45594000000E+02  0.51100000000E-03 0. -1.
    9900012    2    1    2    0    0  0.38011811284E+02 -0.20827710820E+02 -0.22208122701E+01  0.47787270257E+02  0.19999996412E+02 0.  0.
         12    1    1    2    0    0 -0.38011811284E+02  0.20827710820E+02  0.22208122701E+01  0.43400729743E+02  0.00000000000E+00 0. -1.
         11    1    3    3    0    0  0.90601408247E+01  0.33918057014E+01 -0.25054022104E+01  0.99933747141E+01  0.51100000000E-03 0. -1.
        -11    1    3    3    0    0  0.55490385707E+01 -0.54560158554E+01  0.48835589141E+00  0.77973347889E+01  0.51100000000E-03 0.  1.
         12    1    3    3    0    0  0.23402631888E+02 -0.18763500666E+02 -0.20376595115E+00  0.29996560754E+02  0.00000000000E+00 0. -1.
</event>
<event>
 7    1  0.5022032E-011  0.4778727E+02  0.7816164E-02  0.1312668E+00
        -11   -1    0    0    0    0  0.00000000000E+00  0.00000000000E+00  0.45593999997E+02  0.45594000000E+02  0.51100000000E-03 0. -1.
         11   -1    0    0    0    0 -0.00000000000E+00 -0.00000000000E+00 -0.45593999997E+02  0.45594000000E+02  0.51100000000E-03 0.  1.
    9900012    2    1    2    0    0  0.33500172970E+01 -0.11124136275E+02 -0.41816915121E+02  0.47787269430E+02  0.19999992640E+02 0.  0.
         12    1    1    2    0    0 -0.33500172970E+01  0.11124136275E+02  0.41816915121E+02  0.43400730570E+02  0.00000000000E+00 0. -1.
         11    1    3    3    0    0 -0.84771633751E+00 -0.26253373505E+01 -0.22955012358E+01  0.35889198065E+01  0.51100000000E-03 0. -1.
        -11    1    3    3    0    0  0.70426396085E+01 -0.16961989108E+01 -0.34559974358E+02  0.35311013739E+02  0.51100000000E-03 0.  1.
        -12    1    3    3    0    0 -0.28449059740E+01 -0.68026000134E+01 -0.49614395275E+01  0.88873358847E+01  0.00000000000E+00 0.  1.
</event>
<event>
 7    1  0.5022032E-011  0.4778727E+02  0.7816164E-02  0.1312668E+00
        -11   -1    0    0    0    0  0.00000000000E+00  0.00000000000E+00  0.45593999997E+02  0.45594000000E+02  0.51100000000E-03 0. -1.
         11   -1    0    0    0    0 -0.00000000000E+00 -0.00000000000E+00 -0.45593999997E+02  0.45594000000E+02  0.51100000000E-03 0.  1.
    9900012    2    1    2    0    0  0.20754357329E+01 -0.33536976356E+02  0.27469749862E+02  0.47787269890E+02  0.19999994738E+02 0.  0.
        -12    1    1    2    0    0 -0.20754357329E+01  0.33536976356E+02 -0.27469749862E+02  0.43400730110E+02  0.00000000000E+00 0.  1.
         11    1    3    3    0    0 -0.15072228695E+01 -0.19661711986E+02  0.25337446821E+02  0.32106710368E+02  0.51100000000E-03 0. -1.
        -11    1    3    3    0    0  0.16688885439E+01 -0.15928303130E+01  0.22876622332E+01  0.32489530825E+01  0.51100000000E-03 0.  1.
        -12    1    3    3    0    0  0.19137700586E+01 -0.12282434057E+02 -0.15535919183E+00  0.12431606440E+02  0.00000000000E+00 0.  1.
</event>
<event>
 7    1  0.5022032E-011  0.4778727E+02  0.7816164E-02  0.1312668E+00
        -11   -1    0    0    0    0  0.00000000000E+00  0.00000000000E+00  0.45593999997E+02  0.45594000000E+02  0.51100000000E-03 0. -1.
         11   -1    0    0    0    0 -0.00000000000E+00 -0.00000000000E+00 -0.45593999997E+02  0.45594000000E+02  0.51100000000E-03 0.  1.
    9900012    2    1    2    0    0 -0.50735827807E+01 -0.16539008675E+02 -0.39803808561E+02  0.47787271595E+02  0.20000002508E+02 0.  0.
         12    1    1    2    0    0  0.50735827807E+01  0.16539008675E+02  0.39803808561E+02  0.43400728405E+02  0.00000000000E+00 0. -1.
         11    1    3    3    0    0 -0.70195176509E+01 -0.92671524340E+01 -0.14134841063E+02  0.18301570272E+02  0.51100000000E-03 0. -1.
        -11    1    3    3    0    0  0.25562422237E+01 -0.10367675563E+02 -0.15377691173E+02  0.18721550602E+02  0.51100000000E-03 0.  1.
         12    1    3    3    0    0 -0.61030735351E+00  0.30958193214E+01 -0.10291276325E+02  0.10764150721E+02  0.00000000000E+00 0. -1.
</event>
<event>
 7    1  0.5022032E-011  0.4778727E+02  0.7816164E-02  0.1312668E+00
        -11   -1    0    0    0    0  0.00000000000E+00  0.00000000000E+00  0.45593999997E+02  0.45594000000E+02  0.51100000000E-03 0. -1.
         11   -1    0    0    0    0 -0.00000000000E+00 -0.00000000000E+00 -0.45593999997E+02  0.45594000000E+02  0.51100000000E-03 0.  1.
    9900012    2    1    2    0    0 -0.16778531091E+02  0.85802679956E+01 -0.39095820707E+02  0.47787270730E+02  0.19999998565E+02 0.  0.
         12    1    1    2    0    0  0.16778531091E+02 -0.85802679956E+01  0.39095820707E+02  0.43400729270E+02  0.00000000000E+00 0. -1.
         11    1    3    3    0    0  0.44550952813E+01  0.29037157926E+01 -0.65724240787E+01  0.84543596979E+01  0.51100000000E-03 0. -1.
        -11    1    3    3    0    0 -0.83829354563E+01  0.34144891365E+01 -0.12496530640E+02  0.15430347411E+02  0.51100000000E-03 0.  1.
         12    1    3    3    0    0 -0.12850690916E+02  0.22620630664E+01 -0.20026865988E+02  0.23902563621E+02  0.00000000000E+00 0. -1.
</event>
<event>
 7    1  0.5022032E-011  0.4778727E+02  0.7816164E-02  0.1312668E+00
        -11   -1    0    0    0    0  0.00000000000E+00  0.00000000000E+00  0.45593999997E+02  0.45594000000E+02  0.51100000000E-03 0. -1.
         11   -1    0    0    0    0 -0.00000000000E+00 -0.00000000000E+00 -0.45593999997E+02  0.45594000000E+02  0.51100000000E-03 0.  1.
    9900012    2    1    2    0    0 -0.35262465891E+02  0.93449461127E+01  0.23512835642E+02  0.47787274678E+02  0.20000016568E+02 0.  0.
        -12    1    1    2    0    0  0.35262465891E+02 -0.93449461127E+01 -0.23512835642E+02  0.43400725322E+02  0.00000000000E+00 0.  1.
         11    1    3    3    0    0 -0.14297722072E+02 -0.13699657406E+01  0.69604092217E+01  0.15960857100E+02  0.51100000000E-03 0. -1.
        -11    1    3    3    0    0 -0.58572522729E+01  0.14609732786E+01 -0.18184471924E+01  0.63046488849E+01  0.51100000000E-03 0.  1.
         12    1    3    3    0    0 -0.15107491546E+02  0.92539385747E+01  0.18370873612E+02  0.25521768693E+02  0.00000000000E+00 0. -1.
</event>
<event>
 7    1  0.5022032E-011  0.4778727E+02  0.7816164E-02  0.1312668E+00
        -11   -1    0    0    0    0  0.00000000000E+00  0.00000000000E+00  0.45593999997E+02  0.45594000000E+02  0.51100000000E-03 0. -1.
         11   -1    0    0    0    0 -0.00000000000E+00 -0.00000000000E+00 -0.45593999997E+02  0.45594000000E+02  0.51100000000E-03 0.  1.
    9900012    2    1    2    0    0 -0.57356739892E+01 -0.25912610100E+02 -0.34340388291E+02  0.47787267445E+02  0.19999983589E+02 0.  0.
         12    1    1    2    0    0  0.57356739892E+01  0.25912610100E+02  0.34340388291E+02  0.43400732555E+02  0.00000000000E+00 0. -1.
         11    1    3    3    0    0  0.55014956120E+01 -0.88646159880E+01 -0.10892258026E+02  0.15082743642E+02  0.51100000000E-03 0. -1.
        -11    1    3    3    0    0 -0.27585689032E+01 -0.26252943866E+01 -0.11585811823E+02  0.12195610229E+02  0.51100000000E-03 0.  1.
        -12    1    3    3    0    0 -0.84786006981E+01 -0.14422699726E+02 -0.11862318442E+02  0.20508913574E+02  0.00000000000E+00 0.  1.
</event>
<event>
 7    1  0.5022032E-011  0.4778727E+02  0.7816164E-02  0.1312668E+00
        -11   -1    0    0    0    0  0.00000000000E+00  0.00000000000E+00  0.45593999997E+02  0.45594000000E+02  0.51100000000E-03 0. -1.
         11   -1    0    0    0    0 -0.00000000000E+00 -0.00000000000E+00 -0.45593999997E+02  0.45594000000E+02  0.51100000000E-03 0.  1.
    9900012    2    1    2    0    0 -0.40101779013E+01 -0.39951885878E+01  0.43029989095E+02  0.47787273968E+02  0.20000013328E+02 0.  0.
        -12    1    1    2    0    0  0.40101779013E+01  0.39951885878E+01 -0.43029989095E+02  0.43400726032E+02  0.00000000000E+00 0.  1.
         11    1    3    3    0    0 -0.27016370315E+01 -0.96608455891E+00  0.35074690464E+02  0.35191846690E+02  0.51100000000E-03 0. -1.
        -11    1    3    3    0    0 -0.47582782547E+00 -0.29332793762E+01  0.99752506272E+01  0.10408466042E+02  0.51100000000E-03 0.  1.
        -12    1    3    3    0    0 -0.83271304435E+00 -0.95824652748E-01 -0.20199519964E+01  0.21869612356E+01  0.00000000000E+00 0.  1.
</event>
<event>
 7    1  0.5022032E-011  0.4778727E+02  0.7816164E-02  0.1312668E+00
        -11   -1    0    0    0    0  0.00000000000E+00  0.00000000000E+00  0.45593999997E+02  0.45594000000E+02  0.51100000000E-03 0. -1.
         11   -1    0    0    0    0 -0.00000000000E+00 -0.00000000000E+00 -0.45593999997E+02  0.45594000000E+02  0.51100000000E-03 0.  1.
    9900012    2    1    2    0    0  0.40292819617E+01  0.44233771567E+01  0.42986300268E+02  0.47787269715E+02  0.19999993937E+02 0.  0.
        -12    1    1    2    0    0 -0.40292819617E+01 -0.44233771567E+01 -0.42986300268E+02  0.43400730285E+02  0.00000000000E+00 0.  1.
         11    1    3    3    0    0  0.80094745014E+01  0.83536833089E+01  0.21969004523E+02  0.24830885336E+02  0.51100000000E-03 0. -1.
        -11    1    3    3    0    0 -0.18125707569E+01  0.10527382893E+01  0.12166635212E+01  0.24236214720E+01  0.51100000000E-03 0.  1.
        -12    1    3    3    0    0 -0.21676217828E+01 -0.49830444415E+01  0.19800632224E+02  0.20532762906E+02  0.00000000000E+00 0.  1.
</event>
<event>
 7    1  0.5022032E-011  0.4778727E+02  0.7816164E-02  0.1312668E+00
        -11   -1    0    0    0    0  0.00000000000E+00  0.00000000000E+00  0.45593999997E+02  0.45594000000E+02  0.51100000000E-03 0. -1.
         11   -1    0    0    0    0 -0.00000000000E+00 -0.00000000000E+00 -0.45593999997E+02  0.45594000000E+02  0.51100000000E-03 0.  1.
    9900012    2    1    2    0    0 -0.83802166548E+01 -0.10544018289E+02 -0.41257959539E+02  0.47787267539E+02  0.19999984016E+02 0.  0.
         12    1    1    2    0    0  0.83802166548E+01  0.10544018289E+02  0.41257959539E+02  0.43400732461E+02  0.00000000000E+00 0. -1.
         11    1    3    3    0    0 -0.27334242637E+00 -0.31869461795E+01 -0.23317359136E+01  0.39583247296E+01  0.51100000000E-03 0. -1.
        -11    1    3    3    0    0 -0.10038447822E+02 -0.11474454919E+02 -0.33062068371E+02  0.36407882603E+02  0.51100000000E-03 0.  1.
         12    1    3    3    0    0  0.19315735938E+01  0.41173828092E+01 -0.58641552538E+01  0.74210602063E+01  0.00000000000E+00 0. -1.
</event>
<event>
 7    1  0.5022032E-011  0.4778727E+02  0.7816164E-02  0.1312668E+00
        -11   -1    0    0    0    0  0.00000000000E+00  0.00000000000E+00  0.45593999997E+02  0.45594000000E+02  0.51100000000E-03 0. -1.
         11   -1    0    0    0    0 -0.00000000000E+00 -0.00000000000E+00 -0.45593999997E+02  0.45594000000E+02  0.51100000000E-03 0.  1.
    9900012    2    1    2    0    0  0.43053089118E+02  0.53036153444E+01 -0.13878584900E+01  0.47787274550E+02  0.20000015985E+02 0.  0.
         12    1    1    2    0    0 -0.43053089118E+02 -0.53036153444E+01  0.13878584900E+01  0.43400725450E+02  0.00000000000E+00 0. -1.
         11    1    3    3    0    0  0.19411393072E+01  0.24898862583E+01  0.36795250577E+01  0.48483461408E+01  0.51100000000E-03 0. -1.
        -11    1    3    3    0    0  0.86647008720E+01  0.32508926617E+01  0.25647461909E+01  0.96032946214E+01  0.51100000000E-03 0.  1.
        -12    1    3    3    0    0  0.32447248939E+02 -0.43716357571E+00 -0.76321297386E+01  0.33335633788E+02  0.00000000000E+00 0.  1.
</event>
<event>
 7    1  0.5022032E-011  0.4778727E+02  0.7816164E-02  0.1312668E+00
        -11   -1    0    0    0    0  0.00000000000E+00  0.00000000000E+00  0.45593999997E+02  0.45594000000E+02  0.51100000000E-03 0. -1.
         11   -1    0    0    0    0 -0.00000000000E+00 -0.00000000000E+00 -0.45593999997E+02  0.45594000000E+02  0.51100000000E-03 0.  1.
    9900012    2    1    2    0    0  0.11468311898E+02 -0.22882848957E+02  0.35049627091E+02  0.47787270589E+02  0.19999997925E+02 0.  0.
        -12    1    1    2    0    0 -0.11468311898E+02  0.22882848957E+02 -0.35049627091E+02  0.43400729411E+02  0.00000000000E+00 0.  1.
         11    1    3    3    0    0 -0.20257452532E+01 -0.14660924312E+01  0.67046968297E+01  0.71558389226E+01  0.51100000000E-03 0. -1.
        -11    1    3    3    0    0 -0.21562865767E+01 -0.53509097877E+01  0.10457995848E+02  0.11943679700E+02  0.51100000000E-03 0.  1.
         12    1    3    3    0    0  0.15650343728E+02 -0.16065846738E+02  0.17886934413E+02  0.28687751967E+02  0.00000000000E+00 0. -1.
</event>
<event>
 7    1  0.5022032E-011  0.4778725E+02  0.7816164E-02  0.1312668E+00
        -11   -1    0    0    0    0  0.00000000000E+00  0.00000000000E+00  0.45593999997E+02  0.45594000000E+02  0.51100000000E-03 0. -1.
         11   -1    0    0    0    0 -0.00000000000E+00 -0.00000000000E+00 -0.45593999997E+02  0.45594000000E+02  0.51100000000E-03 0.  1.
    9900012    2    1    2    0    0 -0.29629107758E+01 -0.41748765691E+02  0.11484203569E+02  0.47787248756E+02  0.19999898376E+02 0.  0.
        -12    1    1    2    0    0  0.29629107758E+01  0.41748765691E+02 -0.11484203569E+02  0.43400751244E+02  0.00000000000E+00 0.  1.
         11    1    3    3    0    0  0.21497823013E+01 -0.17549603056E+02  0.49236868866E+01  0.18353550724E+02  0.51100000000E-03 0. -1.
        -11    1    3    3    0    0 -0.87522970132E+01 -0.22266305097E+02  0.32434350058E+01  0.24143548135E+02  0.51100000000E-03 0.  1.
         12    1    3    3    0    0  0.36396039361E+01 -0.19328575384E+01  0.33170816767E+01  0.52901498963E+01  0.00000000000E+00 0. -1.
</event>
<event>
 7    1  0.5022032E-011  0.4778727E+02  0.7816164E-02  0.1312668E+00
        -11   -1    0    0    0    0  0.00000000000E+00  0.00000000000E+00  0.45593999997E+02  0.45594000000E+02  0.51100000000E-03 0.  1.
         11   -1    0    0    0    0 -0.00000000000E+00 -0.00000000000E+00 -0.45593999997E+02  0.45594000000E+02  0.51100000000E-03 0. -1.
    9900012    2    1    2    0    0  0.20233351428E+02 -0.30320130709E+02  0.23556832998E+02  0.47787271699E+02  0.20000002983E+02 0.  0.
        -12    1    1    2    0    0 -0.20233351428E+02  0.30320130709E+02 -0.23556832998E+02  0.43400728301E+02  0.00000000000E+00 0.  1.
         11    1    3    3    0    0  0.60791454035E+01 -0.87383575934E+01  0.22466416480E+01  0.10879443976E+02  0.51100000000E-03 0. -1.
        -11    1    3    3    0    0  0.14760835113E+02 -0.11879935167E+02  0.19170993693E+02  0.26954445130E+02  0.51100000000E-03 0.  1.
         12    1    3    3    0    0 -0.60662908894E+00 -0.97018379485E+01  0.21391976569E+01  0.99533825932E+01  0.00000000000E+00 0. -1.
</event>
<event>
 7    1  0.5022032E-011  0.4778726E+02  0.7816164E-02  0.1312668E+00
        -11   -1    0    0    0    0  0.00000000000E+00  0.00000000000E+00  0.45593999997E+02  0.45594000000E+02  0.51100000000E-03 0. -1.
         11   -1    0    0    0    0 -0.00000000000E+00 -0.00000000000E+00 -0.45593999997E+02  0.45594000000E+02  0.51100000000E-03 0.  1.
    9900012    2    1    2    0    0  0.15623647530E+02  0.38332933458E+02 -0.13042685992E+02  0.47787264896E+02  0.19999971969E+02 0.  0.
        -12    1    1    2    0    0 -0.15623647530E+02 -0.38332933458E+02  0.13042685992E+02  0.43400735104E+02  0.00000000000E+00 0.  1.
         11    1    3    3    0    0  0.13758555406E+02  0.21526478461E+02 -0.86840301316E+01  0.26983318947E+02  0.51100000000E-03 0. -1.
        -11    1    3    3    0    0  0.57114991270E+01  0.10397328464E+02 -0.57788509246E+01  0.13195483308E+02  0.51100000000E-03 0.  1.
        -12    1    3    3    0    0 -0.38464070029E+01  0.64091265327E+01  0.14201950638E+01  0.76084626413E+01  0.00000000000E+00 0.  1.
</event>
<event>
 7    1  0.5022032E-011  0.4778727E+02  0.7816164E-02  0.1312668E+00
        -11   -1    0    0    0    0  0.00000000000E+00  0.00000000000E+00  0.45593999997E+02  0.45594000000E+02  0.51100000000E-03 0. -1.
         11   -1    0    0    0    0 -0.00000000000E+00 -0.00000000000E+00 -0.45593999997E+02  0.45594000000E+02  0.51100000000E-03 0.  1.
    9900012    2    1    2    0    0  0.25930466399E+01 -0.81871476694E+00 -0.43315458562E+02  0.47787272643E+02  0.20000007286E+02 0.  0.
         12    1    1    2    0    0 -0.25930466399E+01  0.81871476694E+00  0.43315458562E+02  0.43400727357E+02  0.00000000000E+00 0. -1.
         11    1    3    3    0    0 -0.11063868224E+01 -0.31475742728E+00 -0.40505117982E+01  0.42106781078E+01  0.51100000000E-03 0. -1.
        -11    1    3    3    0    0  0.10901409240E+02 -0.28990123317E+01 -0.24648213214E+02  0.27106814840E+02  0.51100000000E-03 0.  1.
         12    1    3    3    0    0 -0.72019757772E+01  0.23950549920E+01 -0.14616733550E+02  0.16469779694E+02  0.00000000000E+00 0. -1.
</event>
<event>
 7    1  0.5022032E-011  0.4778731E+02  0.7816164E-02  0.1312668E+00
        -11   -1    0    0    0    0  0.00000000000E+00  0.00000000000E+00  0.45593999997E+02  0.45594000000E+02  0.51100000000E-03 0. -1.
         11   -1    0    0    0    0 -0.00000000000E+00 -0.00000000000E+00 -0.45593999997E+02  0.45594000000E+02  0.51100000000E-03 0.  1.
    9900012    2    1    2    0    0  0.12980909284E+02  0.37553442928E+02  0.17460104022E+02  0.47787305143E+02  0.20000155470E+02 0.  0.
        -12    1    1    2    0    0 -0.12980909284E+02 -0.37553442928E+02 -0.17460104022E+02  0.43400694857E+02  0.00000000000E+00 0.  1.
         11    1    3    3    0    0  0.99086833115E-01  0.19904894772E+02  0.11961487405E+02  0.23222657800E+02  0.51100000000E-03 0. -1.
        -11    1    3    3    0    0  0.39341319219E+01  0.10582279398E+02  0.66538675471E+01  0.13104807699E+02  0.51100000000E-03 0.  1.
        -12    1    3    3    0    0  0.89476905286E+01  0.70662687577E+01 -0.11552509305E+01  0.11459839644E+02  0.00000000000E+00 0.  1.
</event>
<event>
 7    1  0.5022032E-011  0.4778727E+02  0.7816164E-02  0.1312668E+00
        -11   -1    0    0    0    0  0.00000000000E+00  0.00000000000E+00  0.45593999997E+02  0.45594000000E+02  0.51100000000E-03 0. -1.
         11   -1    0    0    0    0 -0.00000000000E+00 -0.00000000000E+00 -0.45593999997E+02  0.45594000000E+02  0.51100000000E-03 0.  1.
    9900012    2    1    2    0    0 -0.27318079949E+02  0.44591900794E+01  0.33428450268E+02  0.47787272407E+02  0.20000006213E+02 0.  0.
        -12    1    1    2    0    0  0.27318079949E+02 -0.44591900794E+01 -0.33428450268E+02  0.43400727593E+02  0.00000000000E+00 0.  1.
         11    1    3    3    0    0 -0.13771472437E+02  0.95907849771E+01  0.13927859087E+02  0.21808756694E+02  0.51100000000E-03 0. -1.
        -11    1    3    3    0    0  0.13569796980E+01 -0.73459256146E+00  0.11018708854E+01  0.18960853993E+01  0.51100000000E-03 0.  1.
        -12    1    3    3    0    0 -0.14903587210E+02 -0.43970023362E+01  0.18398720296E+02  0.24082430313E+02  0.00000000000E+00 0.  1.
</event>
<event>
 7    1  0.5022032E-011  0.4778727E+02  0.7816164E-02  0.1312668E+00
        -11   -1    0    0    0    0  0.00000000000E+00  0.00000000000E+00  0.45593999997E+02  0.45594000000E+02  0.51100000000E-03 0.  1.
         11   -1    0    0    0    0 -0.00000000000E+00 -0.00000000000E+00 -0.45593999997E+02  0.45594000000E+02  0.51100000000E-03 0. -1.
    9900012    2    1    2    0    0  0.18995297433E+02  0.12623167753E+02 -0.36925025140E+02  0.47787272238E+02  0.20000005441E+02 0.  0.
         12    1    1    2    0    0 -0.18995297433E+02 -0.12623167753E+02  0.36925025140E+02  0.43400727762E+02  0.00000000000E+00 0. -1.
         11    1    3    3    0    0  0.36792625235E+01  0.72574569558E+01 -0.11707694150E+02  0.14257550868E+02  0.51100000000E-03 0. -1.
        -11    1    3    3    0    0  0.61969294214E+01  0.10013087446E+02 -0.11996977509E+02  0.16810452821E+02  0.51100000000E-03 0.  1.
         12    1    3    3    0    0  0.91191054884E+01 -0.46473766489E+01 -0.13220353481E+02  0.16719268548E+02  0.00000000000E+00 0. -1.
</event>
<event>
 7    1  0.5022032E-011  0.4778727E+02  0.7816164E-02  0.1312668E+00
        -11   -1    0    0    0    0  0.00000000000E+00  0.00000000000E+00  0.45593999997E+02  0.45594000000E+02  0.51100000000E-03 0. -1.
         11   -1    0    0    0    0 -0.00000000000E+00 -0.00000000000E+00 -0.45593999997E+02  0.45594000000E+02  0.51100000000E-03 0.  1.
    9900012    2    1    2    0    0 -0.97520755851E+01  0.11387302752E+02 -0.40728976960E+02  0.47787271822E+02  0.20000003545E+02 0.  0.
         12    1    1    2    0    0  0.97520755851E+01 -0.11387302752E+02  0.40728976960E+02  0.43400728178E+02  0.00000000000E+00 0. -1.
         11    1    3    3    0    0  0.34322787990E+01 -0.73533426782E+00 -0.94360021941E+00  0.36347814068E+01  0.51100000000E-03 0. -1.
        -11    1    3    3    0    0 -0.66033715211E+00  0.22850157441E+00  0.82903513535E-01  0.70365572380E+00  0.51100000000E-03 0.  1.
        -12    1    3    3    0    0 -0.12524017232E+02  0.11894135445E+02 -0.39868280254E+02  0.43448834691E+02  0.00000000000E+00 0.  1.
</event>
<event>
 7    1  0.5022032E-011  0.4778727E+02  0.7816164E-02  0.1312668E+00
        -11   -1    0    0    0    0  0.00000000000E+00  0.00000000000E+00  0.45593999997E+02  0.45594000000E+02  0.51100000000E-03 0. -1.
         11   -1    0    0    0    0 -0.00000000000E+00 -0.00000000000E+00 -0.45593999997E+02  0.45594000000E+02  0.51100000000E-03 0.  1.
    9900012    2    1    2    0    0  0.81772188600E+01 -0.11782650488E+02  0.40962490724E+02  0.47787269509E+02  0.19999993000E+02 0.  0.
        -12    1    1    2    0    0 -0.81772188600E+01  0.11782650488E+02 -0.40962490724E+02  0.43400730491E+02  0.00000000000E+00 0.  1.
         11    1    3    3    0    0  0.14954537643E+01 -0.10406196002E+02  0.21099160981E+02  0.23573287669E+02  0.51100000000E-03 0. -1.
        -11    1    3    3    0    0 -0.32345512489E+01 -0.13166039770E+01  0.27906447889E+01  0.44702870616E+01  0.51100000000E-03 0.  1.
        -12    1    3    3    0    0  0.99163163446E+01 -0.59850508908E-01  0.17072684955E+02  0.19743694778E+02  0.00000000000E+00 0.  1.
</event>
<event>
 7    1  0.5022032E-011  0.4778727E+02  0.7816164E-02  0.1312668E+00
        -11   -1    0    0    0    0  0.00000000000E+00  0.00000000000E+00  0.45593999997E+02  0.45594000000E+02  0.51100000000E-03 0. -1.
         11   -1    0    0    0    0 -0.00000000000E+00 -0.00000000000E+00 -0.45593999997E+02  0.45594000000E+02  0.51100000000E-03 0.  1.
    9900012    2    1    2    0    0  0.55330100917E+01 -0.16772664990E+01  0.43013900844E+02  0.47787273169E+02  0.20000009689E+02 0.  0.
        -12    1    1    2    0    0 -0.55330100917E+01  0.16772664990E+01 -0.43013900844E+02  0.43400726831E+02  0.00000000000E+00 0.  1.
         11    1    3    3    0    0 -0.21302247006E+01 -0.31673529433E+00  0.20505695248E+02  0.20618479973E+02  0.51100000000E-03 0. -1.
        -11    1    3    3    0    0  0.18604756673E+01 -0.33119613638E+01  0.20312803852E+02  0.20664957256E+02  0.51100000000E-03 0.  1.
        -12    1    3    3    0    0  0.58027591250E+01  0.19514301591E+01  0.21954017442E+01  0.65038359410E+01  0.00000000000E+00 0.  1.
</event>
<event>
 7    1  0.5022032E-011  0.4778727E+02  0.7816164E-02  0.1312668E+00
        -11   -1    0    0    0    0  0.00000000000E+00  0.00000000000E+00  0.45593999997E+02  0.45594000000E+02  0.51100000000E-03 0. -1.
         11   -1    0    0    0    0 -0.00000000000E+00 -0.00000000000E+00 -0.45593999997E+02  0.45594000000E+02  0.51100000000E-03 0.  1.
    9900012    2    1    2    0    0 -0.13294200102E+02  0.37161582981E+02  0.18052817604E+02  0.47787271557E+02  0.20000002335E+02 0.  0.
        -12    1    1    2    0    0  0.13294200102E+02 -0.37161582981E+02 -0.18052817604E+02  0.43400728443E+02  0.00000000000E+00 0.  1.
         11    1    3    3    0    0  0.35174185624E+01  0.14226395334E+02  0.75575220173E+01  0.16488744550E+02  0.51100000000E-03 0. -1.
        -11    1    3    3    0    0 -0.30555001656E+01  0.99382395770E+01  0.21599574104E+01  0.10619326882E+02  0.51100000000E-03 0.  1.
        -12    1    3    3    0    0 -0.13756118499E+02  0.12996948070E+02  0.83353381763E+01  0.20679200125E+02  0.00000000000E+00 0.  1.
</event>
<event>
 7    1  0.5022032E-011  0.4778727E+02  0.7816164E-02  0.1312668E+00
        -11   -1    0    0    0    0  0.00000000000E+00  0.00000000000E+00  0.45593999997E+02  0.45594000000E+02  0.51100000000E-03 0. -1.
         11   -1    0    0    0    0 -0.00000000000E+00 -0.00000000000E+00 -0.45593999997E+02  0.45594000000E+02  0.51100000000E-03 0.  1.
    9900012    2    1    2    0    0 -0.31968748063E+02 -0.21557806301E+01  0.29274139694E+02  0.47787268467E+02  0.19999988248E+02 0.  0.
        -12    1    1    2    0    0  0.31968748063E+02  0.21557806301E+01 -0.29274139694E+02  0.43400731533E+02  0.00000000000E+00 0.  1.
         11    1    3    3    0    0 -0.18670614292E+02 -0.97704400139E+01  0.15432402235E+02  0.26119195530E+02  0.51100000000E-03 0. -1.
        -11    1    3    3    0    0 -0.17301840022E+00  0.15470433319E+01 -0.12858637362E+00  0.15619901261E+01  0.51100000000E-03 0.  1.
         12    1    3    3    0    0 -0.13125115370E+02  0.60676160519E+01  0.13970323832E+02  0.20106082811E+02  0.00000000000E+00 0. -1.
</event>
<event>
 7    1  0.5022032E-011  0.4778727E+02  0.7816164E-02  0.1312668E+00
        -11   -1    0    0    0    0  0.00000000000E+00  0.00000000000E+00  0.45593999997E+02  0.45594000000E+02  0.51100000000E-03 0. -1.
         11   -1    0    0    0    0 -0.00000000000E+00 -0.00000000000E+00 -0.45593999997E+02  0.45594000000E+02  0.51100000000E-03 0.  1.
    9900012    2    1    2    0    0  0.96373044650E+01  0.18669593866E+02  0.37976199245E+02  0.47787273260E+02  0.20000010101E+02 0.  0.
        -12    1    1    2    0    0 -0.96373044650E+01 -0.18669593866E+02 -0.37976199245E+02  0.43400726740E+02  0.00000000000E+00 0.  1.
         11    1    3    3    0    0 -0.12448504367E-01  0.11225899848E+02  0.29640770104E+02  0.31695366144E+02  0.51100000000E-03 0. -1.
        -11    1    3    3    0    0  0.25793134493E+01  0.35602615894E+01  0.64532483434E+01  0.78085040115E+01  0.51100000000E-03 0.  1.
        -12    1    3    3    0    0  0.70704395200E+01  0.38834324284E+01  0.18821807974E+01  0.82834031041E+01  0.00000000000E+00 0.  1.
</event>
<event>
 7    1  0.5022032E-011  0.4778727E+02  0.7816164E-02  0.1312668E+00
        -11   -1    0    0    0    0  0.00000000000E+00  0.00000000000E+00  0.45593999997E+02  0.45594000000E+02  0.51100000000E-03 0.  1.
         11   -1    0    0    0    0 -0.00000000000E+00 -0.00000000000E+00 -0.45593999997E+02  0.45594000000E+02  0.51100000000E-03 0. -1.
    9900012    2    1    2    0    0 -0.43275152974E+02 -0.20832626716E+01 -0.25582287209E+01  0.47787269794E+02  0.19999994298E+02 0.  0.
        -12    1    1    2    0    0  0.43275152974E+02  0.20832626716E+01  0.25582287209E+01  0.43400730206E+02  0.00000000000E+00 0.  1.
         11    1    3    3    0    0 -0.61116649007E+01  0.22042105149E+01 -0.38627102650E+01  0.75585397204E+01  0.51100000000E-03 0. -1.
        -11    1    3    3    0    0 -0.17141468046E+02  0.40146944332E+01  0.48604295645E+01  0.18263939169E+02  0.51100000000E-03 0.  1.
         12    1    3    3    0    0 -0.20022020027E+02 -0.83021676197E+01 -0.35559480204E+01  0.21964790904E+02  0.00000000000E+00 0. -1.
</event>
<event>
 7    1  0.5022032E-011  0.4778727E+02  0.7816164E-02  0.1312668E+00
        -11   -1    0    0    0    0  0.00000000000E+00  0.00000000000E+00  0.45593999997E+02  0.45594000000E+02  0.51100000000E-03 0. -1.
         11   -1    0    0    0    0 -0.00000000000E+00 -0.00000000000E+00 -0.45593999997E+02  0.45594000000E+02  0.51100000000E-03 0.  1.
    9900012    2    1    2    0    0  0.26263423049E+00 -0.78057747293E+01  0.42692204920E+02  0.47787268937E+02  0.19999990391E+02 0.  0.
        -12    1    1    2    0    0 -0.26263423049E+00  0.78057747293E+01 -0.42692204920E+02  0.43400731063E+02  0.00000000000E+00 0.  1.
         11    1    3    3    0    0 -0.39698063689E+01  0.52409687660E+00  0.75495068503E+01  0.85457061783E+01  0.51100000000E-03 0.  1.
        -11    1    3    3    0    0 -0.68985369257E+00 -0.24307185120E+01 -0.66997004278E+00  0.26140295946E+01  0.51100000000E-03 0. -1.
         12    1    3    3    0    0  0.49222942920E+01 -0.58991530939E+01  0.35812668113E+02  0.36627533164E+02  0.00000000000E+00 0. -1.
</event>
<event>
 7    1  0.5022032E-011  0.4778727E+02  0.7816164E-02  0.1312668E+00
        -11   -1    0    0    0    0  0.00000000000E+00  0.00000000000E+00  0.45593999997E+02  0.45594000000E+02  0.51100000000E-03 0.  1.
         11   -1    0    0    0    0 -0.00000000000E+00 -0.00000000000E+00 -0.45593999997E+02  0.45594000000E+02  0.51100000000E-03 0. -1.
    9900012    2    1    2    0    0  0.43276601090E+02 -0.45249107008E+00 -0.32487177123E+01  0.47787272854E+02  0.20000008250E+02 0.  0.
         12    1    1    2    0    0 -0.43276601090E+02  0.45249107008E+00  0.32487177123E+01  0.43400727146E+02  0.00000000000E+00 0. -1.
         11    1    3    3    0    0  0.88754382966E+01 -0.23884735235E+01 -0.17330043367E+01  0.93531553510E+01  0.51100000000E-03 0. -1.
        -11    1    3    3    0    0 -0.89965524236E+00 -0.31595619537E+00  0.26507261001E+01  0.28170120680E+01  0.51100000000E-03 0.  1.
        -12    1    3    3    0    0  0.35300818035E+02  0.22519386488E+01 -0.41664394757E+01  0.35617105435E+02  0.00000000000E+00 0.  1.
</event>
<event>
 7    1  0.5022032E-011  0.4778727E+02  0.7816164E-02  0.1312668E+00
        -11   -1    0    0    0    0  0.00000000000E+00  0.00000000000E+00  0.45593999997E+02  0.45594000000E+02  0.51100000000E-03 0. -1.
         11   -1    0    0    0    0 -0.00000000000E+00 -0.00000000000E+00 -0.45593999997E+02  0.45594000000E+02  0.51100000000E-03 0.  1.
    9900012    2    1    2    0    0  0.64508488471E+01  0.29293016531E+02  0.31367640378E+02  0.47787272688E+02  0.20000007492E+02 0.  0.
        -12    1    1    2    0    0 -0.64508488471E+01 -0.29293016531E+02 -0.31367640378E+02  0.43400727312E+02  0.00000000000E+00 0.  1.
         11    1    3    3    0    0  0.11123954082E+01  0.20273344841E+02  0.19154087067E+02  0.27912810432E+02  0.51100000000E-03 0. -1.
        -11    1    3    3    0    0 -0.10532193112E+00 -0.11233875146E+01  0.72518777458E+01  0.73391296022E+01  0.51100000000E-03 0.  1.
         12    1    3    3    0    0  0.54437753701E+01  0.10143059205E+02  0.49616755650E+01  0.12535332654E+02  0.00000000000E+00 0. -1.
</event>
<event>
 7    1  0.5022032E-011  0.4778727E+02  0.7816164E-02  0.1312668E+00
        -11   -1    0    0    0    0  0.00000000000E+00  0.00000000000E+00  0.45593999997E+02  0.45594000000E+02  0.51100000000E-03 0. -1.
         11   -1    0    0    0    0 -0.00000000000E+00 -0.00000000000E+00 -0.45593999997E+02  0.45594000000E+02  0.51100000000E-03 0.  1.
    9900012    2    1    2    0    0  0.43386678514E+02  0.68843714441E+00 -0.86350578748E+00  0.47787268896E+02  0.19999990203E+02 0.  0.
         12    1    1    2    0    0 -0.43386678514E+02 -0.68843714441E+00  0.86350578748E+00  0.43400731104E+02  0.00000000000E+00 0. -1.
         11    1    3    3    0    0  0.22173479300E+02 -0.31941697465E+00  0.16160474222E+01  0.22234586144E+02  0.51100000000E-03 0.  1.
        -11    1    3    3    0    0  0.18840066737E+02  0.31766554923E+01 -0.67004786541E+01  0.20246868134E+02  0.51100000000E-03 0. -1.
         12    1    3    3    0    0  0.23731324763E+01 -0.21688013732E+01  0.42209254444E+01  0.53058146174E+01  0.00000000000E+00 0. -1.
</event>
<event>
 7    1  0.5022032E-011  0.4778727E+02  0.7816164E-02  0.1312668E+00
        -11   -1    0    0    0    0  0.00000000000E+00  0.00000000000E+00  0.45593999997E+02  0.45594000000E+02  0.51100000000E-03 0. -1.
         11   -1    0    0    0    0 -0.00000000000E+00 -0.00000000000E+00 -0.45593999997E+02  0.45594000000E+02  0.51100000000E-03 0.  1.
    9900012    2    1    2    0    0 -0.13090584243E+02 -0.20905642047E+02 -0.35710142748E+02  0.47787267744E+02  0.19999984954E+02 0.  0.
         12    1    1    2    0    0  0.13090584243E+02  0.20905642047E+02  0.35710142748E+02  0.43400732256E+02  0.00000000000E+00 0. -1.
         11    1    3    3    0    0 -0.97372520050E+01 -0.11134548380E+02 -0.22449554027E+02  0.26884469876E+02  0.51100000000E-03 0. -1.
        -11    1    3    3    0    0 -0.20712495691E+01 -0.10515722382E+02 -0.15114551780E+02  0.18528900879E+02  0.51100000000E-03 0.  1.
         12    1    3    3    0    0 -0.12820826685E+01  0.74462871494E+00  0.18539630592E+01  0.23738969895E+01  0.00000000000E+00 0. -1.
</event>
<event>
 7    1  0.5022032E-011  0.4778728E+02  0.7816164E-02  0.1312668E+00
        -11   -1    0    0    0    0  0.00000000000E+00  0.00000000000E+00  0.45593999997E+02  0.45594000000E+02  0.51100000000E-03 0. -1.
         11   -1    0    0    0    0 -0.00000000000E+00 -0.00000000000E+00 -0.45593999997E+02  0.45594000000E+02  0.51100000000E-03 0.  1.
    9900012    2    1    2    0    0  0.73391073050E+01 -0.24679981325E+02 -0.34937925931E+02  0.47787278317E+02  0.20000033159E+02 0.  0.
         12    1    1    2    0    0 -0.73391073050E+01  0.24679981325E+02  0.34937925931E+02  0.43400721683E+02  0.00000000000E+00 0. -1.
         11    1    3    3    0    0  0.42124095736E+01 -0.10472270986E+01 -0.18818431418E+01  0.47310054833E+01  0.51100000000E-03 0. -1.
        -11    1    3    3    0    0  0.53644657342E+01 -0.16044114975E+02 -0.12512036626E+02  0.21041439560E+02  0.51100000000E-03 0.  1.
         12    1    3    3    0    0 -0.22377680028E+01 -0.75886392512E+01 -0.20544046163E+02  0.22014833274E+02  0.00000000000E+00 0. -1.
</event>
<event>
 7    1  0.5022032E-011  0.4778728E+02  0.7816164E-02  0.1312668E+00
        -11   -1    0    0    0    0  0.00000000000E+00  0.00000000000E+00  0.45593999997E+02  0.45594000000E+02  0.51100000000E-03 0. -1.
         11   -1    0    0    0    0 -0.00000000000E+00 -0.00000000000E+00 -0.45593999997E+02  0.45594000000E+02  0.51100000000E-03 0.  1.
    9900012    2    1    2    0    0  0.15092048820E+02  0.18003750511E+02 -0.36492705229E+02  0.47787279903E+02  0.20000040388E+02 0.  0.
         12    1    1    2    0    0 -0.15092048820E+02 -0.18003750511E+02  0.36492705229E+02  0.43400720097E+02  0.00000000000E+00 0. -1.
         11    1    3    3    0    0 -0.19239959794E+01 -0.11193463368E+01 -0.51847731789E+01  0.56423904445E+01  0.51100000000E-03 0. -1.
        -11    1    3    3    0    0  0.19091787303E+01  0.59259862230E+01 -0.15176079140E+02  0.16403525672E+02  0.51100000000E-03 0.  1.
        -12    1    3    3    0    0  0.15106866069E+02  0.13197110625E+02 -0.16131852910E+02  0.25741363787E+02  0.00000000000E+00 0.  1.
</event>
<event>
 7    1  0.5022032E-011  0.4778727E+02  0.7816164E-02  0.1312668E+00
        -11   -1    0    0    0    0  0.00000000000E+00  0.00000000000E+00  0.45593999997E+02  0.45594000000E+02  0.51100000000E-03 0. -1.
         11   -1    0    0    0    0 -0.00000000000E+00 -0.00000000000E+00 -0.45593999997E+02  0.45594000000E+02  0.51100000000E-03 0.  1.
    9900012    2    1    2    0    0 -0.94311601395E+01 -0.13759197453E+02 -0.40066953375E+02  0.47787273637E+02  0.20000011819E+02 0.  0.
         12    1    1    2    0    0  0.94311601395E+01  0.13759197453E+02  0.40066953375E+02  0.43400726363E+02  0.00000000000E+00 0. -1.
         11    1    3    3    0    0 -0.77017212594E+01 -0.59232660858E+00 -0.59315464956E+01  0.97391275410E+01  0.51100000000E-03 0. -1.
        -11    1    3    3    0    0 -0.45859349590E+01 -0.38550958544E+01 -0.69785306434E+01  0.91974155988E+01  0.51100000000E-03 0.  1.
         12    1    3    3    0    0  0.28564960789E+01 -0.93117749904E+01 -0.27156876236E+02  0.28850730497E+02  0.00000000000E+00 0. -1.
</event>
<event>
 7    1  0.7958977E-011  0.4778727E+02  0.7816164E-02  0.1312668E+00
        -11   -1    0    0    0    0  0.00000000000E+00  0.00000000000E+00  0.45593999997E+02  0.45594000000E+02  0.51100000000E-03 0. -1.
         11   -1    0    0    0    0 -0.00000000000E+00 -0.00000000000E+00 -0.45593999997E+02  0.45594000000E+02  0.51100000000E-03 0.  1.
    9900012    2    1    2    0    0 -0.10374246884E+02 -0.33370887123E+02 -0.25736793641E+02  0.47787266680E+02  0.19999980101E+02 0.  0.
         12    1    1    2    0    0  0.10374246884E+02  0.33370887123E+02  0.25736793641E+02  0.43400733320E+02  0.00000000000E+00 0. -1.
         11    1    3    3    0    0  0.43609611789E+00 -0.11618995302E+02 -0.27011189933E+01  0.11936803413E+02  0.51100000000E-03 0. -1.
        -11    1    3    3    0    0 -0.37287429299E+01 -0.13508512733E+02 -0.51657420550E+01  0.14935472250E+02  0.51100000000E-03 0.  1.
        -12    1    3    3    0    0 -0.70816000723E+01 -0.82433790885E+01 -0.17869932592E+02  0.20914991017E+02  0.00000000000E+00 0.  1.
</event>
<event>
 7    1  0.5022032E-011  0.4778727E+02  0.7816164E-02  0.1312668E+00
        -11   -1    0    0    0    0  0.00000000000E+00  0.00000000000E+00  0.45593999997E+02  0.45594000000E+02  0.51100000000E-03 0. -1.
         11   -1    0    0    0    0 -0.00000000000E+00 -0.00000000000E+00 -0.45593999997E+02  0.45594000000E+02  0.51100000000E-03 0.  1.
    9900012    2    1    2    0    0  0.10183834252E+02  0.38809585989E+02  0.16544747875E+02  0.47787272737E+02  0.20000007716E+02 0.  0.
        -12    1    1    2    0    0 -0.10183834252E+02 -0.38809585989E+02 -0.16544747875E+02  0.43400727263E+02  0.00000000000E+00 0.  1.
         11    1    3    3    0    0  0.64858648234E+01  0.33422327272E+02  0.12425457500E+02  0.36242383988E+02  0.51100000000E-03 0. -1.
        -11    1    3    3    0    0  0.27884837737E+01  0.62276839306E+01  0.61371309287E+01  0.91773670077E+01  0.51100000000E-03 0.  1.
        -12    1    3    3    0    0  0.90948565487E+00 -0.84042521316E+00 -0.20178405536E+01  0.23675217412E+01  0.00000000000E+00 0.  1.
</event>
<event>
 7    1  0.5022032E-011  0.4778728E+02  0.7816164E-02  0.1312668E+00
        -11   -1    0    0    0    0  0.00000000000E+00  0.00000000000E+00  0.45593999997E+02  0.45594000000E+02  0.51100000000E-03 0. -1.
         11   -1    0    0    0    0 -0.00000000000E+00 -0.00000000000E+00 -0.45593999997E+02  0.45594000000E+02  0.51100000000E-03 0.  1.
    9900012    2    1    2    0    0  0.13744551033E+02  0.29046567962E+02  0.29172026449E+02  0.47787275114E+02  0.20000018555E+02 0.  0.
        -12    1    1    2    0    0 -0.13744551033E+02 -0.29046567962E+02 -0.29172026449E+02  0.43400724886E+02  0.00000000000E+00 0.  1.
         11    1    3    3    0    0  0.33845154164E+01  0.54669309448E+01  0.10877915792E+02  0.12636112171E+02  0.51100000000E-03 0. -1.
        -11    1    3    3    0    0  0.13900242993E+01  0.36711530660E+01  0.11700458542E+02  0.12341404407E+02  0.51100000000E-03 0.  1.
        -12    1    3    3    0    0  0.89700113168E+01  0.19908483952E+02  0.65936521156E+01  0.22809758537E+02  0.00000000000E+00 0.  1.
</event>
<event>
 7    1  0.5022032E-011  0.4778727E+02  0.7816164E-02  0.1312668E+00
        -11   -1    0    0    0    0  0.00000000000E+00  0.00000000000E+00  0.45593999997E+02  0.45594000000E+02  0.51100000000E-03 0. -1.
         11   -1    0    0    0    0 -0.00000000000E+00 -0.00000000000E+00 -0.45593999997E+02  0.45594000000E+02  0.51100000000E-03 0.  1.
    9900012    2    1    2    0    0  0.14193742547E+02  0.18505869285E+02 -0.36601828386E+02  0.47787269975E+02  0.19999995124E+02 0.  0.
         12    1    1    2    0    0 -0.14193742547E+02 -0.18505869285E+02  0.36601828386E+02  0.43400730025E+02  0.00000000000E+00 0. -1.
         11    1    3    3    0    0  0.11537055142E+02  0.85168961628E+01 -0.75865273357E+01  0.16223333778E+02  0.51100000000E-03 0. -1.
        -11    1    3    3    0    0  0.30771759889E+00  0.26766557054E+01 -0.16915345387E+01  0.31812678671E+01  0.51100000000E-03 0.  1.
        -12    1    3    3    0    0  0.23489698064E+01  0.73123174173E+01 -0.27323766512E+02  0.28382668330E+02  0.00000000000E+00 0.  1.
</event>
<event>
 7    1  0.5022032E-011  0.4778731E+02  0.7816164E-02  0.1312668E+00
        -11   -1    0    0    0    0  0.00000000000E+00  0.00000000000E+00  0.45593999997E+02  0.45594000000E+02  0.51100000000E-03 0. -1.
         11   -1    0    0    0    0 -0.00000000000E+00 -0.00000000000E+00 -0.45593999997E+02  0.45594000000E+02  0.51100000000E-03 0.  1.
    9900012    2    1    2    0    0  0.18781004733E+02  0.12318816680E+02  0.37136776188E+02  0.47787314190E+02  0.20000196717E+02 0.  0.
        -12    1    1    2    0    0 -0.18781004733E+02 -0.12318816680E+02 -0.37136776188E+02  0.43400685810E+02  0.00000000000E+00 0.  1.
         11    1    3    3    0    0  0.37179251067E+01  0.19219193448E+01  0.10746941764E+02  0.11533147818E+02  0.51100000000E-03 0. -1.
        -11    1    3    3    0    0  0.13314123182E+02  0.12748767606E+02  0.27511346102E+02  0.33116025066E+02  0.51100000000E-03 0.  1.
        -12    1    3    3    0    0  0.17489564439E+01 -0.23518702707E+01 -0.11215116777E+01  0.31381413059E+01  0.00000000000E+00 0.  1.
</event>
<event>
 7    1  0.5022032E-011  0.4778727E+02  0.7816164E-02  0.1312668E+00
        -11   -1    0    0    0    0  0.00000000000E+00  0.00000000000E+00  0.45593999997E+02  0.45594000000E+02  0.51100000000E-03 0. -1.
         11   -1    0    0    0    0 -0.00000000000E+00 -0.00000000000E+00 -0.45593999997E+02  0.45594000000E+02  0.51100000000E-03 0.  1.
    9900012    2    1    2    0    0  0.16434338291E+02 -0.81429911124E+01  0.39334813119E+02  0.47787270716E+02  0.19999998502E+02 0.  0.
        -12    1    1    2    0    0 -0.16434338291E+02  0.81429911124E+01 -0.39334813119E+02  0.43400729284E+02  0.00000000000E+00 0.  1.
         11    1    3    3    0    0  0.42138020314E+01  0.53818177948E+01  0.60872050676E+01  0.91528223042E+01  0.51100000000E-03 0. -1.
        -11    1    3    3    0    0  0.19360516378E+00 -0.33446783661E+01  0.10031094662E+02  0.10575784449E+02  0.51100000000E-03 0.  1.
        -12    1    3    3    0    0  0.12026931096E+02 -0.10180130541E+02  0.23216513388E+02  0.28058663962E+02  0.00000000000E+00 0.  1.
</event>
<event>
 7    1  0.5022032E-011  0.4778724E+02  0.7816164E-02  0.1312668E+00
        -11   -1    0    0    0    0  0.00000000000E+00  0.00000000000E+00  0.45593999997E+02  0.45594000000E+02  0.51100000000E-03 0.  1.
         11   -1    0    0    0    0 -0.00000000000E+00 -0.00000000000E+00 -0.45593999997E+02  0.45594000000E+02  0.51100000000E-03 0. -1.
    9900012    2    1    2    0    0  0.30980005539E+02  0.13961437917E+02 -0.26998955101E+02  0.47787238850E+02  0.19999853210E+02 0.  0.
         12    1    1    2    0    0 -0.30980005539E+02 -0.13961437917E+02  0.26998955101E+02  0.43400761150E+02  0.00000000000E+00 0. -1.
         11    1    3    3    0    0  0.12528194427E+01 -0.24699937961E+01  0.13257161867E+01  0.30704966337E+01  0.51100000000E-03 0. -1.
        -11    1    3    3    0    0  0.92758205590E+01  0.51710111882E+01 -0.50818088851E+01  0.11773061860E+02  0.51100000000E-03 0.  1.
        -12    1    3    3    0    0  0.20451365537E+02  0.11260420525E+02 -0.23242862403E+02  0.32943680356E+02  0.00000000000E+00 0.  1.
</event>
<event>
 7    1  0.5022032E-011  0.4778728E+02  0.7816164E-02  0.1312668E+00
        -11   -1    0    0    0    0  0.00000000000E+00  0.00000000000E+00  0.45593999997E+02  0.45594000000E+02  0.51100000000E-03 0. -1.
         11   -1    0    0    0    0 -0.00000000000E+00 -0.00000000000E+00 -0.45593999997E+02  0.45594000000E+02  0.51100000000E-03 0.  1.
    9900012    2    1    2    0    0 -0.19713118125E+02 -0.19783330188E+02 -0.33221002263E+02  0.47787283751E+02  0.20000057935E+02 0.  0.
         12    1    1    2    0    0  0.19713118125E+02  0.19783330188E+02  0.33221002263E+02  0.43400716249E+02  0.00000000000E+00 0. -1.
         11    1    3    3    0    0  0.71472075798E+00  0.86820324995E+00 -0.73660315758E+01  0.74513773278E+01  0.51100000000E-03 0. -1.
        -11    1    3    3    0    0  0.16056406450E+00 -0.51355654622E+01 -0.35435233038E+01  0.62415039134E+01  0.51100000000E-03 0.  1.
        -12    1    3    3    0    0 -0.20588402948E+02 -0.15515967976E+02 -0.22311447384E+02  0.34094402510E+02  0.00000000000E+00 0.  1.
</event>
<event>
 7    1  0.5022032E-011  0.4778727E+02  0.7816164E-02  0.1312668E+00
        -11   -1    0    0    0    0  0.00000000000E+00  0.00000000000E+00  0.45593999997E+02  0.45594000000E+02  0.51100000000E-03 0. -1.
         11   -1    0    0    0    0 -0.00000000000E+00 -0.00000000000E+00 -0.45593999997E+02  0.45594000000E+02  0.51100000000E-03 0.  1.
    9900012    2    1    2    0    0 -0.60161414022E+00 -0.30241472432E+02 -0.31124180238E+02  0.47787272012E+02  0.20000004411E+02 0.  0.
         12    1    1    2    0    0  0.60161414022E+00  0.30241472432E+02  0.31124180238E+02  0.43400727988E+02  0.00000000000E+00 0. -1.
         11    1    3    3    0    0 -0.37344282401E-01 -0.81746477421E+01 -0.22813012581E+01  0.84870840690E+01  0.51100000000E-03 0. -1.
        -11    1    3    3    0    0  0.58822178261E+01 -0.31249366757E+01 -0.79514424665E+01  0.10372615550E+02  0.51100000000E-03 0.  1.
        -12    1    3    3    0    0 -0.64464876839E+01 -0.18941888014E+02 -0.20891436513E+02  0.28927572393E+02  0.00000000000E+00 0.  1.
</event>
<event>
 7    1  0.5022032E-011  0.4778724E+02  0.7816164E-02  0.1312668E+00
        -11   -1    0    0    0    0  0.00000000000E+00  0.00000000000E+00  0.45593999997E+02  0.45594000000E+02  0.51100000000E-03 0. -1.
         11   -1    0    0    0    0 -0.00000000000E+00 -0.00000000000E+00 -0.45593999997E+02  0.45594000000E+02  0.51100000000E-03 0.  1.
    9900012    2    1    2    0    0  0.42608281545E+01  0.28301049966E+02 -0.32627010871E+02  0.47787240512E+02  0.19999860792E+02 0.  0.
         12    1    1    2    0    0 -0.42608281545E+01 -0.28301049966E+02  0.32627010871E+02  0.43400759488E+02  0.00000000000E+00 0. -1.
         11    1    3    3    0    0  0.74616865890E+01  0.65208456502E+01 -0.11451777427E+02  0.15144021964E+02  0.51100000000E-03 0.  1.
        -11    1    3    3    0    0  0.31565716551E+01  0.11636833305E+02 -0.64770985223E+01  0.13686951433E+02  0.51100000000E-03 0. -1.
         12    1    3    3    0    0 -0.63574300896E+01  0.10143371010E+02 -0.14698134922E+02  0.18956267116E+02  0.00000000000E+00 0. -1.
</event>
<event>
 7    1  0.5022032E-011  0.4778727E+02  0.7816164E-02  0.1312668E+00
        -11   -1    0    0    0    0  0.00000000000E+00  0.00000000000E+00  0.45593999997E+02  0.45594000000E+02  0.51100000000E-03 0.  1.
         11   -1    0    0    0    0 -0.00000000000E+00 -0.00000000000E+00 -0.45593999997E+02  0.45594000000E+02  0.51100000000E-03 0. -1.
    9900012    2    1    2    0    0 -0.40704168197E+02  0.18607559798E+01 -0.14944285599E+02  0.47787269666E+02  0.19999993716E+02 0.  0.
         12    1    1    2    0    0  0.40704168197E+02 -0.18607559798E+01  0.14944285599E+02  0.43400730334E+02  0.00000000000E+00 0. -1.
         11    1    3    3    0    0 -0.85265332456E+01 -0.37097444829E+01 -0.48799128727E+01  0.10501310548E+02  0.51100000000E-03 0. -1.
        -11    1    3    3    0    0 -0.28280290983E+02  0.46204537921E+01 -0.13799442861E+02  0.31804843576E+02  0.51100000000E-03 0.  1.
        -12    1    3    3    0    0 -0.38973439682E+01  0.95004667053E+00  0.37350701345E+01  0.54811155427E+01  0.00000000000E+00 0.  1.
</event>
<event>
 7    1  0.5022032E-011  0.4778727E+02  0.7816164E-02  0.1312668E+00
        -11   -1    0    0    0    0  0.00000000000E+00  0.00000000000E+00  0.45593999997E+02  0.45594000000E+02  0.51100000000E-03 0. -1.
         11   -1    0    0    0    0 -0.00000000000E+00 -0.00000000000E+00 -0.45593999997E+02  0.45594000000E+02  0.51100000000E-03 0.  1.
    9900012    2    1    2    0    0 -0.33083320474E+02  0.27810164324E+02  0.39638280042E+01  0.47787271137E+02  0.20000000423E+02 0.  0.
         12    1    1    2    0    0  0.33083320474E+02 -0.27810164324E+02 -0.39638280042E+01  0.43400728863E+02  0.00000000000E+00 0. -1.
         11    1    3    3    0    0  0.65674545226E-01 -0.13071683696E+01  0.15591741392E+01  0.20356882251E+01  0.51100000000E-03 0. -1.
        -11    1    3    3    0    0 -0.69026819412E+01  0.57855368965E+01 -0.43311093293E+01  0.99938963095E+01  0.51100000000E-03 0.  1.
         12    1    3    3    0    0 -0.26246313079E+02  0.23331795798E+02  0.67357631943E+01  0.35757686603E+02  0.00000000000E+00 0. -1.
</event>
<event>
 7    1  0.5022032E-011  0.4778727E+02  0.7816164E-02  0.1312668E+00
        -11   -1    0    0    0    0  0.00000000000E+00  0.00000000000E+00  0.45593999997E+02  0.45594000000E+02  0.51100000000E-03 0.  1.
         11   -1    0    0    0    0 -0.00000000000E+00 -0.00000000000E+00 -0.45593999997E+02  0.45594000000E+02  0.51100000000E-03 0. -1.
    9900012    2    1    2    0    0 -0.12945860135E+02 -0.41161866114E+02 -0.46614047730E+01  0.47787271768E+02  0.20000003298E+02 0.  0.
         12    1    1    2    0    0  0.12945860135E+02  0.41161866114E+02  0.46614047730E+01  0.43400728232E+02  0.00000000000E+00 0. -1.
         11    1    3    3    0    0  0.32074817599E+01 -0.46838920499E+01 -0.14672280531E+01  0.58634070638E+01  0.51100000000E-03 0. -1.
        -11    1    3    3    0    0 -0.14489484769E+01 -0.16397008758E+02 -0.42898880104E+01  0.17010716837E+02  0.51100000000E-03 0.  1.
         12    1    3    3    0    0 -0.14704393418E+02 -0.20080965306E+02  0.10957112905E+01  0.24913147867E+02  0.00000000000E+00 0. -1.
</event>
<event>
 7    1  0.5022032E-011  0.4778727E+02  0.7816164E-02  0.1312668E+00
        -11   -1    0    0    0    0  0.00000000000E+00  0.00000000000E+00  0.45593999997E+02  0.45594000000E+02  0.51100000000E-03 0. -1.
         11   -1    0    0    0    0 -0.00000000000E+00 -0.00000000000E+00 -0.45593999997E+02  0.45594000000E+02  0.51100000000E-03 0.  1.
    9900012    2    1    2    0    0 -0.66566133439E+01 -0.26833379577E+02  0.33455685257E+02  0.47787266864E+02  0.19999980938E+02 0.  0.
        -12    1    1    2    0    0  0.66566133439E+01  0.26833379577E+02 -0.33455685257E+02  0.43400733136E+02  0.00000000000E+00 0.  1.
         11    1    3    3    0    0 -0.17185261303E+01 -0.67346115286E+01  0.72737259244E+01  0.10060587139E+02  0.51100000000E-03 0. -1.
        -11    1    3    3    0    0  0.52490315346E+01 -0.95320893278E+01  0.17691616070E+02  0.20770323503E+02  0.51100000000E-03 0.  1.
         12    1    3    3    0    0 -0.10187118748E+02 -0.10566678721E+02  0.84903432632E+01  0.16956356221E+02  0.00000000000E+00 0. -1.
</event>
<event>
 7    1  0.5022032E-011  0.4778727E+02  0.7816164E-02  0.1312668E+00
        -11   -1    0    0    0    0  0.00000000000E+00  0.00000000000E+00  0.45593999997E+02  0.45594000000E+02  0.51100000000E-03 0. -1.
         11   -1    0    0    0    0 -0.00000000000E+00 -0.00000000000E+00 -0.45593999997E+02  0.45594000000E+02  0.51100000000E-03 0.  1.
    9900012    2    1    2    0    0 -0.67365860897E+01 -0.37631653478E+02 -0.20545083392E+02  0.47787269738E+02  0.19999994046E+02 0.  0.
         12    1    1    2    0    0  0.67365860897E+01  0.37631653478E+02  0.20545083392E+02  0.43400730262E+02  0.00000000000E+00 0. -1.
         11    1    3    3    0    0 -0.53407762865E+01 -0.12960455671E+02 -0.63382071707E+01  0.15384088304E+02  0.51100000000E-03 0. -1.
        -11    1    3    3    0    0 -0.80762516466E+00 -0.26428913843E+02 -0.14985782041E+02  0.30392653865E+02  0.51100000000E-03 0.  1.
         12    1    3    3    0    0 -0.58818463853E+00  0.17577160357E+01  0.77890581984E+00  0.20105275694E+01  0.00000000000E+00 0. -1.
</event>
<event>
 7    1  0.5022032E-011  0.4778727E+02  0.7816164E-02  0.1312668E+00
        -11   -1    0    0    0    0  0.00000000000E+00  0.00000000000E+00  0.45593999997E+02  0.45594000000E+02  0.51100000000E-03 0. -1.
         11   -1    0    0    0    0 -0.00000000000E+00 -0.00000000000E+00 -0.45593999997E+02  0.45594000000E+02  0.51100000000E-03 0.  1.
    9900012    2    1    2    0    0 -0.12217584532E+02  0.95761353184E+01  0.40529636984E+02  0.47787271740E+02  0.20000003170E+02 0.  0.
        -12    1    1    2    0    0  0.12217584532E+02 -0.95761353184E+01 -0.40529636984E+02  0.43400728260E+02  0.00000000000E+00 0.  1.
         11    1    3    3    0    0 -0.65679451615E+01  0.37032524270E+00  0.33629434046E+01  0.73881278436E+01  0.51100000000E-03 0. -1.
        -11    1    3    3    0    0  0.20842047440E+01  0.76368685115E+01  0.19787905604E+02  0.21312599056E+02  0.51100000000E-03 0.  1.
         12    1    3    3    0    0 -0.77338441143E+01  0.15689415642E+01  0.17378787976E+02  0.19086544840E+02  0.00000000000E+00 0. -1.
</event>
<event>
 7    1  0.5022032E-011  0.4778727E+02  0.7816164E-02  0.1312668E+00
        -11   -1    0    0    0    0  0.00000000000E+00  0.00000000000E+00  0.45593999997E+02  0.45594000000E+02  0.51100000000E-03 0. -1.
         11   -1    0    0    0    0 -0.00000000000E+00 -0.00000000000E+00 -0.45593999997E+02  0.45594000000E+02  0.51100000000E-03 0.  1.
    9900012    2    1    2    0    0 -0.17997967251E+02 -0.27892930615E+02  0.27958558075E+02  0.47787269901E+02  0.19999994788E+02 0.  0.
        -12    1    1    2    0    0  0.17997967251E+02  0.27892930615E+02 -0.27958558075E+02  0.43400730099E+02  0.00000000000E+00 0.  1.
         11    1    3    3    0    0  0.25509191753E+01 -0.10308357818E+02  0.56279301197E+01  0.12018445292E+02  0.51100000000E-03 0. -1.
        -11    1    3    3    0    0 -0.57209483724E+01 -0.83883469292E+01  0.10972035189E+02  0.14949219743E+02  0.51100000000E-03 0.  1.
        -12    1    3    3    0    0 -0.14827938054E+02 -0.91962258683E+01  0.11358592767E+02  0.20819604866E+02  0.00000000000E+00 0.  1.
</event>
<event>
 7    1  0.5022032E-011  0.4778727E+02  0.7816164E-02  0.1312668E+00
        -11   -1    0    0    0    0  0.00000000000E+00  0.00000000000E+00  0.45593999997E+02  0.45594000000E+02  0.51100000000E-03 0. -1.
         11   -1    0    0    0    0 -0.00000000000E+00 -0.00000000000E+00 -0.45593999997E+02  0.45594000000E+02  0.51100000000E-03 0.  1.
    9900012    2    1    2    0    0  0.10785217222E+02  0.34211901806E+02  0.24430476835E+02  0.47787270350E+02  0.19999996835E+02 0.  0.
        -12    1    1    2    0    0 -0.10785217222E+02 -0.34211901806E+02 -0.24430476835E+02  0.43400729650E+02  0.00000000000E+00 0.  1.
         11    1    3    3    0    0  0.19222008069E+01  0.53532388607E+00  0.36209904081E+01  0.41343680777E+01  0.51100000000E-03 0. -1.
        -11    1    3    3    0    0 -0.19760845918E+01 -0.83770189581E+00  0.66951168219E+00  0.22483106845E+01  0.51100000000E-03 0.  1.
         12    1    3    3    0    0  0.10839101007E+02  0.34514279816E+02  0.20139974745E+02  0.41404591588E+02  0.00000000000E+00 0. -1.
</event>
<event>
 7    1  0.5022032E-011  0.4778727E+02  0.7816164E-02  0.1312668E+00
        -11   -1    0    0    0    0  0.00000000000E+00  0.00000000000E+00  0.45593999997E+02  0.45594000000E+02  0.51100000000E-03 0. -1.
         11   -1    0    0    0    0 -0.00000000000E+00 -0.00000000000E+00 -0.45593999997E+02  0.45594000000E+02  0.51100000000E-03 0.  1.
    9900012    2    1    2    0    0  0.26039795683E+02 -0.36323347102E+01 -0.34530546716E+02  0.47787268772E+02  0.19999989637E+02 0.  0.
         12    1    1    2    0    0 -0.26039795683E+02  0.36323347102E+01  0.34530546716E+02  0.43400731228E+02  0.00000000000E+00 0. -1.
         11    1    3    3    0    0  0.13336969671E+02 -0.10160023243E+02 -0.14640953298E+02  0.22258893640E+02  0.51100000000E-03 0. -1.
        -11    1    3    3    0    0  0.11382097031E+02  0.24899443449E+01 -0.13229453795E+02  0.17628681279E+02  0.51100000000E-03 0.  1.
        -12    1    3    3    0    0  0.13207289800E+01  0.40377441882E+01 -0.66601396227E+01  0.78996938524E+01  0.00000000000E+00 0.  1.
</event>
<event>
 7    1  0.5022032E-011  0.4778727E+02  0.7816164E-02  0.1312668E+00
        -11   -1    0    0    0    0  0.00000000000E+00  0.00000000000E+00  0.45593999997E+02  0.45594000000E+02  0.51100000000E-03 0. -1.
         11   -1    0    0    0    0 -0.00000000000E+00 -0.00000000000E+00 -0.45593999997E+02  0.45594000000E+02  0.51100000000E-03 0.  1.
    9900012    2    1    2    0    0  0.85842700297E+01 -0.37461141820E+02  0.20164243261E+02  0.47787267925E+02  0.19999985775E+02 0.  0.
        -12    1    1    2    0    0 -0.85842700297E+01  0.37461141820E+02 -0.20164243261E+02  0.43400732075E+02  0.00000000000E+00 0.  1.
         11    1    3    3    0    0  0.53533821480E+01 -0.28572820307E+02  0.98598409614E+01  0.30696599564E+02  0.51100000000E-03 0. -1.
        -11    1    3    3    0    0  0.42797018216E+01 -0.78701551353E+01  0.27137243026E+01  0.93605282644E+01  0.51100000000E-03 0.  1.
        -12    1    3    3    0    0 -0.10488139399E+01 -0.10181663772E+01  0.75906779972E+01  0.77301400964E+01  0.00000000000E+00 0.  1.
</event>
<event>
 7    1  0.5022032E-011  0.4778728E+02  0.7816164E-02  0.1312668E+00
        -11   -1    0    0    0    0  0.00000000000E+00  0.00000000000E+00  0.45593999997E+02  0.45594000000E+02  0.51100000000E-03 0. -1.
         11   -1    0    0    0    0 -0.00000000000E+00 -0.00000000000E+00 -0.45593999997E+02  0.45594000000E+02  0.51100000000E-03 0.  1.
    9900012    2    1    2    0    0 -0.30654030689E+02  0.15156895082E+02  0.26724928418E+02  0.47787275755E+02  0.20000021478E+02 0.  0.
        -12    1    1    2    0    0  0.30654030689E+02 -0.15156895082E+02 -0.26724928418E+02  0.43400724245E+02  0.00000000000E+00 0.  1.
         11    1    3    3    0    0 -0.13184606384E+02  0.60196950963E+01  0.11540664881E+02  0.18527210279E+02  0.51100000000E-03 0. -1.
        -11    1    3    3    0    0 -0.37424260859E+01  0.57857560215E+01 -0.18435241582E+01  0.71329732462E+01  0.51100000000E-03 0.  1.
        -12    1    3    3    0    0 -0.13726998219E+02  0.33514439644E+01  0.17027787696E+02  0.22127092230E+02  0.00000000000E+00 0.  1.
</event>
<event>
 7    1  0.5022032E-011  0.4778727E+02  0.7816164E-02  0.1312668E+00
        -11   -1    0    0    0    0  0.00000000000E+00  0.00000000000E+00  0.45593999997E+02  0.45594000000E+02  0.51100000000E-03 0. -1.
         11   -1    0    0    0    0 -0.00000000000E+00 -0.00000000000E+00 -0.45593999997E+02  0.45594000000E+02  0.51100000000E-03 0.  1.
    9900012    2    1    2    0    0 -0.29596537094E+02 -0.17130040456E+01  0.31697541819E+02  0.47787267884E+02  0.19999985592E+02 0.  0.
        -12    1    1    2    0    0  0.29596537094E+02  0.17130040456E+01 -0.31697541819E+02  0.43400732116E+02  0.00000000000E+00 0.  1.
         11    1    3    3    0    0 -0.11132343580E+02  0.52560378424E+01  0.91017159645E+01  0.15310004609E+02  0.51100000000E-03 0. -1.
        -11    1    3    3    0    0 -0.76233021427E+01  0.11215684769E+01  0.22178118562E+01  0.80181881430E+01  0.51100000000E-03 0.  1.
         12    1    3    3    0    0 -0.10840891372E+02 -0.80906103649E+01  0.20378013998E+02  0.24459075132E+02  0.00000000000E+00 0. -1.
</event>
<event>
 7    1  0.5022032E-011  0.4778727E+02  0.7816164E-02  0.1312668E+00
        -11   -1    0    0    0    0  0.00000000000E+00  0.00000000000E+00  0.45593999997E+02  0.45594000000E+02  0.51100000000E-03 0. -1.
         11   -1    0    0    0    0 -0.00000000000E+00 -0.00000000000E+00 -0.45593999997E+02  0.45594000000E+02  0.51100000000E-03 0.  1.
    9900012    2    1    2    0    0 -0.35413428910E+02 -0.13027081013E+02  0.21443124955E+02  0.47787269652E+02  0.19999993651E+02 0.  0.
        -12    1    1    2    0    0  0.35413428910E+02  0.13027081013E+02 -0.21443124955E+02  0.43400730348E+02  0.00000000000E+00 0.  1.
         11    1    3    3    0    0 -0.51144386227E+01  0.35093320873E+01  0.57025561122E+01  0.84256774563E+01  0.51100000000E-03 0. -1.
        -11    1    3    3    0    0 -0.17208551112E+02 -0.12908241916E+02  0.14000811450E+02  0.25666703377E+02  0.51100000000E-03 0.  1.
         12    1    3    3    0    0 -0.13090439176E+02 -0.36281711844E+01  0.17397573933E+01  0.13694888819E+02  0.00000000000E+00 0. -1.
</event>
<event>
 7    1  0.5022032E-011  0.4778727E+02  0.7816164E-02  0.1312668E+00
        -11   -1    0    0    0    0  0.00000000000E+00  0.00000000000E+00  0.45593999997E+02  0.45594000000E+02  0.51100000000E-03 0. -1.
         11   -1    0    0    0    0 -0.00000000000E+00 -0.00000000000E+00 -0.45593999997E+02  0.45594000000E+02  0.51100000000E-03 0.  1.
    9900012    2    1    2    0    0  0.63319298016E+01  0.22531467116E+02 -0.36549456903E+02  0.47787272526E+02  0.20000006754E+02 0.  0.
         12    1    1    2    0    0 -0.63319298016E+01 -0.22531467116E+02  0.36549456903E+02  0.43400727474E+02  0.00000000000E+00 0. -1.
         11    1    3    3    0    0  0.16538858107E+01  0.88439474430E+01 -0.32281857980E+01  0.95588664839E+01  0.51100000000E-03 0. -1.
        -11    1    3    3    0    0  0.24531072788E+01  0.15074508264E+02 -0.23221114265E+02  0.27793500727E+02  0.51100000000E-03 0.  1.
        -12    1    3    3    0    0  0.22249367121E+01 -0.13869885916E+01 -0.10100156840E+02  0.10434905315E+02  0.00000000000E+00 0.  1.
</event>
<event>
 7    1  0.5022032E-011  0.4778727E+02  0.7816164E-02  0.1312668E+00
        -11   -1    0    0    0    0  0.00000000000E+00  0.00000000000E+00  0.45593999997E+02  0.45594000000E+02  0.51100000000E-03 0. -1.
         11   -1    0    0    0    0 -0.00000000000E+00 -0.00000000000E+00 -0.45593999997E+02  0.45594000000E+02  0.51100000000E-03 0.  1.
    9900012    2    1    2    0    0  0.12946280605E+02 -0.34181064705E+02 -0.23402389464E+02  0.47787271913E+02  0.20000003960E+02 0.  0.
         12    1    1    2    0    0 -0.12946280605E+02  0.34181064705E+02  0.23402389464E+02  0.43400728087E+02  0.00000000000E+00 0. -1.
         11    1    3    3    0    0 -0.11855796399E+01 -0.53311312201E+01 -0.58254212989E+01  0.79851169522E+01  0.51100000000E-03 0. -1.
        -11    1    3    3    0    0  0.25682804989E+01 -0.21940199346E+02 -0.91321616870E+01  0.23903238052E+02  0.51100000000E-03 0.  1.
         12    1    3    3    0    0  0.11563579746E+02 -0.69097341394E+01 -0.84448064776E+01  0.15898916908E+02  0.00000000000E+00 0. -1.
</event>
<event>
 7    1  0.5022032E-011  0.4778727E+02  0.7816164E-02  0.1312668E+00
        -11   -1    0    0    0    0  0.00000000000E+00  0.00000000000E+00  0.45593999997E+02  0.45594000000E+02  0.51100000000E-03 0. -1.
         11   -1    0    0    0    0 -0.00000000000E+00 -0.00000000000E+00 -0.45593999997E+02  0.45594000000E+02  0.51100000000E-03 0.  1.
    9900012    2    1    2    0    0  0.28132037755E+02 -0.73307370451E+01 -0.32225332154E+02  0.47787270901E+02  0.19999999345E+02 0.  0.
         12    1    1    2    0    0 -0.28132037755E+02  0.73307370451E+01  0.32225332154E+02  0.43400729099E+02  0.00000000000E+00 0. -1.
         11    1    3    3    0    0  0.27211004193E+02 -0.32361986639E+01 -0.31842990785E+02  0.42010567639E+02  0.51100000000E-03 0. -1.
        -11    1    3    3    0    0  0.15972828031E+01 -0.17961281309E+01 -0.17909331948E+01  0.29974706979E+01  0.51100000000E-03 0.  1.
         12    1    3    3    0    0 -0.67624924097E+00 -0.22984102503E+01  0.14085918250E+01  0.27792325638E+01  0.00000000000E+00 0. -1.
</event>
<event>
 7    1  0.5022032E-011  0.4778727E+02  0.7816164E-02  0.1312668E+00
        -11   -1    0    0    0    0  0.00000000000E+00  0.00000000000E+00  0.45593999997E+02  0.45594000000E+02  0.51100000000E-03 0. -1.
         11   -1    0    0    0    0 -0.00000000000E+00 -0.00000000000E+00 -0.45593999997E+02  0.45594000000E+02  0.51100000000E-03 0.  1.
    9900012    2    1    2    0    0 -0.15535796852E+02 -0.35129061585E+02  0.20204242012E+02  0.47787270203E+02  0.19999996164E+02 0.  0.
        -12    1    1    2    0    0  0.15535796852E+02  0.35129061585E+02 -0.20204242012E+02  0.43400729797E+02  0.00000000000E+00 0.  1.
         11    1    3    3    0    0 -0.29342669648E+00 -0.13031243922E+02  0.61606144860E+01  0.14417093622E+02  0.51100000000E-03 0. -1.
        -11    1    3    3    0    0 -0.83963778937E+01 -0.36243683568E+01  0.94295842805E+01  0.13135915183E+02  0.51100000000E-03 0.  1.
         12    1    3    3    0    0 -0.68459922618E+01 -0.18473449305E+02  0.46140432449E+01  0.20234261399E+02  0.00000000000E+00 0. -1.
</event>
<event>
 7    1  0.5022032E-011  0.4778727E+02  0.7816164E-02  0.1312668E+00
        -11   -1    0    0    0    0  0.00000000000E+00  0.00000000000E+00  0.45593999997E+02  0.45594000000E+02  0.51100000000E-03 0. -1.
         11   -1    0    0    0    0 -0.00000000000E+00 -0.00000000000E+00 -0.45593999997E+02  0.45594000000E+02  0.51100000000E-03 0.  1.
    9900012    2    1    2    0    0  0.37958892206E+01 -0.13479825088E+02  0.41079298605E+02  0.47787271513E+02  0.20000002135E+02 0.  0.
        -12    1    1    2    0    0 -0.37958892206E+01  0.13479825088E+02 -0.41079298605E+02  0.43400728487E+02  0.00000000000E+00 0.  1.
         11    1    3    3    0    0  0.20472719279E+01 -0.13136283646E+02  0.16556698282E+02  0.21233876911E+02  0.51100000000E-03 0. -1.
        -11    1    3    3    0    0 -0.35119777973E+00 -0.49626653046E+01  0.99857086378E+01  0.11156422548E+02  0.51100000000E-03 0.  1.
        -12    1    3    3    0    0  0.20998150724E+01  0.46191238623E+01  0.14536891684E+02  0.15396972054E+02  0.00000000000E+00 0.  1.
</event>
<event>
 7    1  0.5022032E-011  0.4778727E+02  0.7816164E-02  0.1312668E+00
        -11   -1    0    0    0    0  0.00000000000E+00  0.00000000000E+00  0.45593999997E+02  0.45594000000E+02  0.51100000000E-03 0. -1.
         11   -1    0    0    0    0 -0.00000000000E+00 -0.00000000000E+00 -0.45593999997E+02  0.45594000000E+02  0.51100000000E-03 0.  1.
    9900012    2    1    2    0    0  0.30818048619E+02  0.61007017042E+00 -0.30553214068E+02  0.47787271939E+02  0.20000004080E+02 0.  0.
         12    1    1    2    0    0 -0.30818048619E+02 -0.61007017042E+00  0.30553214068E+02  0.43400728061E+02  0.00000000000E+00 0. -1.
         11    1    3    3    0    0  0.67921444682E+01  0.30566801450E+01 -0.12412608016E+02  0.14475819770E+02  0.51100000000E-03 0.  1.
        -11    1    3    3    0    0  0.21889671784E+02 -0.25626747456E+01 -0.20519049932E+02  0.30112396833E+02  0.51100000000E-03 0. -1.
         12    1    3    3    0    0  0.21362323664E+01  0.11606477103E+00  0.23784438798E+01  0.31990553361E+01  0.00000000000E+00 0. -1.
</event>
<event>
 7    1  0.5022032E-011  0.4778728E+02  0.7816164E-02  0.1312668E+00
        -11   -1    0    0    0    0  0.00000000000E+00  0.00000000000E+00  0.45593999997E+02  0.45594000000E+02  0.51100000000E-03 0. -1.
         11   -1    0    0    0    0 -0.00000000000E+00 -0.00000000000E+00 -0.45593999997E+02  0.45594000000E+02  0.51100000000E-03 0.  1.
    9900012    2    1    2    0    0 -0.21335065360E+02  0.29123515449E+01 -0.37682297613E+02  0.47787281586E+02  0.20000048063E+02 0.  0.
         12    1    1    2    0    0  0.21335065360E+02 -0.29123515449E+01  0.37682297613E+02  0.43400718414E+02  0.00000000000E+00 0. -1.
         11    1    3    3    0    0 -0.51888327028E+01  0.39718445463E+01 -0.29036863856E+01  0.71505894026E+01  0.51100000000E-03 0.  1.
        -11    1    3    3    0    0 -0.12662024376E+02  0.53078052477E+01 -0.21685561234E+02  0.25666383153E+02  0.51100000000E-03 0. -1.
         12    1    3    3    0    0 -0.34842082820E+01 -0.63672982491E+01 -0.13093049993E+02  0.14970309030E+02  0.00000000000E+00 0. -1.
</event>
<event>
 7    1  0.5022032E-011  0.4778727E+02  0.7816164E-02  0.1312668E+00
        -11   -1    0    0    0    0  0.00000000000E+00  0.00000000000E+00  0.45593999997E+02  0.45594000000E+02  0.51100000000E-03 0. -1.
         11   -1    0    0    0    0 -0.00000000000E+00 -0.00000000000E+00 -0.45593999997E+02  0.45594000000E+02  0.51100000000E-03 0.  1.
    9900012    2    1    2    0    0 -0.84036521179E+01  0.10660776344E+02 -0.41223176071E+02  0.47787265368E+02  0.19999974120E+02 0.  0.
         12    1    1    2    0    0  0.84036521179E+01 -0.10660776344E+02  0.41223176071E+02  0.43400734632E+02  0.00000000000E+00 0. -1.
         11    1    3    3    0    0 -0.90841187806E+01  0.54996859609E+01 -0.21497329016E+02  0.23977133164E+02  0.51100000000E-03 0. -1.
        -11    1    3    3    0    0 -0.58811252464E+00  0.85421990320E+01 -0.17717390647E+02  0.19677931097E+02  0.51100000000E-03 0.  1.
        -12    1    3    3    0    0  0.12685791873E+01 -0.33811086487E+01 -0.20084564079E+01  0.41322011073E+01  0.00000000000E+00 0.  1.
</event>
<event>
 7    1  0.5022032E-011  0.4778727E+02  0.7816164E-02  0.1312668E+00
        -11   -1    0    0    0    0  0.00000000000E+00  0.00000000000E+00  0.45593999997E+02  0.45594000000E+02  0.51100000000E-03 0. -1.
         11   -1    0    0    0    0 -0.00000000000E+00 -0.00000000000E+00 -0.45593999997E+02  0.45594000000E+02  0.51100000000E-03 0.  1.
    9900012    2    1    2    0    0  0.24047400485E+02 -0.86490952899E+01  0.35079036556E+02  0.47787272758E+02  0.20000007812E+02 0.  0.
        -12    1    1    2    0    0 -0.24047400485E+02  0.86490952899E+01 -0.35079036556E+02  0.43400727242E+02  0.00000000000E+00 0.  1.
         11    1    3    3    0    0  0.19717745459E+02  0.59512482207E-02  0.15961002871E+02  0.25368151969E+02  0.51100000000E-03 0. -1.
        -11    1    3    3    0    0  0.13150597323E+00 -0.24074522233E+01  0.68190820247E+00  0.25056175060E+01  0.51100000000E-03 0.  1.
        -12    1    3    3    0    0  0.41981490532E+01 -0.62475943148E+01  0.18436125482E+02  0.19913503283E+02  0.00000000000E+00 0.  1.
</event>
<event>
 7    1  0.5022032E-011  0.4778728E+02  0.7816164E-02  0.1312668E+00
        -11   -1    0    0    0    0  0.00000000000E+00  0.00000000000E+00  0.45593999997E+02  0.45594000000E+02  0.51100000000E-03 0. -1.
         11   -1    0    0    0    0 -0.00000000000E+00 -0.00000000000E+00 -0.45593999997E+02  0.45594000000E+02  0.51100000000E-03 0.  1.
    9900012    2    1    2    0    0 -0.11382412062E+02  0.20225702568E+02 -0.36674027965E+02  0.47787277934E+02  0.20000031411E+02 0.  0.
         12    1    1    2    0    0  0.11382412062E+02 -0.20225702568E+02  0.36674027965E+02  0.43400722066E+02  0.00000000000E+00 0. -1.
         11    1    3    3    0    0 -0.67395029728E+01  0.10622176744E+02 -0.24724110034E+02  0.27740460636E+02  0.51100000000E-03 0. -1.
        -11    1    3    3    0    0 -0.68100530935E+01  0.11362865995E+02 -0.10483814507E+02  0.16893842477E+02  0.51100000000E-03 0.  1.
         12    1    3    3    0    0  0.21671440045E+01 -0.17593401703E+01 -0.14661034236E+01  0.31529748206E+01  0.00000000000E+00 0. -1.
</event>
<event>
 7    1  0.5022032E-011  0.4778727E+02  0.7816164E-02  0.1312668E+00
        -11   -1    0    0    0    0  0.00000000000E+00  0.00000000000E+00  0.45593999997E+02  0.45594000000E+02  0.51100000000E-03 0.  1.
         11   -1    0    0    0    0 -0.00000000000E+00 -0.00000000000E+00 -0.45593999997E+02  0.45594000000E+02  0.51100000000E-03 0. -1.
    9900012    2    1    2    0    0 -0.33806112629E+02 -0.23400699790E+02  0.13898829620E+02  0.47787268825E+02  0.19999989880E+02 0.  0.
        -12    1    1    2    0    0  0.33806112629E+02  0.23400699790E+02 -0.13898829620E+02  0.43400731175E+02  0.00000000000E+00 0.  1.
         11    1    3    3    0    0 -0.26140470344E+02 -0.99873288304E+01  0.43534159261E+01  0.28320013373E+02  0.51100000000E-03 0. -1.
        -11    1    3    3    0    0 -0.79412338880E+01 -0.72037975386E+01  0.54908158598E+01  0.12046034771E+02  0.51100000000E-03 0.  1.
        -12    1    3    3    0    0  0.27559160269E+00 -0.62095734205E+01  0.40545978344E+01  0.74212206810E+01  0.00000000000E+00 0.  1.
</event>
<event>
 7    1  0.5022032E-011  0.4778727E+02  0.7816164E-02  0.1312668E+00
        -11   -1    0    0    0    0  0.00000000000E+00  0.00000000000E+00  0.45593999997E+02  0.45594000000E+02  0.51100000000E-03 0. -1.
         11   -1    0    0    0    0 -0.00000000000E+00 -0.00000000000E+00 -0.45593999997E+02  0.45594000000E+02  0.51100000000E-03 0.  1.
    9900012    2    1    2    0    0  0.25734818931E+02  0.32435540120E+02  0.13010694002E+02  0.47787270436E+02  0.19999997225E+02 0.  0.
        -12    1    1    2    0    0 -0.25734818931E+02 -0.32435540120E+02 -0.13010694002E+02  0.43400729564E+02  0.00000000000E+00 0.  1.
         11    1    3    3    0    0  0.67653468354E+01  0.81294788202E+00 -0.14375983792E+01  0.69640140310E+01  0.51100000000E-03 0. -1.
        -11    1    3    3    0    0 -0.34584902921E+00  0.32794245384E+01  0.35248656571E+01  0.48268949663E+01  0.51100000000E-03 0.  1.
        -12    1    3    3    0    0  0.19315321125E+02  0.28343167700E+02  0.10923426724E+02  0.35996361438E+02  0.00000000000E+00 0.  1.
</event>
<event>
 7    1  0.5022032E-011  0.4778727E+02  0.7816164E-02  0.1312668E+00
        -11   -1    0    0    0    0  0.00000000000E+00  0.00000000000E+00  0.45593999997E+02  0.45594000000E+02  0.51100000000E-03 0.  1.
         11   -1    0    0    0    0 -0.00000000000E+00 -0.00000000000E+00 -0.45593999997E+02  0.45594000000E+02  0.51100000000E-03 0. -1.
    9900012    2    1    2    0    0  0.14551412273E+02 -0.33363604175E+02 -0.23637884690E+02  0.47787271028E+02  0.19999999923E+02 0.  0.
         12    1    1    2    0    0 -0.14551412273E+02  0.33363604175E+02  0.23637884690E+02  0.43400728972E+02  0.00000000000E+00 0. -1.
         11    1    3    3    0    0 -0.61128980572E+00 -0.14785769124E+01 -0.56738835149E+01  0.58951521875E+01  0.51100000000E-03 0. -1.
        -11    1    3    3    0    0  0.11652913345E+01 -0.14144413410E+02 -0.22542368234E+01  0.14370244205E+02  0.51100000000E-03 0.  1.
         12    1    3    3    0    0  0.13997410744E+02 -0.17740613853E+02 -0.15709764352E+02  0.27521874635E+02  0.00000000000E+00 0. -1.
</event>
<event>
 7    1  0.5022032E-011  0.4778730E+02  0.7816164E-02  0.1312668E+00
        -11   -1    0    0    0    0  0.00000000000E+00  0.00000000000E+00  0.45593999997E+02  0.45594000000E+02  0.51100000000E-03 0.  1.
         11   -1    0    0    0    0 -0.00000000000E+00 -0.00000000000E+00 -0.45593999997E+02  0.45594000000E+02  0.51100000000E-03 0. -1.
    9900012    2    1    2    0    0  0.27720175601E+02 -0.28692322337E+02  0.17086929580E+02  0.47787301170E+02  0.20000137353E+02 0.  0.
        -12    1    1    2    0    0 -0.27720175601E+02  0.28692322337E+02 -0.17086929580E+02  0.43400698830E+02  0.00000000000E+00 0.  1.
         11    1    3    3    0    0  0.14509467170E+02 -0.59188843734E+01  0.45687320470E+01  0.16322718602E+02  0.51100000000E-03 0. -1.
        -11    1    3    3    0    0  0.15035096122E+02 -0.18217663310E+02  0.12099356013E+02  0.26539249953E+02  0.51100000000E-03 0.  1.
         12    1    3    3    0    0 -0.18243876908E+01 -0.45557746543E+01  0.41884151996E+00  0.49253326148E+01  0.00000000000E+00 0. -1.
</event>
<event>
 7    1  0.5022032E-011  0.4778727E+02  0.7816164E-02  0.1312668E+00
        -11   -1    0    0    0    0  0.00000000000E+00  0.00000000000E+00  0.45593999997E+02  0.45594000000E+02  0.51100000000E-03 0. -1.
         11   -1    0    0    0    0 -0.00000000000E+00 -0.00000000000E+00 -0.45593999997E+02  0.45594000000E+02  0.51100000000E-03 0.  1.
    9900012    2    1    2    0    0 -0.90159414984E+01  0.41281365115E+02  0.99088325781E+01  0.47787271090E+02  0.20000000206E+02 0.  0.
        -12    1    1    2    0    0  0.90159414984E+01 -0.41281365115E+02 -0.99088325781E+01  0.43400728910E+02  0.00000000000E+00 0.  1.
         11    1    3    3    0    0 -0.22501162028E+01  0.13701017827E+02  0.74529002697E+00  0.13904544937E+02  0.51100000000E-03 0. -1.
        -11    1    3    3    0    0 -0.51289487182E+01  0.10939220423E+01 -0.12238462049E+01  0.53852186755E+01  0.51100000000E-03 0.  1.
        -12    1    3    3    0    0 -0.16368765773E+01  0.26486425246E+02  0.10387388756E+02  0.28497507477E+02  0.00000000000E+00 0.  1.
</event>
<event>
 7    1  0.5022032E-011  0.4778727E+02  0.7816164E-02  0.1312668E+00
        -11   -1    0    0    0    0  0.00000000000E+00  0.00000000000E+00  0.45593999997E+02  0.45594000000E+02  0.51100000000E-03 0. -1.
         11   -1    0    0    0    0 -0.00000000000E+00 -0.00000000000E+00 -0.45593999997E+02  0.45594000000E+02  0.51100000000E-03 0.  1.
    9900012    2    1    2    0    0  0.22700215917E+02  0.64003071399E+01  0.36432943904E+02  0.47787272637E+02  0.20000007259E+02 0.  0.
        -12    1    1    2    0    0 -0.22700215917E+02 -0.64003071399E+01 -0.36432943904E+02  0.43400727363E+02  0.00000000000E+00 0.  1.
         11    1    3    3    0    0  0.14144677392E+02  0.26852644337E+01  0.22250271162E+02  0.26502020879E+02  0.51100000000E-03 0. -1.
        -11    1    3    3    0    0  0.66663280289E+01  0.71105332619E+01  0.14405665762E+02  0.17393183118E+02  0.51100000000E-03 0.  1.
        -12    1    3    3    0    0  0.18892104957E+01 -0.33954905558E+01 -0.22299302029E+00  0.38920686400E+01  0.00000000000E+00 0.  1.
</event>
<event>
 7    1  0.5022032E-011  0.4778727E+02  0.7816164E-02  0.1312668E+00
        -11   -1    0    0    0    0  0.00000000000E+00  0.00000000000E+00  0.45593999997E+02  0.45594000000E+02  0.51100000000E-03 0.  1.
         11   -1    0    0    0    0 -0.00000000000E+00 -0.00000000000E+00 -0.45593999997E+02  0.45594000000E+02  0.51100000000E-03 0. -1.
    9900012    2    1    2    0    0 -0.19697828129E+02 -0.37876812376E+02 -0.78080677811E+01  0.47787271075E+02  0.20000000140E+02 0.  0.
        -12    1    1    2    0    0  0.19697828129E+02  0.37876812376E+02  0.78080677811E+01  0.43400728925E+02  0.00000000000E+00 0.  1.
         11    1    3    3    0    0 -0.13968271156E+02 -0.19178983617E+02 -0.81956191549E+01  0.25102075318E+02  0.51100000000E-03 0. -1.
        -11    1    3    3    0    0 -0.30184031645E+01 -0.36993916424E+01 -0.46183274650E+01  0.66426805600E+01  0.51100000000E-03 0.  1.
        -12    1    3    3    0    0 -0.27111538076E+01 -0.14998437116E+02  0.50058788389E+01  0.16042515197E+02  0.00000000000E+00 0.  1.
</event>
<event>
 7    1  0.5022032E-011  0.4778727E+02  0.7816164E-02  0.1312668E+00
        -11   -1    0    0    0    0  0.00000000000E+00  0.00000000000E+00  0.45593999997E+02  0.45594000000E+02  0.51100000000E-03 0. -1.
         11   -1    0    0    0    0 -0.00000000000E+00 -0.00000000000E+00 -0.45593999997E+02  0.45594000000E+02  0.51100000000E-03 0.  1.
    9900012    2    1    2    0    0 -0.25336321205E+02  0.29287808577E+02 -0.19593835088E+02  0.47787271009E+02  0.19999999840E+02 0.  0.
         12    1    1    2    0    0  0.25336321205E+02 -0.29287808577E+02  0.19593835088E+02  0.43400728991E+02  0.00000000000E+00 0. -1.
         11    1    3    3    0    0 -0.10836634616E+02  0.14812615826E+01 -0.43940118920E+01  0.11787032130E+02  0.51100000000E-03 0. -1.
        -11    1    3    3    0    0 -0.12564866298E+02  0.14559925847E+02 -0.94965773604E+01  0.21448829515E+02  0.51100000000E-03 0.  1.
        -12    1    3    3    0    0 -0.19348202905E+01  0.13246621148E+02 -0.57032458360E+01  0.14551409364E+02  0.00000000000E+00 0.  1.
</event>
<event>
 7    1  0.5022032E-011  0.4778727E+02  0.7816164E-02  0.1312668E+00
        -11   -1    0    0    0    0  0.00000000000E+00  0.00000000000E+00  0.45593999997E+02  0.45594000000E+02  0.51100000000E-03 0. -1.
         11   -1    0    0    0    0 -0.00000000000E+00 -0.00000000000E+00 -0.45593999997E+02  0.45594000000E+02  0.51100000000E-03 0.  1.
    9900012    2    1    2    0    0  0.16527171208E+02  0.13424012038E+01 -0.40108278923E+02  0.47787268816E+02  0.19999989842E+02 0.  0.
         12    1    1    2    0    0 -0.16527171208E+02 -0.13424012038E+01  0.40108278923E+02  0.43400731184E+02  0.00000000000E+00 0. -1.
         11    1    3    3    0    0 -0.21642788115E+01 -0.10335769483E+01 -0.67649211424E+01  0.71775025187E+01  0.51100000000E-03 0. -1.
        -11    1    3    3    0    0  0.11241359618E+02 -0.33832253755E+01 -0.26454745395E+02  0.28942493572E+02  0.51100000000E-03 0.  1.
         12    1    3    3    0    0  0.74500904012E+01  0.57592035276E+01 -0.68886123855E+01  0.11667272726E+02  0.00000000000E+00 0. -1.
</event>
<event>
 7    1  0.5022032E-011  0.4778726E+02  0.7816164E-02  0.1312668E+00
        -11   -1    0    0    0    0  0.00000000000E+00  0.00000000000E+00  0.45593999997E+02  0.45594000000E+02  0.51100000000E-03 0. -1.
         11   -1    0    0    0    0 -0.00000000000E+00 -0.00000000000E+00 -0.45593999997E+02  0.45594000000E+02  0.51100000000E-03 0.  1.
    9900012    2    1    2    0    0 -0.12246034905E+02 -0.11265503878E+02  0.40084254694E+02  0.47787257807E+02  0.19999939647E+02 0.  0.
        -12    1    1    2    0    0  0.12246034905E+02  0.11265503878E+02 -0.40084254694E+02  0.43400742193E+02  0.00000000000E+00 0.  1.
         11    1    3    3    0    0 -0.70642460440E+01 -0.77987685063E-01  0.93218704783E+01  0.11696449193E+02  0.51100000000E-03 0. -1.
        -11    1    3    3    0    0 -0.59798265702E+01  0.14743672563E+01  0.91480753928E+01  0.11028117168E+02  0.51100000000E-03 0.  1.
        -12    1    3    3    0    0  0.79803770898E+00 -0.12661883449E+02  0.21614308823E+02  0.25062691446E+02  0.00000000000E+00 0.  1.
</event>
<event>
 7    1  0.5022032E-011  0.4778727E+02  0.7816164E-02  0.1312668E+00
        -11   -1    0    0    0    0  0.00000000000E+00  0.00000000000E+00  0.45593999997E+02  0.45594000000E+02  0.51100000000E-03 0.  1.
         11   -1    0    0    0    0 -0.00000000000E+00 -0.00000000000E+00 -0.45593999997E+02  0.45594000000E+02  0.51100000000E-03 0. -1.
    9900012    2    1    2    0    0 -0.23274815116E+00 -0.28952055893E+02  0.32331835431E+02  0.47787270807E+02  0.19999998917E+02 0.  0.
        -12    1    1    2    0    0  0.23274815116E+00  0.28952055893E+02 -0.32331835431E+02  0.43400729193E+02  0.00000000000E+00 0.  1.
         11    1    3    3    0    0  0.14436476677E+00 -0.18739412126E+02  0.83951079769E+01  0.20534464839E+02  0.51100000000E-03 0. -1.
        -11    1    3    3    0    0  0.32557696804E+01 -0.42105979110E+01  0.61555848722E+01  0.81375915577E+01  0.51100000000E-03 0.  1.
        -12    1    3    3    0    0 -0.36328825983E+01 -0.60020458559E+01  0.17781142582E+02  0.19115214410E+02  0.00000000000E+00 0.  1.
</event>
<event>
 7    1  0.5022032E-011  0.4778727E+02  0.7816164E-02  0.1312668E+00
        -11   -1    0    0    0    0  0.00000000000E+00  0.00000000000E+00  0.45593999997E+02  0.45594000000E+02  0.51100000000E-03 0. -1.
         11   -1    0    0    0    0 -0.00000000000E+00 -0.00000000000E+00 -0.45593999997E+02  0.45594000000E+02  0.51100000000E-03 0.  1.
    9900012    2    1    2    0    0 -0.13371257441E+02 -0.35231424811E+02 -0.21530898394E+02  0.47787269529E+02  0.19999993092E+02 0.  0.
         12    1    1    2    0    0  0.13371257441E+02  0.35231424811E+02  0.21530898394E+02  0.43400730471E+02  0.00000000000E+00 0. -1.
         11    1    3    3    0    0 -0.87319589973E+00  0.23833461294E+00  0.61234752860E-01  0.90720693511E+00  0.51100000000E-03 0. -1.
        -11    1    3    3    0    0 -0.11920713214E+02 -0.35353421077E+02 -0.24026063945E+02  0.44375889111E+02  0.51100000000E-03 0.  1.
        -12    1    3    3    0    0 -0.57734832727E+00 -0.11633834632E+00  0.24339307987E+01  0.25041734833E+01  0.00000000000E+00 0.  1.
</event>
<event>
 7    1  0.5022032E-011  0.4778727E+02  0.7816164E-02  0.1312668E+00
        -11   -1    0    0    0    0  0.00000000000E+00  0.00000000000E+00  0.45593999997E+02  0.45594000000E+02  0.51100000000E-03 0. -1.
         11   -1    0    0    0    0 -0.00000000000E+00 -0.00000000000E+00 -0.45593999997E+02  0.45594000000E+02  0.51100000000E-03 0.  1.
    9900012    2    1    2    0    0  0.28404091005E+02  0.44312627868E+01  0.32514534970E+02  0.47787268900E+02  0.19999990222E+02 0.  0.
        -12    1    1    2    0    0 -0.28404091005E+02 -0.44312627868E+01 -0.32514534970E+02  0.43400731100E+02  0.00000000000E+00 0.  1.
         11    1    3    3    0    0  0.12505122460E+02 -0.58579187326E+01  0.12932414040E+02  0.18919319036E+02  0.51100000000E-03 0. -1.
        -11    1    3    3    0    0  0.11479976858E+01  0.13487397777E+01 -0.98392032982E+00  0.20261039339E+01  0.51100000000E-03 0.  1.
         12    1    3    3    0    0  0.14750970860E+02  0.89404417417E+01  0.20566041260E+02  0.26841845930E+02  0.00000000000E+00 0. -1.
</event>
<event>
 7    1  0.5022032E-011  0.4778727E+02  0.7816164E-02  0.1312668E+00
        -11   -1    0    0    0    0  0.00000000000E+00  0.00000000000E+00  0.45593999997E+02  0.45594000000E+02  0.51100000000E-03 0. -1.
         11   -1    0    0    0    0 -0.00000000000E+00 -0.00000000000E+00 -0.45593999997E+02  0.45594000000E+02  0.51100000000E-03 0.  1.
    9900012    2    1    2    0    0  0.24275824298E+02  0.29646858799E+02 -0.20380660587E+02  0.47787271803E+02  0.20000003460E+02 0.  0.
         12    1    1    2    0    0 -0.24275824298E+02 -0.29646858799E+02  0.20380660587E+02  0.43400728197E+02  0.00000000000E+00 0. -1.
         11    1    3    3    0    0  0.11047619765E+02  0.61230264823E+01 -0.11657872097E+02  0.17188581613E+02  0.51100000000E-03 0. -1.
        -11    1    3    3    0    0  0.11821081159E+02  0.18541169870E+02 -0.11401684728E+02  0.24769161367E+02  0.51100000000E-03 0.  1.
         12    1    3    3    0    0  0.14071233739E+01  0.49826624464E+01  0.26788962377E+01  0.58295288229E+01  0.00000000000E+00 0. -1.
</event>
<event>
 7    1  0.6061510E-011  0.4778727E+02  0.7816164E-02  0.1312668E+00
        -11   -1    0    0    0    0  0.00000000000E+00  0.00000000000E+00  0.45593999997E+02  0.45594000000E+02  0.51100000000E-03 0. -1.
         11   -1    0    0    0    0 -0.00000000000E+00 -0.00000000000E+00 -0.45593999997E+02  0.45594000000E+02  0.51100000000E-03 0.  1.
    9900012    2    1    2    0    0  0.75967132088E+01  0.22579288789E+02 -0.36277941929E+02  0.47787269541E+02  0.19999993145E+02 0.  0.
         12    1    1    2    0    0 -0.75967132088E+01 -0.22579288789E+02  0.36277941929E+02  0.43400730459E+02  0.00000000000E+00 0. -1.
         11    1    3    3    0    0  0.67388969488E+01  0.82347061846E+01 -0.42664726023E+01  0.11464113867E+02  0.51100000000E-03 0. -1.
        -11    1    3    3    0    0 -0.42084635313E+00 -0.25284303904E+00  0.47605557057E+00  0.68386433064E+00  0.51100000000E-03 0.  1.
        -12    1    3    3    0    0  0.12786626131E+01  0.14597425643E+02 -0.32487524897E+02  0.35639291343E+02  0.00000000000E+00 0.  1.
</event>
<event>
 7    1  0.5022032E-011  0.4778727E+02  0.7816164E-02  0.1312668E+00
        -11   -1    0    0    0    0  0.00000000000E+00  0.00000000000E+00  0.45593999997E+02  0.45594000000E+02  0.51100000000E-03 0. -1.
         11   -1    0    0    0    0 -0.00000000000E+00 -0.00000000000E+00 -0.45593999997E+02  0.45594000000E+02  0.51100000000E-03 0.  1.
    9900012    2    1    2    0    0  0.31615585634E+02 -0.73446456463E+01  0.28812047023E+02  0.47787272721E+02  0.20000007644E+02 0.  0.
        -12    1    1    2    0    0 -0.31615585634E+02  0.73446456463E+01 -0.28812047023E+02  0.43400727279E+02  0.00000000000E+00 0.  1.
         11    1    3    3    0    0 -0.15819487136E+01 -0.14252406841E+00  0.60068259542E+00  0.16981444827E+01  0.51100000000E-03 0. -1.
        -11    1    3    3    0    0  0.73527572172E+01 -0.43465872410E+01  0.12503573520E+01  0.86324534813E+01  0.51100000000E-03 0.  1.
         12    1    3    3    0    0  0.25844777131E+02 -0.28555343369E+01  0.26961007076E+02  0.37456674757E+02  0.00000000000E+00 0. -1.
</event>
<event>
 7    1  0.5022032E-011  0.4778727E+02  0.7816164E-02  0.1312668E+00
        -11   -1    0    0    0    0  0.00000000000E+00  0.00000000000E+00  0.45593999997E+02  0.45594000000E+02  0.51100000000E-03 0.  1.
         11   -1    0    0    0    0 -0.00000000000E+00 -0.00000000000E+00 -0.45593999997E+02  0.45594000000E+02  0.51100000000E-03 0. -1.
    9900012    2    1    2    0    0 -0.73108691669E+01  0.42274064455E+02 -0.65633532926E+01  0.47787274892E+02  0.20000017541E+02 0.  0.
        -12    1    1    2    0    0  0.73108691669E+01 -0.42274064455E+02  0.65633532926E+01  0.43400725108E+02  0.00000000000E+00 0.  1.
         11    1    3    3    0    0 -0.76498538393E+00  0.25233330603E+02  0.94457248654E+00  0.25262588810E+02  0.51100000000E-03 0. -1.
        -11    1    3    3    0    0  0.16469729654E+01 -0.41972412118E+00 -0.16471967205E+01  0.23668429571E+01  0.51100000000E-03 0.  1.
         12    1    3    3    0    0 -0.81928567484E+01  0.17460457973E+02 -0.58607290587E+01  0.20157843125E+02  0.00000000000E+00 0. -1.
</event>
<event>
 7    1  0.5022032E-011  0.4778727E+02  0.7816164E-02  0.1312668E+00
        -11   -1    0    0    0    0  0.00000000000E+00  0.00000000000E+00  0.45593999997E+02  0.45594000000E+02  0.51100000000E-03 0. -1.
         11   -1    0    0    0    0 -0.00000000000E+00 -0.00000000000E+00 -0.45593999997E+02  0.45594000000E+02  0.51100000000E-03 0.  1.
    9900012    2    1    2    0    0  0.16563209112E+02 -0.34179595818E+02 -0.21000919706E+02  0.47787270802E+02  0.19999998895E+02 0.  0.
         12    1    1    2    0    0 -0.16563209112E+02  0.34179595818E+02  0.21000919706E+02  0.43400729198E+02  0.00000000000E+00 0. -1.
         11    1    3    3    0    0  0.17433142530E+02 -0.27276589692E+02 -0.17990833823E+02  0.37035076692E+02  0.51100000000E-03 0. -1.
        -11    1    3    3    0    0  0.28419152911E+01 -0.99462703333E+00  0.30647909412E+00  0.30264988276E+01  0.51100000000E-03 0.  1.
         12    1    3    3    0    0 -0.37118487090E+01 -0.59083790928E+01 -0.33165649775E+01  0.77256952821E+01  0.00000000000E+00 0. -1.
</event>
<event>
 7    1  0.5022032E-011  0.4778727E+02  0.7816164E-02  0.1312668E+00
        -11   -1    0    0    0    0  0.00000000000E+00  0.00000000000E+00  0.45593999997E+02  0.45594000000E+02  0.51100000000E-03 0. -1.
         11   -1    0    0    0    0 -0.00000000000E+00 -0.00000000000E+00 -0.45593999997E+02  0.45594000000E+02  0.51100000000E-03 0.  1.
    9900012    2    1    2    0    0  0.15987545250E+02 -0.19250440983E+02 -0.35460430156E+02  0.47787272034E+02  0.20000004513E+02 0.  0.
         12    1    1    2    0    0 -0.15987545250E+02  0.19250440983E+02  0.35460430156E+02  0.43400727966E+02  0.00000000000E+00 0. -1.
         11    1    3    3    0    0  0.57292462672E+01 -0.95330182570E+01 -0.43295471153E+01  0.11935144673E+02  0.51100000000E-03 0. -1.
        -11    1    3    3    0    0  0.33830988809E+01 -0.36376064762E+01 -0.20792139867E+01  0.53852270126E+01  0.51100000000E-03 0.  1.
        -12    1    3    3    0    0  0.68752001016E+01 -0.60798162496E+01 -0.29051669054E+02  0.30466900349E+02  0.00000000000E+00 0.  1.
</event>
<event>
 7    1  0.5022032E-011  0.4778728E+02  0.7816164E-02  0.1312668E+00
        -11   -1    0    0    0    0  0.00000000000E+00  0.00000000000E+00  0.45593999997E+02  0.45594000000E+02  0.51100000000E-03 0. -1.
         11   -1    0    0    0    0 -0.00000000000E+00 -0.00000000000E+00 -0.45593999997E+02  0.45594000000E+02  0.51100000000E-03 0.  1.
    9900012    2    1    2    0    0 -0.23244517147E+02 -0.20017577462E+02  0.30701974247E+02  0.47787283329E+02  0.20000056009E+02 0.  0.
        -12    1    1    2    0    0  0.23244517147E+02  0.20017577462E+02 -0.30701974247E+02  0.43400716671E+02  0.00000000000E+00 0.  1.
         11    1    3    3    0    0 -0.34091411238E+00 -0.15378570815E+01 -0.78673306009E+00  0.17607316673E+01  0.51100000000E-03 0. -1.
        -11    1    3    3    0    0 -0.32193077665E+01 -0.12298372714E+02  0.94721803803E+01  0.15853583675E+02  0.51100000000E-03 0.  1.
         12    1    3    3    0    0 -0.19684295269E+02 -0.61813476666E+01  0.22016526927E+02  0.30172967987E+02  0.00000000000E+00 0. -1.
</event>
<event>
 7    1  0.5022032E-011  0.4778727E+02  0.7816164E-02  0.1312668E+00
        -11   -1    0    0    0    0  0.00000000000E+00  0.00000000000E+00  0.45593999997E+02  0.45594000000E+02  0.51100000000E-03 0. -1.
         11   -1    0    0    0    0 -0.00000000000E+00 -0.00000000000E+00 -0.45593999997E+02  0.45594000000E+02  0.51100000000E-03 0.  1.
    9900012    2    1    2    0    0  0.23856830101E+02  0.87367941142E+01  0.35187260621E+02  0.47787271621E+02  0.20000002627E+02 0.  0.
        -12    1    1    2    0    0 -0.23856830101E+02 -0.87367941142E+01 -0.35187260621E+02  0.43400728379E+02  0.00000000000E+00 0.  1.
         11    1    3    3    0    0  0.45032156187E+00 -0.14842549323E+01  0.56353600786E+01  0.58449196478E+01  0.51100000000E-03 0. -1.
        -11    1    3    3    0    0  0.16148418083E+02 -0.38020318415E+00  0.21061904896E+02  0.26542791849E+02  0.51100000000E-03 0.  1.
         12    1    3    3    0    0  0.72580904557E+01  0.10601252231E+02  0.84899956464E+01  0.15399560123E+02  0.00000000000E+00 0. -1.
</event>
<event>
 7    1  0.5022032E-011  0.4778726E+02  0.7816164E-02  0.1312668E+00
        -11   -1    0    0    0    0  0.00000000000E+00  0.00000000000E+00  0.45593999997E+02  0.45594000000E+02  0.51100000000E-03 0.  1.
         11   -1    0    0    0    0 -0.00000000000E+00 -0.00000000000E+00 -0.45593999997E+02  0.45594000000E+02  0.51100000000E-03 0. -1.
    9900012    2    1    2    0    0  0.28369289147E+02 -0.32054011752E+02  0.71657491512E+01  0.47787260409E+02  0.19999951510E+02 0.  0.
        -12    1    1    2    0    0 -0.28369289147E+02  0.32054011752E+02 -0.71657491512E+01  0.43400739591E+02  0.00000000000E+00 0.  1.
         11    1    3    3    0    0  0.41241316288E+01 -0.40252833754E+01 -0.13937798839E+01  0.59290800778E+01  0.51100000000E-03 0. -1.
        -11    1    3    3    0    0  0.10294781926E+02 -0.21694471109E+02 -0.57621074782E+00  0.24020088066E+02  0.51100000000E-03 0.  1.
         12    1    3    3    0    0  0.13950375592E+02 -0.63342572678E+01  0.91357397829E+01  0.17838092266E+02  0.00000000000E+00 0. -1.
</event>
<event>
 7    1  0.6092395E-011  0.4778727E+02  0.7816164E-02  0.1312668E+00
        -11   -1    0    0    0    0  0.00000000000E+00  0.00000000000E+00  0.45593999997E+02  0.45594000000E+02  0.51100000000E-03 0. -1.
         11   -1    0    0    0    0 -0.00000000000E+00 -0.00000000000E+00 -0.45593999997E+02  0.45594000000E+02  0.51100000000E-03 0.  1.
    9900012    2    1    2    0    0 -0.17804083262E+02  0.37323319599E+02 -0.13176035582E+02  0.47787268666E+02  0.19999989155E+02 0.  0.
         12    1    1    2    0    0  0.17804083262E+02 -0.37323319599E+02  0.13176035582E+02  0.43400731334E+02  0.00000000000E+00 0. -1.
         11    1    3    3    0    0  0.23794042219E+01  0.35847736369E+01  0.25134227780E+00  0.43099117950E+01  0.51100000000E-03 0.  1.
        -11    1    3    3    0    0 -0.74224787011E+01  0.10559266294E+02  0.16680396071E+01  0.13014363263E+02  0.51100000000E-03 0. -1.
        -12    1    3    3    0    0 -0.12761008783E+02  0.23179279667E+02 -0.15095417467E+02  0.30462993608E+02  0.00000000000E+00 0.  1.
</event>
<event>
 7    1  0.5022032E-011  0.4778729E+02  0.7816164E-02  0.1312668E+00
        -11   -1    0    0    0    0  0.00000000000E+00  0.00000000000E+00  0.45593999997E+02  0.45594000000E+02  0.51100000000E-03 0. -1.
         11   -1    0    0    0    0 -0.00000000000E+00 -0.00000000000E+00 -0.45593999997E+02  0.45594000000E+02  0.51100000000E-03 0.  1.
    9900012    2    1    2    0    0  0.28842679089E+02 -0.10870732098E+02 -0.30554032930E+02  0.47787287083E+02  0.20000073128E+02 0.  0.
         12    1    1    2    0    0 -0.28842679089E+02  0.10870732098E+02  0.30554032930E+02  0.43400712917E+02  0.00000000000E+00 0. -1.
         11    1    3    3    0    0  0.55910305022E+00  0.20729695715E+01 -0.60789240310E+01  0.64469463082E+01  0.51100000000E-03 0. -1.
        -11    1    3    3    0    0  0.49994630567E+01 -0.66738228265E+01 -0.10713713573E+02  0.13576383935E+02  0.51100000000E-03 0.  1.
         12    1    3    3    0    0  0.23284112983E+02 -0.62698788426E+01 -0.13761395326E+02  0.27763956840E+02  0.00000000000E+00 0. -1.
</event>
<event>
 7    1  0.5022032E-011  0.4778726E+02  0.7816164E-02  0.1312668E+00
        -11   -1    0    0    0    0  0.00000000000E+00  0.00000000000E+00  0.45593999997E+02  0.45594000000E+02  0.51100000000E-03 0. -1.
         11   -1    0    0    0    0 -0.00000000000E+00 -0.00000000000E+00 -0.45593999997E+02  0.45594000000E+02  0.51100000000E-03 0.  1.
    9900012    2    1    2    0    0  0.34976823143E+02 -0.12431587119E+02 -0.22487816464E+02  0.47787258016E+02  0.19999940598E+02 0.  0.
         12    1    1    2    0    0 -0.34976823143E+02  0.12431587119E+02  0.22487816464E+02  0.43400741984E+02  0.00000000000E+00 0. -1.
         11    1    3    3    0    0  0.68328585022E+01  0.54468278955E+00 -0.82097340936E+01  0.10695062824E+02  0.51100000000E-03 0. -1.
        -11    1    3    3    0    0  0.12732316342E+02 -0.64723624469E+01 -0.14513350524E+02  0.20362728176E+02  0.51100000000E-03 0.  1.
        -12    1    3    3    0    0  0.15411648299E+02 -0.65039074612E+01  0.23526815366E+00  0.16729467017E+02  0.00000000000E+00 0.  1.
</event>
<event>
 7    1  0.5022032E-011  0.4778727E+02  0.7816164E-02  0.1312668E+00
        -11   -1    0    0    0    0  0.00000000000E+00  0.00000000000E+00  0.45593999997E+02  0.45594000000E+02  0.51100000000E-03 0. -1.
         11   -1    0    0    0    0 -0.00000000000E+00 -0.00000000000E+00 -0.45593999997E+02  0.45594000000E+02  0.51100000000E-03 0.  1.
    9900012    2    1    2    0    0  0.17124688442E+02 -0.28753780050E+02  0.27633107317E+02  0.47787269115E+02  0.19999991202E+02 0.  0.
        -12    1    1    2    0    0 -0.17124688442E+02  0.28753780050E+02 -0.27633107317E+02  0.43400730885E+02  0.00000000000E+00 0.  1.
         11    1    3    3    0    0  0.78502479677E+00  0.30992729288E+00 -0.92803810101E+00  0.12544217140E+01  0.51100000000E-03 0. -1.
        -11    1    3    3    0    0  0.71082791981E+01 -0.16507682728E+02  0.56812580400E+01  0.18849613136E+02  0.51100000000E-03 0.  1.
         12    1    3    3    0    0  0.92313844467E+01 -0.12556024615E+02  0.22879887378E+02  0.27683234265E+02  0.00000000000E+00 0. -1.
</event>
<event>
 7    1  0.5022032E-011  0.4778727E+02  0.7816164E-02  0.1312668E+00
        -11   -1    0    0    0    0  0.00000000000E+00  0.00000000000E+00  0.45593999997E+02  0.45594000000E+02  0.51100000000E-03 0. -1.
         11   -1    0    0    0    0 -0.00000000000E+00 -0.00000000000E+00 -0.45593999997E+02  0.45594000000E+02  0.51100000000E-03 0.  1.
    9900012    2    1    2    0    0  0.45256253218E+01 -0.32543382978E+02 -0.28356130403E+02  0.47787271992E+02  0.20000004319E+02 0.  0.
         12    1    1    2    0    0 -0.45256253218E+01  0.32543382978E+02  0.28356130403E+02  0.43400728008E+02  0.00000000000E+00 0. -1.
         11    1    3    3    0    0  0.26852910272E+01 -0.19916331379E+02 -0.26170763103E+02  0.32996664758E+02  0.51100000000E-03 0.  1.
        -11    1    3    3    0    0  0.38715270185E+01 -0.10582119027E+02 -0.32348158421E+01  0.11723224742E+02  0.51100000000E-03 0. -1.
        -12    1    3    3    0    0 -0.20311927240E+01 -0.20449325715E+01  0.10494485422E+01  0.30673824911E+01  0.00000000000E+00 0.  1.
</event>
<event>
 7    1  0.5022032E-011  0.4778727E+02  0.7816164E-02  0.1312668E+00
        -11   -1    0    0    0    0  0.00000000000E+00  0.00000000000E+00  0.45593999997E+02  0.45594000000E+02  0.51100000000E-03 0. -1.
         11   -1    0    0    0    0 -0.00000000000E+00 -0.00000000000E+00 -0.45593999997E+02  0.45594000000E+02  0.51100000000E-03 0.  1.
    9900012    2    1    2    0    0  0.32326897132E+02 -0.20860855353E+02 -0.20085312022E+02  0.47787270475E+02  0.19999997405E+02 0.  0.
         12    1    1    2    0    0 -0.32326897132E+02  0.20860855353E+02  0.20085312022E+02  0.43400729525E+02  0.00000000000E+00 0. -1.
         11    1    3    3    0    0  0.11471794562E+02 -0.41991205366E+01 -0.64052788836E+01  0.13793559424E+02  0.51100000000E-03 0.  1.
        -11    1    3    3    0    0  0.46668763337E+01 -0.63712148827E+01 -0.12486548304E+02  0.14774505156E+02  0.51100000000E-03 0. -1.
         12    1    3    3    0    0  0.16188226237E+02 -0.10290519933E+02 -0.11934848349E+01  0.19219205895E+02  0.00000000000E+00 0. -1.
</event>
<event>
 7    1  0.5022032E-011  0.4778727E+02  0.7816164E-02  0.1312668E+00
        -11   -1    0    0    0    0  0.00000000000E+00  0.00000000000E+00  0.45593999997E+02  0.45594000000E+02  0.51100000000E-03 0. -1.
         11   -1    0    0    0    0 -0.00000000000E+00 -0.00000000000E+00 -0.45593999997E+02  0.45594000000E+02  0.51100000000E-03 0.  1.
    9900012    2    1    2    0    0 -0.20652461128E+02 -0.22461984111E+02  0.30863540412E+02  0.47787274112E+02  0.20000013985E+02 0.  0.
        -12    1    1    2    0    0  0.20652461128E+02  0.22461984111E+02 -0.30863540412E+02  0.43400725888E+02  0.00000000000E+00 0.  1.
         11    1    3    3    0    0 -0.71982858687E+01 -0.23056291983E+01  0.40271240849E+01  0.85644015614E+01  0.51100000000E-03 0. -1.
        -11    1    3    3    0    0  0.18568630631E+01 -0.68963591964E+00  0.76266350151E+01  0.78796637017E+01  0.51100000000E-03 0.  1.
        -12    1    3    3    0    0 -0.15311038323E+02 -0.19466718993E+02  0.19209781312E+02  0.31343208849E+02  0.00000000000E+00 0.  1.
</event>
<event>
 7    1  0.5022032E-011  0.4778727E+02  0.7816164E-02  0.1312668E+00
        -11   -1    0    0    0    0  0.00000000000E+00  0.00000000000E+00  0.45593999997E+02  0.45594000000E+02  0.51100000000E-03 0. -1.
         11   -1    0    0    0    0 -0.00000000000E+00 -0.00000000000E+00 -0.45593999997E+02  0.45594000000E+02  0.51100000000E-03 0.  1.
    9900012    2    1    2    0    0 -0.28538725508E+02 -0.78540976386E+01 -0.31740786458E+02  0.47787271569E+02  0.20000002391E+02 0.  0.
         12    1    1    2    0    0  0.28538725508E+02  0.78540976386E+01  0.31740786458E+02  0.43400728431E+02  0.00000000000E+00 0. -1.
         11    1    3    3    0    0 -0.23404188654E+02 -0.77543236381E+01 -0.17216093128E+02  0.30071239490E+02  0.51100000000E-03 0. -1.
        -11    1    3    3    0    0 -0.61824329502E+00 -0.34459137310E+01 -0.21085678426E+01  0.40868820415E+01  0.51100000000E-03 0.  1.
        -12    1    3    3    0    0 -0.45162935598E+01  0.33461397306E+01 -0.12416125488E+02  0.13629150037E+02  0.00000000000E+00 0.  1.
</event>
<event>
 7    1  0.5022032E-011  0.4778728E+02  0.7816164E-02  0.1312668E+00
        -11   -1    0    0    0    0  0.00000000000E+00  0.00000000000E+00  0.45593999997E+02  0.45594000000E+02  0.51100000000E-03 0. -1.
         11   -1    0    0    0    0 -0.00000000000E+00 -0.00000000000E+00 -0.45593999997E+02  0.45594000000E+02  0.51100000000E-03 0.  1.
    9900012    2    1    2    0    0  0.77515877772E+01  0.22121820606E+02 -0.36526166502E+02  0.47787275360E+02  0.20000019675E+02 0.  0.
         12    1    1    2    0    0 -0.77515877772E+01 -0.22121820606E+02  0.36526166502E+02  0.43400724640E+02  0.00000000000E+00 0. -1.
         11    1    3    3    0    0  0.75629739315E+01  0.17593052168E+02 -0.13209250792E+02  0.23263670519E+02  0.51100000000E-03 0. -1.
        -11    1    3    3    0    0  0.25967086900E+01  0.40548800325E+01 -0.11733874000E+02  0.12683404410E+02  0.51100000000E-03 0.  1.
         12    1    3    3    0    0 -0.24080948443E+01  0.47388840536E+00 -0.11583041710E+02  0.11840200431E+02  0.00000000000E+00 0. -1.
</event>
<event>
 7    1  0.5022032E-011  0.4778726E+02  0.7816164E-02  0.1312668E+00
        -11   -1    0    0    0    0  0.00000000000E+00  0.00000000000E+00  0.45593999997E+02  0.45594000000E+02  0.51100000000E-03 0. -1.
         11   -1    0    0    0    0 -0.00000000000E+00 -0.00000000000E+00 -0.45593999997E+02  0.45594000000E+02  0.51100000000E-03 0.  1.
    9900012    2    1    2    0    0 -0.30301739721E+02 -0.28549935750E+02 -0.12260924383E+02  0.47787256594E+02  0.19999934116E+02 0.  0.
         12    1    1    2    0    0  0.30301739721E+02  0.28549935750E+02  0.12260924383E+02  0.43400743406E+02  0.00000000000E+00 0. -1.
         11    1    3    3    0    0 -0.91837645193E+01 -0.12079679528E+02 -0.19961191613E+01  0.15305054075E+02  0.51100000000E-03 0. -1.
        -11    1    3    3    0    0 -0.11981034798E+02 -0.17849812777E+02 -0.82362403454E+01  0.23021656462E+02  0.51100000000E-03 0.  1.
         12    1    3    3    0    0 -0.91369404045E+01  0.13795565558E+01 -0.20285648760E+01  0.94605460573E+01  0.00000000000E+00 0. -1.
</event>
<event>
 7    1  0.5022032E-011  0.4778729E+02  0.7816164E-02  0.1312668E+00
        -11   -1    0    0    0    0  0.00000000000E+00  0.00000000000E+00  0.45593999997E+02  0.45594000000E+02  0.51100000000E-03 0. -1.
         11   -1    0    0    0    0 -0.00000000000E+00 -0.00000000000E+00 -0.45593999997E+02  0.45594000000E+02  0.51100000000E-03 0.  1.
    9900012    2    1    2    0    0  0.32786695597E+02  0.87554838592E+01 -0.27055426628E+02  0.47787285539E+02  0.20000066084E+02 0.  0.
         12    1    1    2    0    0 -0.32786695597E+02 -0.87554838592E+01  0.27055426628E+02  0.43400714461E+02  0.00000000000E+00 0. -1.
         11    1    3    3    0    0  0.22989207168E+00 -0.25777614484E+01 -0.29708688433E+01  0.39400211160E+01  0.51100000000E-03 0. -1.
        -11    1    3    3    0    0  0.19510545953E+02  0.18312003623E+01 -0.17969252536E+02  0.26587755360E+02  0.51100000000E-03 0.  1.
         12    1    3    3    0    0  0.13046257572E+02  0.95020449453E+01 -0.61153052483E+01  0.17259509062E+02  0.00000000000E+00 0. -1.
</event>
<event>
 7    1  0.5022032E-011  0.4778727E+02  0.7816164E-02  0.1312668E+00
        -11   -1    0    0    0    0  0.00000000000E+00  0.00000000000E+00  0.45593999997E+02  0.45594000000E+02  0.51100000000E-03 0. -1.
         11   -1    0    0    0    0 -0.00000000000E+00 -0.00000000000E+00 -0.45593999997E+02  0.45594000000E+02  0.51100000000E-03 0.  1.
    9900012    2    1    2    0    0  0.17144853983E+02  0.22959624198E+02 -0.32596520073E+02  0.47787268643E+02  0.19999989053E+02 0.  0.
         12    1    1    2    0    0 -0.17144853983E+02 -0.22959624198E+02  0.32596520073E+02  0.43400731357E+02  0.00000000000E+00 0. -1.
         11    1    3    3    0    0  0.43769944875E+01  0.64738222133E+01 -0.14341636072E+02  0.16332512981E+02  0.51100000000E-03 0. -1.
        -11    1    3    3    0    0 -0.27626325214E+01  0.60913049242E+01 -0.29975132749E+01  0.73294761219E+01  0.51100000000E-03 0.  1.
         12    1    3    3    0    0  0.15530492017E+02  0.10394497060E+02 -0.15257370726E+02  0.24125279541E+02  0.00000000000E+00 0. -1.
</event>
<event>
 7    1  0.5022032E-011  0.4778727E+02  0.7816164E-02  0.1312668E+00
        -11   -1    0    0    0    0  0.00000000000E+00  0.00000000000E+00  0.45593999997E+02  0.45594000000E+02  0.51100000000E-03 0. -1.
         11   -1    0    0    0    0 -0.00000000000E+00 -0.00000000000E+00 -0.45593999997E+02  0.45594000000E+02  0.51100000000E-03 0.  1.
    9900012    2    1    2    0    0 -0.10057203755E+01  0.21647373534E+02  0.37603232762E+02  0.47787269954E+02  0.19999995028E+02 0.  0.
        -12    1    1    2    0    0  0.10057203755E+01 -0.21647373534E+02 -0.37603232762E+02  0.43400730046E+02  0.00000000000E+00 0.  1.
         11    1    3    3    0    0 -0.18365907176E+00  0.60703977847E+00  0.73272690022E+01  0.73546651344E+01  0.51100000000E-03 0. -1.
        -11    1    3    3    0    0 -0.14192196972E+01  0.19251913608E+02  0.32323514980E+02  0.37649169752E+02  0.51100000000E-03 0.  1.
         12    1    3    3    0    0  0.59715839341E+00  0.17884201477E+01 -0.20475512206E+01  0.27834350671E+01  0.00000000000E+00 0. -1.
</event>
<event>
 7    1  0.5022032E-011  0.4778727E+02  0.7816164E-02  0.1312668E+00
        -11   -1    0    0    0    0  0.00000000000E+00  0.00000000000E+00  0.45593999997E+02  0.45594000000E+02  0.51100000000E-03 0. -1.
         11   -1    0    0    0    0 -0.00000000000E+00 -0.00000000000E+00 -0.45593999997E+02  0.45594000000E+02  0.51100000000E-03 0.  1.
    9900012    2    1    2    0    0 -0.20889528290E+02  0.29065718600E+01 -0.37931553973E+02  0.47787270295E+02  0.19999996582E+02 0.  0.
         12    1    1    2    0    0  0.20889528290E+02 -0.29065718600E+01  0.37931553973E+02  0.43400729705E+02  0.00000000000E+00 0. -1.
         11    1    3    3    0    0 -0.32076483993E+01 -0.23014069220E+01 -0.17195291372E+01  0.43060727802E+01  0.51100000000E-03 0. -1.
        -11    1    3    3    0    0 -0.54759748466E+01  0.89455787174E+01 -0.10867343872E+02  0.15103272566E+02  0.51100000000E-03 0.  1.
         12    1    3    3    0    0 -0.12205905044E+02 -0.37375999354E+01 -0.25344680964E+02  0.28377924949E+02  0.00000000000E+00 0. -1.
</event>
<event>
 7    1  0.5022032E-011  0.4778727E+02  0.7816164E-02  0.1312668E+00
        -11   -1    0    0    0    0  0.00000000000E+00  0.00000000000E+00  0.45593999997E+02  0.45594000000E+02  0.51100000000E-03 0. -1.
         11   -1    0    0    0    0 -0.00000000000E+00 -0.00000000000E+00 -0.45593999997E+02  0.45594000000E+02  0.51100000000E-03 0.  1.
    9900012    2    1    2    0    0 -0.39560756396E+02 -0.27768432005E+01  0.17631196813E+02  0.47787269525E+02  0.19999993070E+02 0.  0.
        -12    1    1    2    0    0  0.39560756396E+02  0.27768432005E+01 -0.17631196813E+02  0.43400730475E+02  0.00000000000E+00 0.  1.
         11    1    3    3    0    0 -0.11848302775E+02 -0.60997491837E+00  0.37314050457E+01  0.12436950266E+02  0.51100000000E-03 0. -1.
        -11    1    3    3    0    0 -0.11093293534E+02 -0.74345974790E+01  0.50325062261E+00  0.13363669502E+02  0.51100000000E-03 0.  1.
         12    1    3    3    0    0 -0.16619160087E+02  0.52677291969E+01  0.13396541144E+02  0.21986649757E+02  0.00000000000E+00 0. -1.
</event>
<event>
 7    1  0.5022032E-011  0.4778727E+02  0.7816164E-02  0.1312668E+00
        -11   -1    0    0    0    0  0.00000000000E+00  0.00000000000E+00  0.45593999997E+02  0.45594000000E+02  0.51100000000E-03 0. -1.
         11   -1    0    0    0    0 -0.00000000000E+00 -0.00000000000E+00 -0.45593999997E+02  0.45594000000E+02  0.51100000000E-03 0.  1.
    9900012    2    1    2    0    0 -0.87568099930E+01  0.10079355718E+02 -0.41295861063E+02  0.47787271044E+02  0.19999999999E+02 0.  0.
         12    1    1    2    0    0  0.87568099930E+01 -0.10079355718E+02  0.41295861063E+02  0.43400728956E+02  0.00000000000E+00 0. -1.
         11    1    3    3    0    0 -0.51174605794E+01  0.63321394528E+01 -0.24845032316E+02  0.26144980854E+02  0.51100000000E-03 0. -1.
        -11    1    3    3    0    0 -0.55454336889E+01  0.70954251879E+01 -0.15058250710E+02  0.17545592270E+02  0.51100000000E-03 0.  1.
         12    1    3    3    0    0  0.19060842753E+01 -0.33482089230E+01 -0.13925780369E+01  0.40966979197E+01  0.00000000000E+00 0. -1.
</event>
<event>
 7    1  0.5022032E-011  0.4778728E+02  0.7816164E-02  0.1312668E+00
        -11   -1    0    0    0    0  0.00000000000E+00  0.00000000000E+00  0.45593999997E+02  0.45594000000E+02  0.51100000000E-03 0. -1.
         11   -1    0    0    0    0 -0.00000000000E+00 -0.00000000000E+00 -0.45593999997E+02  0.45594000000E+02  0.51100000000E-03 0.  1.
    9900012    2    1    2    0    0 -0.28010827368E+02  0.15672986659E+02  0.29212563431E+02  0.47787276241E+02  0.20000023691E+02 0.  0.
        -12    1    1    2    0    0  0.28010827368E+02 -0.15672986659E+02 -0.29212563431E+02  0.43400723759E+02  0.00000000000E+00 0.  1.
         11    1    3    3    0    0 -0.66286934513E+01  0.64677315825E+01  0.27292761333E+01  0.96550544881E+01  0.51100000000E-03 0. -1.
        -11    1    3    3    0    0 -0.27737710047E+01  0.82291488565E+01  0.10102002328E+02  0.13321529484E+02  0.51100000000E-03 0.  1.
        -12    1    3    3    0    0 -0.18608362912E+02  0.97610622012E+00  0.16381284969E+02  0.24810692269E+02  0.00000000000E+00 0.  1.
</event>
<event>
 7    1  0.5022032E-011  0.4778727E+02  0.7816164E-02  0.1312668E+00
        -11   -1    0    0    0    0  0.00000000000E+00  0.00000000000E+00  0.45593999997E+02  0.45594000000E+02  0.51100000000E-03 0. -1.
         11   -1    0    0    0    0 -0.00000000000E+00 -0.00000000000E+00 -0.45593999997E+02  0.45594000000E+02  0.51100000000E-03 0.  1.
    9900012    2    1    2    0    0 -0.29867409276E+01 -0.66368676615E+01  0.42786147111E+02  0.47787273989E+02  0.20000013425E+02 0.  0.
        -12    1    1    2    0    0  0.29867409276E+01  0.66368676615E+01 -0.42786147111E+02  0.43400726011E+02  0.00000000000E+00 0.  1.
         11    1    3    3    0    0 -0.81693262795E-01 -0.32302755109E+01  0.12350634938E+02  0.12766343929E+02  0.51100000000E-03 0. -1.
        -11    1    3    3    0    0 -0.97002055491E+01 -0.34884677684E+01  0.15536226213E+02  0.18645045462E+02  0.51100000000E-03 0.  1.
         12    1    3    3    0    0  0.67951578842E+01  0.81875617852E-01  0.14899285959E+02  0.16375884599E+02  0.00000000000E+00 0. -1.
</event>
<event>
 7    1  0.5022032E-011  0.4778729E+02  0.7816164E-02  0.1312668E+00
        -11   -1    0    0    0    0  0.00000000000E+00  0.00000000000E+00  0.45593999997E+02  0.45594000000E+02  0.51100000000E-03 0. -1.
         11   -1    0    0    0    0 -0.00000000000E+00 -0.00000000000E+00 -0.45593999997E+02  0.45594000000E+02  0.51100000000E-03 0.  1.
    9900012    2    1    2    0    0  0.39889054026E+02 -0.16422675238E+02  0.47729622203E+01  0.47787285013E+02  0.20000063688E+02 0.  0.
        -12    1    1    2    0    0 -0.39889054026E+02  0.16422675238E+02 -0.47729622203E+01  0.43400714987E+02  0.00000000000E+00 0.  1.
         11    1    3    3    0    0  0.93005243338E+01 -0.57379792502E+01  0.56912039061E+01  0.12321280815E+02  0.51100000000E-03 0. -1.
        -11    1    3    3    0    0  0.56008313209E+01 -0.73595409319E+01 -0.39884841737E+01  0.10071750616E+02  0.51100000000E-03 0.  1.
         12    1    3    3    0    0  0.24987698371E+02 -0.33251550555E+01  0.30702424880E+01  0.25394253582E+02  0.00000000000E+00 0. -1.
</event>
<event>
 7    1  0.5022032E-011  0.4778727E+02  0.7816164E-02  0.1312668E+00
        -11   -1    0    0    0    0  0.00000000000E+00  0.00000000000E+00  0.45593999997E+02  0.45594000000E+02  0.51100000000E-03 0. -1.
         11   -1    0    0    0    0 -0.00000000000E+00 -0.00000000000E+00 -0.45593999997E+02  0.45594000000E+02  0.51100000000E-03 0.  1.
    9900012    2    1    2    0    0 -0.21573090616E+02  0.48428642340E+01  0.37346641540E+02  0.47787271814E+02  0.20000003511E+02 0.  0.
        -12    1    1    2    0    0  0.21573090616E+02 -0.48428642340E+01 -0.37346641540E+02  0.43400728186E+02  0.00000000000E+00 0.  1.
         11    1    3    3    0    0 -0.15064673103E+02  0.21564388909E+01  0.25100217115E+02  0.29353287786E+02  0.51100000000E-03 0. -1.
        -11    1    3    3    0    0 -0.77876108770E+01  0.62022478129E+01  0.79769707878E+01  0.12757226357E+02  0.51100000000E-03 0.  1.
         12    1    3    3    0    0  0.12791933639E+01 -0.35158224697E+01  0.42694536378E+01  0.56767576720E+01  0.00000000000E+00 0. -1.
</event>
<event>
 7    1  0.5022032E-011  0.4778727E+02  0.7816164E-02  0.1312668E+00
        -11   -1    0    0    0    0  0.00000000000E+00  0.00000000000E+00  0.45593999997E+02  0.45594000000E+02  0.51100000000E-03 0. -1.
         11   -1    0    0    0    0 -0.00000000000E+00 -0.00000000000E+00 -0.45593999997E+02  0.45594000000E+02  0.51100000000E-03 0.  1.
    9900012    2    1    2    0    0  0.12740314342E+02 -0.27936365425E+01  0.41394484710E+02  0.47787269832E+02  0.19999994473E+02 0.  0.
        -12    1    1    2    0    0 -0.12740314342E+02  0.27936365425E+01 -0.41394484710E+02  0.43400730168E+02  0.00000000000E+00 0.  1.
         11    1    3    3    0    0 -0.11236123109E+01  0.30597423571E+01  0.89165116694E+01  0.94936140921E+01  0.51100000000E-03 0. -1.
        -11    1    3    3    0    0  0.22127615561E+01 -0.91294624275E+00 -0.93077071237E+00  0.25682910518E+01  0.51100000000E-03 0.  1.
         12    1    3    3    0    0  0.11651165097E+02 -0.49404326568E+01  0.33408743753E+02  0.35725364688E+02  0.00000000000E+00 0. -1.
</event>
<event>
 7    1  0.5022032E-011  0.4778727E+02  0.7816164E-02  0.1312668E+00
        -11   -1    0    0    0    0  0.00000000000E+00  0.00000000000E+00  0.45593999997E+02  0.45594000000E+02  0.51100000000E-03 0. -1.
         11   -1    0    0    0    0 -0.00000000000E+00 -0.00000000000E+00 -0.45593999997E+02  0.45594000000E+02  0.51100000000E-03 0.  1.
    9900012    2    1    2    0    0  0.30580448862E+01 -0.17011929798E+02  0.39810371197E+02  0.47787273637E+02  0.20000011823E+02 0.  0.
        -12    1    1    2    0    0 -0.30580448862E+01  0.17011929798E+02 -0.39810371197E+02  0.43400726363E+02  0.00000000000E+00 0.  1.
         11    1    3    3    0    0  0.48019571953E+01 -0.27877060400E+00  0.14467972873E+02  0.15246597826E+02  0.51100000000E-03 0. -1.
        -11    1    3    3    0    0 -0.23753732952E+01  0.83821095894E+00  0.53704032975E+01  0.59317980193E+01  0.51100000000E-03 0.  1.
        -12    1    3    3    0    0  0.63146098616E+00 -0.17571370153E+02  0.19971995027E+02  0.26608877792E+02  0.00000000000E+00 0.  1.
</event>
<event>
 7    1  0.5022032E-011  0.4778727E+02  0.7816164E-02  0.1312668E+00
        -11   -1    0    0    0    0  0.00000000000E+00  0.00000000000E+00  0.45593999997E+02  0.45594000000E+02  0.51100000000E-03 0.  1.
         11   -1    0    0    0    0 -0.00000000000E+00 -0.00000000000E+00 -0.45593999997E+02  0.45594000000E+02  0.51100000000E-03 0. -1.
    9900012    2    1    2    0    0  0.14044061526E+02 -0.38909859909E+02  0.13130515040E+02  0.47787270888E+02  0.19999999286E+02 0.  0.
        -12    1    1    2    0    0 -0.14044061526E+02  0.38909859909E+02 -0.13130515040E+02  0.43400729112E+02  0.00000000000E+00 0.  1.
         11    1    3    3    0    0  0.73233526031E+01 -0.18504366768E+02  0.37759250898E+01  0.20255880464E+02  0.51100000000E-03 0. -1.
        -11    1    3    3    0    0  0.26448325634E+01 -0.54976819582E+01 -0.38412331973E+01  0.72093494117E+01  0.51100000000E-03 0.  1.
        -12    1    3    3    0    0  0.40758763594E+01 -0.14907811182E+02  0.13195823147E+02  0.20322041012E+02  0.00000000000E+00 0.  1.
</event>
<event>
 7    1  0.5022032E-011  0.4778727E+02  0.7816164E-02  0.1312668E+00
        -11   -1    0    0    0    0  0.00000000000E+00  0.00000000000E+00  0.45593999997E+02  0.45594000000E+02  0.51100000000E-03 0. -1.
         11   -1    0    0    0    0 -0.00000000000E+00 -0.00000000000E+00 -0.45593999997E+02  0.45594000000E+02  0.51100000000E-03 0.  1.
    9900012    2    1    2    0    0  0.24473698550E+02  0.21584620903E+02  0.28614078909E+02  0.47787270835E+02  0.19999999047E+02 0.  0.
        -12    1    1    2    0    0 -0.24473698550E+02 -0.21584620903E+02 -0.28614078909E+02  0.43400729165E+02  0.00000000000E+00 0.  1.
         11    1    3    3    0    0 -0.38030848357E+00  0.40820479198E+01  0.17165115628E+01  0.44445654421E+01  0.51100000000E-03 0. -1.
        -11    1    3    3    0    0  0.33665311782E+01  0.94804515118E+01  0.36959756446E+01  0.10717869624E+02  0.51100000000E-03 0.  1.
         12    1    3    3    0    0  0.21487475855E+02  0.80221214709E+01  0.23201591701E+02  0.32624835770E+02  0.00000000000E+00 0. -1.
</event>
<event>
 7    1  0.5022032E-011  0.4778727E+02  0.7816164E-02  0.1312668E+00
        -11   -1    0    0    0    0  0.00000000000E+00  0.00000000000E+00  0.45593999997E+02  0.45594000000E+02  0.51100000000E-03 0. -1.
         11   -1    0    0    0    0 -0.00000000000E+00 -0.00000000000E+00 -0.45593999997E+02  0.45594000000E+02  0.51100000000E-03 0.  1.
    9900012    2    1    2    0    0  0.13372400780E+02 -0.22555278908E+02 -0.34584122724E+02  0.47787271275E+02  0.20000001052E+02 0.  0.
         12    1    1    2    0    0 -0.13372400780E+02  0.22555278908E+02  0.34584122724E+02  0.43400728725E+02  0.00000000000E+00 0. -1.
         11    1    3    3    0    0  0.89696070352E+01 -0.14653063694E+02 -0.15372245766E+02  0.23053677930E+02  0.51100000000E-03 0. -1.
        -11    1    3    3    0    0  0.74419170945E+01 -0.45899041585E+01 -0.18102429558E+02  0.20103415292E+02  0.51100000000E-03 0.  1.
        -12    1    3    3    0    0 -0.30391233501E+01 -0.33123110561E+01 -0.11094474005E+01  0.46301780532E+01  0.00000000000E+00 0.  1.
</event>
<event>
 7    1  0.5022032E-011  0.4778730E+02  0.7816164E-02  0.1312668E+00
        -11   -1    0    0    0    0  0.00000000000E+00  0.00000000000E+00  0.45593999997E+02  0.45594000000E+02  0.51100000000E-03 0. -1.
         11   -1    0    0    0    0 -0.00000000000E+00 -0.00000000000E+00 -0.45593999997E+02  0.45594000000E+02  0.51100000000E-03 0.  1.
    9900012    2    1    2    0    0 -0.37493071057E+01 -0.15815864235E+02  0.40242040048E+02  0.47787301244E+02  0.20000137694E+02 0.  0.
        -12    1    1    2    0    0  0.37493071057E+01  0.15815864235E+02 -0.40242040048E+02  0.43400698756E+02  0.00000000000E+00 0.  1.
         11    1    3    3    0    0 -0.57215334743E+01 -0.12867473022E+02  0.21676823186E+02  0.25849419161E+02  0.51100000000E-03 0. -1.
        -11    1    3    3    0    0 -0.18097146532E+01 -0.16211181097E+01 -0.47905591970E+00  0.24764058405E+01  0.51100000000E-03 0.  1.
         12    1    3    3    0    0  0.37819410218E+01 -0.13272731033E+01  0.19044272781E+02  0.19461476242E+02  0.00000000000E+00 0. -1.
</event>
<event>
 7    1  0.5022032E-011  0.4778727E+02  0.7816164E-02  0.1312668E+00
        -11   -1    0    0    0    0  0.00000000000E+00  0.00000000000E+00  0.45593999997E+02  0.45594000000E+02  0.51100000000E-03 0.  1.
         11   -1    0    0    0    0 -0.00000000000E+00 -0.00000000000E+00 -0.45593999997E+02  0.45594000000E+02  0.51100000000E-03 0. -1.
    9900012    2    1    2    0    0  0.17644885449E+02  0.35172294092E+02  0.18308227018E+02  0.47787269237E+02  0.19999991760E+02 0.  0.
         12    1    1    2    0    0 -0.17644885449E+02 -0.35172294092E+02 -0.18308227018E+02  0.43400730763E+02  0.00000000000E+00 0. -1.
         11    1    3    3    0    0  0.74926650035E+00 -0.33369134509E+00  0.17768735908E+01  0.19570463002E+01  0.51100000000E-03 0. -1.
        -11    1    3    3    0    0  0.15356421888E+02  0.22585347843E+02  0.37091794457E+01  0.27562214040E+02  0.51100000000E-03 0.  1.
        -12    1    3    3    0    0  0.15391970608E+01  0.12920637594E+02  0.12822173982E+02  0.18268008897E+02  0.00000000000E+00 0.  1.
</event>
<event>
 7    1  0.5022032E-011  0.4778727E+02  0.7816164E-02  0.1312668E+00
        -11   -1    0    0    0    0  0.00000000000E+00  0.00000000000E+00  0.45593999997E+02  0.45594000000E+02  0.51100000000E-03 0. -1.
         11   -1    0    0    0    0 -0.00000000000E+00 -0.00000000000E+00 -0.45593999997E+02  0.45594000000E+02  0.51100000000E-03 0.  1.
    9900012    2    1    2    0    0 -0.12382273655E+02  0.37941038792E+02 -0.17052278247E+02  0.47787270526E+02  0.19999997634E+02 0.  0.
         12    1    1    2    0    0  0.12382273655E+02 -0.37941038792E+02  0.17052278247E+02  0.43400729474E+02  0.00000000000E+00 0. -1.
         11    1    3    3    0    0  0.12143639668E+01  0.20734689948E+01 -0.65624112700E+01  0.69885045220E+01  0.51100000000E-03 0. -1.
        -11    1    3    3    0    0  0.21736876514E+00  0.10810899220E+02 -0.30508106433E+01  0.11235223049E+02  0.51100000000E-03 0.  1.
        -12    1    3    3    0    0 -0.13814006386E+02  0.25056670578E+02 -0.74390563340E+01  0.29563542955E+02  0.00000000000E+00 0.  1.
</event>
<event>
 7    1  0.5022032E-011  0.4778729E+02  0.7816164E-02  0.1312668E+00
        -11   -1    0    0    0    0  0.00000000000E+00  0.00000000000E+00  0.45593999997E+02  0.45594000000E+02  0.51100000000E-03 0. -1.
         11   -1    0    0    0    0 -0.00000000000E+00 -0.00000000000E+00 -0.45593999997E+02  0.45594000000E+02  0.51100000000E-03 0.  1.
    9900012    2    1    2    0    0  0.12513729854E+02 -0.11011489988E+02  0.40072128828E+02  0.47787287386E+02  0.20000074509E+02 0.  0.
        -12    1    1    2    0    0 -0.12513729854E+02  0.11011489988E+02 -0.40072128828E+02  0.43400712614E+02  0.00000000000E+00 0.  1.
         11    1    3    3    0    0  0.57933691466E+00  0.79625620190E+00  0.96993484410E+01  0.97492058979E+01  0.51100000000E-03 0. -1.
        -11    1    3    3    0    0 -0.32663110361E+00  0.33018433296E+01  0.59371194058E+01  0.68013413641E+01  0.51100000000E-03 0.  1.
        -12    1    3    3    0    0  0.12261024043E+02 -0.15109589519E+02  0.24435660981E+02  0.31236740124E+02  0.00000000000E+00 0.  1.
</event>
<event>
 7    1  0.5022032E-011  0.4778727E+02  0.7816164E-02  0.1312668E+00
        -11   -1    0    0    0    0  0.00000000000E+00  0.00000000000E+00  0.45593999997E+02  0.45594000000E+02  0.51100000000E-03 0. -1.
         11   -1    0    0    0    0 -0.00000000000E+00 -0.00000000000E+00 -0.45593999997E+02  0.45594000000E+02  0.51100000000E-03 0.  1.
    9900012    2    1    2    0    0 -0.27948904898E+02 -0.50229005527E+01 -0.32821522815E+02  0.47787272185E+02  0.20000005202E+02 0.  0.
         12    1    1    2    0    0  0.27948904898E+02  0.50229005527E+01  0.32821522815E+02  0.43400727815E+02  0.00000000000E+00 0. -1.
         11    1    3    3    0    0 -0.10437203794E+02 -0.60833155958E+00 -0.26907974657E+01  0.10795632523E+02  0.51100000000E-03 0. -1.
        -11    1    3    3    0    0 -0.43173990086E+01 -0.63501512940E+01 -0.75604427741E+01  0.10776114831E+02  0.51100000000E-03 0.  1.
        -12    1    3    3    0    0 -0.13194302095E+02  0.19355823009E+01 -0.22570282575E+02  0.26215524831E+02  0.00000000000E+00 0.  1.
</event>
<event>
 7    1  0.5022032E-011  0.4778727E+02  0.7816164E-02  0.1312668E+00
        -11   -1    0    0    0    0  0.00000000000E+00  0.00000000000E+00  0.45593999997E+02  0.45594000000E+02  0.51100000000E-03 0. -1.
         11   -1    0    0    0    0 -0.00000000000E+00 -0.00000000000E+00 -0.45593999997E+02  0.45594000000E+02  0.51100000000E-03 0.  1.
    9900012    2    1    2    0    0  0.16621658785E+02  0.36691512651E+02 -0.16157871566E+02  0.47787268959E+02  0.19999990493E+02 0.  0.
         12    1    1    2    0    0 -0.16621658785E+02 -0.36691512651E+02  0.16157871566E+02  0.43400731041E+02  0.00000000000E+00 0. -1.
         11    1    3    3    0    0  0.58426858885E+01  0.89050652531E+01  0.60962814321E+00  0.10668121310E+02  0.51100000000E-03 0. -1.
        -11    1    3    3    0    0  0.10435392956E+02  0.29164829473E+02 -0.13966758801E+02  0.33978744179E+02  0.51100000000E-03 0.  1.
        -12    1    3    3    0    0  0.34357993976E+00 -0.13783820754E+01 -0.28007409075E+01  0.31404034696E+01  0.00000000000E+00 0.  1.
</event>
<event>
 7    1  0.5022032E-011  0.4778727E+02  0.7816164E-02  0.1312668E+00
        -11   -1    0    0    0    0  0.00000000000E+00  0.00000000000E+00  0.45593999997E+02  0.45594000000E+02  0.51100000000E-03 0. -1.
         11   -1    0    0    0    0 -0.00000000000E+00 -0.00000000000E+00 -0.45593999997E+02  0.45594000000E+02  0.51100000000E-03 0.  1.
    9900012    2    1    2    0    0 -0.11789425480E+02 -0.20110454036E+02 -0.36608778370E+02  0.47787267652E+02  0.19999984531E+02 0.  0.
         12    1    1    2    0    0  0.11789425480E+02  0.20110454036E+02  0.36608778370E+02  0.43400732348E+02  0.00000000000E+00 0. -1.
         11    1    3    3    0    0 -0.61217839556E+01 -0.17827068147E+02 -0.18604592997E+02  0.26484174112E+02  0.51100000000E-03 0. -1.
        -11    1    3    3    0    0 -0.26400436826E+01 -0.58211822698E+01 -0.12882767359E+02  0.14381296491E+02  0.51100000000E-03 0.  1.
         12    1    3    3    0    0 -0.30275978414E+01  0.35377963813E+01 -0.51214180132E+01  0.69217970492E+01  0.00000000000E+00 0. -1.
</event>
<event>
 7    1  0.5022032E-011  0.4778728E+02  0.7816164E-02  0.1312668E+00
        -11   -1    0    0    0    0  0.00000000000E+00  0.00000000000E+00  0.45593999997E+02  0.45594000000E+02  0.51100000000E-03 0.  1.
         11   -1    0    0    0    0 -0.00000000000E+00 -0.00000000000E+00 -0.45593999997E+02  0.45594000000E+02  0.51100000000E-03 0. -1.
    9900012    2    1    2    0    0 -0.37922584544E+02 -0.34210845047E+00  0.21104095441E+02  0.47787282252E+02  0.20000051099E+02 0.  0.
        -12    1    1    2    0    0  0.37922584544E+02  0.34210845047E+00 -0.21104095441E+02  0.43400717748E+02  0.00000000000E+00 0.  1.
         11    1    3    3    0    0 -0.27732591415E+01 -0.45478401331E+01  0.45480678558E+01  0.70041942881E+01  0.51100000000E-03 0. -1.
        -11    1    3    3    0    0 -0.30452007081E+01  0.41732915519E+01  0.21883124515E+01  0.56105544625E+01  0.51100000000E-03 0.  1.
         12    1    3    3    0    0 -0.32104124694E+02  0.32440130745E-01  0.14367715133E+02  0.35172533501E+02  0.00000000000E+00 0. -1.
</event>
<event>
 7    1  0.5022032E-011  0.4778727E+02  0.7816164E-02  0.1312668E+00
        -11   -1    0    0    0    0  0.00000000000E+00  0.00000000000E+00  0.45593999997E+02  0.45594000000E+02  0.51100000000E-03 0. -1.
         11   -1    0    0    0    0 -0.00000000000E+00 -0.00000000000E+00 -0.45593999997E+02  0.45594000000E+02  0.51100000000E-03 0.  1.
    9900012    2    1    2    0    0  0.35308286616E+02 -0.71798704431E+01 -0.24195002282E+02  0.47787265228E+02  0.19999973480E+02 0.  0.
         12    1    1    2    0    0 -0.35308286616E+02  0.71798704431E+01  0.24195002282E+02  0.43400734772E+02  0.00000000000E+00 0. -1.
         11    1    3    3    0    0 -0.17738052357E+00 -0.10533229297E+01 -0.28737866834E+00  0.11061373352E+01  0.51100000000E-03 0. -1.
        -11    1    3    3    0    0  0.36924896879E+02 -0.60224067797E+01 -0.24889678703E+02  0.44935659550E+02  0.51100000000E-03 0.  1.
        -12    1    3    3    0    0 -0.14392297401E+01 -0.10414073377E+00  0.98205508927E+00  0.17454683427E+01  0.00000000000E+00 0.  1.
</event>
<event>
 7    1  0.5022032E-011  0.4778726E+02  0.7816164E-02  0.1312668E+00
        -11   -1    0    0    0    0  0.00000000000E+00  0.00000000000E+00  0.45593999997E+02  0.45594000000E+02  0.51100000000E-03 0. -1.
         11   -1    0    0    0    0 -0.00000000000E+00 -0.00000000000E+00 -0.45593999997E+02  0.45594000000E+02  0.51100000000E-03 0.  1.
    9900012    2    1    2    0    0  0.75066540297E+01 -0.12057602694E+02  0.41010834306E+02  0.47787260745E+02  0.19999953040E+02 0.  0.
        -12    1    1    2    0    0 -0.75066540297E+01  0.12057602694E+02 -0.41010834306E+02  0.43400739255E+02  0.00000000000E+00 0.  1.
         11    1    3    3    0    0 -0.49117164903E+00 -0.12268592375E+02  0.21886312438E+02  0.25095224264E+02  0.51100000000E-03 0. -1.
        -11    1    3    3    0    0  0.18805623925E+01  0.26152159613E+01  0.13977327572E+02  0.14343693936E+02  0.51100000000E-03 0.  1.
        -12    1    3    3    0    0  0.61172632862E+01 -0.24042262798E+01  0.51471942961E+01  0.83483425444E+01  0.00000000000E+00 0.  1.
</event>
<event>
 7    1  0.5022032E-011  0.4778727E+02  0.7816164E-02  0.1312668E+00
        -11   -1    0    0    0    0  0.00000000000E+00  0.00000000000E+00  0.45593999997E+02  0.45594000000E+02  0.51100000000E-03 0. -1.
         11   -1    0    0    0    0 -0.00000000000E+00 -0.00000000000E+00 -0.45593999997E+02  0.45594000000E+02  0.51100000000E-03 0.  1.
    9900012    2    1    2    0    0 -0.32715728727E+02  0.28397595347E+02  0.26231632478E+01  0.47787270593E+02  0.19999997942E+02 0.  0.
        -12    1    1    2    0    0  0.32715728727E+02 -0.28397595347E+02 -0.26231632478E+01  0.43400729407E+02  0.00000000000E+00 0.  1.
         11    1    3    3    0    0 -0.53287018252E+00  0.90843079691E+00 -0.75933802119E+00  0.12983803895E+01  0.51100000000E-03 0.  1.
        -11    1    3    3    0    0 -0.30943115064E+02  0.23592666711E+02 -0.28711420855E+01  0.39017095606E+02  0.51100000000E-03 0. -1.
        -12    1    3    3    0    0 -0.12397434809E+01  0.38964978390E+01  0.62536433545E+01  0.74717945978E+01  0.00000000000E+00 0.  1.
</event>
<event>
 7    1  0.5022032E-011  0.4778721E+02  0.7816164E-02  0.1312668E+00
        -11   -1    0    0    0    0  0.00000000000E+00  0.00000000000E+00  0.45593999997E+02  0.45594000000E+02  0.51100000000E-03 0. -1.
         11   -1    0    0    0    0 -0.00000000000E+00 -0.00000000000E+00 -0.45593999997E+02  0.45594000000E+02  0.51100000000E-03 0.  1.
    9900012    2    1    2    0    0  0.20907719241E+02  0.24453537363E+02 -0.29129378248E+02  0.47787206337E+02  0.19999704972E+02 0.  0.
         12    1    1    2    0    0 -0.20907719241E+02 -0.24453537363E+02  0.29129378248E+02  0.43400793663E+02  0.00000000000E+00 0. -1.
         11    1    3    3    0    0  0.16014850865E+01  0.73942766448E+01 -0.54348243454E+01  0.93154386643E+01  0.51100000000E-03 0. -1.
        -11    1    3    3    0    0  0.53444937871E+01 -0.20698975251E+00 -0.12518091211E+02  0.13612827275E+02  0.51100000000E-03 0.  1.
         12    1    3    3    0    0  0.13961740368E+02  0.17266250471E+02 -0.11176462692E+02  0.24858940398E+02  0.00000000000E+00 0. -1.
</event>
<event>
 7    1  0.5022032E-011  0.4778726E+02  0.7816164E-02  0.1312668E+00
        -11   -1    0    0    0    0  0.00000000000E+00  0.00000000000E+00  0.45593999997E+02  0.45594000000E+02  0.51100000000E-03 0. -1.
         11   -1    0    0    0    0 -0.00000000000E+00 -0.00000000000E+00 -0.45593999997E+02  0.45594000000E+02  0.51100000000E-03 0.  1.
    9900012    2    1    2    0    0  0.32508767490E+02  0.97343815227E+01 -0.27056349819E+02  0.47787260227E+02  0.19999950677E+02 0.  0.
         12    1    1    2    0    0 -0.32508767490E+02 -0.97343815227E+01  0.27056349819E+02  0.43400739773E+02  0.00000000000E+00 0. -1.
         11    1    3    3    0    0  0.10108172509E+02  0.45556030598E+01 -0.66409679082E+01  0.12924052217E+02  0.51100000000E-03 0. -1.
        -11    1    3    3    0    0  0.23698282358E+02  0.29741901127E+01 -0.13378764629E+02  0.27376006589E+02  0.51100000000E-03 0.  1.
        -12    1    3    3    0    0 -0.12976873763E+01  0.22045883501E+01 -0.70366172824E+01  0.74872014197E+01  0.00000000000E+00 0.  1.
</event>
<event>
 7    1  0.5022032E-011  0.4778727E+02  0.7816164E-02  0.1312668E+00
        -11   -1    0    0    0    0  0.00000000000E+00  0.00000000000E+00  0.45593999997E+02  0.45594000000E+02  0.51100000000E-03 0. -1.
         11   -1    0    0    0    0 -0.00000000000E+00 -0.00000000000E+00 -0.45593999997E+02  0.45594000000E+02  0.51100000000E-03 0.  1.
    9900012    2    1    2    0    0  0.32609592012E+01 -0.10984412925E+02 -0.41860870718E+02  0.47787266371E+02  0.19999978693E+02 0.  0.
         12    1    1    2    0    0 -0.32609592012E+01  0.10984412925E+02  0.41860870718E+02  0.43400733629E+02  0.00000000000E+00 0. -1.
         11    1    3    3    0    0 -0.61100443454E+00 -0.20050538171E+00 -0.56939082371E+01  0.57301064650E+01  0.51100000000E-03 0.  1.
        -11    1    3    3    0    0  0.10020127509E+02 -0.15573316841E+01 -0.20410539933E+02  0.22790752026E+02  0.51100000000E-03 0. -1.
         12    1    3    3    0    0 -0.61481638735E+01 -0.92265758593E+01 -0.15756422548E+02  0.19266407880E+02  0.00000000000E+00 0. -1.
</event>
<event>
 7    1  0.5022032E-011  0.4778727E+02  0.7816164E-02  0.1312668E+00
        -11   -1    0    0    0    0  0.00000000000E+00  0.00000000000E+00  0.45593999997E+02  0.45594000000E+02  0.51100000000E-03 0. -1.
         11   -1    0    0    0    0 -0.00000000000E+00 -0.00000000000E+00 -0.45593999997E+02  0.45594000000E+02  0.51100000000E-03 0.  1.
    9900012    2    1    2    0    0 -0.11897190678E+02  0.76592828017E+01 -0.41029447835E+02  0.47787270182E+02  0.19999996070E+02 0.  0.
         12    1    1    2    0    0  0.11897190678E+02 -0.76592828017E+01  0.41029447835E+02  0.43400729818E+02  0.00000000000E+00 0. -1.
         11    1    3    3    0    0 -0.43006748659E+01 -0.24727349467E+01 -0.14412070488E+02  0.15241981447E+02  0.51100000000E-03 0. -1.
        -11    1    3    3    0    0 -0.89909183814E+00 -0.13005152799E+00 -0.16850621257E+02  0.16875091601E+02  0.51100000000E-03 0.  1.
        -12    1    3    3    0    0 -0.66974239736E+01  0.10262069276E+02 -0.97667560901E+01  0.15670197135E+02  0.00000000000E+00 0.  1.
</event>
<event>
 7    1  0.5022032E-011  0.4778727E+02  0.7816164E-02  0.1312668E+00
        -11   -1    0    0    0    0  0.00000000000E+00  0.00000000000E+00  0.45593999997E+02  0.45594000000E+02  0.51100000000E-03 0. -1.
         11   -1    0    0    0    0 -0.00000000000E+00 -0.00000000000E+00 -0.45593999997E+02  0.45594000000E+02  0.51100000000E-03 0.  1.
    9900012    2    1    2    0    0 -0.10697340642E+02 -0.94996611923E+01  0.40974948391E+02  0.47787273564E+02  0.20000011486E+02 0.  0.
        -12    1    1    2    0    0  0.10697340642E+02  0.94996611923E+01 -0.40974948391E+02  0.43400726436E+02  0.00000000000E+00 0.  1.
         11    1    3    3    0    0 -0.32953743257E+01 -0.79304525736E+01  0.57100695946E+01  0.10312927082E+02  0.51100000000E-03 0. -1.
        -11    1    3    3    0    0 -0.70340282301E+01  0.21753539385E+01  0.13413225082E+02  0.15301121699E+02  0.51100000000E-03 0.  1.
        -12    1    3    3    0    0 -0.36793808625E+00 -0.37445625572E+01  0.21851653714E+02  0.22173224782E+02  0.00000000000E+00 0.  1.
</event>
<event>
 7    1  0.5022032E-011  0.4778727E+02  0.7816164E-02  0.1312668E+00
        -11   -1    0    0    0    0  0.00000000000E+00  0.00000000000E+00  0.45593999997E+02  0.45594000000E+02  0.51100000000E-03 0. -1.
         11   -1    0    0    0    0 -0.00000000000E+00 -0.00000000000E+00 -0.45593999997E+02  0.45594000000E+02  0.51100000000E-03 0.  1.
    9900012    2    1    2    0    0  0.23910293966E+02 -0.35464417454E+02  0.73618182303E+01  0.47787269239E+02  0.19999991770E+02 0.  0.
        -12    1    1    2    0    0 -0.23910293966E+02  0.35464417454E+02 -0.73618182303E+01  0.43400730761E+02  0.00000000000E+00 0.  1.
         11    1    3    3    0    0  0.66354077540E+01 -0.14324357575E+02  0.82596925410E+01  0.17816800418E+02  0.51100000000E-03 0. -1.
        -11    1    3    3    0    0  0.61607666443E+01 -0.20802742681E+01  0.36300272724E+01  0.74471259514E+01  0.51100000000E-03 0.  1.
         12    1    3    3    0    0  0.11114119567E+02 -0.19059785611E+02 -0.45279015831E+01  0.22523342870E+02  0.00000000000E+00 0. -1.
</event>
<event>
 7    1  0.5022032E-011  0.4778727E+02  0.7816164E-02  0.1312668E+00
        -11   -1    0    0    0    0  0.00000000000E+00  0.00000000000E+00  0.45593999997E+02  0.45594000000E+02  0.51100000000E-03 0. -1.
         11   -1    0    0    0    0 -0.00000000000E+00 -0.00000000000E+00 -0.45593999997E+02  0.45594000000E+02  0.51100000000E-03 0.  1.
    9900012    2    1    2    0    0 -0.13455883802E+01  0.13202443047E+02  0.41322005153E+02  0.47787271661E+02  0.20000002809E+02 0.  0.
        -12    1    1    2    0    0  0.13455883802E+01 -0.13202443047E+02 -0.41322005153E+02  0.43400728339E+02  0.00000000000E+00 0.  1.
         11    1    3    3    0    0 -0.88653852265E+01  0.86828797524E+01  0.18064155827E+02  0.21915774730E+02  0.51100000000E-03 0. -1.
        -11    1    3    3    0    0  0.19387429023E+01  0.31517696063E+01  0.28515393205E+01  0.46715792244E+01  0.51100000000E-03 0.  1.
         12    1    3    3    0    0  0.55810539440E+01  0.13677936887E+01  0.20406310006E+02  0.21199917706E+02  0.00000000000E+00 0. -1.
</event>
<event>
 7    1  0.5022032E-011  0.4778727E+02  0.7816164E-02  0.1312668E+00
        -11   -1    0    0    0    0  0.00000000000E+00  0.00000000000E+00  0.45593999997E+02  0.45594000000E+02  0.51100000000E-03 0. -1.
         11   -1    0    0    0    0 -0.00000000000E+00 -0.00000000000E+00 -0.45593999997E+02  0.45594000000E+02  0.51100000000E-03 0.  1.
    9900012    2    1    2    0    0  0.14763793592E+02 -0.21749069257E+02 -0.34534497377E+02  0.47787272772E+02  0.20000007878E+02 0.  0.
         12    1    1    2    0    0 -0.14763793592E+02  0.21749069257E+02  0.34534497377E+02  0.43400727228E+02  0.00000000000E+00 0. -1.
         11    1    3    3    0    0  0.58934846709E+00 -0.12796530468E+02 -0.13396916130E+02  0.18535800109E+02  0.51100000000E-03 0. -1.
        -11    1    3    3    0    0  0.79205733466E+01  0.97691248779E+00 -0.11846426553E+02  0.14283825205E+02  0.51100000000E-03 0.  1.
        -12    1    3    3    0    0  0.62538717783E+01 -0.99294512774E+01 -0.92911546947E+01  0.14967647459E+02  0.00000000000E+00 0.  1.
</event>
<event>
 7    1  0.5022032E-011  0.4778727E+02  0.7816164E-02  0.1312668E+00
        -11   -1    0    0    0    0  0.00000000000E+00  0.00000000000E+00  0.45593999997E+02  0.45594000000E+02  0.51100000000E-03 0. -1.
         11   -1    0    0    0    0 -0.00000000000E+00 -0.00000000000E+00 -0.45593999997E+02  0.45594000000E+02  0.51100000000E-03 0.  1.
    9900012    2    1    2    0    0  0.54401452060E+01 -0.93726777425E+01 -0.42025953987E+02  0.47787273319E+02  0.20000010369E+02 0.  0.
         12    1    1    2    0    0 -0.54401452060E+01  0.93726777425E+01  0.42025953987E+02  0.43400726681E+02  0.00000000000E+00 0. -1.
         11    1    3    3    0    0 -0.11755817952E+01 -0.13810635034E+01 -0.14595478916E+02  0.14707730417E+02  0.51100000000E-03 0. -1.
        -11    1    3    3    0    0  0.28786963377E+01  0.92968202725E+00 -0.21546992940E+02  0.21758311200E+02  0.51100000000E-03 0.  1.
         12    1    3    3    0    0  0.37370306635E+01 -0.89212962663E+01 -0.58834821315E+01  0.11321231702E+02  0.00000000000E+00 0. -1.
</event>
<event>
 7    1  0.5022032E-011  0.4778727E+02  0.7816164E-02  0.1312668E+00
        -11   -1    0    0    0    0  0.00000000000E+00  0.00000000000E+00  0.45593999997E+02  0.45594000000E+02  0.51100000000E-03 0. -1.
         11   -1    0    0    0    0 -0.00000000000E+00 -0.00000000000E+00 -0.45593999997E+02  0.45594000000E+02  0.51100000000E-03 0.  1.
    9900012    2    1    2    0    0  0.30247206485E+02 -0.17252677642E+02  0.25905110852E+02  0.47787272423E+02  0.20000006284E+02 0.  0.
        -12    1    1    2    0    0 -0.30247206485E+02  0.17252677642E+02 -0.25905110852E+02  0.43400727577E+02  0.00000000000E+00 0.  1.
         11    1    3    3    0    0  0.17770346024E+02 -0.10167683211E+02  0.18076502539E+02  0.27311662784E+02  0.51100000000E-03 0. -1.
        -11    1    3    3    0    0  0.11261192882E+02 -0.10263082229E+02  0.49546965216E+01  0.16021683427E+02  0.51100000000E-03 0.  1.
         12    1    3    3    0    0  0.12156675801E+01  0.31780877985E+01  0.28739117909E+01  0.44539262120E+01  0.00000000000E+00 0. -1.
</event>
<event>
 7    1  0.5022032E-011  0.4778727E+02  0.7816164E-02  0.1312668E+00
        -11   -1    0    0    0    0  0.00000000000E+00  0.00000000000E+00  0.45593999997E+02  0.45594000000E+02  0.51100000000E-03 0. -1.
         11   -1    0    0    0    0 -0.00000000000E+00 -0.00000000000E+00 -0.45593999997E+02  0.45594000000E+02  0.51100000000E-03 0.  1.
    9900012    2    1    2    0    0 -0.30673042745E+02  0.53508674115E+01 -0.30235009222E+02  0.47787272864E+02  0.20000008294E+02 0.  0.
         12    1    1    2    0    0  0.30673042745E+02 -0.53508674115E+01  0.30235009222E+02  0.43400727136E+02  0.00000000000E+00 0. -1.
         11    1    3    3    0    0 -0.14571561500E+02  0.15851054335E+01 -0.62712143370E+01  0.15942744221E+02  0.51100000000E-03 0. -1.
        -11    1    3    3    0    0 -0.78570956314E+01 -0.38951849433E+01 -0.59274404950E+01  0.10584940651E+02  0.51100000000E-03 0.  1.
        -12    1    3    3    0    0 -0.82443856143E+01  0.76609469212E+01 -0.18036354390E+02  0.21259587991E+02  0.00000000000E+00 0.  1.
</event>
<event>
 7    1  0.5022032E-011  0.4778727E+02  0.7816164E-02  0.1312668E+00
        -11   -1    0    0    0    0  0.00000000000E+00  0.00000000000E+00  0.45593999997E+02  0.45594000000E+02  0.51100000000E-03 0. -1.
         11   -1    0    0    0    0 -0.00000000000E+00 -0.00000000000E+00 -0.45593999997E+02  0.45594000000E+02  0.51100000000E-03 0.  1.
    9900012    2    1    2    0    0  0.24663814442E+02  0.79155798144E+01  0.34823309330E+02  0.47787273977E+02  0.20000013372E+02 0.  0.
        -12    1    1    2    0    0 -0.24663814442E+02 -0.79155798144E+01 -0.34823309330E+02  0.43400726023E+02  0.00000000000E+00 0.  1.
         11    1    3    3    0    0  0.14355371440E+02  0.39512883593E+01  0.17688799070E+02  0.23121050618E+02  0.51100000000E-03 0. -1.
        -11    1    3    3    0    0  0.91866050131E+01  0.25339167493E+01  0.24096654239E+01  0.98295947768E+01  0.51100000000E-03 0.  1.
        -12    1    3    3    0    0  0.11218379894E+01  0.14303747058E+01  0.14724844835E+02  0.14836628583E+02  0.00000000000E+00 0.  1.
</event>
<event>
 7    1  0.5022032E-011  0.4778727E+02  0.7816164E-02  0.1312668E+00
        -11   -1    0    0    0    0  0.00000000000E+00  0.00000000000E+00  0.45593999997E+02  0.45594000000E+02  0.51100000000E-03 0. -1.
         11   -1    0    0    0    0 -0.00000000000E+00 -0.00000000000E+00 -0.45593999997E+02  0.45594000000E+02  0.51100000000E-03 0.  1.
    9900012    2    1    2    0    0 -0.28967684319E+02 -0.14921474797E+02 -0.28667853434E+02  0.47787274598E+02  0.20000016201E+02 0.  0.
         12    1    1    2    0    0  0.28967684319E+02  0.14921474797E+02  0.28667853434E+02  0.43400725402E+02  0.00000000000E+00 0. -1.
         11    1    3    3    0    0 -0.19122931689E+02 -0.11389118566E+02 -0.12046000072E+02  0.25308193458E+02  0.51100000000E-03 0. -1.
        -11    1    3    3    0    0 -0.66151620927E+01 -0.74615319624E+01 -0.12043077649E+02  0.15635553980E+02  0.51100000000E-03 0.  1.
        -12    1    3    3    0    0 -0.32295905368E+01  0.39291757310E+01 -0.45787757128E+01  0.68435271599E+01  0.00000000000E+00 0.  1.
</event>
<event>
 7    1  0.5022032E-011  0.4778727E+02  0.7816164E-02  0.1312668E+00
        -11   -1    0    0    0    0  0.00000000000E+00  0.00000000000E+00  0.45593999997E+02  0.45594000000E+02  0.51100000000E-03 0.  1.
         11   -1    0    0    0    0 -0.00000000000E+00 -0.00000000000E+00 -0.45593999997E+02  0.45594000000E+02  0.51100000000E-03 0. -1.
    9900012    2    1    2    0    0  0.10340899353E+02  0.28541780287E+02 -0.31017025189E+02  0.47787271055E+02  0.20000000047E+02 0.  0.
         12    1    1    2    0    0 -0.10340899353E+02 -0.28541780287E+02  0.31017025189E+02  0.43400728945E+02  0.00000000000E+00 0. -1.
         11    1    3    3    0    0 -0.11693524219E+01 -0.12713928747E+01  0.41237671849E-01  0.17278673951E+01  0.51100000000E-03 0. -1.
        -11    1    3    3    0    0 -0.40772137945E+00  0.59878817765E+01 -0.11630937440E+02  0.13088150018E+02  0.51100000000E-03 0.  1.
        -12    1    3    3    0    0  0.11917973154E+02  0.23825291386E+02 -0.19427325421E+02  0.32971253642E+02  0.00000000000E+00 0.  1.
</event>
<event>
 7    1  0.5022032E-011  0.4778727E+02  0.7816164E-02  0.1312668E+00
        -11   -1    0    0    0    0  0.00000000000E+00  0.00000000000E+00  0.45593999997E+02  0.45594000000E+02  0.51100000000E-03 0. -1.
         11   -1    0    0    0    0 -0.00000000000E+00 -0.00000000000E+00 -0.45593999997E+02  0.45594000000E+02  0.51100000000E-03 0.  1.
    9900012    2    1    2    0    0  0.56872479757E+01  0.33217661664E+02 -0.27347128410E+02  0.47787271110E+02  0.20000000297E+02 0.  0.
         12    1    1    2    0    0 -0.56872479757E+01 -0.33217661664E+02  0.27347128410E+02  0.43400728890E+02  0.00000000000E+00 0. -1.
         11    1    3    3    0    0 -0.17558434386E+01  0.19627722735E+02 -0.11071154584E+02  0.22603118148E+02  0.51100000000E-03 0. -1.
        -11    1    3    3    0    0  0.52531613373E+01  0.74186145369E+01 -0.17593102310E+01  0.92588724169E+01  0.51100000000E-03 0.  1.
         12    1    3    3    0    0  0.21899300770E+01  0.61713243925E+01 -0.14516663595E+02  0.15925280545E+02  0.00000000000E+00 0. -1.
</event>
<event>
 7    1  0.5022032E-011  0.4778727E+02  0.7816164E-02  0.1312668E+00
        -11   -1    0    0    0    0  0.00000000000E+00  0.00000000000E+00  0.45593999997E+02  0.45594000000E+02  0.51100000000E-03 0. -1.
         11   -1    0    0    0    0 -0.00000000000E+00 -0.00000000000E+00 -0.45593999997E+02  0.45594000000E+02  0.51100000000E-03 0.  1.
    9900012    2    1    2    0    0 -0.32878871083E+02 -0.27122826426E+02 -0.81826269379E+01  0.47787271197E+02  0.20000000696E+02 0.  0.
         12    1    1    2    0    0  0.32878871083E+02  0.27122826426E+02  0.81826269379E+01  0.43400728803E+02  0.00000000000E+00 0. -1.
         11    1    3    3    0    0 -0.61907713739E+01 -0.38261749658E+01 -0.13777235514E+01  0.74069823490E+01  0.51100000000E-03 0. -1.
        -11    1    3    3    0    0 -0.20677353310E+02 -0.13373854528E+02 -0.12319346180E+02  0.27535054301E+02  0.51100000000E-03 0.  1.
         12    1    3    3    0    0 -0.60107463992E+01 -0.99227969325E+01  0.55144427934E+01  0.12845234547E+02  0.00000000000E+00 0. -1.
</event>
<event>
 7    1  0.5022032E-011  0.4778727E+02  0.7816164E-02  0.1312668E+00
        -11   -1    0    0    0    0  0.00000000000E+00  0.00000000000E+00  0.45593999997E+02  0.45594000000E+02  0.51100000000E-03 0. -1.
         11   -1    0    0    0    0 -0.00000000000E+00 -0.00000000000E+00 -0.45593999997E+02  0.45594000000E+02  0.51100000000E-03 0.  1.
    9900012    2    1    2    0    0  0.16820731042E+02  0.25550343885E+02 -0.30787437889E+02  0.47787269624E+02  0.19999993524E+02 0.  0.
         12    1    1    2    0    0 -0.16820731042E+02 -0.25550343885E+02  0.30787437889E+02  0.43400730376E+02  0.00000000000E+00 0. -1.
         11    1    3    3    0    0  0.31732427785E+01  0.94119993804E+01 -0.86018206863E+01  0.13139502329E+02  0.51100000000E-03 0. -1.
        -11    1    3    3    0    0  0.12822803897E+02  0.14539853194E+02 -0.24797694126E+02  0.31476296875E+02  0.51100000000E-03 0.  1.
         12    1    3    3    0    0  0.82468436585E+00  0.15984913104E+01  0.26120769239E+01  0.31714704207E+01  0.00000000000E+00 0. -1.
</event>
<event>
 7    1  0.5022032E-011  0.4778727E+02  0.7816164E-02  0.1312668E+00
        -11   -1    0    0    0    0  0.00000000000E+00  0.00000000000E+00  0.45593999997E+02  0.45594000000E+02  0.51100000000E-03 0. -1.
         11   -1    0    0    0    0 -0.00000000000E+00 -0.00000000000E+00 -0.45593999997E+02  0.45594000000E+02  0.51100000000E-03 0.  1.
    9900012    2    1    2    0    0  0.32425508483E+02  0.19806831109E+01  0.28779965156E+02  0.47787273044E+02  0.20000009115E+02 0.  0.
        -12    1    1    2    0    0 -0.32425508483E+02 -0.19806831109E+01 -0.28779965156E+02  0.43400726956E+02  0.00000000000E+00 0.  1.
         11    1    3    3    0    0  0.66036491981E+01 -0.35515015841E+01  0.96926454723E+01  0.12254334855E+02  0.51100000000E-03 0. -1.
        -11    1    3    3    0    0  0.19040114813E+02 -0.20264187598E+01  0.87840816654E+01  0.21066381655E+02  0.51100000000E-03 0.  1.
         12    1    3    3    0    0  0.67817444721E+01  0.75586034549E+01  0.10303238018E+02  0.14466556533E+02  0.00000000000E+00 0. -1.
</event>
<event>
 7    1  0.5022032E-011  0.4778726E+02  0.7816164E-02  0.1312668E+00
        -11   -1    0    0    0    0  0.00000000000E+00  0.00000000000E+00  0.45593999997E+02  0.45594000000E+02  0.51100000000E-03 0. -1.
         11   -1    0    0    0    0 -0.00000000000E+00 -0.00000000000E+00 -0.45593999997E+02  0.45594000000E+02  0.51100000000E-03 0.  1.
    9900012    2    1    2    0    0 -0.20770517264E+02  0.14159778981E+02  0.35379516951E+02  0.47787263280E+02  0.19999964598E+02 0.  0.
        -12    1    1    2    0    0  0.20770517264E+02 -0.14159778981E+02 -0.35379516951E+02  0.43400736720E+02  0.00000000000E+00 0.  1.
         11    1    3    3    0    0  0.15044584407E+01 -0.33514814990E+00  0.79445499701E-01  0.15433830797E+01  0.51100000000E-03 0. -1.
        -11    1    3    3    0    0 -0.21299892685E+01 -0.10318498989E+01  0.10342632598E+02  0.10609977277E+02  0.51100000000E-03 0.  1.
         12    1    3    3    0    0 -0.20144986436E+02  0.15526777030E+02  0.24957438853E+02  0.35633902923E+02  0.00000000000E+00 0. -1.
</event>
<event>
 7    1  0.5022032E-011  0.4778727E+02  0.7816164E-02  0.1312668E+00
        -11   -1    0    0    0    0  0.00000000000E+00  0.00000000000E+00  0.45593999997E+02  0.45594000000E+02  0.51100000000E-03 0. -1.
         11   -1    0    0    0    0 -0.00000000000E+00 -0.00000000000E+00 -0.45593999997E+02  0.45594000000E+02  0.51100000000E-03 0.  1.
    9900012    2    1    2    0    0 -0.29734921169E+02  0.21400468289E+02  0.23269672992E+02  0.47787271192E+02  0.20000000673E+02 0.  0.
        -12    1    1    2    0    0  0.29734921169E+02 -0.21400468289E+02 -0.23269672992E+02  0.43400728808E+02  0.00000000000E+00 0.  1.
         11    1    3    3    0    0 -0.31296236638E+01  0.29316977024E+01  0.36862472499E+01  0.56548929913E+01  0.51100000000E-03 0. -1.
        -11    1    3    3    0    0 -0.16179052883E+01  0.76817565210E+01 -0.11289305954E+01  0.79310456637E+01  0.51100000000E-03 0.  1.
        -12    1    3    3    0    0 -0.24987392217E+02  0.10787014066E+02  0.20712356337E+02  0.34201332537E+02  0.00000000000E+00 0.  1.
</event>
<event>
 7    1  0.5022032E-011  0.4778727E+02  0.7816164E-02  0.1312668E+00
        -11   -1    0    0    0    0  0.00000000000E+00  0.00000000000E+00  0.45593999997E+02  0.45594000000E+02  0.51100000000E-03 0.  1.
         11   -1    0    0    0    0 -0.00000000000E+00 -0.00000000000E+00 -0.45593999997E+02  0.45594000000E+02  0.51100000000E-03 0. -1.
    9900012    2    1    2    0    0  0.35937329395E+00 -0.40104464568E+02  0.16586925245E+02  0.47787270553E+02  0.19999997760E+02 0.  0.
        -12    1    1    2    0    0 -0.35937329395E+00  0.40104464568E+02 -0.16586925245E+02  0.43400729447E+02  0.00000000000E+00 0.  1.
         11    1    3    3    0    0  0.32049933191E+01 -0.22587444454E+01  0.81127421166E+00  0.40040073367E+01  0.51100000000E-03 0. -1.
        -11    1    3    3    0    0 -0.35109377635E+01 -0.14616134585E+02  0.13891620429E+02  0.20467906405E+02  0.51100000000E-03 0.  1.
         12    1    3    3    0    0  0.66531773840E+00 -0.23229585538E+02  0.18840306039E+01  0.23315356812E+02  0.00000000000E+00 0. -1.
</event>
<event>
 7    1  0.5022032E-011  0.4778727E+02  0.7816164E-02  0.1312668E+00
        -11   -1    0    0    0    0  0.00000000000E+00  0.00000000000E+00  0.45593999997E+02  0.45594000000E+02  0.51100000000E-03 0.  1.
         11   -1    0    0    0    0 -0.00000000000E+00 -0.00000000000E+00 -0.45593999997E+02  0.45594000000E+02  0.51100000000E-03 0. -1.
    9900012    2    1    2    0    0  0.13718213362E+02  0.40957516425E+02 -0.42327083831E+01  0.47787270170E+02  0.19999996012E+02 0.  0.
        -12    1    1    2    0    0 -0.13718213362E+02 -0.40957516425E+02  0.42327083831E+01  0.43400729830E+02  0.00000000000E+00 0.  1.
         11    1    3    3    0    0  0.92275884241E+01  0.23734771577E+02 -0.57729826695E+01  0.26111589364E+02  0.51100000000E-03 0.  1.
        -11    1    3    3    0    0  0.44422887388E+01  0.18887205893E+02  0.27785999048E+01  0.19600538089E+02  0.51100000000E-03 0. -1.
        -12    1    3    3    0    0  0.48336199379E-01 -0.16644610451E+01 -0.12383256183E+01  0.20751427170E+01  0.00000000000E+00 0.  1.
</event>
<event>
 7    1  0.5022032E-011  0.4778727E+02  0.7816164E-02  0.1312668E+00
        -11   -1    0    0    0    0  0.00000000000E+00  0.00000000000E+00  0.45593999997E+02  0.45594000000E+02  0.51100000000E-03 0. -1.
         11   -1    0    0    0    0 -0.00000000000E+00 -0.00000000000E+00 -0.45593999997E+02  0.45594000000E+02  0.51100000000E-03 0.  1.
    9900012    2    1    2    0    0  0.19007806663E+01 -0.13853468216E+02  0.41086394043E+02  0.47787270465E+02  0.19999997356E+02 0.  0.
        -12    1    1    2    0    0 -0.19007806663E+01  0.13853468216E+02 -0.41086394043E+02  0.43400729535E+02  0.00000000000E+00 0.  1.
         11    1    3    3    0    0 -0.93096930981E+00 -0.24602479909E+01  0.14126614758E+02  0.14369438709E+02  0.51100000000E-03 0. -1.
        -11    1    3    3    0    0 -0.50044657530E+01 -0.84886244150E+01  0.20863090473E+02  0.23073143832E+02  0.51100000000E-03 0.  1.
        -12    1    3    3    0    0  0.78362157291E+01 -0.29045958098E+01  0.60966888121E+01  0.10344687924E+02  0.00000000000E+00 0.  1.
</event>
<event>
 7    1  0.5022032E-011  0.4778728E+02  0.7816164E-02  0.1312668E+00
        -11   -1    0    0    0    0  0.00000000000E+00  0.00000000000E+00  0.45593999997E+02  0.45594000000E+02  0.51100000000E-03 0. -1.
         11   -1    0    0    0    0 -0.00000000000E+00 -0.00000000000E+00 -0.45593999997E+02  0.45594000000E+02  0.51100000000E-03 0.  1.
    9900012    2    1    2    0    0  0.14140329425E+02 -0.39321572099E+02  0.11725509788E+02  0.47787279633E+02  0.20000039158E+02 0.  0.
        -12    1    1    2    0    0 -0.14140329425E+02  0.39321572099E+02 -0.11725509788E+02  0.43400720367E+02  0.00000000000E+00 0.  1.
         11    1    3    3    0    0  0.27364906004E+01 -0.17883284360E+02  0.74486905800E+01  0.19564846841E+02  0.51100000000E-03 0. -1.
        -11    1    3    3    0    0  0.10011466414E+02 -0.23238432020E+02  0.26852521237E+01  0.25445328879E+02  0.51100000000E-03 0.  1.
        -12    1    3    3    0    0  0.13923724099E+01  0.18001442807E+01  0.15915670846E+01  0.27771039131E+01  0.00000000000E+00 0.  1.
</event>
<event>
 7    1  0.5022032E-011  0.4778727E+02  0.7816164E-02  0.1312668E+00
        -11   -1    0    0    0    0  0.00000000000E+00  0.00000000000E+00  0.45593999997E+02  0.45594000000E+02  0.51100000000E-03 0. -1.
         11   -1    0    0    0    0 -0.00000000000E+00 -0.00000000000E+00 -0.45593999997E+02  0.45594000000E+02  0.51100000000E-03 0.  1.
    9900012    2    1    2    0    0  0.32435740192E+02 -0.10591389869E+02 -0.26821051346E+02  0.47787267558E+02  0.19999984106E+02 0.  0.
         12    1    1    2    0    0 -0.32435740192E+02  0.10591389869E+02  0.26821051346E+02  0.43400732442E+02  0.00000000000E+00 0. -1.
         11    1    3    3    0    0  0.39228438913E+01 -0.56273940518E+01 -0.18303804425E+01  0.70997578012E+01  0.51100000000E-03 0. -1.
        -11    1    3    3    0    0  0.16502994224E+02 -0.44134664619E+01 -0.57977124993E+01  0.18039982679E+02  0.51100000000E-03 0.  1.
         12    1    3    3    0    0  0.12009902077E+02 -0.55052935557E+00 -0.19192958404E+02  0.22647527078E+02  0.00000000000E+00 0. -1.
</event>
<event>
 7    1  0.5022032E-011  0.4778727E+02  0.7816164E-02  0.1312668E+00
        -11   -1    0    0    0    0  0.00000000000E+00  0.00000000000E+00  0.45593999997E+02  0.45594000000E+02  0.51100000000E-03 0.  1.
         11   -1    0    0    0    0 -0.00000000000E+00 -0.00000000000E+00 -0.45593999997E+02  0.45594000000E+02  0.51100000000E-03 0. -1.
    9900012    2    1    2    0    0  0.40338809548E+02  0.19289611923E+01  0.15896010555E+02  0.47787267303E+02  0.19999982943E+02 0.  0.
         12    1    1    2    0    0 -0.40338809548E+02 -0.19289611923E+01 -0.15896010555E+02  0.43400732697E+02  0.00000000000E+00 0. -1.
         11    1    3    3    0    0 -0.51346282912E+00 -0.16204216858E+01 -0.66060358389E+00  0.18236797616E+01  0.51100000000E-03 0. -1.
        -11    1    3    3    0    0  0.40720915452E+02  0.39328228207E+01  0.13796849422E+02  0.43174218057E+02  0.51100000000E-03 0.  1.
        -12    1    3    3    0    0  0.13135692519E+00 -0.38343994255E+00  0.27597647165E+01  0.27893694846E+01  0.00000000000E+00 0.  1.
</event>
<event>
 7    1  0.5022032E-011  0.4778727E+02  0.7816164E-02  0.1312668E+00
        -11   -1    0    0    0    0  0.00000000000E+00  0.00000000000E+00  0.45593999997E+02  0.45594000000E+02  0.51100000000E-03 0. -1.
         11   -1    0    0    0    0 -0.00000000000E+00 -0.00000000000E+00 -0.45593999997E+02  0.45594000000E+02  0.51100000000E-03 0.  1.
    9900012    2    1    2    0    0  0.30206066308E+02  0.10110205694E+02  0.29478814360E+02  0.47787271929E+02  0.20000004035E+02 0.  0.
        -12    1    1    2    0    0 -0.30206066308E+02 -0.10110205694E+02 -0.29478814360E+02  0.43400728071E+02  0.00000000000E+00 0.  1.
         11    1    3    3    0    0  0.51621603644E+01  0.44628288987E+01  0.14491192101E+01  0.69760080385E+01  0.51100000000E-03 0. -1.
        -11    1    3    3    0    0  0.24783457913E+00  0.48303877852E+01  0.50908052547E+01  0.70221340443E+01  0.51100000000E-03 0.  1.
         12    1    3    3    0    0  0.24796071365E+02  0.81698900961E+00  0.22938889895E+02  0.33789129847E+02  0.00000000000E+00 0. -1.
</event>
<event>
 7    1  0.5022032E-011  0.4778727E+02  0.7816164E-02  0.1312668E+00
        -11   -1    0    0    0    0  0.00000000000E+00  0.00000000000E+00  0.45593999997E+02  0.45594000000E+02  0.51100000000E-03 0. -1.
         11   -1    0    0    0    0 -0.00000000000E+00 -0.00000000000E+00 -0.45593999997E+02  0.45594000000E+02  0.51100000000E-03 0.  1.
    9900012    2    1    2    0    0 -0.28171036555E+02 -0.63254406492E+01 -0.32403774817E+02  0.47787272790E+02  0.20000007959E+02 0.  0.
         12    1    1    2    0    0  0.28171036555E+02  0.63254406492E+01  0.32403774817E+02  0.43400727210E+02  0.00000000000E+00 0. -1.
         11    1    3    3    0    0 -0.53163449172E+01 -0.12912375514E+01 -0.11193168005E+01  0.55842356732E+01  0.51100000000E-03 0.  1.
        -11    1    3    3    0    0 -0.90605867167E+01  0.16980350276E+01 -0.24510840373E+01  0.95386250490E+01  0.51100000000E-03 0. -1.
        -12    1    3    3    0    0 -0.13794104921E+02 -0.67322381253E+01 -0.28833373979E+02  0.32664412068E+02  0.00000000000E+00 0.  1.
</event>
<event>
 7    1  0.5022032E-011  0.4778728E+02  0.7816164E-02  0.1312668E+00
        -11   -1    0    0    0    0  0.00000000000E+00  0.00000000000E+00  0.45593999997E+02  0.45594000000E+02  0.51100000000E-03 0. -1.
         11   -1    0    0    0    0 -0.00000000000E+00 -0.00000000000E+00 -0.45593999997E+02  0.45594000000E+02  0.51100000000E-03 0.  1.
    9900012    2    1    2    0    0  0.36822722472E+02 -0.14050302702E+01  0.22928918974E+02  0.47787281969E+02  0.20000049808E+02 0.  0.
        -12    1    1    2    0    0 -0.36822722472E+02  0.14050302702E+01 -0.22928918974E+02  0.43400718031E+02  0.00000000000E+00 0.  1.
         11    1    3    3    0    0  0.24344365214E+02  0.20145631936E+01  0.14682013458E+02  0.28500317577E+02  0.51100000000E-03 0. -1.
        -11    1    3    3    0    0  0.69977564122E+01  0.35634849272E+01  0.11809784542E+01  0.79411416057E+01  0.51100000000E-03 0.  1.
        -12    1    3    3    0    0  0.54806008455E+01 -0.69830783910E+01  0.70659270623E+01  0.11345822786E+02  0.00000000000E+00 0.  1.
</event>
<event>
 7    1  0.5022032E-011  0.4778727E+02  0.7816164E-02  0.1312668E+00
        -11   -1    0    0    0    0  0.00000000000E+00  0.00000000000E+00  0.45593999997E+02  0.45594000000E+02  0.51100000000E-03 0.  1.
         11   -1    0    0    0    0 -0.00000000000E+00 -0.00000000000E+00 -0.45593999997E+02  0.45594000000E+02  0.51100000000E-03 0. -1.
    9900012    2    1    2    0    0  0.21184742800E+02  0.34789053009E+02 -0.14985047369E+02  0.47787272109E+02  0.20000004855E+02 0.  0.
         12    1    1    2    0    0 -0.21184742800E+02 -0.34789053009E+02  0.14985047369E+02  0.43400727891E+02  0.00000000000E+00 0. -1.
         11    1    3    3    0    0  0.58018932866E+01  0.15996476920E+02 -0.77943312005E+01  0.18716325459E+02  0.51100000000E-03 0. -1.
        -11    1    3    3    0    0 -0.13635948226E+01  0.80529092644E+01 -0.32482054541E+01  0.87897427377E+01  0.51100000000E-03 0.  1.
         12    1    3    3    0    0  0.16746444336E+02  0.10739666825E+02 -0.39425107141E+01  0.20281203913E+02  0.00000000000E+00 0. -1.
</event>
<event>
 7    1  0.5022032E-011  0.4778727E+02  0.7816164E-02  0.1312668E+00
        -11   -1    0    0    0    0  0.00000000000E+00  0.00000000000E+00  0.45593999997E+02  0.45594000000E+02  0.51100000000E-03 0. -1.
         11   -1    0    0    0    0 -0.00000000000E+00 -0.00000000000E+00 -0.45593999997E+02  0.45594000000E+02  0.51100000000E-03 0.  1.
    9900012    2    1    2    0    0  0.40081338793E+02  0.11304967120E+02  0.12219127780E+02  0.47787273223E+02  0.20000009933E+02 0.  0.
        -12    1    1    2    0    0 -0.40081338793E+02 -0.11304967120E+02 -0.12219127780E+02  0.43400726777E+02  0.00000000000E+00 0.  1.
         11    1    3    3    0    0  0.46165847618E+01  0.11236719549E+01  0.41847453349E+01  0.63314759183E+01  0.51100000000E-03 0. -1.
        -11    1    3    3    0    0  0.37361898218E+02  0.10338724489E+02  0.76822403858E+01  0.39519836539E+02  0.51100000000E-03 0.  1.
        -12    1    3    3    0    0 -0.18971441862E+01 -0.15742932322E+00  0.35214205946E+00  0.19359607654E+01  0.00000000000E+00 0.  1.
</event>
<event>
 7    1  0.5022032E-011  0.4778727E+02  0.7816164E-02  0.1312668E+00
        -11   -1    0    0    0    0  0.00000000000E+00  0.00000000000E+00  0.45593999997E+02  0.45594000000E+02  0.51100000000E-03 0. -1.
         11   -1    0    0    0    0 -0.00000000000E+00 -0.00000000000E+00 -0.45593999997E+02  0.45594000000E+02  0.51100000000E-03 0.  1.
    9900012    2    1    2    0    0  0.16498428058E+02  0.14277926710E+02 -0.37517542793E+02  0.47787270320E+02  0.19999996698E+02 0.  0.
         12    1    1    2    0    0 -0.16498428058E+02 -0.14277926710E+02  0.37517542793E+02  0.43400729680E+02  0.00000000000E+00 0. -1.
         11    1    3    3    0    0  0.15663587120E+02  0.43480626475E+01 -0.27637296992E+02  0.32063589873E+02  0.51100000000E-03 0. -1.
        -11    1    3    3    0    0  0.24135424146E+01  0.70817923937E+01 -0.99712427020E+01  0.12466059994E+02  0.51100000000E-03 0.  1.
        -12    1    3    3    0    0 -0.15787014763E+01  0.28480716683E+01  0.90996901123E-01  0.32576204529E+01  0.00000000000E+00 0.  1.
</event>
<event>
 7    1  0.6505758E-011  0.4778727E+02  0.7816164E-02  0.1312668E+00
        -11   -1    0    0    0    0  0.00000000000E+00  0.00000000000E+00  0.45593999997E+02  0.45594000000E+02  0.51100000000E-03 0. -1.
         11   -1    0    0    0    0 -0.00000000000E+00 -0.00000000000E+00 -0.45593999997E+02  0.45594000000E+02  0.51100000000E-03 0.  1.
    9900012    2    1    2    0    0 -0.15042600320E+02 -0.18031202177E+02 -0.36499580243E+02  0.47787269197E+02  0.19999991577E+02 0.  0.
         12    1    1    2    0    0  0.15042600320E+02  0.18031202177E+02  0.36499580243E+02  0.43400730803E+02  0.00000000000E+00 0. -1.
         11    1    3    3    0    0 -0.92707566129E+00 -0.99222850184E+01 -0.77291439206E+01  0.12611537387E+02  0.51100000000E-03 0. -1.
        -11    1    3    3    0    0 -0.48884456914E+01  0.52612647131E+00 -0.15341999307E+01  0.51504834754E+01  0.51100000000E-03 0.  1.
        -12    1    3    3    0    0 -0.92270789670E+01 -0.86350436303E+01 -0.27236236391E+02  0.30025248334E+02  0.00000000000E+00 0.  1.
</event>
<event>
 7    1  0.5022032E-011  0.4778728E+02  0.7816164E-02  0.1312668E+00
        -11   -1    0    0    0    0  0.00000000000E+00  0.00000000000E+00  0.45593999997E+02  0.45594000000E+02  0.51100000000E-03 0. -1.
         11   -1    0    0    0    0 -0.00000000000E+00 -0.00000000000E+00 -0.45593999997E+02  0.45594000000E+02  0.51100000000E-03 0.  1.
    9900012    2    1    2    0    0 -0.50635061785E+01  0.28732194320E+02  0.32131678396E+02  0.47787276022E+02  0.20000022694E+02 0.  0.
        -12    1    1    2    0    0  0.50635061785E+01 -0.28732194320E+02 -0.32131678396E+02  0.43400723978E+02  0.00000000000E+00 0.  1.
         11    1    3    3    0    0  0.67857985821E+00 -0.36806480308E+00  0.50761786806E+00  0.92391476031E+00  0.51100000000E-03 0. -1.
        -11    1    3    3    0    0  0.60223323997E+01  0.11704834203E+02  0.15823936505E+02  0.20583211558E+02  0.51100000000E-03 0.  1.
         12    1    3    3    0    0 -0.11764418436E+02  0.17395424920E+02  0.15800124023E+02  0.26280149704E+02  0.00000000000E+00 0. -1.
</event>
<event>
 7    1  0.5022032E-011  0.4778727E+02  0.7816164E-02  0.1312668E+00
        -11   -1    0    0    0    0  0.00000000000E+00  0.00000000000E+00  0.45593999997E+02  0.45594000000E+02  0.51100000000E-03 0. -1.
         11   -1    0    0    0    0 -0.00000000000E+00 -0.00000000000E+00 -0.45593999997E+02  0.45594000000E+02  0.51100000000E-03 0.  1.
    9900012    2    1    2    0    0 -0.16189981546E+01  0.27704137320E+02 -0.33368893301E+02  0.47787269363E+02  0.19999992335E+02 0.  0.
         12    1    1    2    0    0  0.16189981546E+01 -0.27704137320E+02  0.33368893301E+02  0.43400730637E+02  0.00000000000E+00 0. -1.
         11    1    3    3    0    0 -0.10828287137E+01  0.92662773838E+01 -0.17790664644E+02  0.20088408681E+02  0.51100000000E-03 0. -1.
        -11    1    3    3    0    0 -0.41169594614E+01  0.11864976401E+02 -0.15833454903E+02  0.20209535240E+02  0.51100000000E-03 0.  1.
         12    1    3    3    0    0  0.35807900204E+01  0.65728835356E+01  0.25522624673E+00  0.74893254422E+01  0.00000000000E+00 0. -1.
</event>
<event>
 7    1  0.5022032E-011  0.4778728E+02  0.7816164E-02  0.1312668E+00
        -11   -1    0    0    0    0  0.00000000000E+00  0.00000000000E+00  0.45593999997E+02  0.45594000000E+02  0.51100000000E-03 0. -1.
         11   -1    0    0    0    0 -0.00000000000E+00 -0.00000000000E+00 -0.45593999997E+02  0.45594000000E+02  0.51100000000E-03 0.  1.
    9900012    2    1    2    0    0 -0.29112951067E+02 -0.82068182978E+01 -0.31124058941E+02  0.47787276142E+02  0.20000023242E+02 0.  0.
         12    1    1    2    0    0  0.29112951067E+02  0.82068182978E+01  0.31124058941E+02  0.43400723858E+02  0.00000000000E+00 0. -1.
         11    1    3    3    0    0 -0.12795719488E+02 -0.56855098341E+01 -0.20928449929E+02  0.25180458216E+02  0.51100000000E-03 0.  1.
        -11    1    3    3    0    0  0.28271545083E+00  0.37779944703E+00 -0.49293561177E+01  0.49518897852E+01  0.51100000000E-03 0. -1.
        -12    1    3    3    0    0 -0.16599947031E+02 -0.28991079107E+01 -0.52662528941E+01  0.17654928140E+02  0.00000000000E+00 0.  1.
</event>
<event>
 7    1  0.5022032E-011  0.4778728E+02  0.7816164E-02  0.1312668E+00
        -11   -1    0    0    0    0  0.00000000000E+00  0.00000000000E+00  0.45593999997E+02  0.45594000000E+02  0.51100000000E-03 0. -1.
         11   -1    0    0    0    0 -0.00000000000E+00 -0.00000000000E+00 -0.45593999997E+02  0.45594000000E+02  0.51100000000E-03 0.  1.
    9900012    2    1    2    0    0 -0.15771865043E+02 -0.35273692702E+02 -0.19764555029E+02  0.47787276973E+02  0.20000027031E+02 0.  0.
         12    1    1    2    0    0  0.15771865043E+02  0.35273692702E+02  0.19764555029E+02  0.43400723027E+02  0.00000000000E+00 0. -1.
         11    1    3    3    0    0 -0.62557354270E+00 -0.63717191633E+01  0.47555070058E-01  0.64025314602E+01  0.51100000000E-03 0. -1.
        -11    1    3    3    0    0 -0.10106924182E+02 -0.10545762419E+02 -0.10301253453E+01  0.14643229832E+02  0.51100000000E-03 0.  1.
        -12    1    3    3    0    0 -0.50393673184E+01 -0.18356211120E+02 -0.18781984753E+02  0.26741515681E+02  0.00000000000E+00 0.  1.
</event>
<event>
 7    1  0.5022032E-011  0.4778727E+02  0.7816164E-02  0.1312668E+00
        -11   -1    0    0    0    0  0.00000000000E+00  0.00000000000E+00  0.45593999997E+02  0.45594000000E+02  0.51100000000E-03 0. -1.
         11   -1    0    0    0    0 -0.00000000000E+00 -0.00000000000E+00 -0.45593999997E+02  0.45594000000E+02  0.51100000000E-03 0.  1.
    9900012    2    1    2    0    0  0.24078973691E+02  0.34986375495E+02 -0.89319432634E+01  0.47787273569E+02  0.20000011511E+02 0.  0.
         12    1    1    2    0    0 -0.24078973691E+02 -0.34986375495E+02  0.89319432634E+01  0.43400726431E+02  0.00000000000E+00 0. -1.
         11    1    3    3    0    0  0.13626929310E+02  0.12054941104E+02 -0.11937380585E+02  0.21760419640E+02  0.51100000000E-03 0. -1.
        -11    1    3    3    0    0  0.10560099704E+02  0.20156277777E+02  0.13530794997E+01  0.22795220201E+02  0.51100000000E-03 0.  1.
         12    1    3    3    0    0 -0.10805532306E+00  0.27751566134E+01  0.16523578220E+01  0.32316337282E+01  0.00000000000E+00 0. -1.
</event>
<event>
 7    1  0.5022032E-011  0.4778727E+02  0.7816164E-02  0.1312668E+00
        -11   -1    0    0    0    0  0.00000000000E+00  0.00000000000E+00  0.45593999997E+02  0.45594000000E+02  0.51100000000E-03 0.  1.
         11   -1    0    0    0    0 -0.00000000000E+00 -0.00000000000E+00 -0.45593999997E+02  0.45594000000E+02  0.51100000000E-03 0. -1.
    9900012    2    1    2    0    0  0.22721636839E+02  0.27946274023E+02  0.24214802872E+02  0.47787266244E+02  0.19999978112E+02 0.  0.
        -12    1    1    2    0    0 -0.22721636839E+02 -0.27946274023E+02 -0.24214802872E+02  0.43400733756E+02  0.00000000000E+00 0.  1.
         11    1    3    3    0    0 -0.18694144918E+01  0.32875355289E+00  0.31765725743E+01  0.37004598392E+01  0.51100000000E-03 0. -1.
        -11    1    3    3    0    0 -0.82070952777E-01  0.46266940318E+01  0.47622899940E+01  0.66402138183E+01  0.51100000000E-03 0.  1.
         12    1    3    3    0    0  0.24673122284E+02  0.22990826439E+02  0.16275940304E+02  0.37446592586E+02  0.00000000000E+00 0. -1.
</event>
<event>
 7    1  0.5022032E-011  0.4778727E+02  0.7816164E-02  0.1312668E+00
        -11   -1    0    0    0    0  0.00000000000E+00  0.00000000000E+00  0.45593999997E+02  0.45594000000E+02  0.51100000000E-03 0. -1.
         11   -1    0    0    0    0 -0.00000000000E+00 -0.00000000000E+00 -0.45593999997E+02  0.45594000000E+02  0.51100000000E-03 0.  1.
    9900012    2    1    2    0    0 -0.98774542936E+01 -0.35400688690E+02  0.23083562789E+02  0.47787265743E+02  0.19999975827E+02 0.  0.
        -12    1    1    2    0    0  0.98774542936E+01  0.35400688690E+02 -0.23083562789E+02  0.43400734257E+02  0.00000000000E+00 0.  1.
         11    1    3    3    0    0 -0.51477559686E+01 -0.90266054630E-01 -0.95151906818E-02  0.51485561348E+01  0.51100000000E-03 0. -1.
        -11    1    3    3    0    0 -0.68630544046E-01 -0.26886710415E+01  0.64393816722E+00  0.27655593910E+01  0.51100000000E-03 0.  1.
         12    1    3    3    0    0 -0.46610677810E+01 -0.32621751594E+02  0.22449139812E+02  0.39873150217E+02  0.00000000000E+00 0. -1.
</event>
<event>
 7    1  0.5022032E-011  0.4778727E+02  0.7816164E-02  0.1312668E+00
        -11   -1    0    0    0    0  0.00000000000E+00  0.00000000000E+00  0.45593999997E+02  0.45594000000E+02  0.51100000000E-03 0. -1.
         11   -1    0    0    0    0 -0.00000000000E+00 -0.00000000000E+00 -0.45593999997E+02  0.45594000000E+02  0.51100000000E-03 0.  1.
    9900012    2    1    2    0    0  0.20373924711E+01 -0.10274807468E+02  0.42117700555E+02  0.47787270321E+02  0.19999996704E+02 0.  0.
        -12    1    1    2    0    0 -0.20373924711E+01  0.10274807468E+02 -0.42117700555E+02  0.43400729679E+02  0.00000000000E+00 0.  1.
         11    1    3    3    0    0  0.45748950095E+01  0.19037938308E+01  0.13002892261E+02  0.13915074657E+02  0.51100000000E-03 0. -1.
        -11    1    3    3    0    0 -0.25404159208E+01 -0.98499057951E+00  0.48619333361E-01  0.27251208401E+01  0.51100000000E-03 0.  1.
         12    1    3    3    0    0  0.29133824180E-02 -0.11193610719E+02  0.29066188960E+02  0.31147074824E+02  0.00000000000E+00 0. -1.
</event>
<event>
 7    1  0.5022032E-011  0.4778726E+02  0.7816164E-02  0.1312668E+00
        -11   -1    0    0    0    0  0.00000000000E+00  0.00000000000E+00  0.45593999997E+02  0.45594000000E+02  0.51100000000E-03 0. -1.
         11   -1    0    0    0    0 -0.00000000000E+00 -0.00000000000E+00 -0.45593999997E+02  0.45594000000E+02  0.51100000000E-03 0.  1.
    9900012    2    1    2    0    0 -0.14523496955E+02 -0.25272399731E+02  0.32155846008E+02  0.47787255946E+02  0.19999931158E+02 0.  0.
        -12    1    1    2    0    0  0.14523496955E+02  0.25272399731E+02 -0.32155846008E+02  0.43400744054E+02  0.00000000000E+00 0.  1.
         11    1    3    3    0    0  0.53881091041E+00 -0.11547997974E+02  0.94806116430E+01  0.14950871941E+02  0.51100000000E-03 0. -1.
        -11    1    3    3    0    0 -0.94250609994E+01 -0.13086348194E+02  0.21767870406E+02  0.27091040331E+02  0.51100000000E-03 0.  1.
        -12    1    3    3    0    0 -0.56372468665E+01 -0.63805356310E+00  0.90736395873E+00  0.57453436743E+01  0.00000000000E+00 0.  1.
</event>
<event>
 7    1  0.5022032E-011  0.4778727E+02  0.7816164E-02  0.1312668E+00
        -11   -1    0    0    0    0  0.00000000000E+00  0.00000000000E+00  0.45593999997E+02  0.45594000000E+02  0.51100000000E-03 0. -1.
         11   -1    0    0    0    0 -0.00000000000E+00 -0.00000000000E+00 -0.45593999997E+02  0.45594000000E+02  0.51100000000E-03 0.  1.
    9900012    2    1    2    0    0  0.27967942623E+02 -0.18191729854E+01  0.33137714915E+02  0.47787270114E+02  0.19999995757E+02 0.  0.
        -12    1    1    2    0    0 -0.27967942623E+02  0.18191729854E+01 -0.33137714915E+02  0.43400729886E+02  0.00000000000E+00 0.  1.
         11    1    3    3    0    0  0.18033281561E+02 -0.14340084791E+01  0.13199937752E+02  0.22394061290E+02  0.51100000000E-03 0. -1.
        -11    1    3    3    0    0  0.11180516136E+02 -0.61417332931E+00  0.89555448868E+01  0.14338163565E+02  0.51100000000E-03 0.  1.
        -12    1    3    3    0    0 -0.12458550734E+01  0.22900882294E+00  0.10982232276E+02  0.11055045258E+02  0.00000000000E+00 0.  1.
</event>
<event>
 7    1  0.5022032E-011  0.4778727E+02  0.7816164E-02  0.1312668E+00
        -11   -1    0    0    0    0  0.00000000000E+00  0.00000000000E+00  0.45593999997E+02  0.45594000000E+02  0.51100000000E-03 0. -1.
         11   -1    0    0    0    0 -0.00000000000E+00 -0.00000000000E+00 -0.45593999997E+02  0.45594000000E+02  0.51100000000E-03 0.  1.
    9900012    2    1    2    0    0  0.25880056451E+02  0.66956737472E+01  0.34190851108E+02  0.47787266500E+02  0.19999979278E+02 0.  0.
        -12    1    1    2    0    0 -0.25880056451E+02 -0.66956737472E+01 -0.34190851108E+02  0.43400733500E+02  0.00000000000E+00 0.  1.
         11    1    3    3    0    0  0.22192303621E+02  0.75810958273E+01  0.22580446665E+02  0.32555305648E+02  0.51100000000E-03 0. -1.
        -11    1    3    3    0    0  0.37240300169E+01  0.14566901795E+01  0.12181419920E+02  0.12820972560E+02  0.51100000000E-03 0.  1.
        -12    1    3    3    0    0 -0.36277186628E-01 -0.23421122596E+01 -0.57101547688E+00  0.24109882923E+01  0.00000000000E+00 0.  1.
</event>
<event>
 7    1  0.5022032E-011  0.4778729E+02  0.7816164E-02  0.1312668E+00
        -11   -1    0    0    0    0  0.00000000000E+00  0.00000000000E+00  0.45593999997E+02  0.45594000000E+02  0.51100000000E-03 0. -1.
         11   -1    0    0    0    0 -0.00000000000E+00 -0.00000000000E+00 -0.45593999997E+02  0.45594000000E+02  0.51100000000E-03 0.  1.
    9900012    2    1    2    0    0 -0.25641671650E+02 -0.93365772394E+01 -0.33748402554E+02  0.47787289470E+02  0.20000084009E+02 0.  0.
         12    1    1    2    0    0  0.25641671650E+02  0.93365772394E+01  0.33748402554E+02  0.43400710530E+02  0.00000000000E+00 0. -1.
         11    1    3    3    0    0 -0.21073853972E+01  0.32213997173E+00 -0.84916300522E+01  0.87551486897E+01  0.51100000000E-03 0. -1.
        -11    1    3    3    0    0 -0.18978704956E+02 -0.28899185744E+01 -0.24068634863E+02  0.30787043632E+02  0.51100000000E-03 0.  1.
         12    1    3    3    0    0 -0.45555812971E+01 -0.67687986367E+01 -0.11881376394E+01  0.82450971486E+01  0.00000000000E+00 0. -1.
</event>
<event>
 7    1  0.5022032E-011  0.4778727E+02  0.7816164E-02  0.1312668E+00
        -11   -1    0    0    0    0  0.00000000000E+00  0.00000000000E+00  0.45593999997E+02  0.45594000000E+02  0.51100000000E-03 0. -1.
         11   -1    0    0    0    0 -0.00000000000E+00 -0.00000000000E+00 -0.45593999997E+02  0.45594000000E+02  0.51100000000E-03 0.  1.
    9900012    2    1    2    0    0 -0.24100118980E+02 -0.28754983149E+02  0.21816477885E+02  0.47787268462E+02  0.19999988223E+02 0.  0.
        -12    1    1    2    0    0  0.24100118980E+02  0.28754983149E+02 -0.21816477885E+02  0.43400731538E+02  0.00000000000E+00 0.  1.
         11    1    3    3    0    0 -0.14987584763E+02 -0.11988538661E+02  0.91545030699E+01  0.21263999694E+02  0.51100000000E-03 0. -1.
        -11    1    3    3    0    0 -0.11928914497E+02 -0.89573590008E+01  0.70252912836E+01  0.16489026631E+02  0.51100000000E-03 0.  1.
        -12    1    3    3    0    0  0.28163802801E+01 -0.78090854872E+01  0.56366835317E+01  0.10034242137E+02  0.00000000000E+00 0.  1.
</event>
<event>
 7    1  0.5022032E-011  0.4778726E+02  0.7816164E-02  0.1312668E+00
        -11   -1    0    0    0    0  0.00000000000E+00  0.00000000000E+00  0.45593999997E+02  0.45594000000E+02  0.51100000000E-03 0. -1.
         11   -1    0    0    0    0 -0.00000000000E+00 -0.00000000000E+00 -0.45593999997E+02  0.45594000000E+02  0.51100000000E-03 0.  1.
    9900012    2    1    2    0    0  0.29683100603E+02  0.30284978845E+02 -0.92389366138E+01  0.47787258591E+02  0.19999943220E+02 0.  0.
         12    1    1    2    0    0 -0.29683100603E+02 -0.30284978845E+02  0.92389366138E+01  0.43400741409E+02  0.00000000000E+00 0. -1.
         11    1    3    3    0    0  0.65581062099E-01 -0.93521299465E-01  0.10605834847E+01  0.10667167844E+01  0.51100000000E-03 0. -1.
        -11    1    3    3    0    0  0.73779182141E+01  0.41807188048E+00  0.15912042307E+01  0.75591264334E+01  0.51100000000E-03 0.  1.
        -12    1    3    3    0    0  0.22239601327E+02  0.29960428264E+02 -0.11890724329E+02  0.39161415373E+02  0.00000000000E+00 0.  1.
</event>
<event>
 7    1  0.5022032E-011  0.4778733E+02  0.7816164E-02  0.1312668E+00
        -11   -1    0    0    0    0  0.00000000000E+00  0.00000000000E+00  0.45593999997E+02  0.45594000000E+02  0.51100000000E-03 0. -1.
         11   -1    0    0    0    0 -0.00000000000E+00 -0.00000000000E+00 -0.45593999997E+02  0.45594000000E+02  0.51100000000E-03 0.  1.
    9900012    2    1    2    0    0 -0.28779991905E+02  0.15589657749E+02  0.28500758112E+02  0.47787325170E+02  0.20000246777E+02 0.  0.
        -12    1    1    2    0    0  0.28779991905E+02 -0.15589657749E+02 -0.28500758112E+02  0.43400674830E+02  0.00000000000E+00 0.  1.
         11    1    3    3    0    0 -0.36764421358E+01 -0.32678206448E+01  0.33964739622E+01  0.59775341222E+01  0.51100000000E-03 0. -1.
        -11    1    3    3    0    0 -0.49118259228E+01  0.23630176142E+01  0.10735804519E+02  0.12040240242E+02  0.51100000000E-03 0.  1.
        -12    1    3    3    0    0 -0.20191723846E+02  0.16494460779E+02  0.14368479631E+02  0.29769550806E+02  0.00000000000E+00 0.  1.
</event>
<event>
 7    1  0.5022032E-011  0.4778727E+02  0.7816164E-02  0.1312668E+00
        -11   -1    0    0    0    0  0.00000000000E+00  0.00000000000E+00  0.45593999997E+02  0.45594000000E+02  0.51100000000E-03 0. -1.
         11   -1    0    0    0    0 -0.00000000000E+00 -0.00000000000E+00 -0.45593999997E+02  0.45594000000E+02  0.51100000000E-03 0.  1.
    9900012    2    1    2    0    0 -0.94968846888E+01  0.37928253808E+01 -0.42178752555E+02  0.47787268321E+02  0.19999987582E+02 0.  0.
         12    1    1    2    0    0  0.94968846888E+01 -0.37928253808E+01  0.42178752555E+02  0.43400731679E+02  0.00000000000E+00 0. -1.
         11    1    3    3    0    0  0.45524194813E+00 -0.31518491264E+00 -0.97872506332E-01  0.56228644756E+00  0.51100000000E-03 0. -1.
        -11    1    3    3    0    0  0.26353162823E+01 -0.93019087817E-01 -0.27035028225E+02  0.27163326303E+02  0.51100000000E-03 0.  1.
         12    1    3    3    0    0 -0.12587442919E+02  0.42010293813E+01 -0.15045851824E+02  0.20061655570E+02  0.00000000000E+00 0. -1.
</event>
<event>
 7    1  0.5022032E-011  0.4778727E+02  0.7816164E-02  0.1312668E+00
        -11   -1    0    0    0    0  0.00000000000E+00  0.00000000000E+00  0.45593999997E+02  0.45594000000E+02  0.51100000000E-03 0. -1.
         11   -1    0    0    0    0 -0.00000000000E+00 -0.00000000000E+00 -0.45593999997E+02  0.45594000000E+02  0.51100000000E-03 0.  1.
    9900012    2    1    2    0    0  0.27783922546E+02 -0.21848109009E+02 -0.25186047056E+02  0.47787272061E+02  0.20000004637E+02 0.  0.
         12    1    1    2    0    0 -0.27783922546E+02  0.21848109009E+02  0.25186047056E+02  0.43400727939E+02  0.00000000000E+00 0. -1.
         11    1    3    3    0    0  0.14239630810E+02 -0.10958325215E+02 -0.19404635188E+02  0.26446017549E+02  0.51100000000E-03 0. -1.
        -11    1    3    3    0    0 -0.51252808459E+00 -0.12548521859E+01 -0.39799136594E+01  0.42044086438E+01  0.51100000000E-03 0.  1.
         12    1    3    3    0    0  0.14056819820E+02 -0.96349316081E+01 -0.18014982081E+01  0.17136845869E+02  0.00000000000E+00 0. -1.
</event>
<event>
 7    1  0.5022032E-011  0.4778727E+02  0.7816164E-02  0.1312668E+00
        -11   -1    0    0    0    0  0.00000000000E+00  0.00000000000E+00  0.45593999997E+02  0.45594000000E+02  0.51100000000E-03 0. -1.
         11   -1    0    0    0    0 -0.00000000000E+00 -0.00000000000E+00 -0.45593999997E+02  0.45594000000E+02  0.51100000000E-03 0.  1.
    9900012    2    1    2    0    0  0.58062754834E+01 -0.38552283380E+01  0.42837455124E+02  0.47787272102E+02  0.20000004822E+02 0.  0.
        -12    1    1    2    0    0 -0.58062754834E+01  0.38552283380E+01 -0.42837455124E+02  0.43400727898E+02  0.00000000000E+00 0.  1.
         11    1    3    3    0    0 -0.32098880081E+01  0.41483348832E+01  0.13719200099E+02  0.14687699444E+02  0.51100000000E-03 0. -1.
        -11    1    3    3    0    0  0.10900071170E+01  0.30198129771E+00 -0.57160481829E+00  0.12672965512E+01  0.51100000000E-03 0.  1.
        -12    1    3    3    0    0  0.79261563745E+01 -0.83055445189E+01  0.29689859843E+02  0.31832276107E+02  0.00000000000E+00 0.  1.
</event>
<event>
 7    1  0.5022032E-011  0.4778727E+02  0.7816164E-02  0.1312668E+00
        -11   -1    0    0    0    0  0.00000000000E+00  0.00000000000E+00  0.45593999997E+02  0.45594000000E+02  0.51100000000E-03 0.  1.
         11   -1    0    0    0    0 -0.00000000000E+00 -0.00000000000E+00 -0.45593999997E+02  0.45594000000E+02  0.51100000000E-03 0. -1.
    9900012    2    1    2    0    0  0.31851872430E+02  0.29011589849E+02  0.52353505801E+01  0.47787273986E+02  0.20000013413E+02 0.  0.
        -12    1    1    2    0    0 -0.31851872430E+02 -0.29011589849E+02 -0.52353505801E+01  0.43400726014E+02  0.00000000000E+00 0.  1.
         11    1    3    3    0    0  0.12832541909E+02  0.31495630080E+01 -0.56994643665E+00  0.13225684035E+02  0.51100000000E-03 0. -1.
        -11    1    3    3    0    0  0.25045769796E+01  0.34154256240E+01  0.51749347923E+01  0.66871509932E+01  0.51100000000E-03 0.  1.
         12    1    3    3    0    0  0.16514753541E+02  0.22446601217E+02  0.63036222451E+00  0.27874438958E+02  0.00000000000E+00 0. -1.
</event>
<event>
 7    1  0.5022032E-011  0.4778727E+02  0.7816164E-02  0.1312668E+00
        -11   -1    0    0    0    0  0.00000000000E+00  0.00000000000E+00  0.45593999997E+02  0.45594000000E+02  0.51100000000E-03 0. -1.
         11   -1    0    0    0    0 -0.00000000000E+00 -0.00000000000E+00 -0.45593999997E+02  0.45594000000E+02  0.51100000000E-03 0.  1.
    9900012    2    1    2    0    0 -0.23110205898E+01  0.13681508380E+02  0.41122972782E+02  0.47787269843E+02  0.19999994522E+02 0.  0.
        -12    1    1    2    0    0  0.23110205898E+01 -0.13681508380E+02 -0.41122972782E+02  0.43400730157E+02  0.00000000000E+00 0.  1.
         11    1    3    3    0    0 -0.77827043068E+00  0.89072457497E-01  0.30545590665E+00  0.84079863106E+00  0.51100000000E-03 0. -1.
        -11    1    3    3    0    0  0.55331851098E+01 -0.18802140230E+01  0.72217241514E+01  0.92900291825E+01  0.51100000000E-03 0.  1.
         12    1    3    3    0    0 -0.70659352690E+01  0.15472649946E+02  0.33595792724E+02  0.37656442030E+02  0.00000000000E+00 0. -1.
</event>
<event>
 7    1  0.5022032E-011  0.4778726E+02  0.7816164E-02  0.1312668E+00
        -11   -1    0    0    0    0  0.00000000000E+00  0.00000000000E+00  0.45593999997E+02  0.45594000000E+02  0.51100000000E-03 0. -1.
         11   -1    0    0    0    0 -0.00000000000E+00 -0.00000000000E+00 -0.45593999997E+02  0.45594000000E+02  0.51100000000E-03 0.  1.
    9900012    2    1    2    0    0  0.12169861655E+02  0.28493142147E+02 -0.30391763951E+02  0.47787262700E+02  0.19999961954E+02 0.  0.
         12    1    1    2    0    0 -0.12169861655E+02 -0.28493142147E+02  0.30391763951E+02  0.43400737300E+02  0.00000000000E+00 0. -1.
         11    1    3    3    0    0  0.79625093341E+01  0.35893344418E+01 -0.35471654946E+01  0.94269432977E+01  0.51100000000E-03 0. -1.
        -11    1    3    3    0    0 -0.21592218428E+00  0.49706370115E+01 -0.12367287514E+02  0.13330553455E+02  0.51100000000E-03 0.  1.
         12    1    3    3    0    0  0.44232745053E+01  0.19933170694E+02 -0.14477310942E+02  0.25029765947E+02  0.00000000000E+00 0. -1.
</event>
<event>
 7    1  0.5022032E-011  0.4778727E+02  0.7816164E-02  0.1312668E+00
        -11   -1    0    0    0    0  0.00000000000E+00  0.00000000000E+00  0.45593999997E+02  0.45594000000E+02  0.51100000000E-03 0. -1.
         11   -1    0    0    0    0 -0.00000000000E+00 -0.00000000000E+00 -0.45593999997E+02  0.45594000000E+02  0.51100000000E-03 0.  1.
    9900012    2    1    2    0    0  0.12692816742E+02  0.39161405682E+02 -0.13744078148E+02  0.47787274477E+02  0.20000015649E+02 0.  0.
         12    1    1    2    0    0 -0.12692816742E+02 -0.39161405682E+02  0.13744078148E+02  0.43400725523E+02  0.00000000000E+00 0. -1.
         11    1    3    3    0    0  0.27445960288E+01  0.95177764192E+00 -0.11593770814E+01  0.31277537498E+01  0.51100000000E-03 0. -1.
        -11    1    3    3    0    0 -0.34344129551E+01  0.16595636544E+02 -0.83316828069E+01  0.18884577923E+02  0.51100000000E-03 0.  1.
        -12    1    3    3    0    0  0.13382633668E+02  0.21613991495E+02 -0.42530182601E+01  0.25774942804E+02  0.00000000000E+00 0.  1.
</event>
<event>
 7    1  0.5022032E-011  0.4778727E+02  0.7816164E-02  0.1312668E+00
        -11   -1    0    0    0    0  0.00000000000E+00  0.00000000000E+00  0.45593999997E+02  0.45594000000E+02  0.51100000000E-03 0. -1.
         11   -1    0    0    0    0 -0.00000000000E+00 -0.00000000000E+00 -0.45593999997E+02  0.45594000000E+02  0.51100000000E-03 0.  1.
    9900012    2    1    2    0    0 -0.19345060209E+02  0.24172098883E+02 -0.30415481342E+02  0.47787271617E+02  0.20000002611E+02 0.  0.
         12    1    1    2    0    0  0.19345060209E+02 -0.24172098883E+02  0.30415481342E+02  0.43400728383E+02  0.00000000000E+00 0. -1.
         11    1    3    3    0    0 -0.74448760331E+01  0.11058020851E+02 -0.93799113976E+00  0.13363601009E+02  0.51100000000E-03 0.  1.
        -11    1    3    3    0    0 -0.20113539126E+01  0.29722837726E+01 -0.67085740591E+01  0.76082180275E+01  0.51100000000E-03 0. -1.
        -12    1    3    3    0    0 -0.98888302633E+01  0.10141794260E+02 -0.22768916143E+02  0.26815452581E+02  0.00000000000E+00 0.  1.
</event>
<event>
 7    1  0.5022032E-011  0.4778727E+02  0.7816164E-02  0.1312668E+00
        -11   -1    0    0    0    0  0.00000000000E+00  0.00000000000E+00  0.45593999997E+02  0.45594000000E+02  0.51100000000E-03 0. -1.
         11   -1    0    0    0    0 -0.00000000000E+00 -0.00000000000E+00 -0.45593999997E+02  0.45594000000E+02  0.51100000000E-03 0.  1.
    9900012    2    1    2    0    0 -0.62143015201E+01  0.12231192197E+02 -0.41175278817E+02  0.47787271993E+02  0.20000004323E+02 0.  0.
         12    1    1    2    0    0  0.62143015201E+01 -0.12231192197E+02  0.41175278817E+02  0.43400728007E+02  0.00000000000E+00 0. -1.
         11    1    3    3    0    0 -0.39539159743E+01  0.10130271985E+01 -0.18071293682E+02  0.18526503481E+02  0.51100000000E-03 0. -1.
        -11    1    3    3    0    0  0.32526733467E+01  0.12109695005E+01 -0.14629627710E+02  0.15035702120E+02  0.51100000000E-03 0.  1.
        -12    1    3    3    0    0 -0.55130588925E+01  0.10007195498E+02 -0.84743574247E+01  0.14225066392E+02  0.00000000000E+00 0.  1.
</event>
<event>
 7    1  0.5022032E-011  0.4778727E+02  0.7816164E-02  0.1312668E+00
        -11   -1    0    0    0    0  0.00000000000E+00  0.00000000000E+00  0.45593999997E+02  0.45594000000E+02  0.51100000000E-03 0. -1.
         11   -1    0    0    0    0 -0.00000000000E+00 -0.00000000000E+00 -0.45593999997E+02  0.45594000000E+02  0.51100000000E-03 0.  1.
    9900012    2    1    2    0    0 -0.46253606110E+01  0.11342142029E+02 -0.41636344730E+02  0.47787270178E+02  0.19999996050E+02 0.  0.
         12    1    1    2    0    0  0.46253606110E+01 -0.11342142029E+02  0.41636344730E+02  0.43400729822E+02  0.00000000000E+00 0. -1.
         11    1    3    3    0    0 -0.25172180247E+01  0.72777949734E+01 -0.43256045779E+01  0.88325274687E+01  0.51100000000E-03 0. -1.
        -11    1    3    3    0    0 -0.29450729569E+01  0.43222623399E+01 -0.75699577018E+01  0.92010687599E+01  0.51100000000E-03 0.  1.
        -12    1    3    3    0    0  0.83693037062E+00 -0.25791528423E+00 -0.29740782450E+02  0.29753673950E+02  0.00000000000E+00 0.  1.
</event>
<event>
 7    1  0.5022032E-011  0.4778727E+02  0.7816164E-02  0.1312668E+00
        -11   -1    0    0    0    0  0.00000000000E+00  0.00000000000E+00  0.45593999997E+02  0.45594000000E+02  0.51100000000E-03 0. -1.
         11   -1    0    0    0    0 -0.00000000000E+00 -0.00000000000E+00 -0.45593999997E+02  0.45594000000E+02  0.51100000000E-03 0.  1.
    9900012    2    1    2    0    0  0.77387748011E+01 -0.36289886794E+02  0.22511754036E+02  0.47787267417E+02  0.19999983463E+02 0.  0.
        -12    1    1    2    0    0 -0.77387748011E+01  0.36289886794E+02 -0.22511754036E+02  0.43400732583E+02  0.00000000000E+00 0.  1.
         11    1    3    3    0    0  0.45330398285E+01 -0.21723955979E+02  0.38437138651E+01  0.22522274530E+02  0.51100000000E-03 0. -1.
        -11    1    3    3    0    0  0.22438915008E+01 -0.12300949485E+02  0.93111273454E+01  0.15589916613E+02  0.51100000000E-03 0.  1.
        -12    1    3    3    0    0  0.96184347182E+00 -0.22649813295E+01  0.93569128257E+01  0.96750762744E+01  0.00000000000E+00 0.  1.
</event>
<event>
 7    1  0.5022032E-011  0.4778729E+02  0.7816164E-02  0.1312668E+00
        -11   -1    0    0    0    0  0.00000000000E+00  0.00000000000E+00  0.45593999997E+02  0.45594000000E+02  0.51100000000E-03 0. -1.
         11   -1    0    0    0    0 -0.00000000000E+00 -0.00000000000E+00 -0.45593999997E+02  0.45594000000E+02  0.51100000000E-03 0.  1.
    9900012    2    1    2    0    0 -0.11864877103E+02 -0.19513559730E+02 -0.36906201763E+02  0.47787285138E+02  0.20000064257E+02 0.  0.
         12    1    1    2    0    0  0.11864877103E+02  0.19513559730E+02  0.36906201763E+02  0.43400714862E+02  0.00000000000E+00 0. -1.
         11    1    3    3    0    0  0.32995001705E+00 -0.13971506486E+02 -0.26359580827E+02  0.29835203403E+02  0.51100000000E-03 0. -1.
        -11    1    3    3    0    0 -0.40191843466E+01 -0.36477338730E+01 -0.69584347523E+01  0.88249430414E+01  0.51100000000E-03 0.  1.
        -12    1    3    3    0    0 -0.81756427731E+01 -0.18943193709E+01 -0.35881861844E+01  0.91271386932E+01  0.00000000000E+00 0.  1.
</event>
<event>
 7    1  0.5022032E-011  0.4778727E+02  0.7816164E-02  0.1312668E+00
        -11   -1    0    0    0    0  0.00000000000E+00  0.00000000000E+00  0.45593999997E+02  0.45594000000E+02  0.51100000000E-03 0. -1.
         11   -1    0    0    0    0 -0.00000000000E+00 -0.00000000000E+00 -0.45593999997E+02  0.45594000000E+02  0.51100000000E-03 0.  1.
    9900012    2    1    2    0    0 -0.36395332269E+02  0.17220057442E+02  0.16201016213E+02  0.47787268259E+02  0.19999987301E+02 0.  0.
        -12    1    1    2    0    0  0.36395332269E+02 -0.17220057442E+02 -0.16201016213E+02  0.43400731741E+02  0.00000000000E+00 0.  1.
         11    1    3    3    0    0 -0.20228481254E+01 -0.25351843768E+01 -0.60648438726E+00  0.32995299568E+01  0.51100000000E-03 0. -1.
        -11    1    3    3    0    0 -0.18795137314E+02  0.15943201374E+02  0.67353104479E+01  0.25550093225E+02  0.51100000000E-03 0.  1.
         12    1    3    3    0    0 -0.15577346830E+02  0.38120404448E+01  0.10072190152E+02  0.18937645077E+02  0.00000000000E+00 0. -1.
</event>
<event>
 7    1  0.5022032E-011  0.4778727E+02  0.7816164E-02  0.1312668E+00
        -11   -1    0    0    0    0  0.00000000000E+00  0.00000000000E+00  0.45593999997E+02  0.45594000000E+02  0.51100000000E-03 0. -1.
         11   -1    0    0    0    0 -0.00000000000E+00 -0.00000000000E+00 -0.45593999997E+02  0.45594000000E+02  0.51100000000E-03 0.  1.
    9900012    2    1    2    0    0 -0.22971048930E+02  0.11184437901E+02 -0.35083653075E+02  0.47787268979E+02  0.19999990582E+02 0.  0.
         12    1    1    2    0    0  0.22971048930E+02 -0.11184437901E+02  0.35083653075E+02  0.43400731021E+02  0.00000000000E+00 0. -1.
         11    1    3    3    0    0  0.28278416378E+01  0.36565282998E+01 -0.37943236203E+01  0.59802825629E+01  0.51100000000E-03 0. -1.
        -11    1    3    3    0    0 -0.70806074084E+01  0.17685936836E+01 -0.13514288057E+02  0.15359000841E+02  0.51100000000E-03 0.  1.
        -12    1    3    3    0    0 -0.18718283159E+02  0.57593159172E+01 -0.17775041398E+02  0.26447985575E+02  0.00000000000E+00 0.  1.
</event>
<event>
 7    1  0.5022032E-011  0.4778727E+02  0.7816164E-02  0.1312668E+00
        -11   -1    0    0    0    0  0.00000000000E+00  0.00000000000E+00  0.45593999997E+02  0.45594000000E+02  0.51100000000E-03 0.  1.
         11   -1    0    0    0    0 -0.00000000000E+00 -0.00000000000E+00 -0.45593999997E+02  0.45594000000E+02  0.51100000000E-03 0. -1.
    9900012    2    1    2    0    0 -0.73500657921E+01 -0.21347400503E+02 -0.37065998306E+02  0.47787271828E+02  0.20000003573E+02 0.  0.
         12    1    1    2    0    0  0.73500657921E+01  0.21347400503E+02  0.37065998306E+02  0.43400728172E+02  0.00000000000E+00 0. -1.
         11    1    3    3    0    0  0.15844908183E+01  0.12592524841E+01 -0.46421273491E+01  0.50641558584E+01  0.51100000000E-03 0. -1.
        -11    1    3    3    0    0 -0.84736369096E+01 -0.22499713598E+02 -0.33679935782E+02  0.41380885793E+02  0.51100000000E-03 0.  1.
         12    1    3    3    0    0 -0.46091970085E+00 -0.10693938994E+00  0.12560648249E+01  0.13422301770E+01  0.00000000000E+00 0. -1.
</event>
<event>
 7    1  0.5022032E-011  0.4778727E+02  0.7816164E-02  0.1312668E+00
        -11   -1    0    0    0    0  0.00000000000E+00  0.00000000000E+00  0.45593999997E+02  0.45594000000E+02  0.51100000000E-03 0. -1.
         11   -1    0    0    0    0 -0.00000000000E+00 -0.00000000000E+00 -0.45593999997E+02  0.45594000000E+02  0.51100000000E-03 0.  1.
    9900012    2    1    2    0    0 -0.25877315512E+02 -0.56401656565E+01 -0.34382788715E+02  0.47787273202E+02  0.20000009839E+02 0.  0.
         12    1    1    2    0    0  0.25877315512E+02  0.56401656565E+01  0.34382788715E+02  0.43400726798E+02  0.00000000000E+00 0. -1.
         11    1    3    3    0    0  0.37632076973E+00  0.47128081279E+01 -0.44929961138E+01  0.65222076103E+01  0.51100000000E-03 0. -1.
        -11    1    3    3    0    0 -0.77367899423E+01 -0.15279748191E+01 -0.94367894349E+01  0.12298195833E+02  0.51100000000E-03 0.  1.
         12    1    3    3    0    0 -0.18516846340E+02 -0.88249989653E+01 -0.20453003166E+02  0.28966869759E+02  0.00000000000E+00 0. -1.
</event>
<event>
 7    1  0.5022032E-011  0.4778727E+02  0.7816164E-02  0.1312668E+00
        -11   -1    0    0    0    0  0.00000000000E+00  0.00000000000E+00  0.45593999997E+02  0.45594000000E+02  0.51100000000E-03 0. -1.
         11   -1    0    0    0    0 -0.00000000000E+00 -0.00000000000E+00 -0.45593999997E+02  0.45594000000E+02  0.51100000000E-03 0.  1.
    9900012    2    1    2    0    0 -0.11961580757E+02  0.38896054156E+02  0.15087771020E+02  0.47787271003E+02  0.19999999810E+02 0.  0.
        -12    1    1    2    0    0  0.11961580757E+02 -0.38896054156E+02 -0.15087771020E+02  0.43400728997E+02  0.00000000000E+00 0.  1.
         11    1    3    3    0    0 -0.72459282547E+01  0.32667606479E+02  0.58322442897E+01  0.33966028073E+02  0.51100000000E-03 0.  1.
        -11    1    3    3    0    0 -0.29818070956E+01  0.74356051392E+01  0.63174032693E+01  0.10202400780E+02  0.51100000000E-03 0. -1.
        -12    1    3    3    0    0 -0.17338454067E+01 -0.12071574622E+01  0.29381234613E+01  0.36188421500E+01  0.00000000000E+00 0.  1.
</event>
<event>
 7    1  0.5022032E-011  0.4778727E+02  0.7816164E-02  0.1312668E+00
        -11   -1    0    0    0    0  0.00000000000E+00  0.00000000000E+00  0.45593999997E+02  0.45594000000E+02  0.51100000000E-03 0. -1.
         11   -1    0    0    0    0 -0.00000000000E+00 -0.00000000000E+00 -0.45593999997E+02  0.45594000000E+02  0.51100000000E-03 0.  1.
    9900012    2    1    2    0    0  0.26498881380E+02  0.21144948075E+02  0.27098404177E+02  0.47787273595E+02  0.20000011631E+02 0.  0.
        -12    1    1    2    0    0 -0.26498881380E+02 -0.21144948075E+02 -0.27098404177E+02  0.43400726405E+02  0.00000000000E+00 0.  1.
         11    1    3    3    0    0  0.32084371717E+01  0.52886081558E+01  0.38439474458E+01  0.72828138476E+01  0.51100000000E-03 0. -1.
        -11    1    3    3    0    0  0.22627607340E+02  0.83579919602E+01  0.22417712691E+02  0.32930509958E+02  0.51100000000E-03 0.  1.
        -12    1    3    3    0    0  0.66283686846E+00  0.74983479594E+01  0.83674404029E+00  0.75739497901E+01  0.00000000000E+00 0.  1.
</event>
<event>
 7    1  0.5022032E-011  0.4778727E+02  0.7816164E-02  0.1312668E+00
        -11   -1    0    0    0    0  0.00000000000E+00  0.00000000000E+00  0.45593999997E+02  0.45594000000E+02  0.51100000000E-03 0. -1.
         11   -1    0    0    0    0 -0.00000000000E+00 -0.00000000000E+00 -0.45593999997E+02  0.45594000000E+02  0.51100000000E-03 0.  1.
    9900012    2    1    2    0    0 -0.32076656099E+02  0.78997789749E+01  0.28147910271E+02  0.47787271585E+02  0.20000002464E+02 0.  0.
        -12    1    1    2    0    0  0.32076656099E+02 -0.78997789749E+01 -0.28147910271E+02  0.43400728415E+02  0.00000000000E+00 0.  1.
         11    1    3    3    0    0 -0.14462051328E+02 -0.91367145899E+00  0.18768789394E+02  0.23711878452E+02  0.51100000000E-03 0. -1.
        -11    1    3    3    0    0 -0.75661897511E-01 -0.68325312455E+00  0.30852875919E+01  0.31609427930E+01  0.51100000000E-03 0.  1.
        -12    1    3    3    0    0 -0.17538942873E+02  0.94967035584E+01  0.62938332851E+01  0.20914450340E+02  0.00000000000E+00 0.  1.
</event>
<event>
 7    1  0.5022032E-011  0.4778727E+02  0.7816164E-02  0.1312668E+00
        -11   -1    0    0    0    0  0.00000000000E+00  0.00000000000E+00  0.45593999997E+02  0.45594000000E+02  0.51100000000E-03 0. -1.
         11   -1    0    0    0    0 -0.00000000000E+00 -0.00000000000E+00 -0.45593999997E+02  0.45594000000E+02  0.51100000000E-03 0.  1.
    9900012    2    1    2    0    0 -0.25009171909E+02  0.30489074075E+02  0.18126798986E+02  0.47787272368E+02  0.20000006033E+02 0.  0.
        -12    1    1    2    0    0  0.25009171909E+02 -0.30489074075E+02 -0.18126798986E+02  0.43400727632E+02  0.00000000000E+00 0.  1.
         11    1    3    3    0    0 -0.13435137287E+02  0.28613218284E+02  0.14057316978E+02  0.34595192374E+02  0.51100000000E-03 0. -1.
        -11    1    3    3    0    0 -0.38790600266E-01 -0.36101102430E+00  0.97631220010E+00  0.10416426659E+01  0.51100000000E-03 0.  1.
         12    1    3    3    0    0 -0.11535244022E+02  0.22368668152E+01  0.30931698077E+01  0.12150437328E+02  0.00000000000E+00 0. -1.
</event>
<event>
 7    1  0.1137966E-010  0.4778727E+02  0.7816164E-02  0.1312668E+00
        -11   -1    0    0    0    0  0.00000000000E+00  0.00000000000E+00  0.45593999997E+02  0.45594000000E+02  0.51100000000E-03 0. -1.
         11   -1    0    0    0    0 -0.00000000000E+00 -0.00000000000E+00 -0.45593999997E+02  0.45594000000E+02  0.51100000000E-03 0.  1.
    9900012    2    1    2    0    0 -0.80134544259E+01  0.25042788637E+02 -0.34529210570E+02  0.47787273081E+02  0.20000009284E+02 0.  0.
         12    1    1    2    0    0  0.80134544259E+01 -0.25042788637E+02  0.34529210570E+02  0.43400726919E+02  0.00000000000E+00 0. -1.
         11    1    3    3    0    0 -0.24259305336E+01  0.91354315474E+01 -0.18344069413E+01  0.96284109592E+01  0.51100000000E-03 0.  1.
        -11    1    3    3    0    0 -0.12239308822E+01 -0.69393326177E+00 -0.21648102342E+00  0.14235218547E+01  0.51100000000E-03 0. -1.
        -12    1    3    3    0    0 -0.43635930100E+01  0.16601290351E+02 -0.32478322605E+02  0.36735340267E+02  0.00000000000E+00 0.  1.
</event>
<event>
 7    1  0.5022032E-011  0.4778727E+02  0.7816164E-02  0.1312668E+00
        -11   -1    0    0    0    0  0.00000000000E+00  0.00000000000E+00  0.45593999997E+02  0.45594000000E+02  0.51100000000E-03 0. -1.
         11   -1    0    0    0    0 -0.00000000000E+00 -0.00000000000E+00 -0.45593999997E+02  0.45594000000E+02  0.51100000000E-03 0.  1.
    9900012    2    1    2    0    0 -0.11160968562E+02 -0.23249715333E+02 -0.34907115867E+02  0.47787271660E+02  0.20000002805E+02 0.  0.
         12    1    1    2    0    0  0.11160968562E+02  0.23249715333E+02  0.34907115867E+02  0.43400728340E+02  0.00000000000E+00 0. -1.
         11    1    3    3    0    0  0.15444026999E+01 -0.69258192840E+00 -0.35004423344E+01  0.38881803231E+01  0.51100000000E-03 0. -1.
        -11    1    3    3    0    0 -0.11183026546E+02 -0.22203249320E+02 -0.33228233908E+02  0.41498914347E+02  0.51100000000E-03 0.  1.
         12    1    3    3    0    0 -0.15223447157E+01 -0.35388408477E+00  0.18215603753E+01  0.24001769892E+01  0.00000000000E+00 0. -1.
</event>
<event>
 7    1  0.5022032E-011  0.4778728E+02  0.7816164E-02  0.1312668E+00
        -11   -1    0    0    0    0  0.00000000000E+00  0.00000000000E+00  0.45593999997E+02  0.45594000000E+02  0.51100000000E-03 0. -1.
         11   -1    0    0    0    0 -0.00000000000E+00 -0.00000000000E+00 -0.45593999997E+02  0.45594000000E+02  0.51100000000E-03 0.  1.
    9900012    2    1    2    0    0 -0.40088316501E+02  0.84161734036E+01 -0.14342837730E+02  0.47787284697E+02  0.20000062249E+02 0.  0.
         12    1    1    2    0    0  0.40088316501E+02 -0.84161734036E+01  0.14342837730E+02  0.43400715303E+02  0.00000000000E+00 0. -1.
         11    1    3    3    0    0 -0.32904289747E+01  0.24799728718E+01  0.52910607612E+00  0.41541716122E+01  0.51100000000E-03 0. -1.
        -11    1    3    3    0    0 -0.12160622757E+02 -0.43330563357E+01 -0.10382029228E+02  0.16566310820E+02  0.51100000000E-03 0.  1.
        -12    1    3    3    0    0 -0.24637264770E+02  0.10269256867E+02 -0.44899145783E+01  0.27066802265E+02  0.00000000000E+00 0.  1.
</event>
<event>
 7    1  0.5022032E-011  0.4778727E+02  0.7816164E-02  0.1312668E+00
        -11   -1    0    0    0    0  0.00000000000E+00  0.00000000000E+00  0.45593999997E+02  0.45594000000E+02  0.51100000000E-03 0. -1.
         11   -1    0    0    0    0 -0.00000000000E+00 -0.00000000000E+00 -0.45593999997E+02  0.45594000000E+02  0.51100000000E-03 0.  1.
    9900012    2    1    2    0    0  0.29712596934E+02 -0.46047990042E+01  0.31298255105E+02  0.47787270017E+02  0.19999995316E+02 0.  0.
        -12    1    1    2    0    0 -0.29712596934E+02  0.46047990042E+01 -0.31298255105E+02  0.43400729983E+02  0.00000000000E+00 0.  1.
         11    1    3    3    0    0  0.19225312626E+02 -0.41924126680E+01  0.20248225726E+02  0.28234369390E+02  0.51100000000E-03 0. -1.
        -11    1    3    3    0    0  0.21996555009E+01 -0.54859078595E+01  0.66166155981E+01  0.88720500224E+01  0.51100000000E-03 0.  1.
         12    1    3    3    0    0  0.82876288067E+01  0.50735215232E+01  0.44334137812E+01  0.10680850605E+02  0.00000000000E+00 0. -1.
</event>
<event>
 7    1  0.5022032E-011  0.4778728E+02  0.7816164E-02  0.1312668E+00
        -11   -1    0    0    0    0  0.00000000000E+00  0.00000000000E+00  0.45593999997E+02  0.45594000000E+02  0.51100000000E-03 0. -1.
         11   -1    0    0    0    0 -0.00000000000E+00 -0.00000000000E+00 -0.45593999997E+02  0.45594000000E+02  0.51100000000E-03 0.  1.
    9900012    2    1    2    0    0  0.59340801352E+00 -0.70672675432E+01 -0.42817337649E+02  0.47787276424E+02  0.20000024528E+02 0.  0.
         12    1    1    2    0    0 -0.59340801352E+00  0.70672675432E+01  0.42817337649E+02  0.43400723576E+02  0.00000000000E+00 0. -1.
         11    1    3    3    0    0  0.20794084094E-01  0.31726421377E+01 -0.15789979708E+01  0.35439138507E+01  0.51100000000E-03 0. -1.
        -11    1    3    3    0    0  0.63267432682E+01 -0.37679306687E+01 -0.18491760059E+02  0.19904024021E+02  0.51100000000E-03 0.  1.
        -12    1    3    3    0    0 -0.57541293388E+01 -0.64719790123E+01 -0.22746579619E+02  0.24339338552E+02  0.00000000000E+00 0.  1.
</event>
<event>
 7    1  0.5022032E-011  0.4778728E+02  0.7816164E-02  0.1312668E+00
        -11   -1    0    0    0    0  0.00000000000E+00  0.00000000000E+00  0.45593999997E+02  0.45594000000E+02  0.51100000000E-03 0.  1.
         11   -1    0    0    0    0 -0.00000000000E+00 -0.00000000000E+00 -0.45593999997E+02  0.45594000000E+02  0.51100000000E-03 0. -1.
    9900012    2    1    2    0    0  0.30627496046E+01 -0.43273723822E+02  0.12755961999E+01  0.47787277031E+02  0.20000027296E+02 0.  0.
        -12    1    1    2    0    0 -0.30627496046E+01  0.43273723822E+02 -0.12755961999E+01  0.43400722969E+02  0.00000000000E+00 0.  1.
         11    1    3    3    0    0  0.27587951958E+01 -0.13534006758E+01 -0.36568579249E+01  0.47765316356E+01  0.51100000000E-03 0.  1.
        -11    1    3    3    0    0 -0.20412560981E+01 -0.11884283748E+02 -0.16554450765E+01  0.12171418378E+02  0.51100000000E-03 0. -1.
         12    1    3    3    0    0  0.23452105068E+01 -0.30036039398E+02  0.65878992014E+01  0.30839327018E+02  0.00000000000E+00 0. -1.
</event>
<event>
 7    1  0.5022032E-011  0.4778728E+02  0.7816164E-02  0.1312668E+00
        -11   -1    0    0    0    0  0.00000000000E+00  0.00000000000E+00  0.45593999997E+02  0.45594000000E+02  0.51100000000E-03 0. -1.
         11   -1    0    0    0    0 -0.00000000000E+00 -0.00000000000E+00 -0.45593999997E+02  0.45594000000E+02  0.51100000000E-03 0.  1.
    9900012    2    1    2    0    0  0.20477257559E+02  0.24257938315E+02 -0.29594883284E+02  0.47787276907E+02  0.20000026730E+02 0.  0.
         12    1    1    2    0    0 -0.20477257559E+02 -0.24257938315E+02  0.29594883284E+02  0.43400723093E+02  0.00000000000E+00 0. -1.
         11    1    3    3    0    0  0.11303740213E+02  0.69321437943E+01 -0.19641176386E+02  0.23698206060E+02  0.51100000000E-03 0. -1.
        -11    1    3    3    0    0  0.54927409292E+00  0.41717059714E+01 -0.68764830532E+01  0.80616904048E+01  0.51100000000E-03 0.  1.
         12    1    3    3    0    0  0.86242432531E+01  0.13154088549E+02 -0.30772238447E+01  0.16027380442E+02  0.00000000000E+00 0. -1.
</event>
<event>
 7    1  0.5022032E-011  0.4778727E+02  0.7816164E-02  0.1312668E+00
        -11   -1    0    0    0    0  0.00000000000E+00  0.00000000000E+00  0.45593999997E+02  0.45594000000E+02  0.51100000000E-03 0. -1.
         11   -1    0    0    0    0 -0.00000000000E+00 -0.00000000000E+00 -0.45593999997E+02  0.45594000000E+02  0.51100000000E-03 0.  1.
    9900012    2    1    2    0    0  0.81056063373E+01 -0.71554256268E+00  0.42631099307E+02  0.47787268630E+02  0.19999988994E+02 0.  0.
        -12    1    1    2    0    0 -0.81056063373E+01  0.71554256268E+00 -0.42631099307E+02  0.43400731370E+02  0.00000000000E+00 0.  1.
         11    1    3    3    0    0  0.30267976251E+01  0.50853345698E+01  0.61450256823E+01  0.85313230186E+01  0.51100000000E-03 0. -1.
        -11    1    3    3    0    0  0.57829373312E+01 -0.55734134004E+01  0.10308508430E+02  0.13067924373E+02  0.51100000000E-03 0.  1.
         12    1    3    3    0    0 -0.70412861906E+00 -0.22746373206E+00  0.26177565195E+02  0.26188021239E+02  0.00000000000E+00 0. -1.
</event>
<event>
 7    1  0.5022032E-011  0.4778727E+02  0.7816164E-02  0.1312668E+00
        -11   -1    0    0    0    0  0.00000000000E+00  0.00000000000E+00  0.45593999997E+02  0.45594000000E+02  0.51100000000E-03 0. -1.
         11   -1    0    0    0    0 -0.00000000000E+00 -0.00000000000E+00 -0.45593999997E+02  0.45594000000E+02  0.51100000000E-03 0.  1.
    9900012    2    1    2    0    0  0.90672793413E+01 -0.11959341474E+02  0.40723234564E+02  0.47787271475E+02  0.20000001965E+02 0.  0.
        -12    1    1    2    0    0 -0.90672793413E+01  0.11959341474E+02 -0.40723234564E+02  0.43400728525E+02  0.00000000000E+00 0.  1.
         11    1    3    3    0    0  0.27507429833E+01  0.96923590273E+00  0.17298593725E+02  0.17542729272E+02  0.51100000000E-03 0. -1.
        -11    1    3    3    0    0  0.79148149164E+01 -0.21164648354E+01  0.95761758234E+01  0.12602652984E+02  0.51100000000E-03 0.  1.
         12    1    3    3    0    0 -0.15982785584E+01 -0.10812112541E+02  0.13848465015E+02  0.17641889219E+02  0.00000000000E+00 0. -1.
</event>
<event>
 7    1  0.5022032E-011  0.4778727E+02  0.7816164E-02  0.1312668E+00
        -11   -1    0    0    0    0  0.00000000000E+00  0.00000000000E+00  0.45593999997E+02  0.45594000000E+02  0.51100000000E-03 0. -1.
         11   -1    0    0    0    0 -0.00000000000E+00 -0.00000000000E+00 -0.45593999997E+02  0.45594000000E+02  0.51100000000E-03 0.  1.
    9900012    2    1    2    0    0 -0.15835974428E+02  0.32328153976E+02  0.24243259786E+02  0.47787271082E+02  0.20000000170E+02 0.  0.
        -12    1    1    2    0    0  0.15835974428E+02 -0.32328153976E+02 -0.24243259786E+02  0.43400728918E+02  0.00000000000E+00 0.  1.
         11    1    3    3    0    0 -0.13754321103E+02  0.10414990489E+02  0.12931732767E+02  0.21561147662E+02  0.51100000000E-03 0. -1.
        -11    1    3    3    0    0  0.31794876177E+00  0.17192121700E+01 -0.14037195968E+01  0.22421442568E+01  0.51100000000E-03 0.  1.
        -12    1    3    3    0    0 -0.23996020868E+01  0.20193951317E+02  0.12715246616E+02  0.23983979163E+02  0.00000000000E+00 0.  1.
</event>
<event>
 7    1  0.5022032E-011  0.4778727E+02  0.7816164E-02  0.1312668E+00
        -11   -1    0    0    0    0  0.00000000000E+00  0.00000000000E+00  0.45593999997E+02  0.45594000000E+02  0.51100000000E-03 0. -1.
         11   -1    0    0    0    0 -0.00000000000E+00 -0.00000000000E+00 -0.45593999997E+02  0.45594000000E+02  0.51100000000E-03 0.  1.
    9900012    2    1    2    0    0  0.22641292872E+02  0.33662408814E+02 -0.15421970722E+02  0.47787273151E+02  0.20000009606E+02 0.  0.
         12    1    1    2    0    0 -0.22641292872E+02 -0.33662408814E+02  0.15421970722E+02  0.43400726849E+02  0.00000000000E+00 0. -1.
         11    1    3    3    0    0  0.60533096861E+01  0.11220295768E+02  0.10478993610E+01  0.12792016597E+02  0.51100000000E-03 0. -1.
        -11    1    3    3    0    0  0.86994375346E+01  0.17013038648E+02 -0.44364522729E+01  0.19616467737E+02  0.51100000000E-03 0.  1.
         12    1    3    3    0    0  0.78885456511E+01  0.54290743983E+01 -0.12033417810E+02  0.15378788818E+02  0.00000000000E+00 0. -1.
</event>
<event>
 7    1  0.5022032E-011  0.4778727E+02  0.7816164E-02  0.1312668E+00
        -11   -1    0    0    0    0  0.00000000000E+00  0.00000000000E+00  0.45593999997E+02  0.45594000000E+02  0.51100000000E-03 0. -1.
         11   -1    0    0    0    0 -0.00000000000E+00 -0.00000000000E+00 -0.45593999997E+02  0.45594000000E+02  0.51100000000E-03 0.  1.
    9900012    2    1    2    0    0 -0.34467993581E+02 -0.20141881133E+02  0.17026019951E+02  0.47787270600E+02  0.19999997973E+02 0.  0.
        -12    1    1    2    0    0  0.34467993581E+02  0.20141881133E+02 -0.17026019951E+02  0.43400729400E+02  0.00000000000E+00 0.  1.
         11    1    3    3    0    0 -0.92612521517E+00 -0.13378109499E+00  0.43519869592E+01  0.44514487586E+01  0.51100000000E-03 0. -1.
        -11    1    3    3    0    0 -0.28538272607E+01 -0.46083236131E+01  0.64769373965E+01  0.84458093073E+01  0.51100000000E-03 0.  1.
         12    1    3    3    0    0 -0.30688041105E+02 -0.15399776425E+02  0.61970955954E+01  0.34890012534E+02  0.00000000000E+00 0. -1.
</event>
<event>
 7    1  0.5022032E-011  0.4778722E+02  0.7816164E-02  0.1312668E+00
        -11   -1    0    0    0    0  0.00000000000E+00  0.00000000000E+00  0.45593999997E+02  0.45594000000E+02  0.51100000000E-03 0. -1.
         11   -1    0    0    0    0 -0.00000000000E+00 -0.00000000000E+00 -0.45593999997E+02  0.45594000000E+02  0.51100000000E-03 0.  1.
    9900012    2    1    2    0    0 -0.42350011300E+02  0.85094308380E+01 -0.42064174779E+01  0.47787218690E+02  0.19999761294E+02 0.  0.
         12    1    1    2    0    0  0.42350011300E+02 -0.85094308380E+01  0.42064174779E+01  0.43400781310E+02  0.00000000000E+00 0. -1.
         11    1    3    3    0    0 -0.34217836957E+02  0.70474813206E+01 -0.43971940957E+00  0.34938813838E+02  0.51100000000E-03 0. -1.
        -11    1    3    3    0    0 -0.60610768552E+01  0.51246774485E+01 -0.15306344573E+01  0.80834283382E+01  0.51100000000E-03 0.  1.
        -12    1    3    3    0    0 -0.20710974878E+01 -0.36627279312E+01 -0.22360636110E+01  0.47649765135E+01  0.00000000000E+00 0.  1.
</event>
<event>
 7    1  0.5022032E-011  0.4778727E+02  0.7816164E-02  0.1312668E+00
        -11   -1    0    0    0    0  0.00000000000E+00  0.00000000000E+00  0.45593999997E+02  0.45594000000E+02  0.51100000000E-03 0. -1.
         11   -1    0    0    0    0 -0.00000000000E+00 -0.00000000000E+00 -0.45593999997E+02  0.45594000000E+02  0.51100000000E-03 0.  1.
    9900012    2    1    2    0    0  0.15664490876E+02 -0.38696848289E+02  0.11865949683E+02  0.47787273004E+02  0.20000008933E+02 0.  0.
        -12    1    1    2    0    0 -0.15664490876E+02  0.38696848289E+02 -0.11865949683E+02  0.43400726996E+02  0.00000000000E+00 0.  1.
         11    1    3    3    0    0  0.31294511090E+01 -0.21786413063E+01  0.44839289728E+01  0.58860480358E+01  0.51100000000E-03 0. -1.
        -11    1    3    3    0    0 -0.30256315519E+01 -0.10096450123E+02  0.10632394284E+01  0.10593546607E+02  0.51100000000E-03 0.  1.
        -12    1    3    3    0    0  0.15560671319E+02 -0.26421756860E+02  0.63187812817E+01  0.31307678360E+02  0.00000000000E+00 0.  1.
</event>
<event>
 7    1  0.5022032E-011  0.4778727E+02  0.7816164E-02  0.1312668E+00
        -11   -1    0    0    0    0  0.00000000000E+00  0.00000000000E+00  0.45593999997E+02  0.45594000000E+02  0.51100000000E-03 0.  1.
         11   -1    0    0    0    0 -0.00000000000E+00 -0.00000000000E+00 -0.45593999997E+02  0.45594000000E+02  0.51100000000E-03 0. -1.
    9900012    2    1    2    0    0  0.20466966277E+02  0.20426883437E+02 -0.32364624927E+02  0.47787271640E+02  0.20000002716E+02 0.  0.
         12    1    1    2    0    0 -0.20466966277E+02 -0.20426883437E+02  0.32364624927E+02  0.43400728360E+02  0.00000000000E+00 0. -1.
         11    1    3    3    0    0  0.16925092228E+02  0.19528081128E+02 -0.28456009318E+02  0.38438901728E+02  0.51100000000E-03 0. -1.
        -11    1    3    3    0    0  0.26352978193E+01  0.37324029573E+01 -0.43880765447E+01  0.63348908795E+01  0.51100000000E-03 0.  1.
        -12    1    3    3    0    0  0.90657623031E+00 -0.28336006479E+01  0.47946093629E+00  0.30134790331E+01  0.00000000000E+00 0.  1.
</event>
<event>
 7    1  0.5022032E-011  0.4778728E+02  0.7816164E-02  0.1312668E+00
        -11   -1    0    0    0    0  0.00000000000E+00  0.00000000000E+00  0.45593999997E+02  0.45594000000E+02  0.51100000000E-03 0. -1.
         11   -1    0    0    0    0 -0.00000000000E+00 -0.00000000000E+00 -0.45593999997E+02  0.45594000000E+02  0.51100000000E-03 0.  1.
    9900012    2    1    2    0    0  0.38574983117E+02  0.18615633683E+01  0.19802214175E+02  0.47787280803E+02  0.20000044491E+02 0.  0.
        -12    1    1    2    0    0 -0.38574983117E+02 -0.18615633683E+01 -0.19802214175E+02  0.43400719197E+02  0.00000000000E+00 0.  1.
         11    1    3    3    0    0  0.18334207739E+02 -0.23133103768E+01  0.17003321148E+02  0.25111899741E+02  0.51100000000E-03 0. -1.
        -11    1    3    3    0    0 -0.18624158646E+00  0.19415082969E+01  0.34384706789E+00  0.19804977816E+01  0.51100000000E-03 0.  1.
        -12    1    3    3    0    0  0.20427016965E+02  0.22333654482E+01  0.24550459591E+01  0.20694883280E+02  0.00000000000E+00 0.  1.
</event>
<event>
 7    1  0.5022032E-011  0.4778727E+02  0.7816164E-02  0.1312668E+00
        -11   -1    0    0    0    0  0.00000000000E+00  0.00000000000E+00  0.45593999997E+02  0.45594000000E+02  0.51100000000E-03 0. -1.
         11   -1    0    0    0    0 -0.00000000000E+00 -0.00000000000E+00 -0.45593999997E+02  0.45594000000E+02  0.51100000000E-03 0.  1.
    9900012    2    1    2    0    0 -0.28953370904E+02 -0.15364374468E+02 -0.28447523406E+02  0.47787271003E+02  0.19999999813E+02 0.  0.
         12    1    1    2    0    0  0.28953370904E+02  0.15364374468E+02  0.28447523406E+02  0.43400728997E+02  0.00000000000E+00 0. -1.
         11    1    3    3    0    0 -0.36996712794E+00  0.16317305348E+01 -0.43917862412E+01  0.46997028484E+01  0.51100000000E-03 0. -1.
        -11    1    3    3    0    0 -0.15918624988E+02 -0.10348225344E+02 -0.21276966426E+02  0.28516621291E+02  0.51100000000E-03 0.  1.
         12    1    3    3    0    0 -0.12664778788E+02 -0.66478796588E+01 -0.27787707385E+01  0.14570946864E+02  0.00000000000E+00 0. -1.
</event>
<event>
 7    1  0.5022032E-011  0.4778726E+02  0.7816164E-02  0.1312668E+00
        -11   -1    0    0    0    0  0.00000000000E+00  0.00000000000E+00  0.45593999997E+02  0.45594000000E+02  0.51100000000E-03 0. -1.
         11   -1    0    0    0    0 -0.00000000000E+00 -0.00000000000E+00 -0.45593999997E+02  0.45594000000E+02  0.51100000000E-03 0.  1.
    9900012    2    1    2    0    0 -0.47847082270E+01  0.30058026690E+02 -0.30939386247E+02  0.47787262418E+02  0.19999960668E+02 0.  0.
         12    1    1    2    0    0  0.47847082270E+01 -0.30058026690E+02  0.30939386247E+02  0.43400737582E+02  0.00000000000E+00 0. -1.
         11    1    3    3    0    0 -0.15808590668E+01  0.14880587588E+02 -0.41866707908E+01  0.15538957975E+02  0.51100000000E-03 0. -1.
        -11    1    3    3    0    0 -0.29009017409E+00  0.32579160541E+01 -0.55259600328E+00  0.33171572059E+01  0.51100000000E-03 0.  1.
        -12    1    3    3    0    0 -0.29137589861E+01  0.11919523047E+02 -0.26200119453E+02  0.28931147237E+02  0.00000000000E+00 0.  1.
</event>
<event>
 7    1  0.5022032E-011  0.4778727E+02  0.7816164E-02  0.1312668E+00
        -11   -1    0    0    0    0  0.00000000000E+00  0.00000000000E+00  0.45593999997E+02  0.45594000000E+02  0.51100000000E-03 0. -1.
         11   -1    0    0    0    0 -0.00000000000E+00 -0.00000000000E+00 -0.45593999997E+02  0.45594000000E+02  0.51100000000E-03 0.  1.
    9900012    2    1    2    0    0  0.25446285248E+02  0.21185145788E+02 -0.28058864397E+02  0.47787266063E+02  0.19999977290E+02 0.  0.
         12    1    1    2    0    0 -0.25446285248E+02 -0.21185145788E+02  0.28058864397E+02  0.43400733937E+02  0.00000000000E+00 0. -1.
         11    1    3    3    0    0  0.11666230192E+02  0.12315151310E+02 -0.99631833330E+01  0.19673050121E+02  0.51100000000E-03 0. -1.
        -11    1    3    3    0    0  0.16673943608E+02  0.74392123778E+01 -0.14829002995E+02  0.23521513691E+02  0.51100000000E-03 0.  1.
        -12    1    3    3    0    0 -0.28938885514E+01  0.14307821011E+01 -0.32666780689E+01  0.45927022519E+01  0.00000000000E+00 0.  1.
</event>
<event>
 7    1  0.5022032E-011  0.4778727E+02  0.7816164E-02  0.1312668E+00
        -11   -1    0    0    0    0  0.00000000000E+00  0.00000000000E+00  0.45593999997E+02  0.45594000000E+02  0.51100000000E-03 0. -1.
         11   -1    0    0    0    0 -0.00000000000E+00 -0.00000000000E+00 -0.45593999997E+02  0.45594000000E+02  0.51100000000E-03 0.  1.
    9900012    2    1    2    0    0  0.13258934303E+02 -0.27497313116E+02 -0.30849982896E+02  0.47787274060E+02  0.20000013748E+02 0.  0.
         12    1    1    2    0    0 -0.13258934303E+02  0.27497313116E+02  0.30849982896E+02  0.43400725940E+02  0.00000000000E+00 0. -1.
         11    1    3    3    0    0 -0.97856627751E+00  0.32545678194E+00 -0.52369295864E+01  0.53375037077E+01  0.51100000000E-03 0. -1.
        -11    1    3    3    0    0  0.14186744192E+01 -0.14081191924E+02 -0.62637742753E+01  0.15476675081E+02  0.51100000000E-03 0.  1.
         12    1    3    3    0    0  0.12818826161E+02 -0.13741577974E+02 -0.19349279034E+02  0.26973095271E+02  0.00000000000E+00 0. -1.
</event>
<event>
 7    1  0.5022032E-011  0.4778727E+02  0.7816164E-02  0.1312668E+00
        -11   -1    0    0    0    0  0.00000000000E+00  0.00000000000E+00  0.45593999997E+02  0.45594000000E+02  0.51100000000E-03 0. -1.
         11   -1    0    0    0    0 -0.00000000000E+00 -0.00000000000E+00 -0.45593999997E+02  0.45594000000E+02  0.51100000000E-03 0.  1.
    9900012    2    1    2    0    0  0.30135152556E+02  0.10398862243E+02 -0.29450967405E+02  0.47787271474E+02  0.20000001958E+02 0.  0.
         12    1    1    2    0    0 -0.30135152556E+02 -0.10398862243E+02  0.29450967405E+02  0.43400728526E+02  0.00000000000E+00 0. -1.
         11    1    3    3    0    0  0.18775801325E+02  0.90500713670E+01 -0.10306465000E+02  0.23252047829E+02  0.51100000000E-03 0. -1.
        -11    1    3    3    0    0 -0.14173262208E+01 -0.14045421810E+01 -0.11762962682E+01  0.23162956474E+01  0.51100000000E-03 0.  1.
        -12    1    3    3    0    0  0.12776677451E+02  0.27533330571E+01 -0.17968206136E+02  0.22218927998E+02  0.00000000000E+00 0.  1.
</event>
<event>
 7    1  0.5022032E-011  0.4778727E+02  0.7816164E-02  0.1312668E+00
        -11   -1    0    0    0    0  0.00000000000E+00  0.00000000000E+00  0.45593999997E+02  0.45594000000E+02  0.51100000000E-03 0. -1.
         11   -1    0    0    0    0 -0.00000000000E+00 -0.00000000000E+00 -0.45593999997E+02  0.45594000000E+02  0.51100000000E-03 0.  1.
    9900012    2    1    2    0    0  0.59678811101E+01 -0.32457909395E+02  0.28186731263E+02  0.47787270669E+02  0.19999998287E+02 0.  0.
        -12    1    1    2    0    0 -0.59678811101E+01  0.32457909395E+02 -0.28186731263E+02  0.43400729331E+02  0.00000000000E+00 0.  1.
         11    1    3    3    0    0 -0.26626092065E+01 -0.33681818962E+01  0.63232342382E+01  0.76431295007E+01  0.51100000000E-03 0.  1.
        -11    1    3    3    0    0  0.24575699826E+01  0.20892860229E+00  0.54881624788E+01  0.60169119186E+01  0.51100000000E-03 0. -1.
         12    1    3    3    0    0  0.61729203339E+01 -0.29298656101E+02  0.16375334546E+02  0.34127229249E+02  0.00000000000E+00 0. -1.
</event>
<event>
 7    1  0.5022032E-011  0.4778727E+02  0.7816164E-02  0.1312668E+00
        -11   -1    0    0    0    0  0.00000000000E+00  0.00000000000E+00  0.45593999997E+02  0.45594000000E+02  0.51100000000E-03 0. -1.
         11   -1    0    0    0    0 -0.00000000000E+00 -0.00000000000E+00 -0.45593999997E+02  0.45594000000E+02  0.51100000000E-03 0.  1.
    9900012    2    1    2    0    0 -0.21892825574E+02 -0.12564427528E+02  0.35305279064E+02  0.47787269816E+02  0.19999994399E+02 0.  0.
        -12    1    1    2    0    0  0.21892825574E+02  0.12564427528E+02 -0.35305279064E+02  0.43400730184E+02  0.00000000000E+00 0.  1.
         11    1    3    3    0    0 -0.56034308723E+01 -0.42884423352E+01  0.27483014816E+01  0.75724722844E+01  0.51100000000E-03 0.  1.
        -11    1    3    3    0    0 -0.17603023973E+02 -0.83591071388E+01  0.21253403220E+02  0.28834844786E+02  0.51100000000E-03 0. -1.
        -12    1    3    3    0    0  0.13136292714E+01  0.83121945699E-01  0.11303574362E+02  0.11379952745E+02  0.00000000000E+00 0.  1.
</event>
<event>
 7    1  0.5022032E-011  0.4778727E+02  0.7816164E-02  0.1312668E+00
        -11   -1    0    0    0    0  0.00000000000E+00  0.00000000000E+00  0.45593999997E+02  0.45594000000E+02  0.51100000000E-03 0. -1.
         11   -1    0    0    0    0 -0.00000000000E+00 -0.00000000000E+00 -0.45593999997E+02  0.45594000000E+02  0.51100000000E-03 0.  1.
    9900012    2    1    2    0    0  0.11811471972E+02 -0.12938899346E+02  0.39707650607E+02  0.47787268403E+02  0.19999987957E+02 0.  0.
        -12    1    1    2    0    0 -0.11811471972E+02  0.12938899346E+02 -0.39707650607E+02  0.43400731597E+02  0.00000000000E+00 0.  1.
         11    1    3    3    0    0 -0.37954489762E+01 -0.17593237652E+01  0.68421758156E+01  0.80197271272E+01  0.51100000000E-03 0. -1.
        -11    1    3    3    0    0 -0.80259086502E-01 -0.49814093376E+01  0.11601795418E+02  0.12626263806E+02  0.51100000000E-03 0.  1.
         12    1    3    3    0    0  0.15687180034E+02 -0.61981662428E+01  0.21263679374E+02  0.27141277470E+02  0.00000000000E+00 0. -1.
</event>
<event>
 7    1  0.5022032E-011  0.4778727E+02  0.7816164E-02  0.1312668E+00
        -11   -1    0    0    0    0  0.00000000000E+00  0.00000000000E+00  0.45593999997E+02  0.45594000000E+02  0.51100000000E-03 0. -1.
         11   -1    0    0    0    0 -0.00000000000E+00 -0.00000000000E+00 -0.45593999997E+02  0.45594000000E+02  0.51100000000E-03 0.  1.
    9900012    2    1    2    0    0 -0.18910915253E+02  0.21512695036E+02  0.32606816093E+02  0.47787271675E+02  0.20000002874E+02 0.  0.
        -12    1    1    2    0    0  0.18910915253E+02 -0.21512695036E+02 -0.32606816093E+02  0.43400728325E+02  0.00000000000E+00 0.  1.
         11    1    3    3    0    0 -0.71808611111E+01  0.40000694765E+01  0.59450487076E+01  0.10144403704E+02  0.51100000000E-03 0. -1.
        -11    1    3    3    0    0 -0.53809246658E+01  0.77645792461E+01  0.10402407813E+01  0.95039540336E+01  0.51100000000E-03 0.  1.
         12    1    3    3    0    0 -0.63491294761E+01  0.97480463135E+01  0.25621526604E+02  0.28138913937E+02  0.00000000000E+00 0. -1.
</event>
<event>
 7    1  0.5022032E-011  0.4778727E+02  0.7816164E-02  0.1312668E+00
        -11   -1    0    0    0    0  0.00000000000E+00  0.00000000000E+00  0.45593999997E+02  0.45594000000E+02  0.51100000000E-03 0. -1.
         11   -1    0    0    0    0 -0.00000000000E+00 -0.00000000000E+00 -0.45593999997E+02  0.45594000000E+02  0.51100000000E-03 0.  1.
    9900012    2    1    2    0    0  0.19622391852E+02 -0.28865932106E+02  0.25794245962E+02  0.47787269325E+02  0.19999992163E+02 0.  0.
        -12    1    1    2    0    0 -0.19622391852E+02  0.28865932106E+02 -0.25794245962E+02  0.43400730675E+02  0.00000000000E+00 0.  1.
         11    1    3    3    0    0  0.94073782960E+01 -0.49650889996E+01  0.43300191433E+01  0.11484769968E+02  0.51100000000E-03 0. -1.
        -11    1    3    3    0    0  0.75613303818E+01 -0.78251543762E+01  0.15528816739E+02  0.18961827647E+02  0.51100000000E-03 0.  1.
        -12    1    3    3    0    0  0.26536831739E+01 -0.16075688730E+02  0.59354100798E+01  0.17340671710E+02  0.00000000000E+00 0.  1.
</event>
<event>
 7    1  0.5022032E-011  0.4778727E+02  0.7816164E-02  0.1312668E+00
        -11   -1    0    0    0    0  0.00000000000E+00  0.00000000000E+00  0.45593999997E+02  0.45594000000E+02  0.51100000000E-03 0. -1.
         11   -1    0    0    0    0 -0.00000000000E+00 -0.00000000000E+00 -0.45593999997E+02  0.45594000000E+02  0.51100000000E-03 0.  1.
    9900012    2    1    2    0    0  0.21683329061E+02 -0.17027760885E+02 -0.33518830996E+02  0.47787269231E+02  0.19999991730E+02 0.  0.
         12    1    1    2    0    0 -0.21683329061E+02  0.17027760885E+02  0.33518830996E+02  0.43400730769E+02  0.00000000000E+00 0. -1.
         11    1    3    3    0    0 -0.13122032144E+01  0.10411521323E+01 -0.52084619745E+01  0.54711928717E+01  0.51100000000E-03 0. -1.
        -11    1    3    3    0    0  0.18984962796E+01 -0.40451256016E+01 -0.10317739055E+02  0.11243801347E+02  0.51100000000E-03 0.  1.
         12    1    3    3    0    0  0.21097035996E+02 -0.14023787416E+02 -0.17992629967E+02  0.31072275012E+02  0.00000000000E+00 0. -1.
</event>
<event>
 7    1  0.5022032E-011  0.4778732E+02  0.7816164E-02  0.1312668E+00
        -11   -1    0    0    0    0  0.00000000000E+00  0.00000000000E+00  0.45593999997E+02  0.45594000000E+02  0.51100000000E-03 0. -1.
         11   -1    0    0    0    0 -0.00000000000E+00 -0.00000000000E+00 -0.45593999997E+02  0.45594000000E+02  0.51100000000E-03 0.  1.
    9900012    2    1    2    0    0  0.17670480493E+01  0.12748040679E+02 -0.41448566332E+02  0.47787324303E+02  0.20000242827E+02 0.  0.
         12    1    1    2    0    0 -0.17670480493E+01 -0.12748040679E+02  0.41448566332E+02  0.43400675697E+02  0.00000000000E+00 0. -1.
         11    1    3    3    0    0 -0.28905033053E+01  0.54455511226E+01 -0.23034593887E+01  0.65814103202E+01  0.51100000000E-03 0. -1.
        -11    1    3    3    0    0  0.38882073001E+00  0.72892554567E+01 -0.14947569481E+02  0.16634730545E+02  0.51100000000E-03 0.  1.
        -12    1    3    3    0    0  0.42687306246E+01  0.13234099560E-01 -0.24197537463E+02  0.24571183438E+02  0.00000000000E+00 0.  1.
</event>
<event>
 7    1  0.5022032E-011  0.4778727E+02  0.7816164E-02  0.1312668E+00
        -11   -1    0    0    0    0  0.00000000000E+00  0.00000000000E+00  0.45593999997E+02  0.45594000000E+02  0.51100000000E-03 0. -1.
         11   -1    0    0    0    0 -0.00000000000E+00 -0.00000000000E+00 -0.45593999997E+02  0.45594000000E+02  0.51100000000E-03 0.  1.
    9900012    2    1    2    0    0  0.18208411314E+02  0.11378496816E+02  0.37717456728E+02  0.47787274495E+02  0.20000015731E+02 0.  0.
        -12    1    1    2    0    0 -0.18208411314E+02 -0.11378496816E+02 -0.37717456728E+02  0.43400725505E+02  0.00000000000E+00 0.  1.
         11    1    3    3    0    0  0.38591916620E+01 -0.29949585034E+01  0.10488605943E+02  0.11570392889E+02  0.51100000000E-03 0. -1.
        -11    1    3    3    0    0  0.35602731582E+01 -0.78968033855E+00  0.54902904185E+00  0.36878954904E+01  0.51100000000E-03 0.  1.
         12    1    3    3    0    0  0.10788946494E+02  0.15163135658E+02  0.26679821743E+02  0.32528986115E+02  0.00000000000E+00 0. -1.
</event>
<event>
 7    1  0.5022032E-011  0.4778727E+02  0.7816164E-02  0.1312668E+00
        -11   -1    0    0    0    0  0.00000000000E+00  0.00000000000E+00  0.45593999997E+02  0.45594000000E+02  0.51100000000E-03 0. -1.
         11   -1    0    0    0    0 -0.00000000000E+00 -0.00000000000E+00 -0.45593999997E+02  0.45594000000E+02  0.51100000000E-03 0.  1.
    9900012    2    1    2    0    0  0.23549147576E+02 -0.71426310354E+01  0.35749735946E+02  0.47787272473E+02  0.20000006514E+02 0.  0.
        -12    1    1    2    0    0 -0.23549147576E+02  0.71426310354E+01 -0.35749735946E+02  0.43400727527E+02  0.00000000000E+00 0.  1.
         11    1    3    3    0    0  0.13005650171E+02 -0.57074877595E+01  0.16574481220E+02  0.21827408936E+02  0.51100000000E-03 0. -1.
        -11    1    3    3    0    0  0.92375626291E+01 -0.46194904953E+01  0.19920131699E+02  0.22438446981E+02  0.51100000000E-03 0.  1.
         12    1    3    3    0    0  0.13059347753E+01  0.31843472194E+01 -0.74487697315E+00  0.35214165553E+01  0.00000000000E+00 0. -1.
</event>
<event>
 7    1  0.5022032E-011  0.4778726E+02  0.7816164E-02  0.1312668E+00
        -11   -1    0    0    0    0  0.00000000000E+00  0.00000000000E+00  0.45593999997E+02  0.45594000000E+02  0.51100000000E-03 0. -1.
         11   -1    0    0    0    0 -0.00000000000E+00 -0.00000000000E+00 -0.45593999997E+02  0.45594000000E+02  0.51100000000E-03 0.  1.
    9900012    2    1    2    0    0 -0.25045475233E+02 -0.27834550524E+02 -0.21945067868E+02  0.47787262262E+02  0.19999959955E+02 0.  0.
         12    1    1    2    0    0  0.25045475233E+02  0.27834550524E+02  0.21945067868E+02  0.43400737738E+02  0.00000000000E+00 0. -1.
         11    1    3    3    0    0  0.20008949227E+00 -0.25015088971E+00  0.11312306822E+00  0.33971806284E+00  0.51100000000E-03 0. -1.
        -11    1    3    3    0    0 -0.27025560423E+02 -0.26514832895E+02 -0.16106718346E+02  0.41144181311E+02  0.51100000000E-03 0.  1.
        -12    1    3    3    0    0  0.17799956982E+01 -0.10695667394E+01 -0.59514725908E+01  0.63033628878E+01  0.00000000000E+00 0.  1.
</event>
<event>
 7    1  0.5022032E-011  0.4778728E+02  0.7816164E-02  0.1312668E+00
        -11   -1    0    0    0    0  0.00000000000E+00  0.00000000000E+00  0.45593999997E+02  0.45594000000E+02  0.51100000000E-03 0. -1.
         11   -1    0    0    0    0 -0.00000000000E+00 -0.00000000000E+00 -0.45593999997E+02  0.45594000000E+02  0.51100000000E-03 0.  1.
    9900012    2    1    2    0    0  0.87633263743E+01  0.26631899990E+02 -0.33129573087E+02  0.47787278818E+02  0.20000035441E+02 0.  0.
         12    1    1    2    0    0 -0.87633263743E+01 -0.26631899990E+02  0.33129573087E+02  0.43400721182E+02  0.00000000000E+00 0. -1.
         11    1    3    3    0    0 -0.40816856995E+01  0.32935227824E+01 -0.28073856879E+01  0.59488541022E+01  0.51100000000E-03 0. -1.
        -11    1    3    3    0    0 -0.19339748585E+01  0.16777020268E+01 -0.20690966743E+01  0.32918238338E+01  0.51100000000E-03 0.  1.
        -12    1    3    3    0    0  0.14778986932E+02  0.21660675181E+02 -0.28253090725E+02  0.38546600882E+02  0.00000000000E+00 0.  1.
</event>
<event>
 7    1  0.5022032E-011  0.4778728E+02  0.7816164E-02  0.1312668E+00
        -11   -1    0    0    0    0  0.00000000000E+00  0.00000000000E+00  0.45593999997E+02  0.45594000000E+02  0.51100000000E-03 0.  1.
         11   -1    0    0    0    0 -0.00000000000E+00 -0.00000000000E+00 -0.45593999997E+02  0.45594000000E+02  0.51100000000E-03 0. -1.
    9900012    2    1    2    0    0  0.30793730036E+02 -0.30040976536E+02  0.57365756883E+01  0.47787281327E+02  0.20000046881E+02 0.  0.
         12    1    1    2    0    0 -0.30793730036E+02  0.30040976536E+02 -0.57365756883E+01  0.43400718673E+02  0.00000000000E+00 0. -1.
         11    1    3    3    0    0  0.54570748939E+01 -0.14022395438E+01  0.65482475540E+01  0.86386045416E+01  0.51100000000E-03 0. -1.
        -11    1    3    3    0    0  0.96413059692E+01 -0.87455395304E+01  0.34193683225E+01  0.13458503723E+02  0.51100000000E-03 0.  1.
        -12    1    3    3    0    0  0.15695349173E+02 -0.19893197462E+02 -0.42310401882E+01  0.25690173062E+02  0.00000000000E+00 0.  1.
</event>
<event>
 7    1  0.5022032E-011  0.4778727E+02  0.7816164E-02  0.1312668E+00
        -11   -1    0    0    0    0  0.00000000000E+00  0.00000000000E+00  0.45593999997E+02  0.45594000000E+02  0.51100000000E-03 0. -1.
         11   -1    0    0    0    0 -0.00000000000E+00 -0.00000000000E+00 -0.45593999997E+02  0.45594000000E+02  0.51100000000E-03 0.  1.
    9900012    2    1    2    0    0 -0.19942949155E+01  0.17331119834E+02  0.39740137826E+02  0.47787268654E+02  0.19999989103E+02 0.  0.
        -12    1    1    2    0    0  0.19942949155E+01 -0.17331119834E+02 -0.39740137826E+02  0.43400731346E+02  0.00000000000E+00 0.  1.
         11    1    3    3    0    0  0.17151252046E+01 -0.34267795993E+01  0.23646259589E+01  0.45028800868E+01  0.51100000000E-03 0. -1.
        -11    1    3    3    0    0 -0.26705064669E+01  0.29563257862E+01  0.74751363504E+01  0.84704858574E+01  0.51100000000E-03 0.  1.
         12    1    3    3    0    0 -0.10389136532E+01  0.17801573647E+02  0.29900375517E+02  0.34813902710E+02  0.00000000000E+00 0. -1.
</event>
<event>
 7    1  0.5022032E-011  0.4778727E+02  0.7816164E-02  0.1312668E+00
        -11   -1    0    0    0    0  0.00000000000E+00  0.00000000000E+00  0.45593999997E+02  0.45594000000E+02  0.51100000000E-03 0. -1.
         11   -1    0    0    0    0 -0.00000000000E+00 -0.00000000000E+00 -0.45593999997E+02  0.45594000000E+02  0.51100000000E-03 0.  1.
    9900012    2    1    2    0    0  0.13301562669E+02 -0.37577141914E+02 -0.17165371948E+02  0.47787272380E+02  0.20000006088E+02 0.  0.
         12    1    1    2    0    0 -0.13301562669E+02  0.37577141914E+02  0.17165371948E+02  0.43400727620E+02  0.00000000000E+00 0. -1.
         11    1    3    3    0    0  0.18895973369E+01  0.85152318458E-01 -0.36559460253E+01  0.41162811632E+01  0.51100000000E-03 0. -1.
        -11    1    3    3    0    0  0.11934664995E+02 -0.16562821851E+02 -0.70758664882E+01  0.21606276472E+02  0.51100000000E-03 0.  1.
         12    1    3    3    0    0 -0.52269966236E+00 -0.21099472382E+02 -0.64335594342E+01  0.22064714744E+02  0.00000000000E+00 0. -1.
</event>
<event>
 7    1  0.5022032E-011  0.4778726E+02  0.7816164E-02  0.1312668E+00
        -11   -1    0    0    0    0  0.00000000000E+00  0.00000000000E+00  0.45593999997E+02  0.45594000000E+02  0.51100000000E-03 0. -1.
         11   -1    0    0    0    0 -0.00000000000E+00 -0.00000000000E+00 -0.45593999997E+02  0.45594000000E+02  0.51100000000E-03 0.  1.
    9900012    2    1    2    0    0 -0.81397373792E+01  0.26399792765E+02  0.33472672342E+02  0.47787260648E+02  0.19999952598E+02 0.  0.
        -12    1    1    2    0    0  0.81397373792E+01 -0.26399792765E+02 -0.33472672342E+02  0.43400739352E+02  0.00000000000E+00 0.  1.
         11    1    3    3    0    0 -0.22750068368E+01  0.13931189280E+02  0.15094295673E+02  0.20666191061E+02  0.51100000000E-03 0. -1.
        -11    1    3    3    0    0  0.24045308873E+00  0.13580830449E+02  0.10988956177E+02  0.17471517722E+02  0.51100000000E-03 0.  1.
         12    1    3    3    0    0 -0.61051836311E+01 -0.11122269646E+01  0.73894204923E+01  0.96495518654E+01  0.00000000000E+00 0. -1.
</event>
<event>
 7    1  0.5022032E-011  0.4778727E+02  0.7816164E-02  0.1312668E+00
        -11   -1    0    0    0    0  0.00000000000E+00  0.00000000000E+00  0.45593999997E+02  0.45594000000E+02  0.51100000000E-03 0. -1.
         11   -1    0    0    0    0 -0.00000000000E+00 -0.00000000000E+00 -0.45593999997E+02  0.45594000000E+02  0.51100000000E-03 0.  1.
    9900012    2    1    2    0    0 -0.28932069970E+02  0.14478808610E+02 -0.28929618794E+02  0.47787269418E+02  0.19999992585E+02 0.  0.
         12    1    1    2    0    0  0.28932069970E+02 -0.14478808610E+02  0.28929618794E+02  0.43400730582E+02  0.00000000000E+00 0. -1.
         11    1    3    3    0    0 -0.19071127918E+02  0.73487579029E+01 -0.15277528111E+02  0.25516955701E+02  0.51100000000E-03 0. -1.
        -11    1    3    3    0    0 -0.11276748596E+02  0.70240724296E+01 -0.61585170857E+01  0.14643428060E+02  0.51100000000E-03 0.  1.
         12    1    3    3    0    0  0.14158065453E+01  0.10597827728E+00 -0.74935735973E+01  0.76268856572E+01  0.00000000000E+00 0. -1.
</event>
<event>
 7    1  0.5022032E-011  0.4778727E+02  0.7816164E-02  0.1312668E+00
        -11   -1    0    0    0    0  0.00000000000E+00  0.00000000000E+00  0.45593999997E+02  0.45594000000E+02  0.51100000000E-03 0. -1.
         11   -1    0    0    0    0 -0.00000000000E+00 -0.00000000000E+00 -0.45593999997E+02  0.45594000000E+02  0.51100000000E-03 0.  1.
    9900012    2    1    2    0    0 -0.23001351036E+02  0.20480636064E+02  0.30579483047E+02  0.47787269747E+02  0.19999994084E+02 0.  0.
        -12    1    1    2    0    0  0.23001351036E+02 -0.20480636064E+02 -0.30579483047E+02  0.43400730253E+02  0.00000000000E+00 0.  1.
         11    1    3    3    0    0 -0.19886648767E+02  0.98033984677E+01  0.21205535770E+02  0.30679963628E+02  0.51100000000E-03 0. -1.
        -11    1    3    3    0    0 -0.34889792719E+01  0.14829331106E+01 -0.24082667575E+00  0.37986925013E+01  0.51100000000E-03 0.  1.
        -12    1    3    3    0    0  0.37427700252E+00  0.91943044860E+01  0.96147739526E+01  0.13308613617E+02  0.00000000000E+00 0.  1.
</event>
<event>
 7    1  0.5022032E-011  0.4778727E+02  0.7816164E-02  0.1312668E+00
        -11   -1    0    0    0    0  0.00000000000E+00  0.00000000000E+00  0.45593999997E+02  0.45594000000E+02  0.51100000000E-03 0. -1.
         11   -1    0    0    0    0 -0.00000000000E+00 -0.00000000000E+00 -0.45593999997E+02  0.45594000000E+02  0.51100000000E-03 0.  1.
    9900012    2    1    2    0    0  0.12468266149E+02  0.17544679357E+02  0.37687530782E+02  0.47787269465E+02  0.19999992800E+02 0.  0.
        -12    1    1    2    0    0 -0.12468266149E+02 -0.17544679357E+02 -0.37687530782E+02  0.43400730535E+02  0.00000000000E+00 0.  1.
         11    1    3    3    0    0  0.24921640106E+01  0.65448835281E+01  0.14080521564E+02  0.15726012515E+02  0.51100000000E-03 0. -1.
        -11    1    3    3    0    0  0.42567798205E+00  0.10730426946E+02  0.18065402136E+02  0.21016232269E+02  0.51100000000E-03 0.  1.
        -12    1    3    3    0    0  0.95504241563E+01  0.26936888312E+00  0.55416070820E+01  0.11045024681E+02  0.00000000000E+00 0.  1.
</event>
<event>
 7    1  0.5022032E-011  0.4778727E+02  0.7816164E-02  0.1312668E+00
        -11   -1    0    0    0    0  0.00000000000E+00  0.00000000000E+00  0.45593999997E+02  0.45594000000E+02  0.51100000000E-03 0. -1.
         11   -1    0    0    0    0 -0.00000000000E+00 -0.00000000000E+00 -0.45593999997E+02  0.45594000000E+02  0.51100000000E-03 0.  1.
    9900012    2    1    2    0    0 -0.62692662678E+00 -0.37131622612E+02 -0.22460465474E+02  0.47787274844E+02  0.20000017322E+02 0.  0.
         12    1    1    2    0    0  0.62692662678E+00  0.37131622612E+02  0.22460465474E+02  0.43400725156E+02  0.00000000000E+00 0. -1.
         11    1    3    3    0    0  0.26419599882E+01 -0.11199798913E+01 -0.40806414451E+01  0.49885812011E+01  0.51100000000E-03 0. -1.
        -11    1    3    3    0    0  0.40456892511E+01 -0.24584689731E+02 -0.13782863353E+02  0.28473529693E+02  0.51100000000E-03 0.  1.
         12    1    3    3    0    0 -0.73145758661E+01 -0.11426952990E+02 -0.45969606756E+01  0.14325163950E+02  0.00000000000E+00 0. -1.
</event>
<event>
 7    1  0.5022032E-011  0.4778727E+02  0.7816164E-02  0.1312668E+00
        -11   -1    0    0    0    0  0.00000000000E+00  0.00000000000E+00  0.45593999997E+02  0.45594000000E+02  0.51100000000E-03 0. -1.
         11   -1    0    0    0    0 -0.00000000000E+00 -0.00000000000E+00 -0.45593999997E+02  0.45594000000E+02  0.51100000000E-03 0.  1.
    9900012    2    1    2    0    0 -0.26213904549E+02 -0.19224391712E+02 -0.28755474306E+02  0.47787270386E+02  0.19999996999E+02 0.  0.
         12    1    1    2    0    0  0.26213904549E+02  0.19224391712E+02  0.28755474306E+02  0.43400729614E+02  0.00000000000E+00 0. -1.
         11    1    3    3    0    0 -0.77060126596E+01 -0.79064800058E+01 -0.13236664119E+01  0.11119674016E+02  0.51100000000E-03 0. -1.
        -11    1    3    3    0    0 -0.17188442302E+02 -0.91720535166E+01 -0.16750778646E+02  0.25693534206E+02  0.51100000000E-03 0.  1.
        -12    1    3    3    0    0 -0.13194495877E+01 -0.21458581899E+01 -0.10681029248E+02  0.10974062164E+02  0.00000000000E+00 0.  1.
</event>
<event>
 7    1  0.5022032E-011  0.4778727E+02  0.7816164E-02  0.1312668E+00
        -11   -1    0    0    0    0  0.00000000000E+00  0.00000000000E+00  0.45593999997E+02  0.45594000000E+02  0.51100000000E-03 0. -1.
         11   -1    0    0    0    0 -0.00000000000E+00 -0.00000000000E+00 -0.45593999997E+02  0.45594000000E+02  0.51100000000E-03 0.  1.
    9900012    2    1    2    0    0 -0.88973671373E+01 -0.54519834167E+01 -0.42127615293E+02  0.47787271487E+02  0.20000002017E+02 0.  0.
         12    1    1    2    0    0  0.88973671373E+01  0.54519834167E+01  0.42127615293E+02  0.43400728513E+02  0.00000000000E+00 0. -1.
         11    1    3    3    0    0 -0.56317268050E-01  0.27365128192E+01 -0.20698931421E+02  0.20879114834E+02  0.51100000000E-03 0. -1.
        -11    1    3    3    0    0 -0.67043476777E+01  0.10410369126E+01 -0.83538376096E+01  0.10761906834E+02  0.51100000000E-03 0.  1.
        -12    1    3    3    0    0 -0.21367021915E+01 -0.92295331484E+01 -0.13074846263E+02  0.16146249818E+02  0.00000000000E+00 0.  1.
</event>
<event>
 7    1  0.5022032E-011  0.4778725E+02  0.7816164E-02  0.1312668E+00
        -11   -1    0    0    0    0  0.00000000000E+00  0.00000000000E+00  0.45593999997E+02  0.45594000000E+02  0.51100000000E-03 0. -1.
         11   -1    0    0    0    0 -0.00000000000E+00 -0.00000000000E+00 -0.45593999997E+02  0.45594000000E+02  0.51100000000E-03 0.  1.
    9900012    2    1    2    0    0  0.21271276961E+02  0.93051893506E+01 -0.36668394018E+02  0.47787252399E+02  0.19999914990E+02 0.  0.
         12    1    1    2    0    0 -0.21271276961E+02 -0.93051893506E+01  0.36668394018E+02  0.43400747601E+02  0.00000000000E+00 0. -1.
         11    1    3    3    0    0  0.66873548833E+01  0.43371532406E+01 -0.80650306774E+01  0.11339150482E+02  0.51100000000E-03 0. -1.
        -11    1    3    3    0    0  0.13108216736E+02 -0.22587817673E+01 -0.24817412432E+02  0.28157261962E+02  0.51100000000E-03 0.  1.
         12    1    3    3    0    0  0.14757053412E+01  0.72268178774E+01 -0.37859509089E+01  0.82908399557E+01  0.00000000000E+00 0. -1.
</event>
<event>
 7    1  0.5022032E-011  0.4778725E+02  0.7816164E-02  0.1312668E+00
        -11   -1    0    0    0    0  0.00000000000E+00  0.00000000000E+00  0.45593999997E+02  0.45594000000E+02  0.51100000000E-03 0. -1.
         11   -1    0    0    0    0 -0.00000000000E+00 -0.00000000000E+00 -0.45593999997E+02  0.45594000000E+02  0.51100000000E-03 0.  1.
    9900012    2    1    2    0    0 -0.41506144371E+02  0.13176819645E+01 -0.12614641692E+02  0.47787245498E+02  0.19999883525E+02 0.  0.
         12    1    1    2    0    0  0.41506144371E+02 -0.13176819645E+01  0.12614641692E+02  0.43400754502E+02  0.00000000000E+00 0. -1.
         11    1    3    3    0    0 -0.13791586813E+01  0.26645188700E+01  0.33824122085E+00  0.30192957559E+01  0.51100000000E-03 0. -1.
        -11    1    3    3    0    0 -0.18833093758E+02  0.45594660855E+01 -0.45878638225E+00  0.19382585914E+02  0.51100000000E-03 0.  1.
         12    1    3    3    0    0 -0.21293891931E+02 -0.59063029910E+01 -0.12494096531E+02  0.25385363829E+02  0.00000000000E+00 0. -1.
</event>
<event>
 7    1  0.5022032E-011  0.4778727E+02  0.7816164E-02  0.1312668E+00
        -11   -1    0    0    0    0  0.00000000000E+00  0.00000000000E+00  0.45593999997E+02  0.45594000000E+02  0.51100000000E-03 0. -1.
         11   -1    0    0    0    0 -0.00000000000E+00 -0.00000000000E+00 -0.45593999997E+02  0.45594000000E+02  0.51100000000E-03 0.  1.
    9900012    2    1    2    0    0  0.17900139748E+02  0.85633448057E+01  0.38598933084E+02  0.47787268295E+02  0.19999987466E+02 0.  0.
        -12    1    1    2    0    0 -0.17900139748E+02 -0.85633448057E+01 -0.38598933084E+02  0.43400731705E+02  0.00000000000E+00 0.  1.
         11    1    3    3    0    0  0.18065824685E+02  0.10429639178E+01  0.28014279885E+02  0.33350587297E+02  0.51100000000E-03 0.  1.
        -11    1    3    3    0    0 -0.82888101681E+00  0.18847995004E+01 -0.37711969014E+00  0.20932588035E+01  0.51100000000E-03 0. -1.
        -12    1    3    3    0    0  0.66319607912E+00  0.56355813875E+01  0.10961772889E+02  0.12343422195E+02  0.00000000000E+00 0.  1.
</event>
<event>
 7    1  0.5022032E-011  0.4778727E+02  0.7816164E-02  0.1312668E+00
        -11   -1    0    0    0    0  0.00000000000E+00  0.00000000000E+00  0.45593999997E+02  0.45594000000E+02  0.51100000000E-03 0. -1.
         11   -1    0    0    0    0 -0.00000000000E+00 -0.00000000000E+00 -0.45593999997E+02  0.45594000000E+02  0.51100000000E-03 0.  1.
    9900012    2    1    2    0    0 -0.33378635560E+02  0.39147755502E+01  0.27462057990E+02  0.47787269494E+02  0.19999992930E+02 0.  0.
        -12    1    1    2    0    0  0.33378635560E+02 -0.39147755502E+01 -0.27462057990E+02  0.43400730506E+02  0.00000000000E+00 0.  1.
         11    1    3    3    0    0 -0.69752032507E+01  0.36046088245E+01  0.25178070407E+01  0.82453634075E+01  0.51100000000E-03 0. -1.
        -11    1    3    3    0    0 -0.83440926300E+00  0.31697789758E+01  0.82359517187E+01  0.88642336695E+01  0.51100000000E-03 0.  1.
         12    1    3    3    0    0 -0.25569023046E+02 -0.28596122502E+01  0.16708299231E+02  0.30677672417E+02  0.00000000000E+00 0. -1.
</event>
<event>
 7    1  0.5022032E-011  0.4778727E+02  0.7816164E-02  0.1312668E+00
        -11   -1    0    0    0    0  0.00000000000E+00  0.00000000000E+00  0.45593999997E+02  0.45594000000E+02  0.51100000000E-03 0. -1.
         11   -1    0    0    0    0 -0.00000000000E+00 -0.00000000000E+00 -0.45593999997E+02  0.45594000000E+02  0.51100000000E-03 0.  1.
    9900012    2    1    2    0    0 -0.19887552920E+02 -0.25529488103E+02  0.28919782481E+02  0.47787270252E+02  0.19999996387E+02 0.  0.
        -12    1    1    2    0    0  0.19887552920E+02  0.25529488103E+02 -0.28919782481E+02  0.43400729748E+02  0.00000000000E+00 0.  1.
         11    1    3    3    0    0  0.10383839506E+01  0.47942945925E-01  0.53681491120E+01  0.54678665771E+01  0.51100000000E-03 0. -1.
        -11    1    3    3    0    0 -0.12164225254E+02 -0.68223089365E+01  0.13080516407E+02  0.19120988076E+02  0.51100000000E-03 0.  1.
        -12    1    3    3    0    0 -0.87617116159E+01 -0.18755122112E+02  0.10471116962E+02  0.23198415599E+02  0.00000000000E+00 0.  1.
</event>
<event>
 7    1  0.5022032E-011  0.4778727E+02  0.7816164E-02  0.1312668E+00
        -11   -1    0    0    0    0  0.00000000000E+00  0.00000000000E+00  0.45593999997E+02  0.45594000000E+02  0.51100000000E-03 0. -1.
         11   -1    0    0    0    0 -0.00000000000E+00 -0.00000000000E+00 -0.45593999997E+02  0.45594000000E+02  0.51100000000E-03 0.  1.
    9900012    2    1    2    0    0  0.31951742889E+02 -0.28690921223E+02  0.62881478313E+01  0.47787266856E+02  0.19999980904E+02 0.  0.
        -12    1    1    2    0    0 -0.31951742889E+02  0.28690921223E+02 -0.62881478313E+01  0.43400733144E+02  0.00000000000E+00 0.  1.
         11    1    3    3    0    0  0.38381137933E+01  0.18792758198E+00 -0.27815347696E+01  0.47437717274E+01  0.51100000000E-03 0. -1.
        -11    1    3    3    0    0  0.11352740411E+02 -0.14444468346E+02  0.99752235410E+01  0.20905321466E+02  0.51100000000E-03 0.  1.
         12    1    3    3    0    0  0.16760888684E+02 -0.14434380459E+02 -0.90554094020E+00  0.22138173663E+02  0.00000000000E+00 0. -1.
</event>
<event>
 7    1  0.5022032E-011  0.4778727E+02  0.7816164E-02  0.1312668E+00
        -11   -1    0    0    0    0  0.00000000000E+00  0.00000000000E+00  0.45593999997E+02  0.45594000000E+02  0.51100000000E-03 0. -1.
         11   -1    0    0    0    0 -0.00000000000E+00 -0.00000000000E+00 -0.45593999997E+02  0.45594000000E+02  0.51100000000E-03 0.  1.
    9900012    2    1    2    0    0  0.25879352427E+02 -0.33424259224E+02 -0.98336864784E+01  0.47787269863E+02  0.19999994612E+02 0.  0.
         12    1    1    2    0    0 -0.25879352427E+02  0.33424259224E+02  0.98336864784E+01  0.43400730137E+02  0.00000000000E+00 0. -1.
         11    1    3    3    0    0  0.17933595744E+01 -0.60641512696E+01  0.13753023384E+01  0.64715937734E+01  0.51100000000E-03 0. -1.
        -11    1    3    3    0    0  0.80811197620E+01 -0.58799986638E+01  0.37026093019E+01  0.10657776353E+02  0.51100000000E-03 0.  1.
        -12    1    3    3    0    0  0.16004873090E+02 -0.21480109290E+02 -0.14911598119E+02  0.30657899736E+02  0.00000000000E+00 0.  1.
</event>
<event>
 7    1  0.6741889E-011  0.4778727E+02  0.7816164E-02  0.1312668E+00
        -11   -1    0    0    0    0  0.00000000000E+00  0.00000000000E+00  0.45593999997E+02  0.45594000000E+02  0.51100000000E-03 0. -1.
         11   -1    0    0    0    0 -0.00000000000E+00 -0.00000000000E+00 -0.45593999997E+02  0.45594000000E+02  0.51100000000E-03 0.  1.
    9900012    2    1    2    0    0  0.84611479144E+01 -0.25330534372E+02 -0.34211052050E+02  0.47787273301E+02  0.20000010289E+02 0.  0.
         12    1    1    2    0    0 -0.84611479144E+01  0.25330534372E+02  0.34211052050E+02  0.43400726699E+02  0.00000000000E+00 0. -1.
         11    1    3    3    0    0  0.61818752103E+01 -0.19558638333E+01 -0.52329903928E+01  0.83321769762E+01  0.51100000000E-03 0. -1.
        -11    1    3    3    0    0  0.33723141028E+01 -0.12291271652E+01 -0.94177551549E+00  0.37108216582E+01  0.51100000000E-03 0.  1.
        -12    1    3    3    0    0 -0.10930413987E+01 -0.22145543373E+02 -0.28036286142E+02  0.35744274667E+02  0.00000000000E+00 0.  1.
</event>
<event>
 7    1  0.5022032E-011  0.4778728E+02  0.7816164E-02  0.1312668E+00
        -11   -1    0    0    0    0  0.00000000000E+00  0.00000000000E+00  0.45593999997E+02  0.45594000000E+02  0.51100000000E-03 0. -1.
         11   -1    0    0    0    0 -0.00000000000E+00 -0.00000000000E+00 -0.45593999997E+02  0.45594000000E+02  0.51100000000E-03 0.  1.
    9900012    2    1    2    0    0  0.19127869913E+01  0.40649813830E+02  0.15084964174E+02  0.47787282695E+02  0.20000053118E+02 0.  0.
        -12    1    1    2    0    0 -0.19127869913E+01 -0.40649813830E+02 -0.15084964174E+02  0.43400717305E+02  0.00000000000E+00 0.  1.
         11    1    3    3    0    0  0.24626968729E+01  0.88324916590E+01  0.98587125213E+01  0.13463728965E+02  0.51100000000E-03 0. -1.
        -11    1    3    3    0    0 -0.18437470605E+01  0.22875629312E+02  0.88391005001E+01  0.24593159975E+02  0.51100000000E-03 0.  1.
         12    1    3    3    0    0  0.12938371790E+01  0.89416928587E+01 -0.36128488478E+01  0.97303937547E+01  0.00000000000E+00 0. -1.
</event>
<event>
 7    1  0.5022032E-011  0.4778728E+02  0.7816164E-02  0.1312668E+00
        -11   -1    0    0    0    0  0.00000000000E+00  0.00000000000E+00  0.45593999997E+02  0.45594000000E+02  0.51100000000E-03 0. -1.
         11   -1    0    0    0    0 -0.00000000000E+00 -0.00000000000E+00 -0.45593999997E+02  0.45594000000E+02  0.51100000000E-03 0.  1.
    9900012    2    1    2    0    0 -0.25387312951E+02  0.11854184095E+01  0.35180988237E+02  0.47787276400E+02  0.20000024418E+02 0.  0.
        -12    1    1    2    0    0  0.25387312951E+02 -0.11854184095E+01 -0.35180988237E+02  0.43400723600E+02  0.00000000000E+00 0.  1.
         11    1    3    3    0    0 -0.10073020348E+02  0.18952701712E+01  0.21002017293E+02  0.23369692309E+02  0.51100000000E-03 0. -1.
        -11    1    3    3    0    0 -0.64717093530E+00 -0.44599702665E+01  0.17661261274E+01  0.48403891121E+01  0.51100000000E-03 0.  1.
         12    1    3    3    0    0 -0.14667121668E+02  0.37501185048E+01  0.12412844816E+02  0.19577194979E+02  0.00000000000E+00 0. -1.
</event>
<event>
 7    1  0.5022032E-011  0.4778727E+02  0.7816164E-02  0.1312668E+00
        -11   -1    0    0    0    0  0.00000000000E+00  0.00000000000E+00  0.45593999997E+02  0.45594000000E+02  0.51100000000E-03 0. -1.
         11   -1    0    0    0    0 -0.00000000000E+00 -0.00000000000E+00 -0.45593999997E+02  0.45594000000E+02  0.51100000000E-03 0.  1.
    9900012    2    1    2    0    0  0.42889405473E+02 -0.11485033841E+01  0.65423980861E+01  0.47787272649E+02  0.20000007316E+02 0.  0.
         12    1    1    2    0    0 -0.42889405473E+02  0.11485033841E+01 -0.65423980861E+01  0.43400727351E+02  0.00000000000E+00 0. -1.
         11    1    3    3    0    0  0.17380501137E+01 -0.21187385211E+01  0.26583381755E+01  0.38179357295E+01  0.51100000000E-03 0. -1.
        -11    1    3    3    0    0  0.66392979466E+01  0.48115734286E+01 -0.26857481629E+01  0.86281376633E+01  0.51100000000E-03 0.  1.
        -12    1    3    3    0    0  0.34512057413E+02 -0.38413382916E+01  0.65698080735E+01  0.35341199256E+02  0.00000000000E+00 0.  1.
</event>
<event>
 7    1  0.5022032E-011  0.4778727E+02  0.7816164E-02  0.1312668E+00
        -11   -1    0    0    0    0  0.00000000000E+00  0.00000000000E+00  0.45593999997E+02  0.45594000000E+02  0.51100000000E-03 0. -1.
         11   -1    0    0    0    0 -0.00000000000E+00 -0.00000000000E+00 -0.45593999997E+02  0.45594000000E+02  0.51100000000E-03 0.  1.
    9900012    2    1    2    0    0  0.47983334176E+01 -0.17259917350E+02 -0.39530931994E+02  0.47787270342E+02  0.19999996800E+02 0.  0.
         12    1    1    2    0    0 -0.47983334176E+01  0.17259917350E+02  0.39530931994E+02  0.43400729658E+02  0.00000000000E+00 0. -1.
         11    1    3    3    0    0  0.44351370579E+00  0.47053636778E+00  0.10385469238E+01  0.12233923552E+01  0.51100000000E-03 0. -1.
        -11    1    3    3    0    0  0.79166706019E-01  0.21142063741E+01 -0.72034514552E+01  0.75077193000E+01  0.51100000000E-03 0.  1.
        -12    1    3    3    0    0  0.42756530058E+01 -0.19844660092E+02 -0.33366027462E+02  0.39056158687E+02  0.00000000000E+00 0.  1.
</event>
<event>
 7    1  0.5022032E-011  0.4778727E+02  0.7816164E-02  0.1312668E+00
        -11   -1    0    0    0    0  0.00000000000E+00  0.00000000000E+00  0.45593999997E+02  0.45594000000E+02  0.51100000000E-03 0. -1.
         11   -1    0    0    0    0 -0.00000000000E+00 -0.00000000000E+00 -0.45593999997E+02  0.45594000000E+02  0.51100000000E-03 0.  1.
    9900012    2    1    2    0    0 -0.38956734395E+02 -0.52640997422E+01 -0.18392536358E+02  0.47787270807E+02  0.19999998918E+02 0.  0.
         12    1    1    2    0    0  0.38956734395E+02  0.52640997422E+01  0.18392536358E+02  0.43400729193E+02  0.00000000000E+00 0. -1.
         11    1    3    3    0    0 -0.18927334674E+01 -0.30037089647E+01 -0.44920778496E+01  0.57256852159E+01  0.51100000000E-03 0. -1.
        -11    1    3    3    0    0 -0.27419115863E+02 -0.55825628690E+01 -0.15090410061E+02  0.31791404482E+02  0.51100000000E-03 0.  1.
        -12    1    3    3    0    0 -0.96448850643E+01  0.33221720915E+01  0.11899515526E+01  0.10270181109E+02  0.00000000000E+00 0.  1.
</event>
<event>
 7    1  0.5022032E-011  0.4778727E+02  0.7816164E-02  0.1312668E+00
        -11   -1    0    0    0    0  0.00000000000E+00  0.00000000000E+00  0.45593999997E+02  0.45594000000E+02  0.51100000000E-03 0. -1.
         11   -1    0    0    0    0 -0.00000000000E+00 -0.00000000000E+00 -0.45593999997E+02  0.45594000000E+02  0.51100000000E-03 0.  1.
    9900012    2    1    2    0    0 -0.14928609625E+02 -0.14380199449E+02  0.38130958179E+02  0.47787268518E+02  0.19999988479E+02 0.  0.
        -12    1    1    2    0    0  0.14928609625E+02  0.14380199449E+02 -0.38130958179E+02  0.43400731482E+02  0.00000000000E+00 0.  1.
         11    1    3    3    0    0 -0.63830067755E+01  0.51104590684E+00  0.15605122836E+01  0.65908377513E+01  0.51100000000E-03 0. -1.
        -11    1    3    3    0    0  0.12188518410E+01 -0.45329202670E+01  0.79797069653E+01  0.92578987611E+01  0.51100000000E-03 0.  1.
         12    1    3    3    0    0 -0.97644546906E+01 -0.10358325089E+02  0.28590738930E+02  0.31938532005E+02  0.00000000000E+00 0. -1.
</event>
<event>
 7    1  0.5022032E-011  0.4778727E+02  0.7816164E-02  0.1312668E+00
        -11   -1    0    0    0    0  0.00000000000E+00  0.00000000000E+00  0.45593999997E+02  0.45594000000E+02  0.51100000000E-03 0. -1.
         11   -1    0    0    0    0 -0.00000000000E+00 -0.00000000000E+00 -0.45593999997E+02  0.45594000000E+02  0.51100000000E-03 0.  1.
    9900012    2    1    2    0    0 -0.36144807637E+02  0.77076905729E+01 -0.22754509911E+02  0.47787270348E+02  0.19999996823E+02 0.  0.
         12    1    1    2    0    0  0.36144807637E+02 -0.77076905729E+01  0.22754509911E+02  0.43400729652E+02  0.00000000000E+00 0. -1.
         11    1    3    3    0    0  0.17503450547E+01 -0.67736888396E+00 -0.32214783836E+00  0.19042888191E+01  0.51100000000E-03 0. -1.
        -11    1    3    3    0    0 -0.27669735565E+01  0.40959504742E-02 -0.51508387370E+01  0.58469906272E+01  0.51100000000E-03 0.  1.
         12    1    3    3    0    0 -0.35128179135E+02  0.83809635064E+01 -0.17281523335E+02  0.40035990901E+02  0.00000000000E+00 0. -1.
</event>
<event>
 7    1  0.5022032E-011  0.4778727E+02  0.7816164E-02  0.1312668E+00
        -11   -1    0    0    0    0  0.00000000000E+00  0.00000000000E+00  0.45593999997E+02  0.45594000000E+02  0.51100000000E-03 0. -1.
         11   -1    0    0    0    0 -0.00000000000E+00 -0.00000000000E+00 -0.45593999997E+02  0.45594000000E+02  0.51100000000E-03 0.  1.
    9900012    2    1    2    0    0  0.22278973590E+02  0.19897864171E+02  0.31485643397E+02  0.47787269558E+02  0.19999993222E+02 0.  0.
        -12    1    1    2    0    0 -0.22278973590E+02 -0.19897864171E+02 -0.31485643397E+02  0.43400730442E+02  0.00000000000E+00 0.  1.
         11    1    3    3    0    0  0.13148581162E+01  0.23414582687E+01  0.29429879113E+01  0.39840252004E+01  0.51100000000E-03 0. -1.
        -11    1    3    3    0    0  0.21560520006E+02  0.20244838559E+02  0.22495339639E+02  0.37158442069E+02  0.51100000000E-03 0.  1.
        -12    1    3    3    0    0 -0.59640453274E+00 -0.26884326563E+01  0.60473158463E+01  0.66448022889E+01  0.00000000000E+00 0.  1.
</event>
<event>
 7    1  0.5022032E-011  0.4778728E+02  0.7816164E-02  0.1312668E+00
        -11   -1    0    0    0    0  0.00000000000E+00  0.00000000000E+00  0.45593999997E+02  0.45594000000E+02  0.51100000000E-03 0. -1.
         11   -1    0    0    0    0 -0.00000000000E+00 -0.00000000000E+00 -0.45593999997E+02  0.45594000000E+02  0.51100000000E-03 0.  1.
    9900012    2    1    2    0    0 -0.29781915292E+01  0.32482177864E+02 -0.28629727332E+02  0.47787276611E+02  0.20000025381E+02 0.  0.
         12    1    1    2    0    0  0.29781915292E+01 -0.32482177864E+02  0.28629727332E+02  0.43400723389E+02  0.00000000000E+00 0. -1.
         11    1    3    3    0    0 -0.43886202781E+01  0.15986470940E+02 -0.69444057992E+01  0.17973647744E+02  0.51100000000E-03 0. -1.
        -11    1    3    3    0    0 -0.52837689034E+01  0.81095320498E+01 -0.11330901246E+02  0.14902081976E+02  0.51100000000E-03 0.  1.
         12    1    3    3    0    0  0.66941976522E+01  0.83861748741E+01 -0.10354420287E+02  0.14911546892E+02  0.00000000000E+00 0. -1.
</event>
<event>
 7    1  0.5022032E-011  0.4778727E+02  0.7816164E-02  0.1312668E+00
        -11   -1    0    0    0    0  0.00000000000E+00  0.00000000000E+00  0.45593999997E+02  0.45594000000E+02  0.51100000000E-03 0.  1.
         11   -1    0    0    0    0 -0.00000000000E+00 -0.00000000000E+00 -0.45593999997E+02  0.45594000000E+02  0.51100000000E-03 0. -1.
    9900012    2    1    2    0    0  0.11752476519E+02  0.37226301714E+02  0.18965894281E+02  0.47787269713E+02  0.19999993928E+02 0.  0.
        -12    1    1    2    0    0 -0.11752476519E+02 -0.37226301714E+02 -0.18965894281E+02  0.43400730287E+02  0.00000000000E+00 0.  1.
         11    1    3    3    0    0 -0.63099527042E+00  0.10926159506E+02  0.11557365390E+02  0.15917028981E+02  0.51100000000E-03 0. -1.
        -11    1    3    3    0    0  0.50502256808E+01  0.12752915737E+02  0.89661990830E+01  0.16387018200E+02  0.51100000000E-03 0.  1.
        -12    1    3    3    0    0  0.73332461086E+01  0.13547226471E+02 -0.15576701917E+01  0.15483222531E+02  0.00000000000E+00 0.  1.
</event>
<event>
 7    1  0.5022032E-011  0.4778727E+02  0.7816164E-02  0.1312668E+00
        -11   -1    0    0    0    0  0.00000000000E+00  0.00000000000E+00  0.45593999997E+02  0.45594000000E+02  0.51100000000E-03 0. -1.
         11   -1    0    0    0    0 -0.00000000000E+00 -0.00000000000E+00 -0.45593999997E+02  0.45594000000E+02  0.51100000000E-03 0.  1.
    9900012    2    1    2    0    0  0.76665452686E+01 -0.60780419703E+01  0.42283626280E+02  0.47787267726E+02  0.19999984868E+02 0.  0.
        -12    1    1    2    0    0 -0.76665452686E+01  0.60780419703E+01 -0.42283626280E+02  0.43400732274E+02  0.00000000000E+00 0.  1.
         11    1    3    3    0    0  0.20525686242E+01 -0.41986488214E+01  0.22510544622E+01  0.51873824166E+01  0.51100000000E-03 0. -1.
        -11    1    3    3    0    0 -0.18221645998E+01  0.34160667131E+01  0.46111989078E+01  0.60210423720E+01  0.51100000000E-03 0.  1.
         12    1    3    3    0    0  0.74361412442E+01 -0.52954598620E+01  0.35421372910E+02  0.36578842937E+02  0.00000000000E+00 0. -1.
</event>
<event>
 7    1  0.5022032E-011  0.4778729E+02  0.7816164E-02  0.1312668E+00
        -11   -1    0    0    0    0  0.00000000000E+00  0.00000000000E+00  0.45593999997E+02  0.45594000000E+02  0.51100000000E-03 0. -1.
         11   -1    0    0    0    0 -0.00000000000E+00 -0.00000000000E+00 -0.45593999997E+02  0.45594000000E+02  0.51100000000E-03 0.  1.
    9900012    2    1    2    0    0  0.59449873171E+00 -0.34460708258E+02 -0.26376658421E+02  0.47787286275E+02  0.20000069444E+02 0.  0.
         12    1    1    2    0    0 -0.59449873171E+00  0.34460708258E+02  0.26376658421E+02  0.43400713725E+02  0.00000000000E+00 0. -1.
         11    1    3    3    0    0 -0.30467078478E+00 -0.12666443571E+02 -0.10282461876E+01  0.12711762565E+02  0.51100000000E-03 0. -1.
        -11    1    3    3    0    0  0.30793883474E+01 -0.15580404870E+02 -0.23264202307E+02  0.28168328984E+02  0.51100000000E-03 0.  1.
        -12    1    3    3    0    0 -0.21802188309E+01 -0.62138598169E+01 -0.20842099257E+01  0.69071947264E+01  0.00000000000E+00 0.  1.
</event>
<event>
 7    1  0.5022032E-011  0.4778727E+02  0.7816164E-02  0.1312668E+00
        -11   -1    0    0    0    0  0.00000000000E+00  0.00000000000E+00  0.45593999997E+02  0.45594000000E+02  0.51100000000E-03 0. -1.
         11   -1    0    0    0    0 -0.00000000000E+00 -0.00000000000E+00 -0.45593999997E+02  0.45594000000E+02  0.51100000000E-03 0.  1.
    9900012    2    1    2    0    0 -0.25989199444E+02  0.19965689978E+02  0.28452694456E+02  0.47787273211E+02  0.20000009879E+02 0.  0.
        -12    1    1    2    0    0  0.25989199444E+02 -0.19965689978E+02 -0.28452694456E+02  0.43400726789E+02  0.00000000000E+00 0.  1.
         11    1    3    3    0    0 -0.12840554804E+02  0.79536229302E+01  0.11498176060E+02  0.18982834835E+02  0.51100000000E-03 0. -1.
        -11    1    3    3    0    0 -0.88911715170E+01 -0.15879083169E+01  0.63381193692E+01  0.11033863384E+02  0.51100000000E-03 0.  1.
         12    1    3    3    0    0 -0.42574731232E+01  0.13599975364E+02  0.10616399026E+02  0.17770574993E+02  0.00000000000E+00 0. -1.
</event>
<event>
 7    1  0.5022032E-011  0.4778727E+02  0.7816164E-02  0.1312668E+00
        -11   -1    0    0    0    0  0.00000000000E+00  0.00000000000E+00  0.45593999997E+02  0.45594000000E+02  0.51100000000E-03 0.  1.
         11   -1    0    0    0    0 -0.00000000000E+00 -0.00000000000E+00 -0.45593999997E+02  0.45594000000E+02  0.51100000000E-03 0. -1.
    9900012    2    1    2    0    0 -0.27648946199E+02 -0.33442285196E+02  0.87910396634E+00  0.47787268568E+02  0.19999988709E+02 0.  0.
         12    1    1    2    0    0  0.27648946199E+02  0.33442285196E+02 -0.87910396634E+00  0.43400731432E+02  0.00000000000E+00 0. -1.
         11    1    3    3    0    0 -0.98593035205E+01 -0.42308501978E+01  0.54274257535E+00  0.10742463827E+02  0.51100000000E-03 0.  1.
        -11    1    3    3    0    0 -0.60163868593E+01 -0.16000476756E+01  0.29991785492E+01  0.69102920080E+01  0.51100000000E-03 0. -1.
        -12    1    3    3    0    0 -0.11773255820E+02 -0.27611387322E+02 -0.26628171583E+01  0.30134512733E+02  0.00000000000E+00 0.  1.
</event>
<event>
 7    1  0.5022032E-011  0.4778727E+02  0.7816164E-02  0.1312668E+00
        -11   -1    0    0    0    0  0.00000000000E+00  0.00000000000E+00  0.45593999997E+02  0.45594000000E+02  0.51100000000E-03 0. -1.
         11   -1    0    0    0    0 -0.00000000000E+00 -0.00000000000E+00 -0.45593999997E+02  0.45594000000E+02  0.51100000000E-03 0.  1.
    9900012    2    1    2    0    0  0.21349279430E+02  0.31635687513E+02 -0.20664338547E+02  0.47787270234E+02  0.19999996306E+02 0.  0.
         12    1    1    2    0    0 -0.21349279430E+02 -0.31635687513E+02  0.20664338547E+02  0.43400729766E+02  0.00000000000E+00 0. -1.
         11    1    3    3    0    0  0.12196409381E+01  0.32880411100E+01 -0.39777918741E+01  0.53029771651E+01  0.51100000000E-03 0. -1.
        -11    1    3    3    0    0  0.13329637502E+02  0.54647054014E+01 -0.10491184791E+02  0.17821537521E+02  0.51100000000E-03 0.  1.
        -12    1    3    3    0    0  0.68000009897E+01  0.22882941002E+02 -0.61953618823E+01  0.24662755548E+02  0.00000000000E+00 0.  1.
</event>
<event>
 7    1  0.5022032E-011  0.4778727E+02  0.7816164E-02  0.1312668E+00
        -11   -1    0    0    0    0  0.00000000000E+00  0.00000000000E+00  0.45593999997E+02  0.45594000000E+02  0.51100000000E-03 0. -1.
         11   -1    0    0    0    0 -0.00000000000E+00 -0.00000000000E+00 -0.45593999997E+02  0.45594000000E+02  0.51100000000E-03 0.  1.
    9900012    2    1    2    0    0 -0.24249996406E+02 -0.35890678266E+02  0.27240675235E+01  0.47787266643E+02  0.19999979930E+02 0.  0.
        -12    1    1    2    0    0  0.24249996406E+02  0.35890678266E+02 -0.27240675235E+01  0.43400733357E+02  0.00000000000E+00 0.  1.
         11    1    3    3    0    0 -0.13384656108E+02 -0.18904324992E+02 -0.29819102002E+01  0.23354106946E+02  0.51100000000E-03 0. -1.
        -11    1    3    3    0    0 -0.80056067742E+01 -0.20408523880E+01  0.24179101091E+00  0.82651849010E+01  0.51100000000E-03 0.  1.
        -12    1    3    3    0    0 -0.28597335237E+01 -0.14945500886E+02  0.54641867128E+01  0.16167974796E+02  0.00000000000E+00 0.  1.
</event>
<event>
 7    1  0.5022032E-011  0.4778727E+02  0.7816164E-02  0.1312668E+00
        -11   -1    0    0    0    0  0.00000000000E+00  0.00000000000E+00  0.45593999997E+02  0.45594000000E+02  0.51100000000E-03 0. -1.
         11   -1    0    0    0    0 -0.00000000000E+00 -0.00000000000E+00 -0.45593999997E+02  0.45594000000E+02  0.51100000000E-03 0.  1.
    9900012    2    1    2    0    0  0.71662125279E+01  0.41847038117E+02  0.90052286073E+01  0.47787270243E+02  0.19999996347E+02 0.  0.
        -12    1    1    2    0    0 -0.71662125279E+01 -0.41847038117E+02 -0.90052286073E+01  0.43400729757E+02  0.00000000000E+00 0.  1.
         11    1    3    3    0    0 -0.76981609802E+00  0.48524331539E+01 -0.17749478705E+01  0.52239031903E+01  0.51100000000E-03 0. -1.
        -11    1    3    3    0    0  0.88769974532E+01  0.75926715868E+01  0.42499587298E+01  0.12430281376E+02  0.51100000000E-03 0.  1.
         12    1    3    3    0    0 -0.94096882730E+00  0.29401933376E+02  0.65302177479E+01  0.30133085677E+02  0.00000000000E+00 0. -1.
</event>
<event>
 7    1  0.5022032E-011  0.4778727E+02  0.7816164E-02  0.1312668E+00
        -11   -1    0    0    0    0  0.00000000000E+00  0.00000000000E+00  0.45593999997E+02  0.45594000000E+02  0.51100000000E-03 0. -1.
         11   -1    0    0    0    0 -0.00000000000E+00 -0.00000000000E+00 -0.45593999997E+02  0.45594000000E+02  0.51100000000E-03 0.  1.
    9900012    2    1    2    0    0  0.70300267748E+01 -0.32606152661E+02  0.27767623551E+02  0.47787269759E+02  0.19999994137E+02 0.  0.
        -12    1    1    2    0    0 -0.70300267748E+01  0.32606152661E+02 -0.27767623551E+02  0.43400730241E+02  0.00000000000E+00 0.  1.
         11    1    3    3    0    0 -0.11181823788E+01 -0.31137560844E+01 -0.16070018768E+01  0.36780788570E+01  0.51100000000E-03 0. -1.
        -11    1    3    3    0    0 -0.20955894325E+01 -0.14499534507E+02  0.14806736564E+02  0.20829484966E+02  0.51100000000E-03 0.  1.
         12    1    3    3    0    0  0.10243798586E+02 -0.14992862069E+02  0.14567888864E+02  0.23279705936E+02  0.00000000000E+00 0. -1.
</event>
<event>
 7    1  0.6857077E-011  0.4778727E+02  0.7816164E-02  0.1312668E+00
        -11   -1    0    0    0    0  0.00000000000E+00  0.00000000000E+00  0.45593999997E+02  0.45594000000E+02  0.51100000000E-03 0. -1.
         11   -1    0    0    0    0 -0.00000000000E+00 -0.00000000000E+00 -0.45593999997E+02  0.45594000000E+02  0.51100000000E-03 0.  1.
    9900012    2    1    2    0    0 -0.21446034957E+02  0.25686630722E+01 -0.37644293204E+02  0.47787271249E+02  0.20000000930E+02 0.  0.
         12    1    1    2    0    0  0.21446034957E+02 -0.25686630722E+01  0.37644293204E+02  0.43400728751E+02  0.00000000000E+00 0. -1.
         11    1    3    3    0    0 -0.55707358667E+01  0.47300168969E+01 -0.25559857909E+01  0.77420424673E+01  0.51100000000E-03 0. -1.
        -11    1    3    3    0    0 -0.46190128949E+01 -0.17795160951E+01 -0.24595513928E+01  0.55273276519E+01  0.51100000000E-03 0.  1.
        -12    1    3    3    0    0 -0.11256286196E+02 -0.38183772958E+00 -0.32628756020E+02  0.34517901129E+02  0.00000000000E+00 0.  1.
</event>
<event>
 7    1  0.5022032E-011  0.4778728E+02  0.7816164E-02  0.1312668E+00
        -11   -1    0    0    0    0  0.00000000000E+00  0.00000000000E+00  0.45593999997E+02  0.45594000000E+02  0.51100000000E-03 0. -1.
         11   -1    0    0    0    0 -0.00000000000E+00 -0.00000000000E+00 -0.45593999997E+02  0.45594000000E+02  0.51100000000E-03 0.  1.
    9900012    2    1    2    0    0  0.23488471931E+02  0.68709102720E+01 -0.35842778081E+02  0.47787280396E+02  0.20000042637E+02 0.  0.
         12    1    1    2    0    0 -0.23488471931E+02 -0.68709102720E+01  0.35842778081E+02  0.43400719604E+02  0.00000000000E+00 0. -1.
         11    1    3    3    0    0  0.14188502047E+02 -0.16972762631E+01 -0.92664025123E+01  0.17031164166E+02  0.51100000000E-03 0. -1.
        -11    1    3    3    0    0  0.13911967499E+01 -0.18796683541E+01 -0.48435218085E+01  0.53785021417E+01  0.51100000000E-03 0.  1.
        -12    1    3    3    0    0  0.79087731339E+01  0.10447854889E+02 -0.21732853760E+02  0.25377614088E+02  0.00000000000E+00 0.  1.
</event>
<event>
 7    1  0.5022032E-011  0.4778728E+02  0.7816164E-02  0.1312668E+00
        -11   -1    0    0    0    0  0.00000000000E+00  0.00000000000E+00  0.45593999997E+02  0.45594000000E+02  0.51100000000E-03 0. -1.
         11   -1    0    0    0    0 -0.00000000000E+00 -0.00000000000E+00 -0.45593999997E+02  0.45594000000E+02  0.51100000000E-03 0.  1.
    9900012    2    1    2    0    0  0.26896544494E+02 -0.25609724633E+01  0.33965272375E+02  0.47787280960E+02  0.20000045208E+02 0.  0.
        -12    1    1    2    0    0 -0.26896544494E+02  0.25609724633E+01 -0.33965272375E+02  0.43400719040E+02  0.00000000000E+00 0.  1.
         11    1    3    3    0    0  0.55247662400E+01 -0.26287095783E+01  0.16446602397E+01  0.63354608056E+01  0.51100000000E-03 0. -1.
        -11    1    3    3    0    0 -0.63778697457E+00  0.12228142823E+01 -0.85485639918E+00  0.16225987545E+01  0.51100000000E-03 0.  1.
        -12    1    3    3    0    0  0.22009565228E+02 -0.11550771674E+01  0.33175468535E+02  0.39829221400E+02  0.00000000000E+00 0.  1.
</event>
<event>
 7    1  0.5022032E-011  0.4778727E+02  0.7816164E-02  0.1312668E+00
        -11   -1    0    0    0    0  0.00000000000E+00  0.00000000000E+00  0.45593999997E+02  0.45594000000E+02  0.51100000000E-03 0. -1.
         11   -1    0    0    0    0 -0.00000000000E+00 -0.00000000000E+00 -0.45593999997E+02  0.45594000000E+02  0.51100000000E-03 0.  1.
    9900012    2    1    2    0    0 -0.62900084641E+01 -0.23996379682E+01 -0.42875411183E+02  0.47787270133E+02  0.19999995845E+02 0.  0.
         12    1    1    2    0    0  0.62900084641E+01  0.23996379682E+01  0.42875411183E+02  0.43400729867E+02  0.00000000000E+00 0. -1.
         11    1    3    3    0    0 -0.34829958005E+01  0.16493230289E+00 -0.16404805829E+02  0.16771288470E+02  0.51100000000E-03 0. -1.
        -11    1    3    3    0    0 -0.79948815478E+01  0.18858405016E+01 -0.86468382414E+01  0.11926539196E+02  0.51100000000E-03 0.  1.
         12    1    3    3    0    0  0.51878688842E+01 -0.44504107727E+01 -0.17823767113E+02  0.19089442467E+02  0.00000000000E+00 0. -1.
</event>
<event>
 7    1  0.5022032E-011  0.4778727E+02  0.7816164E-02  0.1312668E+00
        -11   -1    0    0    0    0  0.00000000000E+00  0.00000000000E+00  0.45593999997E+02  0.45594000000E+02  0.51100000000E-03 0. -1.
         11   -1    0    0    0    0 -0.00000000000E+00 -0.00000000000E+00 -0.45593999997E+02  0.45594000000E+02  0.51100000000E-03 0.  1.
    9900012    2    1    2    0    0  0.15015289993E+02  0.24987086527E+02  0.32152914737E+02  0.47787270135E+02  0.19999995854E+02 0.  0.
        -12    1    1    2    0    0 -0.15015289993E+02 -0.24987086527E+02 -0.32152914737E+02  0.43400729865E+02  0.00000000000E+00 0.  1.
         11    1    3    3    0    0 -0.11336259927E-01  0.19463006574E+01 -0.12661995275E+01  0.23219552676E+01  0.51100000000E-03 0. -1.
        -11    1    3    3    0    0 -0.10360524840E+01  0.95750316497E+00 -0.84989997015E+00  0.16469812631E+01  0.51100000000E-03 0.  1.
         12    1    3    3    0    0  0.16062678737E+02  0.22083282705E+02  0.34269014235E+02  0.43818333604E+02  0.00000000000E+00 0. -1.
</event>
<event>
 7    1  0.5022032E-011  0.4778728E+02  0.7816164E-02  0.1312668E+00
        -11   -1    0    0    0    0  0.00000000000E+00  0.00000000000E+00  0.45593999997E+02  0.45594000000E+02  0.51100000000E-03 0.  1.
         11   -1    0    0    0    0 -0.00000000000E+00 -0.00000000000E+00 -0.45593999997E+02  0.45594000000E+02  0.51100000000E-03 0. -1.
    9900012    2    1    2    0    0  0.28459249235E+02 -0.32422846314E+02 -0.47384244624E+01  0.47787280001E+02  0.20000040834E+02 0.  0.
        -12    1    1    2    0    0 -0.28459249235E+02  0.32422846314E+02  0.47384244624E+01  0.43400719999E+02  0.00000000000E+00 0.  1.
         11    1    3    3    0    0  0.19922972032E+02 -0.18789808759E+02  0.74676541251E+00  0.27395973913E+02  0.51100000000E-03 0. -1.
        -11    1    3    3    0    0  0.73827335578E+01 -0.13717292228E+02 -0.83582887611E+00  0.15600239454E+02  0.51100000000E-03 0.  1.
        -12    1    3    3    0    0  0.11535436445E+01  0.84254672985E-01 -0.46493609988E+01  0.47910666336E+01  0.00000000000E+00 0.  1.
</event>
<event>
 7    1  0.5022032E-011  0.4778727E+02  0.7816164E-02  0.1312668E+00
        -11   -1    0    0    0    0  0.00000000000E+00  0.00000000000E+00  0.45593999997E+02  0.45594000000E+02  0.51100000000E-03 0. -1.
         11   -1    0    0    0    0 -0.00000000000E+00 -0.00000000000E+00 -0.45593999997E+02  0.45594000000E+02  0.51100000000E-03 0.  1.
    9900012    2    1    2    0    0  0.18148814342E+02 -0.34183343984E+02 -0.19640333801E+02  0.47787272129E+02  0.20000004944E+02 0.  0.
         12    1    1    2    0    0 -0.18148814342E+02  0.34183343984E+02  0.19640333801E+02  0.43400727871E+02  0.00000000000E+00 0. -1.
         11    1    3    3    0    0  0.75326336939E+01 -0.14604835902E+02 -0.13786551416E+02  0.21450193525E+02  0.51100000000E-03 0. -1.
        -11    1    3    3    0    0  0.60314647589E+01 -0.19273533906E+02 -0.73707885081E+01  0.21498283649E+02  0.51100000000E-03 0.  1.
        -12    1    3    3    0    0  0.45847158890E+01 -0.30497417575E+00  0.15170061226E+01  0.48387949540E+01  0.00000000000E+00 0.  1.
</event>
<event>
 7    1  0.5022032E-011  0.4778727E+02  0.7816164E-02  0.1312668E+00
        -11   -1    0    0    0    0  0.00000000000E+00  0.00000000000E+00  0.45593999997E+02  0.45594000000E+02  0.51100000000E-03 0. -1.
         11   -1    0    0    0    0 -0.00000000000E+00 -0.00000000000E+00 -0.45593999997E+02  0.45594000000E+02  0.51100000000E-03 0.  1.
    9900012    2    1    2    0    0  0.25810818701E+02 -0.40995029045E+01  0.34649949401E+02  0.47787270979E+02  0.19999999700E+02 0.  0.
        -12    1    1    2    0    0 -0.25810818701E+02  0.40995029045E+01 -0.34649949401E+02  0.43400729021E+02  0.00000000000E+00 0.  1.
         11    1    3    3    0    0  0.73992821904E+01  0.30700135690E+01  0.81774020149E+01  0.11447456670E+02  0.51100000000E-03 0. -1.
        -11    1    3    3    0    0  0.60374267010E+01 -0.20007978585E+01  0.20850088231E+02  0.21798621350E+02  0.51100000000E-03 0.  1.
        -12    1    3    3    0    0  0.12374109810E+02 -0.51687186150E+01  0.56224591554E+01  0.14541192959E+02  0.00000000000E+00 0.  1.
</event>
<event>
 7    1  0.5022032E-011  0.4778727E+02  0.7816164E-02  0.1312668E+00
        -11   -1    0    0    0    0  0.00000000000E+00  0.00000000000E+00  0.45593999997E+02  0.45594000000E+02  0.51100000000E-03 0.  1.
         11   -1    0    0    0    0 -0.00000000000E+00 -0.00000000000E+00 -0.45593999997E+02  0.45594000000E+02  0.51100000000E-03 0. -1.
    9900012    2    1    2    0    0  0.79936690002E+01  0.31615797553E+02  0.28638538879E+02  0.47787270650E+02  0.19999998202E+02 0.  0.
        -12    1    1    2    0    0 -0.79936690002E+01 -0.31615797553E+02 -0.28638538879E+02  0.43400729350E+02  0.00000000000E+00 0.  1.
         11    1    3    3    0    0  0.29541959687E+01 -0.13347772064E+01  0.43181384957E+01  0.53995577912E+01  0.51100000000E-03 0.  1.
        -11    1    3    3    0    0  0.66422875868E+01  0.13503294193E+02  0.12585557775E+02  0.19617726759E+02  0.51100000000E-03 0. -1.
        -12    1    3    3    0    0 -0.16028145553E+01  0.19447280567E+02  0.11734842608E+02  0.22769986100E+02  0.00000000000E+00 0.  1.
</event>
<event>
 7    1  0.5022032E-011  0.4778727E+02  0.7816164E-02  0.1312668E+00
        -11   -1    0    0    0    0  0.00000000000E+00  0.00000000000E+00  0.45593999997E+02  0.45594000000E+02  0.51100000000E-03 0. -1.
         11   -1    0    0    0    0 -0.00000000000E+00 -0.00000000000E+00 -0.45593999997E+02  0.45594000000E+02  0.51100000000E-03 0.  1.
    9900012    2    1    2    0    0  0.27207549174E+02  0.28184525199E+01 -0.33696124029E+02  0.47787272112E+02  0.20000004866E+02 0.  0.
         12    1    1    2    0    0 -0.27207549174E+02 -0.28184525199E+01  0.33696124029E+02  0.43400727888E+02  0.00000000000E+00 0. -1.
         11    1    3    3    0    0  0.90137273868E+01 -0.30334700804E+00 -0.48463134890E+01  0.10238459626E+02  0.51100000000E-03 0. -1.
        -11    1    3    3    0    0  0.76402835347E+01  0.87267972280E+01 -0.10466311301E+02  0.15622886892E+02  0.51100000000E-03 0.  1.
         12    1    3    3    0    0  0.10553538252E+02 -0.56049977000E+01 -0.18383499239E+02  0.21925925594E+02  0.00000000000E+00 0. -1.
</event>
<event>
 7    1  0.5022032E-011  0.4778730E+02  0.7816164E-02  0.1312668E+00
        -11   -1    0    0    0    0  0.00000000000E+00  0.00000000000E+00  0.45593999997E+02  0.45594000000E+02  0.51100000000E-03 0. -1.
         11   -1    0    0    0    0 -0.00000000000E+00 -0.00000000000E+00 -0.45593999997E+02  0.45594000000E+02  0.51100000000E-03 0.  1.
    9900012    2    1    2    0    0 -0.13185901047E+02 -0.17387790825E+02  0.37515558470E+02  0.47787304343E+02  0.20000151820E+02 0.  0.
        -12    1    1    2    0    0  0.13185901047E+02  0.17387790825E+02 -0.37515558470E+02  0.43400695657E+02  0.00000000000E+00 0.  1.
         11    1    3    3    0    0 -0.19677624293E+01 -0.29155488635E+01  0.80943717097E+00  0.36093909387E+01  0.51100000000E-03 0.  1.
        -11    1    3    3    0    0 -0.47505421577E+01 -0.22053384098E+01  0.32970706020E+00  0.52478448243E+01  0.51100000000E-03 0. -1.
         12    1    3    3    0    0 -0.64675964603E+01 -0.12266903551E+02  0.36376414239E+02  0.38930068580E+02  0.00000000000E+00 0. -1.
</event>
<event>
 7    1  0.5022032E-011  0.4778727E+02  0.7816164E-02  0.1312668E+00
        -11   -1    0    0    0    0  0.00000000000E+00  0.00000000000E+00  0.45593999997E+02  0.45594000000E+02  0.51100000000E-03 0. -1.
         11   -1    0    0    0    0 -0.00000000000E+00 -0.00000000000E+00 -0.45593999997E+02  0.45594000000E+02  0.51100000000E-03 0.  1.
    9900012    2    1    2    0    0  0.66172469520E+01  0.37098045078E+02 -0.21530692700E+02  0.47787266896E+02  0.19999981085E+02 0.  0.
         12    1    1    2    0    0 -0.66172469520E+01 -0.37098045078E+02  0.21530692700E+02  0.43400733104E+02  0.00000000000E+00 0. -1.
         11    1    3    3    0    0 -0.33350945106E+01  0.43413158837E+01 -0.57256080015E+01  0.79216454253E+01  0.51100000000E-03 0. -1.
        -11    1    3    3    0    0 -0.33390454721E+00  0.20783254670E+02 -0.82141954366E+01  0.22350126931E+02  0.51100000000E-03 0.  1.
         12    1    3    3    0    0  0.10286246010E+02  0.11973474525E+02 -0.75908892620E+01  0.17515494539E+02  0.00000000000E+00 0. -1.
</event>
<event>
 7    1  0.5022032E-011  0.4778727E+02  0.7816164E-02  0.1312668E+00
        -11   -1    0    0    0    0  0.00000000000E+00  0.00000000000E+00  0.45593999997E+02  0.45594000000E+02  0.51100000000E-03 0. -1.
         11   -1    0    0    0    0 -0.00000000000E+00 -0.00000000000E+00 -0.45593999997E+02  0.45594000000E+02  0.51100000000E-03 0.  1.
    9900012    2    1    2    0    0 -0.34770159290E+02  0.23789512563E+02  0.10426799191E+02  0.47787273895E+02  0.20000012999E+02 0.  0.
        -12    1    1    2    0    0  0.34770159290E+02 -0.23789512563E+02 -0.10426799191E+02  0.43400726105E+02  0.00000000000E+00 0.  1.
         11    1    3    3    0    0 -0.10735885092E+02  0.42720792639E+01 -0.30424861281E+01  0.11948498317E+02  0.51100000000E-03 0.  1.
        -11    1    3    3    0    0 -0.17718596276E+02  0.12282932305E+02  0.32293413647E+01  0.21800177199E+02  0.51100000000E-03 0. -1.
         12    1    3    3    0    0 -0.63156779219E+01  0.72345009939E+01  0.10239943954E+02  0.14038598379E+02  0.00000000000E+00 0. -1.
</event>
<event>
 7    1  0.5022032E-011  0.4778727E+02  0.7816164E-02  0.1312668E+00
        -11   -1    0    0    0    0  0.00000000000E+00  0.00000000000E+00  0.45593999997E+02  0.45594000000E+02  0.51100000000E-03 0. -1.
         11   -1    0    0    0    0 -0.00000000000E+00 -0.00000000000E+00 -0.45593999997E+02  0.45594000000E+02  0.51100000000E-03 0.  1.
    9900012    2    1    2    0    0 -0.18648673314E+02 -0.35724404130E+02 -0.16112636642E+02  0.47787272744E+02  0.20000007748E+02 0.  0.
         12    1    1    2    0    0  0.18648673314E+02  0.35724404130E+02  0.16112636642E+02  0.43400727256E+02  0.00000000000E+00 0. -1.
         11    1    3    3    0    0 -0.19191733969E+01 -0.57803756754E+01 -0.10249667184E+02  0.11922736562E+02  0.51100000000E-03 0. -1.
        -11    1    3    3    0    0 -0.61899829372E+00 -0.85575636990E+01 -0.82870715709E+00  0.86198498342E+01  0.51100000000E-03 0.  1.
        -12    1    3    3    0    0 -0.16110501623E+02 -0.21386464755E+02 -0.50342623011E+01  0.27244686348E+02  0.00000000000E+00 0.  1.
</event>
<event>
 7    1  0.5022032E-011  0.4778729E+02  0.7816164E-02  0.1312668E+00
        -11   -1    0    0    0    0  0.00000000000E+00  0.00000000000E+00  0.45593999997E+02  0.45594000000E+02  0.51100000000E-03 0. -1.
         11   -1    0    0    0    0 -0.00000000000E+00 -0.00000000000E+00 -0.45593999997E+02  0.45594000000E+02  0.51100000000E-03 0.  1.
    9900012    2    1    2    0    0  0.33230808273E+02 -0.15938268560E+02 -0.22919564637E+02  0.47787291869E+02  0.20000094946E+02 0.  0.
         12    1    1    2    0    0 -0.33230808273E+02  0.15938268560E+02  0.22919564637E+02  0.43400708131E+02  0.00000000000E+00 0. -1.
         11    1    3    3    0    0  0.86536200716E+01 -0.30089038357E+01 -0.15467213354E+02  0.17977022330E+02  0.51100000000E-03 0. -1.
        -11    1    3    3    0    0  0.19603295783E+01 -0.90051291214E+00  0.15515333748E+01  0.26572677010E+01  0.51100000000E-03 0.  1.
        -12    1    3    3    0    0  0.22616858623E+02 -0.12028851812E+02 -0.90038846578E+01  0.27153001838E+02  0.00000000000E+00 0.  1.
</event>
<event>
 7    1  0.5022032E-011  0.4778727E+02  0.7816164E-02  0.1312668E+00
        -11   -1    0    0    0    0  0.00000000000E+00  0.00000000000E+00  0.45593999997E+02  0.45594000000E+02  0.51100000000E-03 0. -1.
         11   -1    0    0    0    0 -0.00000000000E+00 -0.00000000000E+00 -0.45593999997E+02  0.45594000000E+02  0.51100000000E-03 0.  1.
    9900012    2    1    2    0    0  0.16097134933E+02 -0.31512194139E+02 -0.25129402616E+02  0.47787274104E+02  0.20000013948E+02 0.  0.
         12    1    1    2    0    0 -0.16097134933E+02  0.31512194139E+02  0.25129402616E+02  0.43400725896E+02  0.00000000000E+00 0. -1.
         11    1    3    3    0    0  0.44250464866E+01 -0.20710526032E+02 -0.12654722506E+02  0.24670811233E+02  0.51100000000E-03 0. -1.
        -11    1    3    3    0    0  0.76985881665E+01 -0.10834438151E+02 -0.42029686315E+01  0.13939808298E+02  0.51100000000E-03 0.  1.
         12    1    3    3    0    0  0.39735002800E+01  0.32770044563E-01 -0.82717114788E+01  0.91766545724E+01  0.00000000000E+00 0. -1.
</event>
<event>
 7    1  0.5022032E-011  0.4778727E+02  0.7816164E-02  0.1312668E+00
        -11   -1    0    0    0    0  0.00000000000E+00  0.00000000000E+00  0.45593999997E+02  0.45594000000E+02  0.51100000000E-03 0. -1.
         11   -1    0    0    0    0 -0.00000000000E+00 -0.00000000000E+00 -0.45593999997E+02  0.45594000000E+02  0.51100000000E-03 0.  1.
    9900012    2    1    2    0    0  0.10522883110E+02 -0.12454561195E+02 -0.40221587490E+02  0.47787271161E+02  0.20000000532E+02 0.  0.
         12    1    1    2    0    0 -0.10522883110E+02  0.12454561195E+02  0.40221587490E+02  0.43400728839E+02  0.00000000000E+00 0. -1.
         11    1    3    3    0    0 -0.42184259585E+01 -0.17746809503E+01 -0.23414447326E+01  0.51407172398E+01  0.51100000000E-03 0. -1.
        -11    1    3    3    0    0  0.35781185894E+01 -0.14615242741E+01 -0.30373783422E+01  0.49157556183E+01  0.51100000000E-03 0.  1.
         12    1    3    3    0    0  0.11163190479E+02 -0.92183559705E+01 -0.34842764415E+02  0.37730798303E+02  0.00000000000E+00 0. -1.
</event>
<event>
 7    1  0.5022032E-011  0.4778727E+02  0.7816164E-02  0.1312668E+00
        -11   -1    0    0    0    0  0.00000000000E+00  0.00000000000E+00  0.45593999997E+02  0.45594000000E+02  0.51100000000E-03 0.  1.
         11   -1    0    0    0    0 -0.00000000000E+00 -0.00000000000E+00 -0.45593999997E+02  0.45594000000E+02  0.51100000000E-03 0. -1.
    9900012    2    1    2    0    0 -0.32422089968E+02 -0.22638682014E+02  0.17886340857E+02  0.47787273848E+02  0.20000012783E+02 0.  0.
         12    1    1    2    0    0  0.32422089968E+02  0.22638682014E+02 -0.17886340857E+02  0.43400726152E+02  0.00000000000E+00 0. -1.
         11    1    3    3    0    0 -0.14168265735E+02 -0.47786818315E+01  0.27761699685E+01  0.15207980600E+02  0.51100000000E-03 0. -1.
        -11    1    3    3    0    0 -0.17504583684E+02 -0.85950095000E+01  0.11259605579E+02  0.22518067331E+02  0.51100000000E-03 0.  1.
        -12    1    3    3    0    0 -0.74924054932E+00 -0.92649906829E+01  0.38505653095E+01  0.10061225917E+02  0.00000000000E+00 0.  1.
</event>
<event>
 7    1  0.5022032E-011  0.4778726E+02  0.7816164E-02  0.1312668E+00
        -11   -1    0    0    0    0  0.00000000000E+00  0.00000000000E+00  0.45593999997E+02  0.45594000000E+02  0.51100000000E-03 0. -1.
         11   -1    0    0    0    0 -0.00000000000E+00 -0.00000000000E+00 -0.45593999997E+02  0.45594000000E+02  0.51100000000E-03 0.  1.
    9900012    2    1    2    0    0  0.67661440511E+01  0.17000690598E+01 -0.42836350087E+02  0.47787264650E+02  0.19999970845E+02 0.  0.
         12    1    1    2    0    0 -0.67661440511E+01 -0.17000690598E+01  0.42836350087E+02  0.43400735350E+02  0.00000000000E+00 0. -1.
         11    1    3    3    0    0  0.11342401944E+02  0.32148121934E+01 -0.26021018815E+02  0.28567088051E+02  0.51100000000E-03 0. -1.
        -11    1    3    3    0    0  0.78230272779E+00 -0.19564454698E+01 -0.68230673555E+00  0.22147729403E+01  0.51100000000E-03 0.  1.
         12    1    3    3    0    0 -0.53585606209E+01  0.44170233628E+00 -0.16133024537E+02  0.17005403659E+02  0.00000000000E+00 0. -1.
</event>
<event>
 7    1  0.5022032E-011  0.4778727E+02  0.7816164E-02  0.1312668E+00
        -11   -1    0    0    0    0  0.00000000000E+00  0.00000000000E+00  0.45593999997E+02  0.45594000000E+02  0.51100000000E-03 0. -1.
         11   -1    0    0    0    0 -0.00000000000E+00 -0.00000000000E+00 -0.45593999997E+02  0.45594000000E+02  0.51100000000E-03 0.  1.
    9900012    2    1    2    0    0  0.17940862169E+02 -0.53456652186E+01  0.39155748045E+02  0.47787271009E+02  0.19999999838E+02 0.  0.
        -12    1    1    2    0    0 -0.17940862169E+02  0.53456652186E+01 -0.39155748045E+02  0.43400728991E+02  0.00000000000E+00 0.  1.
         11    1    3    3    0    0  0.10697681742E-01 -0.41162653265E+01  0.10561179597E+02  0.11335001960E+02  0.51100000000E-03 0. -1.
        -11    1    3    3    0    0  0.24775266666E+01  0.44232906755E+01  0.26256483984E+01  0.57094367985E+01  0.51100000000E-03 0.  1.
         12    1    3    3    0    0  0.15452637821E+02 -0.56526905676E+01  0.25968920049E+02  0.30742832251E+02  0.00000000000E+00 0. -1.
</event>
<event>
 7    1  0.5022032E-011  0.4778728E+02  0.7816164E-02  0.1312668E+00
        -11   -1    0    0    0    0  0.00000000000E+00  0.00000000000E+00  0.45593999997E+02  0.45594000000E+02  0.51100000000E-03 0. -1.
         11   -1    0    0    0    0 -0.00000000000E+00 -0.00000000000E+00 -0.45593999997E+02  0.45594000000E+02  0.51100000000E-03 0.  1.
    9900012    2    1    2    0    0 -0.33339240275E+02  0.19805419555E+02 -0.19490081204E+02  0.47787275914E+02  0.20000022202E+02 0.  0.
         12    1    1    2    0    0  0.33339240275E+02 -0.19805419555E+02  0.19490081204E+02  0.43400724086E+02  0.00000000000E+00 0. -1.
         11    1    3    3    0    0 -0.83296644815E+01  0.59904031164E+01 -0.26708088406E+01  0.10601955480E+02  0.51100000000E-03 0. -1.
        -11    1    3    3    0    0 -0.25741225066E+02  0.78550611267E+01 -0.11916161667E+02  0.29433103172E+02  0.51100000000E-03 0.  1.
         12    1    3    3    0    0  0.73164927237E+00  0.59599553117E+01 -0.49031106967E+01  0.77522172621E+01  0.00000000000E+00 0. -1.
</event>
<event>
 7    1  0.5022032E-011  0.4778727E+02  0.7816164E-02  0.1312668E+00
        -11   -1    0    0    0    0  0.00000000000E+00  0.00000000000E+00  0.45593999997E+02  0.45594000000E+02  0.51100000000E-03 0. -1.
         11   -1    0    0    0    0 -0.00000000000E+00 -0.00000000000E+00 -0.45593999997E+02  0.45594000000E+02  0.51100000000E-03 0.  1.
    9900012    2    1    2    0    0  0.72416110752E+01 -0.32650538953E+02  0.27660884761E+02  0.47787272234E+02  0.20000005423E+02 0.  0.
        -12    1    1    2    0    0 -0.72416110752E+01  0.32650538953E+02 -0.27660884761E+02  0.43400727766E+02  0.00000000000E+00 0.  1.
         11    1    3    3    0    0 -0.10134879219E+01 -0.11485624554E+02  0.11255810066E+02  0.16113348183E+02  0.51100000000E-03 0.  1.
        -11    1    3    3    0    0  0.16093703473E+01 -0.14663006078E+02  0.16814138682E+02  0.22367589947E+02  0.51100000000E-03 0. -1.
        -12    1    3    3    0    0  0.66457286498E+01 -0.65019083212E+01 -0.40906398742E+00  0.93063341037E+01  0.00000000000E+00 0.  1.
</event>
<event>
 7    1  0.5022032E-011  0.4778727E+02  0.7816164E-02  0.1312668E+00
        -11   -1    0    0    0    0  0.00000000000E+00  0.00000000000E+00  0.45593999997E+02  0.45594000000E+02  0.51100000000E-03 0.  1.
         11   -1    0    0    0    0 -0.00000000000E+00 -0.00000000000E+00 -0.45593999997E+02  0.45594000000E+02  0.51100000000E-03 0. -1.
    9900012    2    1    2    0    0 -0.16180322609E+02  0.35916110076E+02 -0.18216837694E+02  0.47787274450E+02  0.20000015526E+02 0.  0.
         12    1    1    2    0    0  0.16180322609E+02 -0.35916110076E+02  0.18216837694E+02  0.43400725550E+02  0.00000000000E+00 0. -1.
         11    1    3    3    0    0 -0.60343976861E+00 -0.29451219271E-01  0.24261832416E+01  0.25002744472E+01  0.51100000000E-03 0. -1.
        -11    1    3    3    0    0 -0.22205769756E+01  0.12407244328E+02 -0.29249941911E+01  0.12939330168E+02  0.51100000000E-03 0.  1.
        -12    1    3    3    0    0 -0.13356305865E+02  0.23538316967E+02 -0.17718026745E+02  0.32347669834E+02  0.00000000000E+00 0.  1.
</event>
<event>
 7    1  0.5022032E-011  0.4778727E+02  0.7816164E-02  0.1312668E+00
        -11   -1    0    0    0    0  0.00000000000E+00  0.00000000000E+00  0.45593999997E+02  0.45594000000E+02  0.51100000000E-03 0. -1.
         11   -1    0    0    0    0 -0.00000000000E+00 -0.00000000000E+00 -0.45593999997E+02  0.45594000000E+02  0.51100000000E-03 0.  1.
    9900012    2    1    2    0    0 -0.15141405013E+02 -0.29206311172E+02 -0.28308174270E+02  0.47787268571E+02  0.19999988722E+02 0.  0.
         12    1    1    2    0    0  0.15141405013E+02  0.29206311172E+02  0.28308174270E+02  0.43400731429E+02  0.00000000000E+00 0. -1.
         11    1    3    3    0    0  0.25917800923E+00 -0.16181259295E+02 -0.10877179726E+02  0.19499060610E+02  0.51100000000E-03 0. -1.
        -11    1    3    3    0    0 -0.55297089297E+01 -0.87707075306E+01 -0.40657689232E+01  0.11137031410E+02  0.51100000000E-03 0.  1.
        -12    1    3    3    0    0 -0.98708740930E+01 -0.42543443467E+01 -0.13365225621E+02  0.17151176551E+02  0.00000000000E+00 0.  1.
</event>
<event>
 7    1  0.5022032E-011  0.4778728E+02  0.7816164E-02  0.1312668E+00
        -11   -1    0    0    0    0  0.00000000000E+00  0.00000000000E+00  0.45593999997E+02  0.45594000000E+02  0.51100000000E-03 0. -1.
         11   -1    0    0    0    0 -0.00000000000E+00 -0.00000000000E+00 -0.45593999997E+02  0.45594000000E+02  0.51100000000E-03 0.  1.
    9900012    2    1    2    0    0 -0.18149596233E+02  0.12367592753E+02 -0.37433375650E+02  0.47787276429E+02  0.20000024549E+02 0.  0.
         12    1    1    2    0    0  0.18149596233E+02 -0.12367592753E+02  0.37433375650E+02  0.43400723571E+02  0.00000000000E+00 0. -1.
         11    1    3    3    0    0  0.43125052275E+00 -0.14295692829E+01 -0.11196894584E+02  0.11296021155E+02  0.51100000000E-03 0. -1.
        -11    1    3    3    0    0 -0.10507568193E+02  0.39977793263E+01 -0.18424935137E+02  0.21584009450E+02  0.51100000000E-03 0.  1.
         12    1    3    3    0    0 -0.80732785634E+01  0.97993827091E+01 -0.78115459287E+01  0.14907245823E+02  0.00000000000E+00 0. -1.
</event>
<event>
 7    1  0.5022032E-011  0.4778727E+02  0.7816164E-02  0.1312668E+00
        -11   -1    0    0    0    0  0.00000000000E+00  0.00000000000E+00  0.45593999997E+02  0.45594000000E+02  0.51100000000E-03 0. -1.
         11   -1    0    0    0    0 -0.00000000000E+00 -0.00000000000E+00 -0.45593999997E+02  0.45594000000E+02  0.51100000000E-03 0.  1.
    9900012    2    1    2    0    0  0.32159456209E+02  0.24208386200E+02  0.16227955783E+02  0.47787272644E+02  0.20000007294E+02 0.  0.
        -12    1    1    2    0    0 -0.32159456209E+02 -0.24208386200E+02 -0.16227955783E+02  0.43400727356E+02  0.00000000000E+00 0.  1.
         11    1    3    3    0    0  0.21431136696E+01 -0.83895871926E+00  0.58985126343E+01  0.63316063911E+01  0.51100000000E-03 0. -1.
        -11    1    3    3    0    0  0.53514464696E+01  0.30533617313E+01 -0.15246546241E+01  0.63470913940E+01  0.51100000000E-03 0.  1.
         12    1    3    3    0    0  0.24664896070E+02  0.21993983188E+02  0.11854097773E+02  0.35108574859E+02  0.00000000000E+00 0. -1.
</event>
<event>
 7    1  0.5022032E-011  0.4778727E+02  0.7816164E-02  0.1312668E+00
        -11   -1    0    0    0    0  0.00000000000E+00  0.00000000000E+00  0.45593999997E+02  0.45594000000E+02  0.51100000000E-03 0. -1.
         11   -1    0    0    0    0 -0.00000000000E+00 -0.00000000000E+00 -0.45593999997E+02  0.45594000000E+02  0.51100000000E-03 0.  1.
    9900012    2    1    2    0    0 -0.13944626134E+01  0.10882918455E+02 -0.41990959999E+02  0.47787272337E+02  0.20000005893E+02 0.  0.
         12    1    1    2    0    0  0.13944626134E+01 -0.10882918455E+02  0.41990959999E+02  0.43400727663E+02  0.00000000000E+00 0. -1.
         11    1    3    3    0    0  0.14111358146E+01  0.43095213161E+01 -0.20653120062E+02  0.21145085642E+02  0.51100000000E-03 0. -1.
        -11    1    3    3    0    0 -0.42930432370E+01  0.29412392118E+01 -0.22047750033E+02  0.22653573451E+02  0.51100000000E-03 0.  1.
         12    1    3    3    0    0  0.14874448090E+01  0.36321579270E+01  0.70991009589E+00  0.39886132440E+01  0.00000000000E+00 0. -1.
</event>
<event>
 7    1  0.5022032E-011  0.4778727E+02  0.7816164E-02  0.1312668E+00
        -11   -1    0    0    0    0  0.00000000000E+00  0.00000000000E+00  0.45593999997E+02  0.45594000000E+02  0.51100000000E-03 0. -1.
         11   -1    0    0    0    0 -0.00000000000E+00 -0.00000000000E+00 -0.45593999997E+02  0.45594000000E+02  0.51100000000E-03 0.  1.
    9900012    2    1    2    0    0 -0.25088696491E+02  0.13508460953E+01  0.35388644980E+02  0.47787266477E+02  0.19999979175E+02 0.  0.
        -12    1    1    2    0    0  0.25088696491E+02 -0.13508460953E+01 -0.35388644980E+02  0.43400733523E+02  0.00000000000E+00 0.  1.
         11    1    3    3    0    0 -0.14998784036E+02 -0.32383028820E+01  0.13035530343E+02  0.20133931054E+02  0.51100000000E-03 0. -1.
        -11    1    3    3    0    0 -0.84923251756E+01 -0.25842738454E+01  0.13344292855E+02  0.16027108606E+02  0.51100000000E-03 0.  1.
        -12    1    3    3    0    0 -0.15975872801E+01  0.71734228227E+01  0.90088217811E+01  0.11626226817E+02  0.00000000000E+00 0.  1.
</event>
<event>
 7    1  0.5022032E-011  0.4778727E+02  0.7816164E-02  0.1312668E+00
        -11   -1    0    0    0    0  0.00000000000E+00  0.00000000000E+00  0.45593999997E+02  0.45594000000E+02  0.51100000000E-03 0. -1.
         11   -1    0    0    0    0 -0.00000000000E+00 -0.00000000000E+00 -0.45593999997E+02  0.45594000000E+02  0.51100000000E-03 0.  1.
    9900012    2    1    2    0    0  0.11750247644E+02 -0.22442987883E+02 -0.35240138110E+02  0.47787270066E+02  0.19999995539E+02 0.  0.
         12    1    1    2    0    0 -0.11750247644E+02  0.22442987883E+02  0.35240138110E+02  0.43400729934E+02  0.00000000000E+00 0. -1.
         11    1    3    3    0    0  0.12897326569E+00 -0.78702398704E+01 -0.26533780900E+01  0.83064869392E+01  0.51100000000E-03 0.  1.
        -11    1    3    3    0    0  0.24611246092E+01 -0.12672811924E+02 -0.17963940320E+02  0.22121492908E+02  0.51100000000E-03 0. -1.
         12    1    3    3    0    0  0.91601497694E+01 -0.18999360890E+01 -0.14622819699E+02  0.17359290219E+02  0.00000000000E+00 0. -1.
</event>
<event>
 7    1  0.5022032E-011  0.4778727E+02  0.7816164E-02  0.1312668E+00
        -11   -1    0    0    0    0  0.00000000000E+00  0.00000000000E+00  0.45593999997E+02  0.45594000000E+02  0.51100000000E-03 0. -1.
         11   -1    0    0    0    0 -0.00000000000E+00 -0.00000000000E+00 -0.45593999997E+02  0.45594000000E+02  0.51100000000E-03 0.  1.
    9900012    2    1    2    0    0  0.87905414363E+01 -0.31932045730E+02  0.28048071339E+02  0.47787268796E+02  0.19999989748E+02 0.  0.
        -12    1    1    2    0    0 -0.87905414363E+01  0.31932045730E+02 -0.28048071339E+02  0.43400731204E+02  0.00000000000E+00 0.  1.
         11    1    3    3    0    0  0.31145064096E+01 -0.41083177363E+01 -0.14874124082E+01  0.53657078500E+01  0.51100000000E-03 0. -1.
        -11    1    3    3    0    0 -0.32593991024E+01 -0.56109793683E+01  0.69241454092E+01  0.94894974519E+01  0.51100000000E-03 0.  1.
         12    1    3    3    0    0  0.89354341291E+01 -0.22212748625E+02  0.22611338338E+02  0.32932063494E+02  0.00000000000E+00 0. -1.
</event>
<event>
 7    1  0.5022032E-011  0.4778727E+02  0.7816164E-02  0.1312668E+00
        -11   -1    0    0    0    0  0.00000000000E+00  0.00000000000E+00  0.45593999997E+02  0.45594000000E+02  0.51100000000E-03 0. -1.
         11   -1    0    0    0    0 -0.00000000000E+00 -0.00000000000E+00 -0.45593999997E+02  0.45594000000E+02  0.51100000000E-03 0.  1.
    9900012    2    1    2    0    0  0.31715189101E+02  0.17760036216E+01  0.29573903349E+02  0.47787272266E+02  0.20000005569E+02 0.  0.
        -12    1    1    2    0    0 -0.31715189101E+02 -0.17760036216E+01 -0.29573903349E+02  0.43400727734E+02  0.00000000000E+00 0.  1.
         11    1    3    3    0    0  0.51947099492E+01 -0.59360997426E+00  0.83166042089E+01  0.98236088117E+01  0.51100000000E-03 0. -1.
        -11    1    3    3    0    0  0.15992557985E+02 -0.47424746019E+01  0.51686455580E+01  0.17463329391E+02  0.51100000000E-03 0.  1.
        -12    1    3    3    0    0  0.10527921167E+02  0.71120881977E+01  0.16088653582E+02  0.20500334063E+02  0.00000000000E+00 0.  1.
</event>
<event>
 7    1  0.5022032E-011  0.4778727E+02  0.7816164E-02  0.1312668E+00
        -11   -1    0    0    0    0  0.00000000000E+00  0.00000000000E+00  0.45593999997E+02  0.45594000000E+02  0.51100000000E-03 0.  1.
         11   -1    0    0    0    0 -0.00000000000E+00 -0.00000000000E+00 -0.45593999997E+02  0.45594000000E+02  0.51100000000E-03 0. -1.
    9900012    2    1    2    0    0  0.17001428592E+02  0.39647036721E+02 -0.47631072169E+01  0.47787270913E+02  0.19999999402E+02 0.  0.
        -12    1    1    2    0    0 -0.17001428592E+02 -0.39647036721E+02  0.47631072169E+01  0.43400729087E+02  0.00000000000E+00 0.  1.
         11    1    3    3    0    0  0.98168718110E+01  0.34029335174E+02 -0.89094139337E+00  0.35428242990E+02  0.51100000000E-03 0. -1.
        -11    1    3    3    0    0 -0.14609362644E+01  0.14331293705E+01 -0.12672770437E+01  0.24071115321E+01  0.51100000000E-03 0.  1.
         12    1    3    3    0    0  0.86454930454E+01  0.41845721762E+01 -0.26048887798E+01  0.99519163909E+01  0.00000000000E+00 0. -1.
</event>
<event>
 7    1  0.5022032E-011  0.4778727E+02  0.7816164E-02  0.1312668E+00
        -11   -1    0    0    0    0  0.00000000000E+00  0.00000000000E+00  0.45593999997E+02  0.45594000000E+02  0.51100000000E-03 0. -1.
         11   -1    0    0    0    0 -0.00000000000E+00 -0.00000000000E+00 -0.45593999997E+02  0.45594000000E+02  0.51100000000E-03 0.  1.
    9900012    2    1    2    0    0 -0.53249516331E+01 -0.18633386134E+02 -0.38833813421E+02  0.47787271279E+02  0.20000001070E+02 0.  0.
         12    1    1    2    0    0  0.53249516331E+01  0.18633386134E+02  0.38833813421E+02  0.43400728721E+02  0.00000000000E+00 0. -1.
         11    1    3    3    0    0  0.15475531114E+00  0.14473111977E+01 -0.95854546934E+01  0.96953391302E+01  0.51100000000E-03 0. -1.
        -11    1    3    3    0    0 -0.35701978381E+01 -0.76823888705E+01 -0.22067211996E+02  0.23637412229E+02  0.51100000000E-03 0.  1.
        -12    1    3    3    0    0 -0.19095091062E+01 -0.12398308461E+02 -0.71811467313E+01  0.14454519919E+02  0.00000000000E+00 0.  1.
</event>
<event>
 7    1  0.5022032E-011  0.4778727E+02  0.7816164E-02  0.1312668E+00
        -11   -1    0    0    0    0  0.00000000000E+00  0.00000000000E+00  0.45593999997E+02  0.45594000000E+02  0.51100000000E-03 0. -1.
         11   -1    0    0    0    0 -0.00000000000E+00 -0.00000000000E+00 -0.45593999997E+02  0.45594000000E+02  0.51100000000E-03 0.  1.
    9900012    2    1    2    0    0  0.19579206524E+02  0.36698858955E+02  0.12388372027E+02  0.47787270303E+02  0.19999996620E+02 0.  0.
        -12    1    1    2    0    0 -0.19579206524E+02 -0.36698858955E+02 -0.12388372027E+02  0.43400729697E+02  0.00000000000E+00 0.  1.
         11    1    3    3    0    0  0.12140792864E+02  0.25316390438E+02  0.92608956714E+01  0.29564889059E+02  0.51100000000E-03 0. -1.
        -11    1    3    3    0    0  0.89306924828E+01  0.10529328242E+02  0.58562566592E+01  0.14997325220E+02  0.51100000000E-03 0.  1.
        -12    1    3    3    0    0 -0.14922788225E+01  0.85314027570E+00 -0.27287803033E+01  0.32250560240E+01  0.00000000000E+00 0.  1.
</event>
<event>
 7    1  0.5022032E-011  0.4778730E+02  0.7816164E-02  0.1312668E+00
        -11   -1    0    0    0    0  0.00000000000E+00  0.00000000000E+00  0.45593999997E+02  0.45594000000E+02  0.51100000000E-03 0. -1.
         11   -1    0    0    0    0 -0.00000000000E+00 -0.00000000000E+00 -0.45593999997E+02  0.45594000000E+02  0.51100000000E-03 0.  1.
    9900012    2    1    2    0    0 -0.15881953843E+02 -0.28263053795E+02 -0.28854533225E+02  0.47787300060E+02  0.20000132292E+02 0.  0.
         12    1    1    2    0    0  0.15881953843E+02  0.28263053795E+02  0.28854533225E+02  0.43400699940E+02  0.00000000000E+00 0. -1.
         11    1    3    3    0    0  0.23665422696E+01 -0.58978041051E+01 -0.56687760650E+01  0.85158462829E+01  0.51100000000E-03 0. -1.
        -11    1    3    3    0    0 -0.55131916371E+01 -0.14645189151E+02 -0.17111128600E+02  0.23187659854E+02  0.51100000000E-03 0.  1.
         12    1    3    3    0    0 -0.12735304475E+02 -0.77200605389E+01 -0.60746285603E+01  0.16083793923E+02  0.00000000000E+00 0. -1.
</event>
<event>
 7    1  0.5022032E-011  0.4778727E+02  0.7816164E-02  0.1312668E+00
        -11   -1    0    0    0    0  0.00000000000E+00  0.00000000000E+00  0.45593999997E+02  0.45594000000E+02  0.51100000000E-03 0. -1.
         11   -1    0    0    0    0 -0.00000000000E+00 -0.00000000000E+00 -0.45593999997E+02  0.45594000000E+02  0.51100000000E-03 0.  1.
    9900012    2    1    2    0    0  0.15073915661E+02 -0.17555082554E+02  0.36718111286E+02  0.47787267826E+02  0.19999985327E+02 0.  0.
        -12    1    1    2    0    0 -0.15073915661E+02  0.17555082554E+02 -0.36718111286E+02  0.43400732174E+02  0.00000000000E+00 0.  1.
         11    1    3    3    0    0  0.47201485657E+01 -0.70649786027E+01  0.21096088523E+01  0.87546658937E+01  0.51100000000E-03 0. -1.
        -11    1    3    3    0    0  0.36980578200E+01  0.39872844212E+00  0.25018858895E+01  0.44826386511E+01  0.51100000000E-03 0.  1.
        -12    1    3    3    0    0  0.66557092750E+01 -0.10888832393E+02  0.32106616544E+02  0.34549963281E+02  0.00000000000E+00 0.  1.
</event>
<event>
 7    1  0.5022032E-011  0.4778727E+02  0.7816164E-02  0.1312668E+00
        -11   -1    0    0    0    0  0.00000000000E+00  0.00000000000E+00  0.45593999997E+02  0.45594000000E+02  0.51100000000E-03 0. -1.
         11   -1    0    0    0    0 -0.00000000000E+00 -0.00000000000E+00 -0.45593999997E+02  0.45594000000E+02  0.51100000000E-03 0.  1.
    9900012    2    1    2    0    0  0.39892794545E+02 -0.13685567474E+02 -0.10241735301E+02  0.47787274710E+02  0.20000016713E+02 0.  0.
         12    1    1    2    0    0 -0.39892794545E+02  0.13685567474E+02  0.10241735301E+02  0.43400725290E+02  0.00000000000E+00 0. -1.
         11    1    3    3    0    0  0.25434194947E+01  0.17032816411E+01 -0.24852865049E+01  0.39429431073E+01  0.51100000000E-03 0. -1.
        -11    1    3    3    0    0  0.80234529812E+01 -0.28257748390E+00  0.38109558151E+01  0.88870148116E+01  0.51100000000E-03 0.  1.
        -12    1    3    3    0    0  0.29325922070E+02 -0.15106271631E+02 -0.11567404611E+02  0.34957316791E+02  0.00000000000E+00 0.  1.
</event>
<event>
 7    1  0.5022032E-011  0.4778727E+02  0.7816164E-02  0.1312668E+00
        -11   -1    0    0    0    0  0.00000000000E+00  0.00000000000E+00  0.45593999997E+02  0.45594000000E+02  0.51100000000E-03 0. -1.
         11   -1    0    0    0    0 -0.00000000000E+00 -0.00000000000E+00 -0.45593999997E+02  0.45594000000E+02  0.51100000000E-03 0.  1.
    9900012    2    1    2    0    0  0.42260557023E+00 -0.40205722977E+02 -0.16338447347E+02  0.47787267088E+02  0.19999981961E+02 0.  0.
        -12    1    1    2    0    0 -0.42260557023E+00  0.40205722977E+02  0.16338447347E+02  0.43400732912E+02  0.00000000000E+00 0.  1.
         11    1    3    3    0    0 -0.34038596317E+01 -0.10027461326E+02  0.23542656321E+01  0.10847986355E+02  0.51100000000E-03 0.  1.
        -11    1    3    3    0    0 -0.39133452104E-01 -0.21121469228E+02 -0.85026462720E+01  0.22768684364E+02  0.51100000000E-03 0. -1.
        -12    1    3    3    0    0  0.38655986541E+01 -0.90567924230E+01 -0.10190066707E+02  0.14170596368E+02  0.00000000000E+00 0.  1.
</event>
<event>
 7    1  0.5022032E-011  0.4778728E+02  0.7816164E-02  0.1312668E+00
        -11   -1    0    0    0    0  0.00000000000E+00  0.00000000000E+00  0.45593999997E+02  0.45594000000E+02  0.51100000000E-03 0. -1.
         11   -1    0    0    0    0 -0.00000000000E+00 -0.00000000000E+00 -0.45593999997E+02  0.45594000000E+02  0.51100000000E-03 0.  1.
    9900012    2    1    2    0    0 -0.14652515852E+02 -0.11157001766E+02 -0.39299461316E+02  0.47787279166E+02  0.20000037031E+02 0.  0.
         12    1    1    2    0    0  0.14652515852E+02  0.11157001766E+02  0.39299461316E+02  0.43400720834E+02  0.00000000000E+00 0. -1.
         11    1    3    3    0    0 -0.60560123777E+01 -0.33470325467E+00 -0.85392508901E+01  0.10474068847E+02  0.51100000000E-03 0. -1.
        -11    1    3    3    0    0 -0.27191876155E+01 -0.61346104276E+01 -0.12059208444E+01  0.68177468221E+01  0.51100000000E-03 0.  1.
         12    1    3    3    0    0 -0.58773158586E+01 -0.46876880836E+01 -0.29554289581E+02  0.30495463497E+02  0.00000000000E+00 0. -1.
</event>
<event>
 7    1  0.5022032E-011  0.4778727E+02  0.7816164E-02  0.1312668E+00
        -11   -1    0    0    0    0  0.00000000000E+00  0.00000000000E+00  0.45593999997E+02  0.45594000000E+02  0.51100000000E-03 0. -1.
         11   -1    0    0    0    0 -0.00000000000E+00 -0.00000000000E+00 -0.45593999997E+02  0.45594000000E+02  0.51100000000E-03 0.  1.
    9900012    2    1    2    0    0 -0.18001790675E+02  0.20720054632E+02  0.33619010660E+02  0.47787274093E+02  0.20000013902E+02 0.  0.
        -12    1    1    2    0    0  0.18001790675E+02 -0.20720054632E+02 -0.33619010660E+02  0.43400725907E+02  0.00000000000E+00 0.  1.
         11    1    3    3    0    0 -0.16146417787E+01  0.27832494232E+01  0.26590052224E+01  0.41741890780E+01  0.51100000000E-03 0. -1.
        -11    1    3    3    0    0 -0.13019224274E+02  0.10386779131E+02  0.66458575346E+01  0.17931893488E+02  0.51100000000E-03 0.  1.
        -12    1    3    3    0    0 -0.33679246217E+01  0.75500260778E+01  0.24314147903E+02  0.25681191528E+02  0.00000000000E+00 0.  1.
</event>
<event>
 7    1  0.5022032E-011  0.4778727E+02  0.7816164E-02  0.1312668E+00
        -11   -1    0    0    0    0  0.00000000000E+00  0.00000000000E+00  0.45593999997E+02  0.45594000000E+02  0.51100000000E-03 0. -1.
         11   -1    0    0    0    0 -0.00000000000E+00 -0.00000000000E+00 -0.45593999997E+02  0.45594000000E+02  0.51100000000E-03 0.  1.
    9900012    2    1    2    0    0  0.12978291985E+02  0.32811066352E+02 -0.25270957859E+02  0.47787269025E+02  0.19999990793E+02 0.  0.
         12    1    1    2    0    0 -0.12978291985E+02 -0.32811066352E+02  0.25270957859E+02  0.43400730975E+02  0.00000000000E+00 0. -1.
         11    1    3    3    0    0  0.65532325440E+01  0.81818809415E+01 -0.14200421218E+02  0.17650495618E+02  0.51100000000E-03 0. -1.
        -11    1    3    3    0    0 -0.21637608470E+01  0.10030127089E+02 -0.77923405514E+01  0.12884326989E+02  0.51100000000E-03 0.  1.
        -12    1    3    3    0    0  0.85888202878E+01  0.14599058322E+02 -0.32781960897E+01  0.17252446419E+02  0.00000000000E+00 0.  1.
</event>
<event>
 7    1  0.5022032E-011  0.4778727E+02  0.7816164E-02  0.1312668E+00
        -11   -1    0    0    0    0  0.00000000000E+00  0.00000000000E+00  0.45593999997E+02  0.45594000000E+02  0.51100000000E-03 0.  1.
         11   -1    0    0    0    0 -0.00000000000E+00 -0.00000000000E+00 -0.45593999997E+02  0.45594000000E+02  0.51100000000E-03 0. -1.
    9900012    2    1    2    0    0  0.63349648473E+01  0.38835658544E+02  0.18310735606E+02  0.47787271981E+02  0.20000004269E+02 0.  0.
        -12    1    1    2    0    0 -0.63349648473E+01 -0.38835658544E+02 -0.18310735606E+02  0.43400728019E+02  0.00000000000E+00 0.  1.
         11    1    3    3    0    0  0.51485542726E+01  0.13467120204E+02  0.43628493708E+01  0.15063379188E+02  0.51100000000E-03 0. -1.
        -11    1    3    3    0    0  0.55443507469E+01  0.22860316787E+01  0.40316242195E+01  0.72263241104E+01  0.51100000000E-03 0.  1.
        -12    1    3    3    0    0 -0.43579401722E+01  0.23082506662E+02  0.99162620160E+01  0.25497568682E+02  0.00000000000E+00 0.  1.
</event>
<event>
 7    1  0.5022032E-011  0.4778727E+02  0.7816164E-02  0.1312668E+00
        -11   -1    0    0    0    0  0.00000000000E+00  0.00000000000E+00  0.45593999997E+02  0.45594000000E+02  0.51100000000E-03 0. -1.
         11   -1    0    0    0    0 -0.00000000000E+00 -0.00000000000E+00 -0.45593999997E+02  0.45594000000E+02  0.51100000000E-03 0.  1.
    9900012    2    1    2    0    0  0.28064501588E+02 -0.63615370591E+01  0.32489045821E+02  0.47787268422E+02  0.19999988043E+02 0.  0.
        -12    1    1    2    0    0 -0.28064501588E+02  0.63615370591E+01 -0.32489045821E+02  0.43400731578E+02  0.00000000000E+00 0.  1.
         11    1    3    3    0    0  0.14105530773E+02 -0.20069427056E+01  0.17649396385E+02  0.22682482457E+02  0.51100000000E-03 0. -1.
        -11    1    3    3    0    0  0.20337008791E+01  0.71664804555E+00  0.11530222671E+02  0.11730113332E+02  0.51100000000E-03 0.  1.
        -12    1    3    3    0    0  0.11925269936E+02 -0.50712423990E+01  0.33094267656E+01  0.13374672633E+02  0.00000000000E+00 0.  1.
</event>
<event>
 7    1  0.8481198E-011  0.4778728E+02  0.7816164E-02  0.1312668E+00
        -11   -1    0    0    0    0  0.00000000000E+00  0.00000000000E+00  0.45593999997E+02  0.45594000000E+02  0.51100000000E-03 0. -1.
         11   -1    0    0    0    0 -0.00000000000E+00 -0.00000000000E+00 -0.45593999997E+02  0.45594000000E+02  0.51100000000E-03 0.  1.
    9900012    2    1    2    0    0 -0.66176476872E+00 -0.37528386527E+02 -0.21790016037E+02  0.47787279651E+02  0.20000039242E+02 0.  0.
         12    1    1    2    0    0  0.66176476872E+00  0.37528386527E+02  0.21790016037E+02  0.43400720349E+02  0.00000000000E+00 0. -1.
         11    1    3    3    0    0  0.77975218062E+00 -0.15291879865E+00  0.16635634499E+01  0.18435946504E+01  0.51100000000E-03 0. -1.
        -11    1    3    3    0    0 -0.10395276492E+01 -0.19744303682E+02 -0.49498225111E+01  0.20381827415E+02  0.51100000000E-03 0.  1.
        -12    1    3    3    0    0 -0.40198930015E+00 -0.17631164046E+02 -0.18503756976E+02  0.25561857586E+02  0.00000000000E+00 0.  1.
</event>
<event>
 7    1  0.5022032E-011  0.4778727E+02  0.7816164E-02  0.1312668E+00
        -11   -1    0    0    0    0  0.00000000000E+00  0.00000000000E+00  0.45593999997E+02  0.45594000000E+02  0.51100000000E-03 0. -1.
         11   -1    0    0    0    0 -0.00000000000E+00 -0.00000000000E+00 -0.45593999997E+02  0.45594000000E+02  0.51100000000E-03 0.  1.
    9900012    2    1    2    0    0 -0.38715382905E+01 -0.11667159089E+02  0.41623454097E+02  0.47787270272E+02  0.19999996479E+02 0.  0.
        -12    1    1    2    0    0  0.38715382905E+01  0.11667159089E+02 -0.41623454097E+02  0.43400729728E+02  0.00000000000E+00 0.  1.
         11    1    3    3    0    0  0.48395875668E+01 -0.15663253239E+01  0.57179890619E+01  0.76531289033E+01  0.51100000000E-03 0. -1.
        -11    1    3    3    0    0  0.24898595120E+01 -0.45370137756E+01  0.76694987820E+01  0.92523027521E+01  0.51100000000E-03 0.  1.
         12    1    3    3    0    0 -0.11200985369E+02 -0.55638199897E+01  0.28235966253E+02  0.30881838617E+02  0.00000000000E+00 0. -1.
</event>
<event>
 7    1  0.5022032E-011  0.4778727E+02  0.7816164E-02  0.1312668E+00
        -11   -1    0    0    0    0  0.00000000000E+00  0.00000000000E+00  0.45593999997E+02  0.45594000000E+02  0.51100000000E-03 0. -1.
         11   -1    0    0    0    0 -0.00000000000E+00 -0.00000000000E+00 -0.45593999997E+02  0.45594000000E+02  0.51100000000E-03 0.  1.
    9900012    2    1    2    0    0 -0.25586587420E+02  0.10461757727E+02  0.33458948964E+02  0.47787273090E+02  0.20000009327E+02 0.  0.
        -12    1    1    2    0    0  0.25586587420E+02 -0.10461757727E+02 -0.33458948964E+02  0.43400726910E+02  0.00000000000E+00 0.  1.
         11    1    3    3    0    0 -0.13114089759E+02  0.33820909508E+01  0.14343855805E+02  0.19727242307E+02  0.51100000000E-03 0. -1.
        -11    1    3    3    0    0 -0.61162148135E+01 -0.15771021428E+01  0.21289909582E+00  0.63198624273E+01  0.51100000000E-03 0.  1.
         12    1    3    3    0    0 -0.63562828473E+01  0.86567689193E+01  0.18902194063E+02  0.21740168356E+02  0.00000000000E+00 0. -1.
</event>
<event>
 7    1  0.5248985E-011  0.4778727E+02  0.7816164E-02  0.1312668E+00
        -11   -1    0    0    0    0  0.00000000000E+00  0.00000000000E+00  0.45593999997E+02  0.45594000000E+02  0.51100000000E-03 0. -1.
         11   -1    0    0    0    0 -0.00000000000E+00 -0.00000000000E+00 -0.45593999997E+02  0.45594000000E+02  0.51100000000E-03 0.  1.
    9900012    2    1    2    0    0 -0.16768301672E+02  0.25218373932E+02 -0.31088276746E+02  0.47787271022E+02  0.19999999900E+02 0.  0.
         12    1    1    2    0    0  0.16768301672E+02 -0.25218373932E+02  0.31088276746E+02  0.43400728978E+02  0.00000000000E+00 0. -1.
         11    1    3    3    0    0  0.15055318743E+01  0.24375885631E+01 -0.62275296571E+01  0.68549682799E+01  0.51100000000E-03 0. -1.
        -11    1    3    3    0    0 -0.12730901759E+01 -0.20344117023E+01 -0.13456482338E+01  0.27514285382E+01  0.51100000000E-03 0.  1.
        -12    1    3    3    0    0 -0.17000743371E+02  0.24815197072E+02 -0.23515098855E+02  0.38180874204E+02  0.00000000000E+00 0.  1.
</event>
<event>
 7    1  0.5022032E-011  0.4778729E+02  0.7816164E-02  0.1312668E+00
        -11   -1    0    0    0    0  0.00000000000E+00  0.00000000000E+00  0.45593999997E+02  0.45594000000E+02  0.51100000000E-03 0. -1.
         11   -1    0    0    0    0 -0.00000000000E+00 -0.00000000000E+00 -0.45593999997E+02  0.45594000000E+02  0.51100000000E-03 0.  1.
    9900012    2    1    2    0    0 -0.29699281341E+01 -0.25517587580E+02  0.34980769724E+02  0.47787285726E+02  0.20000066938E+02 0.  0.
        -12    1    1    2    0    0  0.29699281341E+01  0.25517587580E+02 -0.34980769724E+02  0.43400714274E+02  0.00000000000E+00 0.  1.
         11    1    3    3    0    0 -0.77384173985E+01 -0.13947295747E+02  0.19873829960E+02  0.25482921341E+02  0.51100000000E-03 0.  1.
        -11    1    3    3    0    0 -0.25086562095E+01 -0.25674561913E+01  0.78758915242E+01  0.86553367834E+01  0.51100000000E-03 0. -1.
        -12    1    3    3    0    0  0.72771454740E+01 -0.90028356413E+01  0.72310482395E+01  0.13649027602E+02  0.00000000000E+00 0.  1.
</event>
<event>
 7    1  0.5022032E-011  0.4778727E+02  0.7816164E-02  0.1312668E+00
        -11   -1    0    0    0    0  0.00000000000E+00  0.00000000000E+00  0.45593999997E+02  0.45594000000E+02  0.51100000000E-03 0. -1.
         11   -1    0    0    0    0 -0.00000000000E+00 -0.00000000000E+00 -0.45593999997E+02  0.45594000000E+02  0.51100000000E-03 0.  1.
    9900012    2    1    2    0    0 -0.41905429507E+02  0.91822618598E+01  0.65760312519E+01  0.47787272563E+02  0.20000006925E+02 0.  0.
         12    1    1    2    0    0  0.41905429507E+02 -0.91822618598E+01 -0.65760312519E+01  0.43400727437E+02  0.00000000000E+00 0. -1.
         11    1    3    3    0    0 -0.17452205745E+02  0.15552182194E+01 -0.12223450380E+01  0.17563949349E+02  0.51100000000E-03 0. -1.
        -11    1    3    3    0    0 -0.25053838389E+02  0.70825133691E+01  0.40021413846E+01  0.26341487231E+02  0.51100000000E-03 0.  1.
         12    1    3    3    0    0  0.60061462669E+00  0.54453027132E+00  0.37962349053E+01  0.38818359835E+01  0.00000000000E+00 0. -1.
</event>
<event>
 7    1  0.5022032E-011  0.4778727E+02  0.7816164E-02  0.1312668E+00
        -11   -1    0    0    0    0  0.00000000000E+00  0.00000000000E+00  0.45593999997E+02  0.45594000000E+02  0.51100000000E-03 0. -1.
         11   -1    0    0    0    0 -0.00000000000E+00 -0.00000000000E+00 -0.45593999997E+02  0.45594000000E+02  0.51100000000E-03 0.  1.
    9900012    2    1    2    0    0  0.65996186342E+01 -0.31971378782E+02 -0.28598937333E+02  0.47787271390E+02  0.20000001574E+02 0.  0.
         12    1    1    2    0    0 -0.65996186342E+01  0.31971378782E+02  0.28598937333E+02  0.43400728610E+02  0.00000000000E+00 0. -1.
         11    1    3    3    0    0 -0.73929209708E+00  0.13960612746E+01 -0.86429563669E+00  0.18007073877E+01  0.51100000000E-03 0. -1.
        -11    1    3    3    0    0  0.33467975885E+01 -0.16328513923E+02 -0.21936899638E+02  0.27550843672E+02  0.51100000000E-03 0.  1.
         12    1    3    3    0    0  0.39921131428E+01 -0.17038926133E+02 -0.57977420580E+01  0.18435720330E+02  0.00000000000E+00 0. -1.
</event>
<event>
 7    1  0.5022032E-011  0.4778727E+02  0.7816164E-02  0.1312668E+00
        -11   -1    0    0    0    0  0.00000000000E+00  0.00000000000E+00  0.45593999997E+02  0.45594000000E+02  0.51100000000E-03 0. -1.
         11   -1    0    0    0    0 -0.00000000000E+00 -0.00000000000E+00 -0.45593999997E+02  0.45594000000E+02  0.51100000000E-03 0.  1.
    9900012    2    1    2    0    0  0.35198082823E+02 -0.74015356002E+01  0.24288596482E+02  0.47787266335E+02  0.19999978527E+02 0.  0.
        -12    1    1    2    0    0 -0.35198082823E+02  0.74015356002E+01 -0.24288596482E+02  0.43400733665E+02  0.00000000000E+00 0.  1.
         11    1    3    3    0    0  0.60243547600E+01 -0.11190181406E+01  0.11726440514E+01  0.62386013021E+01  0.51100000000E-03 0. -1.
        -11    1    3    3    0    0  0.86975894766E-01 -0.47729161344E+01  0.63422097133E+01  0.79380046322E+01  0.51100000000E-03 0.  1.
        -12    1    3    3    0    0  0.29086752168E+02 -0.15096013253E+01  0.16773742717E+02  0.33610660401E+02  0.00000000000E+00 0.  1.
</event>
<event>
 7    1  0.5022032E-011  0.4778727E+02  0.7816164E-02  0.1312668E+00
        -11   -1    0    0    0    0  0.00000000000E+00  0.00000000000E+00  0.45593999997E+02  0.45594000000E+02  0.51100000000E-03 0. -1.
         11   -1    0    0    0    0 -0.00000000000E+00 -0.00000000000E+00 -0.45593999997E+02  0.45594000000E+02  0.51100000000E-03 0.  1.
    9900012    2    1    2    0    0  0.21136687310E+02 -0.17251353245E+02 -0.33752843744E+02  0.47787271895E+02  0.20000003876E+02 0.  0.
         12    1    1    2    0    0 -0.21136687310E+02  0.17251353245E+02  0.33752843744E+02  0.43400728105E+02  0.00000000000E+00 0. -1.
         11    1    3    3    0    0  0.10380351653E+02 -0.10250993512E+02 -0.20462218763E+02  0.25130399229E+02  0.51100000000E-03 0. -1.
        -11    1    3    3    0    0  0.11376205281E+02 -0.87329607836E+01 -0.67284030024E+01  0.15841529530E+02  0.51100000000E-03 0.  1.
         12    1    3    3    0    0 -0.61986962366E+00  0.17326010505E+01 -0.65622219789E+01  0.68153431353E+01  0.00000000000E+00 0. -1.
</event>
<event>
 7    1  0.5022032E-011  0.4778727E+02  0.7816164E-02  0.1312668E+00
        -11   -1    0    0    0    0  0.00000000000E+00  0.00000000000E+00  0.45593999997E+02  0.45594000000E+02  0.51100000000E-03 0. -1.
         11   -1    0    0    0    0 -0.00000000000E+00 -0.00000000000E+00 -0.45593999997E+02  0.45594000000E+02  0.51100000000E-03 0.  1.
    9900012    2    1    2    0    0 -0.10546280336E+02  0.12403039335E+02  0.40231375431E+02  0.47787274399E+02  0.20000015293E+02 0.  0.
        -12    1    1    2    0    0  0.10546280336E+02 -0.12403039335E+02 -0.40231375431E+02  0.43400725601E+02  0.00000000000E+00 0.  1.
         11    1    3    3    0    0  0.10963041361E+01  0.10817681795E+01  0.50057207636E+00  0.16194683751E+01  0.51100000000E-03 0. -1.
        -11    1    3    3    0    0 -0.55457963569E+01  0.19866025287E+01  0.32150363464E+02  0.32685598021E+02  0.51100000000E-03 0.  1.
        -12    1    3    3    0    0 -0.60967881149E+01  0.93346686271E+01  0.75804398903E+01  0.13482208003E+02  0.00000000000E+00 0.  1.
</event>
<event>
 7    1  0.5022032E-011  0.4778727E+02  0.7816164E-02  0.1312668E+00
        -11   -1    0    0    0    0  0.00000000000E+00  0.00000000000E+00  0.45593999997E+02  0.45594000000E+02  0.51100000000E-03 0. -1.
         11   -1    0    0    0    0 -0.00000000000E+00 -0.00000000000E+00 -0.45593999997E+02  0.45594000000E+02  0.51100000000E-03 0.  1.
    9900012    2    1    2    0    0  0.71852458214E+01 -0.25630462974E+02  0.34279365749E+02  0.47787270675E+02  0.19999998317E+02 0.  0.
        -12    1    1    2    0    0 -0.71852458214E+01  0.25630462974E+02 -0.34279365749E+02  0.43400729325E+02  0.00000000000E+00 0.  1.
         11    1    3    3    0    0  0.25978989196E+01 -0.17368485373E+02  0.24536937218E+02  0.30174072500E+02  0.51100000000E-03 0. -1.
        -11    1    3    3    0    0  0.32080457621E+01 -0.64565334912E+01  0.12259542657E+02  0.14222333450E+02  0.51100000000E-03 0.  1.
        -12    1    3    3    0    0  0.13793011397E+01 -0.18054441091E+01 -0.25171141255E+01  0.33908647254E+01  0.00000000000E+00 0.  1.
</event>
<event>
 7    1  0.5022032E-011  0.4778727E+02  0.7816164E-02  0.1312668E+00
        -11   -1    0    0    0    0  0.00000000000E+00  0.00000000000E+00  0.45593999997E+02  0.45594000000E+02  0.51100000000E-03 0.  1.
         11   -1    0    0    0    0 -0.00000000000E+00 -0.00000000000E+00 -0.45593999997E+02  0.45594000000E+02  0.51100000000E-03 0. -1.
    9900012    2    1    2    0    0 -0.43038425467E+02  0.51917085277E+01 -0.20888312102E+01  0.47787272818E+02  0.20000008087E+02 0.  0.
        -12    1    1    2    0    0  0.43038425467E+02 -0.51917085277E+01  0.20888312102E+01  0.43400727182E+02  0.00000000000E+00 0.  1.
         11    1    3    3    0    0 -0.12335242538E+02  0.40597956255E+01  0.76816347048E-01  0.12986379403E+02  0.51100000000E-03 0. -1.
        -11    1    3    3    0    0 -0.11567051372E+02  0.55783025609E+01  0.51514386455E+01  0.13836598472E+02  0.51100000000E-03 0.  1.
         12    1    3    3    0    0 -0.19136131557E+02 -0.44463896586E+01 -0.73170862027E+01  0.20964294943E+02  0.00000000000E+00 0. -1.
</event>
<event>
 7    1  0.5022032E-011  0.4778726E+02  0.7816164E-02  0.1312668E+00
        -11   -1    0    0    0    0  0.00000000000E+00  0.00000000000E+00  0.45593999997E+02  0.45594000000E+02  0.51100000000E-03 0.  1.
         11   -1    0    0    0    0 -0.00000000000E+00 -0.00000000000E+00 -0.45593999997E+02  0.45594000000E+02  0.51100000000E-03 0. -1.
    9900012    2    1    2    0    0  0.12466706759E+02 -0.41216579161E+02  0.54220504034E+01  0.47787264917E+02  0.19999972064E+02 0.  0.
        -12    1    1    2    0    0 -0.12466706759E+02  0.41216579161E+02 -0.54220504034E+01  0.43400735083E+02  0.00000000000E+00 0.  1.
         11    1    3    3    0    0  0.10974568266E+02 -0.19240004544E+02  0.47159214320E-01  0.22149969475E+02  0.51100000000E-03 0. -1.
        -11    1    3    3    0    0  0.27013760483E+01 -0.33753963234E+00 -0.12201010916E+01  0.29832888718E+01  0.51100000000E-03 0.  1.
         12    1    3    3    0    0 -0.12092375553E+01 -0.21639034985E+02  0.65949922807E+01  0.22654006571E+02  0.00000000000E+00 0. -1.
</event>
<event>
 7    1  0.5022032E-011  0.4778728E+02  0.7816164E-02  0.1312668E+00
        -11   -1    0    0    0    0  0.00000000000E+00  0.00000000000E+00  0.45593999997E+02  0.45594000000E+02  0.51100000000E-03 0. -1.
         11   -1    0    0    0    0 -0.00000000000E+00 -0.00000000000E+00 -0.45593999997E+02  0.45594000000E+02  0.51100000000E-03 0.  1.
    9900012    2    1    2    0    0 -0.18759572705E+02  0.64423700201E+01  0.38603072732E+02  0.47787275077E+02  0.20000018384E+02 0.  0.
        -12    1    1    2    0    0  0.18759572705E+02 -0.64423700201E+01 -0.38603072732E+02  0.43400724923E+02  0.00000000000E+00 0.  1.
         11    1    3    3    0    0  0.13245036877E+01  0.10044256764E+01  0.14807278387E+01  0.22261482771E+01  0.51100000000E-03 0. -1.
        -11    1    3    3    0    0  0.17943789970E+01  0.24986301781E+01  0.10130563270E+01  0.32387084053E+01  0.51100000000E-03 0.  1.
         12    1    3    3    0    0 -0.21878455390E+02  0.29393141656E+01  0.36109288566E+02  0.42322418394E+02  0.00000000000E+00 0. -1.
</event>
<event>
 7    1  0.5022032E-011  0.4778728E+02  0.7816164E-02  0.1312668E+00
        -11   -1    0    0    0    0  0.00000000000E+00  0.00000000000E+00  0.45593999997E+02  0.45594000000E+02  0.51100000000E-03 0. -1.
         11   -1    0    0    0    0 -0.00000000000E+00 -0.00000000000E+00 -0.45593999997E+02  0.45594000000E+02  0.51100000000E-03 0.  1.
    9900012    2    1    2    0    0 -0.34209978213E+02  0.26000258868E+02  0.61062721099E+01  0.47787278467E+02  0.20000033843E+02 0.  0.
        -12    1    1    2    0    0  0.34209978213E+02 -0.26000258868E+02 -0.61062721099E+01  0.43400721533E+02  0.00000000000E+00 0.  1.
         11    1    3    3    0    0 -0.86002578838E+01  0.10871843576E+02  0.42564517490E+01  0.14500993075E+02  0.51100000000E-03 0. -1.
        -11    1    3    3    0    0 -0.73058445204E+01  0.12860744421E+02  0.84095379482E+00  0.14814901780E+02  0.51100000000E-03 0.  1.
        -12    1    3    3    0    0 -0.18303875808E+02  0.22676708705E+01  0.10088665661E+01  0.18471383612E+02  0.00000000000E+00 0.  1.
</event>
<event>
 7    1  0.5022032E-011  0.4778727E+02  0.7816164E-02  0.1312668E+00
        -11   -1    0    0    0    0  0.00000000000E+00  0.00000000000E+00  0.45593999997E+02  0.45594000000E+02  0.51100000000E-03 0.  1.
         11   -1    0    0    0    0 -0.00000000000E+00 -0.00000000000E+00 -0.45593999997E+02  0.45594000000E+02  0.51100000000E-03 0. -1.
    9900012    2    1    2    0    0  0.19884153982E+02  0.35924823387E+02  0.14058850152E+02  0.47787265184E+02  0.19999973279E+02 0.  0.
        -12    1    1    2    0    0 -0.19884153982E+02 -0.35924823387E+02 -0.14058850152E+02  0.43400734816E+02  0.00000000000E+00 0.  1.
         11    1    3    3    0    0  0.46229715450E+01  0.26522441105E+02  0.11355286894E+02  0.29219074058E+02  0.51100000000E-03 0. -1.
        -11    1    3    3    0    0  0.20187448430E+01 -0.94346408574E-01  0.75077244835E+00  0.21558969169E+01  0.51100000000E-03 0.  1.
         12    1    3    3    0    0  0.13242437594E+02  0.94967286910E+01  0.19527908094E+01  0.16412294209E+02  0.00000000000E+00 0. -1.
</event>
<event>
 7    1  0.5022032E-011  0.4778727E+02  0.7816164E-02  0.1312668E+00
        -11   -1    0    0    0    0  0.00000000000E+00  0.00000000000E+00  0.45593999997E+02  0.45594000000E+02  0.51100000000E-03 0. -1.
         11   -1    0    0    0    0 -0.00000000000E+00 -0.00000000000E+00 -0.45593999997E+02  0.45594000000E+02  0.51100000000E-03 0.  1.
    9900012    2    1    2    0    0 -0.78691442793E+00  0.76156817291E+01  0.42720079331E+02  0.47787273963E+02  0.20000013306E+02 0.  0.
        -12    1    1    2    0    0  0.78691442793E+00 -0.76156817291E+01 -0.42720079331E+02  0.43400726037E+02  0.00000000000E+00 0.  1.
         11    1    3    3    0    0 -0.11373175920E+01  0.45891596955E-01  0.12808807078E+02  0.12859282110E+02  0.51100000000E-03 0. -1.
        -11    1    3    3    0    0 -0.50927863500E+01  0.72461222805E+01  0.67561570972E+01  0.11139498189E+02  0.51100000000E-03 0.  1.
        -12    1    3    3    0    0  0.54431895140E+01  0.32366785166E+00  0.23155115155E+02  0.23788493664E+02  0.00000000000E+00 0.  1.
</event>
<event>
 7    1  0.5022032E-011  0.4778728E+02  0.7816164E-02  0.1312668E+00
        -11   -1    0    0    0    0  0.00000000000E+00  0.00000000000E+00  0.45593999997E+02  0.45594000000E+02  0.51100000000E-03 0. -1.
         11   -1    0    0    0    0 -0.00000000000E+00 -0.00000000000E+00 -0.45593999997E+02  0.45594000000E+02  0.51100000000E-03 0.  1.
    9900012    2    1    2    0    0 -0.29988199665E+02  0.15469364237E+01  0.31335877728E+02  0.47787281522E+02  0.20000047769E+02 0.  0.
        -12    1    1    2    0    0  0.29988199665E+02 -0.15469364237E+01 -0.31335877728E+02  0.43400718478E+02  0.00000000000E+00 0.  1.
         11    1    3    3    0    0 -0.20757101155E+02  0.48878477297E+01  0.20732298761E+02  0.29741831079E+02  0.51100000000E-03 0. -1.
        -11    1    3    3    0    0 -0.83480833652E+01  0.25262467909E+00  0.18677517681E+01  0.85582014482E+01  0.51100000000E-03 0.  1.
         12    1    3    3    0    0 -0.88301514543E+00 -0.35935359850E+01  0.87358271993E+01  0.94872489943E+01  0.00000000000E+00 0. -1.
</event>
<event>
 7    1  0.5022032E-011  0.4778728E+02  0.7816164E-02  0.1312668E+00
        -11   -1    0    0    0    0  0.00000000000E+00  0.00000000000E+00  0.45593999997E+02  0.45594000000E+02  0.51100000000E-03 0. -1.
         11   -1    0    0    0    0 -0.00000000000E+00 -0.00000000000E+00 -0.45593999997E+02  0.45594000000E+02  0.51100000000E-03 0.  1.
    9900012    2    1    2    0    0 -0.85203247067E+01  0.10755797423E+02 -0.41174504219E+02  0.47787275248E+02  0.20000019166E+02 0.  0.
         12    1    1    2    0    0  0.85203247067E+01 -0.10755797423E+02  0.41174504219E+02  0.43400724752E+02  0.00000000000E+00 0. -1.
         11    1    3    3    0    0  0.89972048972E+00  0.13364282210E+02 -0.17595954461E+02  0.22114048693E+02  0.51100000000E-03 0. -1.
        -11    1    3    3    0    0 -0.43505043663E+01 -0.16735826353E+01 -0.79422296631E+01  0.92090596350E+01  0.51100000000E-03 0.  1.
         12    1    3    3    0    0 -0.50695408301E+01 -0.93490215147E+00 -0.15636320095E+02  0.16464166920E+02  0.00000000000E+00 0. -1.
</event>
<event>
 7    1  0.5022032E-011  0.4778727E+02  0.7816164E-02  0.1312668E+00
        -11   -1    0    0    0    0  0.00000000000E+00  0.00000000000E+00  0.45593999997E+02  0.45594000000E+02  0.51100000000E-03 0. -1.
         11   -1    0    0    0    0 -0.00000000000E+00 -0.00000000000E+00 -0.45593999997E+02  0.45594000000E+02  0.51100000000E-03 0.  1.
    9900012    2    1    2    0    0 -0.15989916793E+01 -0.30498436956E+02  0.30836857782E+02  0.47787271561E+02  0.20000002355E+02 0.  0.
        -12    1    1    2    0    0  0.15989916793E+01  0.30498436956E+02 -0.30836857782E+02  0.43400728439E+02  0.00000000000E+00 0.  1.
         11    1    3    3    0    0 -0.51906015321E+00 -0.14568211277E+02  0.70306144963E+01  0.16184305475E+02  0.51100000000E-03 0. -1.
        -11    1    3    3    0    0  0.48277875347E+01 -0.10571837867E+02  0.86900498580E+01  0.14511659284E+02  0.51100000000E-03 0.  1.
        -12    1    3    3    0    0 -0.59077190608E+01 -0.53583878116E+01  0.15116193428E+02  0.17091306802E+02  0.00000000000E+00 0.  1.
</event>
<event>
 7    1  0.5022032E-011  0.4778727E+02  0.7816164E-02  0.1312668E+00
        -11   -1    0    0    0    0  0.00000000000E+00  0.00000000000E+00  0.45593999997E+02  0.45594000000E+02  0.51100000000E-03 0. -1.
         11   -1    0    0    0    0 -0.00000000000E+00 -0.00000000000E+00 -0.45593999997E+02  0.45594000000E+02  0.51100000000E-03 0.  1.
    9900012    2    1    2    0    0 -0.13693228317E+01  0.18476412543E+02  0.39247549144E+02  0.47787274438E+02  0.20000015472E+02 0.  0.
        -12    1    1    2    0    0  0.13693228317E+01 -0.18476412543E+02 -0.39247549144E+02  0.43400725562E+02  0.00000000000E+00 0.  1.
         11    1    3    3    0    0 -0.23570493170E+01 -0.11842460061E+01  0.40006245008E+01  0.47919846351E+01  0.51100000000E-03 0. -1.
        -11    1    3    3    0    0  0.57944181023E+01  0.45778074847E+01  0.18653121613E+02  0.20061668642E+02  0.51100000000E-03 0.  1.
        -12    1    3    3    0    0 -0.48066916170E+01  0.15082851065E+02  0.16593803030E+02  0.22933621161E+02  0.00000000000E+00 0.  1.
</event>
<event>
 7    1  0.5022032E-011  0.4778727E+02  0.7816164E-02  0.1312668E+00
        -11   -1    0    0    0    0  0.00000000000E+00  0.00000000000E+00  0.45593999997E+02  0.45594000000E+02  0.51100000000E-03 0. -1.
         11   -1    0    0    0    0 -0.00000000000E+00 -0.00000000000E+00 -0.45593999997E+02  0.45594000000E+02  0.51100000000E-03 0.  1.
    9900012    2    1    2    0    0  0.33986704594E+02 -0.22333108313E+02 -0.15157817512E+02  0.47787271345E+02  0.20000001371E+02 0.  0.
         12    1    1    2    0    0 -0.33986704594E+02  0.22333108313E+02  0.15157817512E+02  0.43400728655E+02  0.00000000000E+00 0. -1.
         11    1    3    3    0    0  0.85603515677E+01 -0.65328148558E+01 -0.12492003817E+01  0.10840562290E+02  0.51100000000E-03 0. -1.
        -11    1    3    3    0    0  0.19552856929E+02 -0.41250152347E+01 -0.36087530932E+01  0.20306478374E+02  0.51100000000E-03 0.  1.
         12    1    3    3    0    0  0.58734960969E+01 -0.11675278222E+02 -0.10299864037E+02  0.16640230682E+02  0.00000000000E+00 0. -1.
</event>
<event>
 7    1  0.5022032E-011  0.4778727E+02  0.7816164E-02  0.1312668E+00
        -11   -1    0    0    0    0  0.00000000000E+00  0.00000000000E+00  0.45593999997E+02  0.45594000000E+02  0.51100000000E-03 0.  1.
         11   -1    0    0    0    0 -0.00000000000E+00 -0.00000000000E+00 -0.45593999997E+02  0.45594000000E+02  0.51100000000E-03 0. -1.
    9900012    2    1    2    0    0 -0.43258447297E+02 -0.26202270011E+01  0.23377050521E+01  0.47787265939E+02  0.19999976724E+02 0.  0.
        -12    1    1    2    0    0  0.43258447297E+02  0.26202270011E+01 -0.23377050521E+01  0.43400734061E+02  0.00000000000E+00 0.  1.
         11    1    3    3    0    0 -0.64450958386E+01  0.63765011939E+01 -0.10390220625E+01  0.91257106546E+01  0.51100000000E-03 0.  1.
        -11    1    3    3    0    0 -0.54616522731E+01  0.91174852971E+00 -0.46984147482E+00  0.55571289536E+01  0.51100000000E-03 0. -1.
        -12    1    3    3    0    0 -0.31351699185E+02 -0.99084767247E+01  0.38465685895E+01  0.33104426331E+02  0.00000000000E+00 0.  1.
</event>
<event>
 7    1  0.5022032E-011  0.4778727E+02  0.7816164E-02  0.1312668E+00
        -11   -1    0    0    0    0  0.00000000000E+00  0.00000000000E+00  0.45593999997E+02  0.45594000000E+02  0.51100000000E-03 0. -1.
         11   -1    0    0    0    0 -0.00000000000E+00 -0.00000000000E+00 -0.45593999997E+02  0.45594000000E+02  0.51100000000E-03 0.  1.
    9900012    2    1    2    0    0 -0.60831061624E+01  0.12284040671E+02  0.41179136363E+02  0.47787272962E+02  0.20000008744E+02 0.  0.
        -12    1    1    2    0    0  0.60831061624E+01 -0.12284040671E+02 -0.41179136363E+02  0.43400727038E+02  0.00000000000E+00 0.  1.
         11    1    3    3    0    0 -0.40238232550E+01  0.29568519546E+01  0.36007934039E+02  0.36352516297E+02  0.51100000000E-03 0. -1.
        -11    1    3    3    0    0 -0.58135457140E+00  0.30886903146E+01  0.37041953475E+01  0.48578847692E+01  0.51100000000E-03 0.  1.
         12    1    3    3    0    0 -0.14779283360E+01  0.62384984017E+01  0.14670069765E+01  0.65768718965E+01  0.00000000000E+00 0. -1.
</event>
<event>
 7    1  0.5022032E-011  0.4778727E+02  0.7816164E-02  0.1312668E+00
        -11   -1    0    0    0    0  0.00000000000E+00  0.00000000000E+00  0.45593999997E+02  0.45594000000E+02  0.51100000000E-03 0.  1.
         11   -1    0    0    0    0 -0.00000000000E+00 -0.00000000000E+00 -0.45593999997E+02  0.45594000000E+02  0.51100000000E-03 0. -1.
    9900012    2    1    2    0    0  0.19723229644E+02 -0.38398165751E+02  0.44942538517E+01  0.47787271454E+02  0.20000001869E+02 0.  0.
        -12    1    1    2    0    0 -0.19723229644E+02  0.38398165751E+02 -0.44942538517E+01  0.43400728546E+02  0.00000000000E+00 0.  1.
         11    1    3    3    0    0  0.13441267192E+01 -0.77960191416E+01  0.42555225602E+01  0.89829874549E+01  0.51100000000E-03 0. -1.
        -11    1    3    3    0    0  0.76539535031E+00 -0.14059631665E+02  0.32578702119E+01  0.14452432016E+02  0.51100000000E-03 0.  1.
        -12    1    3    3    0    0  0.17613707575E+02 -0.16542514944E+02 -0.30191389205E+01  0.24351851983E+02  0.00000000000E+00 0.  1.
</event>
<event>
 7    1  0.5022032E-011  0.4778727E+02  0.7816164E-02  0.1312668E+00
        -11   -1    0    0    0    0  0.00000000000E+00  0.00000000000E+00  0.45593999997E+02  0.45594000000E+02  0.51100000000E-03 0. -1.
         11   -1    0    0    0    0 -0.00000000000E+00 -0.00000000000E+00 -0.45593999997E+02  0.45594000000E+02  0.51100000000E-03 0.  1.
    9900012    2    1    2    0    0 -0.12435864659E+02  0.11158043124E+02  0.40055844518E+02  0.47787270327E+02  0.19999996727E+02 0.  0.
        -12    1    1    2    0    0  0.12435864659E+02 -0.11158043124E+02 -0.40055844518E+02  0.43400729673E+02  0.00000000000E+00 0.  1.
         11    1    3    3    0    0 -0.11243653854E+02  0.11920612289E+02  0.21996491718E+02  0.27429298159E+02  0.51100000000E-03 0. -1.
        -11    1    3    3    0    0 -0.37898841097E+01  0.21780620146E+01  0.46311165297E+01  0.63682349421E+01  0.51100000000E-03 0.  1.
        -12    1    3    3    0    0  0.25976733043E+01 -0.29406311794E+01  0.13428236270E+02  0.13989737226E+02  0.00000000000E+00 0.  1.
</event>
<event>
 7    1  0.5022032E-011  0.4778727E+02  0.7816164E-02  0.1312668E+00
        -11   -1    0    0    0    0  0.00000000000E+00  0.00000000000E+00  0.45593999997E+02  0.45594000000E+02  0.51100000000E-03 0. -1.
         11   -1    0    0    0    0 -0.00000000000E+00 -0.00000000000E+00 -0.45593999997E+02  0.45594000000E+02  0.51100000000E-03 0.  1.
    9900012    2    1    2    0    0  0.28672118937E+02 -0.88322522096E+01  0.31361189188E+02  0.47787271081E+02  0.20000000168E+02 0.  0.
        -12    1    1    2    0    0 -0.28672118937E+02  0.88322522096E+01 -0.31361189188E+02  0.43400728919E+02  0.00000000000E+00 0.  1.
         11    1    3    3    0    0  0.18040004196E+02 -0.86033933707E+01  0.15824670780E+02  0.25492750625E+02  0.51100000000E-03 0. -1.
        -11    1    3    3    0    0  0.91977847289E+01 -0.25349748653E+01  0.16783816110E+02  0.19306004894E+02  0.51100000000E-03 0.  1.
         12    1    3    3    0    0  0.14343300123E+01  0.23061160263E+01 -0.12472977020E+01  0.29885155627E+01  0.00000000000E+00 0. -1.
</event>
<event>
 7    1  0.5022032E-011  0.4778727E+02  0.7816164E-02  0.1312668E+00
        -11   -1    0    0    0    0  0.00000000000E+00  0.00000000000E+00  0.45593999997E+02  0.45594000000E+02  0.51100000000E-03 0. -1.
         11   -1    0    0    0    0 -0.00000000000E+00 -0.00000000000E+00 -0.45593999997E+02  0.45594000000E+02  0.51100000000E-03 0.  1.
    9900012    2    1    2    0    0  0.22598009722E+02  0.15123747698E+02  0.33826407995E+02  0.47787266531E+02  0.19999979420E+02 0.  0.
        -12    1    1    2    0    0 -0.22598009722E+02 -0.15123747698E+02 -0.33826407995E+02  0.43400733469E+02  0.00000000000E+00 0.  1.
         11    1    3    3    0    0  0.12687766292E+02  0.32073366339E+01  0.11456833231E+02  0.17393258743E+02  0.51100000000E-03 0. -1.
        -11    1    3    3    0    0  0.76891148858E+01  0.60296761648E+01  0.33004462871E+01  0.10313701001E+02  0.51100000000E-03 0.  1.
         12    1    3    3    0    0  0.22211285443E+01  0.58867348989E+01  0.19069128477E+02  0.20080306786E+02  0.00000000000E+00 0. -1.
</event>
<event>
 7    1  0.5022032E-011  0.4778727E+02  0.7816164E-02  0.1312668E+00
        -11   -1    0    0    0    0  0.00000000000E+00  0.00000000000E+00  0.45593999997E+02  0.45594000000E+02  0.51100000000E-03 0. -1.
         11   -1    0    0    0    0 -0.00000000000E+00 -0.00000000000E+00 -0.45593999997E+02  0.45594000000E+02  0.51100000000E-03 0.  1.
    9900012    2    1    2    0    0 -0.12575758738E+02 -0.87510676054E+01  0.40606555649E+02  0.47787271277E+02  0.20000001059E+02 0.  0.
        -12    1    1    2    0    0  0.12575758738E+02  0.87510676054E+01 -0.40606555649E+02  0.43400728723E+02  0.00000000000E+00 0.  1.
         11    1    3    3    0    0 -0.51249249839E+00  0.79223073370E+00 -0.58395494703E+00  0.11096313521E+01  0.51100000000E-03 0. -1.
        -11    1    3    3    0    0  0.12739768756E+01  0.32393699091E+01  0.62452549714E+01  0.71498072986E+01  0.51100000000E-03 0.  1.
         12    1    3    3    0    0 -0.13337243115E+02 -0.12782668248E+02  0.34945255624E+02  0.39527832626E+02  0.00000000000E+00 0. -1.
</event>
<event>
 7    1  0.5226081E-011  0.4778727E+02  0.7816164E-02  0.1312668E+00
        -11   -1    0    0    0    0  0.00000000000E+00  0.00000000000E+00  0.45593999997E+02  0.45594000000E+02  0.51100000000E-03 0. -1.
         11   -1    0    0    0    0 -0.00000000000E+00 -0.00000000000E+00 -0.45593999997E+02  0.45594000000E+02  0.51100000000E-03 0.  1.
    9900012    2    1    2    0    0 -0.21781888166E+02 -0.30600032599E+02 -0.21744202762E+02  0.47787274190E+02  0.20000014340E+02 0.  0.
         12    1    1    2    0    0  0.21781888166E+02  0.30600032599E+02  0.21744202762E+02  0.43400725810E+02  0.00000000000E+00 0. -1.
         11    1    3    3    0    0  0.10683758884E+01 -0.61044193865E+00 -0.14370820324E+01  0.18918962520E+01  0.51100000000E-03 0. -1.
        -11    1    3    3    0    0 -0.15689339340E+02 -0.16698154940E+02 -0.32921269269E+01  0.23147825974E+02  0.51100000000E-03 0.  1.
        -12    1    3    3    0    0 -0.71609247144E+01 -0.13291435720E+02 -0.17014993802E+02  0.22747551964E+02  0.00000000000E+00 0.  1.
</event>
<event>
 7    1  0.5022032E-011  0.4778727E+02  0.7816164E-02  0.1312668E+00
        -11   -1    0    0    0    0  0.00000000000E+00  0.00000000000E+00  0.45593999997E+02  0.45594000000E+02  0.51100000000E-03 0. -1.
         11   -1    0    0    0    0 -0.00000000000E+00 -0.00000000000E+00 -0.45593999997E+02  0.45594000000E+02  0.51100000000E-03 0.  1.
    9900012    2    1    2    0    0 -0.28195294489E+02 -0.17122402945E+02 -0.28204111750E+02  0.47787271509E+02  0.20000002117E+02 0.  0.
         12    1    1    2    0    0  0.28195294489E+02  0.17122402945E+02  0.28204111750E+02  0.43400728491E+02  0.00000000000E+00 0. -1.
         11    1    3    3    0    0 -0.13652967027E+02 -0.39590036447E+01 -0.89464863152E+01  0.16796334009E+02  0.51100000000E-03 0. -1.
        -11    1    3    3    0    0 -0.70389284385E+01 -0.36227054423E+00 -0.48869857563E+00  0.70651666695E+01  0.51100000000E-03 0.  1.
        -12    1    3    3    0    0 -0.75033990235E+01 -0.12801128756E+02 -0.18768926860E+02  0.23925770830E+02  0.00000000000E+00 0.  1.
</event>
<event>
 7    1  0.5022032E-011  0.4778727E+02  0.7816164E-02  0.1312668E+00
        -11   -1    0    0    0    0  0.00000000000E+00  0.00000000000E+00  0.45593999997E+02  0.45594000000E+02  0.51100000000E-03 0. -1.
         11   -1    0    0    0    0 -0.00000000000E+00 -0.00000000000E+00 -0.45593999997E+02  0.45594000000E+02  0.51100000000E-03 0.  1.
    9900012    2    1    2    0    0  0.20257751485E+02  0.88413009683E+01 -0.37350742126E+02  0.47787273792E+02  0.20000012525E+02 0.  0.
         12    1    1    2    0    0 -0.20257751485E+02 -0.88413009683E+01  0.37350742126E+02  0.43400726208E+02  0.00000000000E+00 0. -1.
         11    1    3    3    0    0  0.69682604683E+01  0.26915204445E+01 -0.18639170551E+01  0.76990339203E+01  0.51100000000E-03 0. -1.
        -11    1    3    3    0    0  0.59104154771E+01  0.80850687959E+01 -0.13455561267E+02  0.16773594660E+02  0.51100000000E-03 0.  1.
        -12    1    3    3    0    0  0.73790755397E+01 -0.19352882721E+01 -0.22031263804E+02  0.23314645212E+02  0.00000000000E+00 0.  1.
</event>
<event>
 7    1  0.5022032E-011  0.4778727E+02  0.7816164E-02  0.1312668E+00
        -11   -1    0    0    0    0  0.00000000000E+00  0.00000000000E+00  0.45593999997E+02  0.45594000000E+02  0.51100000000E-03 0. -1.
         11   -1    0    0    0    0 -0.00000000000E+00 -0.00000000000E+00 -0.45593999997E+02  0.45594000000E+02  0.51100000000E-03 0.  1.
    9900012    2    1    2    0    0  0.10163512142E+02 -0.82840524175E+01  0.41372701576E+02  0.47787274900E+02  0.20000017578E+02 0.  0.
        -12    1    1    2    0    0 -0.10163512142E+02  0.82840524175E+01 -0.41372701576E+02  0.43400725100E+02  0.00000000000E+00 0.  1.
         11    1    3    3    0    0 -0.10316742552E+01  0.79425549321E+00 -0.35724580164E+00  0.13501179138E+01  0.51100000000E-03 0. -1.
        -11    1    3    3    0    0 -0.32190046174E+00  0.18573601078E+01  0.10804694409E+00  0.18881421770E+01  0.51100000000E-03 0.  1.
         12    1    3    3    0    0  0.11517086859E+02 -0.10935668019E+02  0.41621900434E+02  0.44549014809E+02  0.00000000000E+00 0. -1.
</event>
<event>
 7    1  0.5022032E-011  0.4778727E+02  0.7816164E-02  0.1312668E+00
        -11   -1    0    0    0    0  0.00000000000E+00  0.00000000000E+00  0.45593999997E+02  0.45594000000E+02  0.51100000000E-03 0. -1.
         11   -1    0    0    0    0 -0.00000000000E+00 -0.00000000000E+00 -0.45593999997E+02  0.45594000000E+02  0.51100000000E-03 0.  1.
    9900012    2    1    2    0    0  0.18618698489E+02  0.13790561875E+02 -0.36698610029E+02  0.47787268343E+02  0.19999987685E+02 0.  0.
         12    1    1    2    0    0 -0.18618698489E+02 -0.13790561875E+02  0.36698610029E+02  0.43400731657E+02  0.00000000000E+00 0. -1.
         11    1    3    3    0    0  0.14188145226E+02  0.54253303531E+01 -0.15694473534E+02  0.21841569865E+02  0.51100000000E-03 0. -1.
        -11    1    3    3    0    0  0.48285172583E+01  0.18463502626E+01 -0.18053564586E+02  0.18779104950E+02  0.51100000000E-03 0.  1.
         12    1    3    3    0    0 -0.39796399516E+00  0.65188812590E+01 -0.29505719092E+01  0.71665935284E+01  0.00000000000E+00 0. -1.
</event>
<event>
 7    1  0.5022032E-011  0.4778727E+02  0.7816164E-02  0.1312668E+00
        -11   -1    0    0    0    0  0.00000000000E+00  0.00000000000E+00  0.45593999997E+02  0.45594000000E+02  0.51100000000E-03 0. -1.
         11   -1    0    0    0    0 -0.00000000000E+00 -0.00000000000E+00 -0.45593999997E+02  0.45594000000E+02  0.51100000000E-03 0.  1.
    9900012    2    1    2    0    0 -0.30149625740E+01  0.29162199349E+02 -0.32001552292E+02  0.47787271673E+02  0.20000002865E+02 0.  0.
         12    1    1    2    0    0  0.30149625740E+01 -0.29162199349E+02  0.32001552292E+02  0.43400728327E+02  0.00000000000E+00 0. -1.
         11    1    3    3    0    0  0.24557520369E+00  0.11991223191E+02 -0.51080493801E+01  0.13036176953E+02  0.51100000000E-03 0.  1.
        -11    1    3    3    0    0 -0.29505416009E+01  0.14940535128E+02 -0.28270572540E+02  0.32111533094E+02  0.51100000000E-03 0. -1.
         12    1    3    3    0    0 -0.30999617679E+00  0.22304410297E+01  0.13770696280E+01  0.26395616259E+01  0.00000000000E+00 0. -1.
</event>
<event>
 7    1  0.5022032E-011  0.4778727E+02  0.7816164E-02  0.1312668E+00
        -11   -1    0    0    0    0  0.00000000000E+00  0.00000000000E+00  0.45593999997E+02  0.45594000000E+02  0.51100000000E-03 0.  1.
         11   -1    0    0    0    0 -0.00000000000E+00 -0.00000000000E+00 -0.45593999997E+02  0.45594000000E+02  0.51100000000E-03 0. -1.
    9900012    2    1    2    0    0  0.15033683783E+02  0.38019829572E+02 -0.14563801836E+02  0.47787269445E+02  0.19999992707E+02 0.  0.
         12    1    1    2    0    0 -0.15033683783E+02 -0.38019829572E+02  0.14563801836E+02  0.43400730555E+02  0.00000000000E+00 0. -1.
         11    1    3    3    0    0  0.39089224886E+00 -0.12511481610E-01 -0.15195200079E+01  0.15690425752E+01  0.51100000000E-03 0. -1.
        -11    1    3    3    0    0  0.13812284034E+02  0.39796594295E+02 -0.11331428377E+02  0.43622807991E+02  0.51100000000E-03 0.  1.
        -12    1    3    3    0    0  0.83050749998E+00 -0.17642532412E+01 -0.17128534517E+01  0.25954188783E+01  0.00000000000E+00 0.  1.
</event>
<event>
 7    1  0.5022032E-011  0.4778727E+02  0.7816164E-02  0.1312668E+00
        -11   -1    0    0    0    0  0.00000000000E+00  0.00000000000E+00  0.45593999997E+02  0.45594000000E+02  0.51100000000E-03 0. -1.
         11   -1    0    0    0    0 -0.00000000000E+00 -0.00000000000E+00 -0.45593999997E+02  0.45594000000E+02  0.51100000000E-03 0.  1.
    9900012    2    1    2    0    0  0.23430550798E+02 -0.80231050328E+01  0.35640741218E+02  0.47787270057E+02  0.19999995497E+02 0.  0.
        -12    1    1    2    0    0 -0.23430550798E+02  0.80231050328E+01 -0.35640741218E+02  0.43400729943E+02  0.00000000000E+00 0.  1.
         11    1    3    3    0    0  0.48396167149E+01 -0.78373210028E+01  0.11891632899E+02  0.15041822487E+02  0.51100000000E-03 0. -1.
        -11    1    3    3    0    0  0.14998227692E+02 -0.34195153864E+01  0.23260523824E+02  0.27887127644E+02  0.51100000000E-03 0.  1.
        -12    1    3    3    0    0  0.35927063910E+01  0.32337313565E+01  0.48858449406E+00  0.48583199262E+01  0.00000000000E+00 0.  1.
</event>
<event>
 7    1  0.5022032E-011  0.4778726E+02  0.7816164E-02  0.1312668E+00
        -11   -1    0    0    0    0  0.00000000000E+00  0.00000000000E+00  0.45593999997E+02  0.45594000000E+02  0.51100000000E-03 0. -1.
         11   -1    0    0    0    0 -0.00000000000E+00 -0.00000000000E+00 -0.45593999997E+02  0.45594000000E+02  0.51100000000E-03 0.  1.
    9900012    2    1    2    0    0 -0.42093858642E+02  0.29756221743E+01  0.10142809601E+02  0.47787264415E+02  0.19999969775E+02 0.  0.
        -12    1    1    2    0    0  0.42093858642E+02 -0.29756221743E+01 -0.10142809601E+02  0.43400735585E+02  0.00000000000E+00 0.  1.
         11    1    3    3    0    0 -0.17658289802E+02  0.82195276027E+00  0.43509671914E+01  0.18204991646E+02  0.51100000000E-03 0. -1.
        -11    1    3    3    0    0 -0.17722790631E+02  0.69774277292E+01 -0.71818541120E+00  0.19060367153E+02  0.51100000000E-03 0.  1.
        -12    1    3    3    0    0 -0.67127782085E+01 -0.48237583152E+01  0.65100278210E+01  0.10521905616E+02  0.00000000000E+00 0.  1.
</event>
<event>
 7    1  0.5022032E-011  0.4778727E+02  0.7816164E-02  0.1312668E+00
        -11   -1    0    0    0    0  0.00000000000E+00  0.00000000000E+00  0.45593999997E+02  0.45594000000E+02  0.51100000000E-03 0. -1.
         11   -1    0    0    0    0 -0.00000000000E+00 -0.00000000000E+00 -0.45593999997E+02  0.45594000000E+02  0.51100000000E-03 0.  1.
    9900012    2    1    2    0    0  0.12859448319E+02  0.11093192248E+02 -0.39939940944E+02  0.47787271804E+02  0.20000003464E+02 0.  0.
         12    1    1    2    0    0 -0.12859448319E+02 -0.11093192248E+02  0.39939940944E+02  0.43400728196E+02  0.00000000000E+00 0. -1.
         11    1    3    3    0    0  0.69921029478E+01  0.33631038524E+00 -0.16775023539E+02  0.18177019098E+02  0.51100000000E-03 0. -1.
        -11    1    3    3    0    0 -0.42641986827E+00 -0.25552008800E+01 -0.58895641759E+00  0.26566436276E+01  0.51100000000E-03 0.  1.
        -12    1    3    3    0    0  0.62937652397E+01  0.13312082742E+02 -0.22575960987E+02  0.26953609078E+02  0.00000000000E+00 0.  1.
</event>
<event>
 7    1  0.5022032E-011  0.4778727E+02  0.7816164E-02  0.1312668E+00
        -11   -1    0    0    0    0  0.00000000000E+00  0.00000000000E+00  0.45593999997E+02  0.45594000000E+02  0.51100000000E-03 0. -1.
         11   -1    0    0    0    0 -0.00000000000E+00 -0.00000000000E+00 -0.45593999997E+02  0.45594000000E+02  0.51100000000E-03 0.  1.
    9900012    2    1    2    0    0  0.30415183008E+02 -0.26223097922E+02  0.16458702073E+02  0.47787273094E+02  0.20000009344E+02 0.  0.
        -12    1    1    2    0    0 -0.30415183008E+02  0.26223097922E+02 -0.16458702073E+02  0.43400726906E+02  0.00000000000E+00 0.  1.
         11    1    3    3    0    0  0.38420807657E+01 -0.26467244511E+01 -0.16423217120E+01  0.49461051139E+01  0.51100000000E-03 0.  1.
        -11    1    3    3    0    0  0.14918459048E+02 -0.10546763034E+02  0.86336097252E+00  0.18290435295E+02  0.51100000000E-03 0. -1.
         12    1    3    3    0    0  0.11654643194E+02 -0.13029610437E+02  0.17237662812E+02  0.24550732685E+02  0.00000000000E+00 0. -1.
</event>
<event>
 7    1  0.5022032E-011  0.4778728E+02  0.7816164E-02  0.1312668E+00
        -11   -1    0    0    0    0  0.00000000000E+00  0.00000000000E+00  0.45593999997E+02  0.45594000000E+02  0.51100000000E-03 0. -1.
         11   -1    0    0    0    0 -0.00000000000E+00 -0.00000000000E+00 -0.45593999997E+02  0.45594000000E+02  0.51100000000E-03 0.  1.
    9900012    2    1    2    0    0 -0.20322459757E+02  0.14901648059E+02  0.35334987349E+02  0.47787276315E+02  0.20000024030E+02 0.  0.
        -12    1    1    2    0    0  0.20322459757E+02 -0.14901648059E+02 -0.35334987349E+02  0.43400723685E+02  0.00000000000E+00 0.  1.
         11    1    3    3    0    0 -0.77891077921E+01  0.74176089311E+00  0.11245371384E+02  0.13699590769E+02  0.51100000000E-03 0. -1.
        -11    1    3    3    0    0 -0.34714932641E+00 -0.13376395730E+01 -0.13305808750E+01  0.19183946435E+01  0.51100000000E-03 0.  1.
         12    1    3    3    0    0 -0.12186202639E+02  0.15497526739E+02  0.25420196840E+02  0.32169290902E+02  0.00000000000E+00 0. -1.
</event>
<event>
 7    1  0.5022032E-011  0.4778727E+02  0.7816164E-02  0.1312668E+00
        -11   -1    0    0    0    0  0.00000000000E+00  0.00000000000E+00  0.45593999997E+02  0.45594000000E+02  0.51100000000E-03 0.  1.
         11   -1    0    0    0    0 -0.00000000000E+00 -0.00000000000E+00 -0.45593999997E+02  0.45594000000E+02  0.51100000000E-03 0. -1.
    9900012    2    1    2    0    0 -0.24619332776E+02  0.26098665928E+02 -0.24420720695E+02  0.47787268338E+02  0.19999987660E+02 0.  0.
         12    1    1    2    0    0  0.24619332776E+02 -0.26098665928E+02  0.24420720695E+02  0.43400731662E+02  0.00000000000E+00 0. -1.
         11    1    3    3    0    0 -0.12666954444E+01  0.85201735504E+01 -0.42851315210E+01  0.96208225787E+01  0.51100000000E-03 0.  1.
        -11    1    3    3    0    0 -0.13470223658E+02  0.17655217793E+02 -0.16378607353E+02  0.27593702539E+02  0.51100000000E-03 0. -1.
         12    1    3    3    0    0 -0.98824136735E+01 -0.76725415466E-01 -0.37569818212E+01  0.10572743221E+02  0.00000000000E+00 0. -1.
</event>
<event>
 7    1  0.5022032E-011  0.4778727E+02  0.7816164E-02  0.1312668E+00
        -11   -1    0    0    0    0  0.00000000000E+00  0.00000000000E+00  0.45593999997E+02  0.45594000000E+02  0.51100000000E-03 0. -1.
         11   -1    0    0    0    0 -0.00000000000E+00 -0.00000000000E+00 -0.45593999997E+02  0.45594000000E+02  0.51100000000E-03 0.  1.
    9900012    2    1    2    0    0 -0.17790855950E+01  0.29986419646E+02 -0.31325273821E+02  0.47787270874E+02  0.19999999222E+02 0.  0.
         12    1    1    2    0    0  0.17790855950E+01 -0.29986419646E+02  0.31325273821E+02  0.43400729126E+02  0.00000000000E+00 0. -1.
         11    1    3    3    0    0  0.40916760665E+01  0.97220379984E+01 -0.68020894169E+01  0.12551026116E+02  0.51100000000E-03 0. -1.
        -11    1    3    3    0    0  0.26943275496E+01  0.12812973867E+02 -0.17610612112E+02  0.21944597501E+02  0.51100000000E-03 0.  1.
         12    1    3    3    0    0 -0.85650892111E+01  0.74514077809E+01 -0.69125722918E+01  0.13291647257E+02  0.00000000000E+00 0. -1.
</event>
<event>
 7    1  0.5022032E-011  0.4778728E+02  0.7816164E-02  0.1312668E+00
        -11   -1    0    0    0    0  0.00000000000E+00  0.00000000000E+00  0.45593999997E+02  0.45594000000E+02  0.51100000000E-03 0.  1.
         11   -1    0    0    0    0 -0.00000000000E+00 -0.00000000000E+00 -0.45593999997E+02  0.45594000000E+02  0.51100000000E-03 0. -1.
    9900012    2    1    2    0    0 -0.88307598877E+01  0.29915559074E+02  0.30177803058E+02  0.47787276592E+02  0.20000025294E+02 0.  0.
        -12    1    1    2    0    0  0.88307598877E+01 -0.29915559074E+02 -0.30177803058E+02  0.43400723408E+02  0.00000000000E+00 0.  1.
         11    1    3    3    0    0  0.37171556971E+01  0.51707114366E+01  0.67090073715E+01  0.92500964000E+01  0.51100000000E-03 0. -1.
        -11    1    3    3    0    0 -0.50587803832E+01  0.94597877007E+01  0.17449070121E+02  0.20482892634E+02  0.51100000000E-03 0.  1.
         12    1    3    3    0    0 -0.74891352016E+01  0.15285059937E+02  0.60197255654E+01  0.18054287558E+02  0.00000000000E+00 0. -1.
</event>
<event>
 7    1  0.5022032E-011  0.4778727E+02  0.7816164E-02  0.1312668E+00
        -11   -1    0    0    0    0  0.00000000000E+00  0.00000000000E+00  0.45593999997E+02  0.45594000000E+02  0.51100000000E-03 0. -1.
         11   -1    0    0    0    0 -0.00000000000E+00 -0.00000000000E+00 -0.45593999997E+02  0.45594000000E+02  0.51100000000E-03 0.  1.
    9900012    2    1    2    0    0  0.32875638123E+02  0.14407860772E+02 -0.24397319826E+02  0.47787271334E+02  0.20000001322E+02 0.  0.
         12    1    1    2    0    0 -0.32875638123E+02 -0.14407860772E+02  0.24397319826E+02  0.43400728666E+02  0.00000000000E+00 0. -1.
         11    1    3    3    0    0  0.18107938799E+02  0.57102297507E+01 -0.12312179437E+02  0.22629492573E+02  0.51100000000E-03 0. -1.
        -11    1    3    3    0    0  0.13201274160E+02  0.69411315579E+00 -0.10424038609E+02  0.16834964025E+02  0.51100000000E-03 0.  1.
         12    1    3    3    0    0  0.15664251634E+01  0.80035178652E+01 -0.16611017793E+01  0.83228147362E+01  0.00000000000E+00 0. -1.
</event>
<event>
 7    1  0.5022032E-011  0.4778726E+02  0.7816164E-02  0.1312668E+00
        -11   -1    0    0    0    0  0.00000000000E+00  0.00000000000E+00  0.45593999997E+02  0.45594000000E+02  0.51100000000E-03 0.  1.
         11   -1    0    0    0    0 -0.00000000000E+00 -0.00000000000E+00 -0.45593999997E+02  0.45594000000E+02  0.51100000000E-03 0. -1.
    9900012    2    1    2    0    0 -0.20741007456E+02 -0.23610220289E+02 -0.29933124331E+02  0.47787264700E+02  0.19999971072E+02 0.  0.
         12    1    1    2    0    0  0.20741007456E+02  0.23610220289E+02  0.29933124331E+02  0.43400735300E+02  0.00000000000E+00 0. -1.
         11    1    3    3    0    0 -0.95655529526E+01 -0.68324798154E+01 -0.40385168444E+01  0.12429489220E+02  0.51100000000E-03 0. -1.
        -11    1    3    3    0    0 -0.12233477710E+02 -0.68622685419E+01 -0.16516022868E+02  0.21668588280E+02  0.51100000000E-03 0.  1.
         12    1    3    3    0    0  0.10580232061E+01 -0.99154719317E+01 -0.93785846183E+01  0.13689187199E+02  0.00000000000E+00 0. -1.
</event>
<event>
 7    1  0.5022032E-011  0.4778727E+02  0.7816164E-02  0.1312668E+00
        -11   -1    0    0    0    0  0.00000000000E+00  0.00000000000E+00  0.45593999997E+02  0.45594000000E+02  0.51100000000E-03 0. -1.
         11   -1    0    0    0    0 -0.00000000000E+00 -0.00000000000E+00 -0.45593999997E+02  0.45594000000E+02  0.51100000000E-03 0.  1.
    9900012    2    1    2    0    0  0.12804524432E+02  0.22128173778E+02 -0.35071519736E+02  0.47787269393E+02  0.19999992470E+02 0.  0.
         12    1    1    2    0    0 -0.12804524432E+02 -0.22128173778E+02  0.35071519736E+02  0.43400730607E+02  0.00000000000E+00 0. -1.
         11    1    3    3    0    0  0.12309365302E+02  0.94180570573E+01 -0.95773940941E+01  0.18219405884E+02  0.51100000000E-03 0. -1.
        -11    1    3    3    0    0 -0.94480006742E-02 -0.78547241736E+00 -0.47532560571E+01  0.48177276375E+01  0.51100000000E-03 0.  1.
        -12    1    3    3    0    0  0.50460713013E+00  0.13495589138E+02 -0.20740869585E+02  0.24750135871E+02  0.00000000000E+00 0.  1.
</event>
<event>
 7    1  0.5022032E-011  0.4778724E+02  0.7816164E-02  0.1312668E+00
        -11   -1    0    0    0    0  0.00000000000E+00  0.00000000000E+00  0.45593999997E+02  0.45594000000E+02  0.51100000000E-03 0.  1.
         11   -1    0    0    0    0 -0.00000000000E+00 -0.00000000000E+00 -0.45593999997E+02  0.45594000000E+02  0.51100000000E-03 0. -1.
    9900012    2    1    2    0    0  0.26015393048E+02  0.28983432218E+02  0.19151658981E+02  0.47787238943E+02  0.19999853637E+02 0.  0.
        -12    1    1    2    0    0 -0.26015393048E+02 -0.28983432218E+02 -0.19151658981E+02  0.43400761057E+02  0.00000000000E+00 0.  1.
         11    1    3    3    0    0 -0.14252405550E+01 -0.20117030472E-01 -0.86108761695E+00  0.16652890079E+01  0.51100000000E-03 0. -1.
        -11    1    3    3    0    0  0.11035570737E+02  0.47137933964E+01  0.35983481635E+01  0.12528039729E+02  0.51100000000E-03 0.  1.
         12    1    3    3    0    0  0.16405062865E+02  0.24289755852E+02  0.16414398435E+02  0.33593910206E+02  0.00000000000E+00 0. -1.
</event>
<event>
 7    1  0.5287333E-011  0.4778730E+02  0.7816164E-02  0.1312668E+00
        -11   -1    0    0    0    0  0.00000000000E+00  0.00000000000E+00  0.45593999997E+02  0.45594000000E+02  0.51100000000E-03 0. -1.
         11   -1    0    0    0    0 -0.00000000000E+00 -0.00000000000E+00 -0.45593999997E+02  0.45594000000E+02  0.51100000000E-03 0.  1.
    9900012    2    1    2    0    0  0.11554221195E+02  0.87793548468E+00 -0.41825234827E+02  0.47787296475E+02  0.20000115947E+02 0.  0.
         12    1    1    2    0    0 -0.11554221195E+02 -0.87793548468E+00  0.41825234827E+02  0.43400703525E+02  0.00000000000E+00 0. -1.
         11    1    3    3    0    0  0.44163310797E+01  0.17469217212E+01 -0.17450971526E+01  0.50597509858E+01  0.51100000000E-03 0. -1.
        -11    1    3    3    0    0  0.69596006719E+01 -0.40333957477E+01 -0.11863246190E+02  0.14333210847E+02  0.51100000000E-03 0.  1.
        -12    1    3    3    0    0  0.17828944344E+00  0.31644095112E+01 -0.28216891485E+02  0.28394334641E+02  0.00000000000E+00 0.  1.
</event>
<event>
 7    1  0.5022032E-011  0.4778727E+02  0.7816164E-02  0.1312668E+00
        -11   -1    0    0    0    0  0.00000000000E+00  0.00000000000E+00  0.45593999997E+02  0.45594000000E+02  0.51100000000E-03 0. -1.
         11   -1    0    0    0    0 -0.00000000000E+00 -0.00000000000E+00 -0.45593999997E+02  0.45594000000E+02  0.51100000000E-03 0.  1.
    9900012    2    1    2    0    0  0.18838232837E+02  0.43369965551E+00 -0.39096752899E+02  0.47787271907E+02  0.20000003931E+02 0.  0.
         12    1    1    2    0    0 -0.18838232837E+02 -0.43369965551E+00  0.39096752899E+02  0.43400728093E+02  0.00000000000E+00 0. -1.
         11    1    3    3    0    0 -0.15129579790E+01 -0.29242308895E+01 -0.58915512670E+01  0.67491143667E+01  0.51100000000E-03 0. -1.
        -11    1    3    3    0    0  0.12632107514E+02  0.73614121474E+01 -0.25624671967E+02  0.29502276908E+02  0.51100000000E-03 0.  1.
         12    1    3    3    0    0  0.77190833020E+01 -0.40034816024E+01 -0.75805296646E+01  0.11535880632E+02  0.00000000000E+00 0. -1.
</event>
<event>
 7    1  0.5022032E-011  0.4778727E+02  0.7816164E-02  0.1312668E+00
        -11   -1    0    0    0    0  0.00000000000E+00  0.00000000000E+00  0.45593999997E+02  0.45594000000E+02  0.51100000000E-03 0.  1.
         11   -1    0    0    0    0 -0.00000000000E+00 -0.00000000000E+00 -0.45593999997E+02  0.45594000000E+02  0.51100000000E-03 0. -1.
    9900012    2    1    2    0    0  0.13563501957E+02  0.33477532652E+02  0.24060546713E+02  0.47787266297E+02  0.19999978355E+02 0.  0.
        -12    1    1    2    0    0 -0.13563501957E+02 -0.33477532652E+02 -0.24060546713E+02  0.43400733703E+02  0.00000000000E+00 0.  1.
         11    1    3    3    0    0  0.90133395722E+01  0.98507928762E+01  0.22817300088E+01  0.13545652536E+02  0.51100000000E-03 0. -1.
        -11    1    3    3    0    0  0.65788321273E+01  0.72279395884E+01  0.65094919980E+01  0.11742982125E+02  0.51100000000E-03 0.  1.
         12    1    3    3    0    0 -0.20286697426E+01  0.16398800187E+02  0.15269324706E+02  0.22498631636E+02  0.00000000000E+00 0. -1.
</event>
<event>
 7    1  0.5022032E-011  0.4778727E+02  0.7816164E-02  0.1312668E+00
        -11   -1    0    0    0    0  0.00000000000E+00  0.00000000000E+00  0.45593999997E+02  0.45594000000E+02  0.51100000000E-03 0. -1.
         11   -1    0    0    0    0 -0.00000000000E+00 -0.00000000000E+00 -0.45593999997E+02  0.45594000000E+02  0.51100000000E-03 0.  1.
    9900012    2    1    2    0    0 -0.29214505895E+02  0.23069179876E+02 -0.22314764824E+02  0.47787272541E+02  0.20000006821E+02 0.  0.
         12    1    1    2    0    0  0.29214505895E+02 -0.23069179876E+02  0.22314764824E+02  0.43400727459E+02  0.00000000000E+00 0. -1.
         11    1    3    3    0    0 -0.14000350667E+02  0.11115670177E+02 -0.32606454194E+01  0.18171399261E+02  0.51100000000E-03 0. -1.
        -11    1    3    3    0    0 -0.94864487514E+01  0.36583704342E+01 -0.28971194960E+01  0.10572118320E+02  0.51100000000E-03 0.  1.
        -12    1    3    3    0    0 -0.57277064767E+01  0.82951392655E+01 -0.16156999908E+02  0.19043754959E+02  0.00000000000E+00 0.  1.
</event>
<event>
 7    1  0.5022032E-011  0.4778727E+02  0.7816164E-02  0.1312668E+00
        -11   -1    0    0    0    0  0.00000000000E+00  0.00000000000E+00  0.45593999997E+02  0.45594000000E+02  0.51100000000E-03 0.  1.
         11   -1    0    0    0    0 -0.00000000000E+00 -0.00000000000E+00 -0.45593999997E+02  0.45594000000E+02  0.51100000000E-03 0. -1.
    9900012    2    1    2    0    0  0.30106882574E+02 -0.19209072120E+02 -0.24661923465E+02  0.47787270754E+02  0.19999998677E+02 0.  0.
         12    1    1    2    0    0 -0.30106882574E+02  0.19209072120E+02  0.24661923465E+02  0.43400729246E+02  0.00000000000E+00 0. -1.
         11    1    3    3    0    0  0.30950551026E+01 -0.48939168340E+01 -0.94350260207E+01  0.11070207963E+02  0.51100000000E-03 0. -1.
        -11    1    3    3    0    0  0.11040018331E+02 -0.13193138651E+02 -0.58953363330E+01  0.18185046136E+02  0.51100000000E-03 0.  1.
        -12    1    3    3    0    0  0.15971809141E+02 -0.11220166347E+01 -0.93315611116E+01  0.18532016656E+02  0.00000000000E+00 0.  1.
</event>
<event>
 7    1  0.5022032E-011  0.4778727E+02  0.7816164E-02  0.1312668E+00
        -11   -1    0    0    0    0  0.00000000000E+00  0.00000000000E+00  0.45593999997E+02  0.45594000000E+02  0.51100000000E-03 0. -1.
         11   -1    0    0    0    0 -0.00000000000E+00 -0.00000000000E+00 -0.45593999997E+02  0.45594000000E+02  0.51100000000E-03 0.  1.
    9900012    2    1    2    0    0  0.34080062120E+02 -0.15931967521E+02  0.21641278392E+02  0.47787272430E+02  0.20000006319E+02 0.  0.
        -12    1    1    2    0    0 -0.34080062120E+02  0.15931967521E+02 -0.21641278392E+02  0.43400727570E+02  0.00000000000E+00 0.  1.
         11    1    3    3    0    0  0.17535181797E+02 -0.74772200460E+01  0.11525886550E+02  0.22276388426E+02  0.51100000000E-03 0. -1.
        -11    1    3    3    0    0  0.12488343856E+02 -0.12152130593E+02  0.98485642085E+01  0.20015674544E+02  0.51100000000E-03 0.  1.
         12    1    3    3    0    0  0.40565364658E+01  0.36973831185E+01  0.26682763310E+00  0.54952094600E+01  0.00000000000E+00 0. -1.
</event>
<event>
 7    1  0.5022032E-011  0.4778728E+02  0.7816164E-02  0.1312668E+00
        -11   -1    0    0    0    0  0.00000000000E+00  0.00000000000E+00  0.45593999997E+02  0.45594000000E+02  0.51100000000E-03 0. -1.
         11   -1    0    0    0    0 -0.00000000000E+00 -0.00000000000E+00 -0.45593999997E+02  0.45594000000E+02  0.51100000000E-03 0.  1.
    9900012    2    1    2    0    0 -0.14490826189E+02 -0.14997836080E+02  0.38061841291E+02  0.47787275430E+02  0.20000019997E+02 0.  0.
        -12    1    1    2    0    0  0.14490826189E+02  0.14997836080E+02 -0.38061841291E+02  0.43400724570E+02  0.00000000000E+00 0.  1.
         11    1    3    3    0    0 -0.11780228664E+02 -0.62285450571E+01  0.33521643008E+02  0.36073107866E+02  0.51100000000E-03 0. -1.
        -11    1    3    3    0    0 -0.14906710397E+01 -0.45153031582E+00  0.26866789621E+01  0.31055150750E+01  0.51100000000E-03 0.  1.
        -12    1    3    3    0    0 -0.12199264854E+01 -0.83177607067E+01  0.18535193208E+01  0.86086524890E+01  0.00000000000E+00 0.  1.
</event>
<event>
 7    1  0.5022032E-011  0.4778727E+02  0.7816164E-02  0.1312668E+00
        -11   -1    0    0    0    0  0.00000000000E+00  0.00000000000E+00  0.45593999997E+02  0.45594000000E+02  0.51100000000E-03 0. -1.
         11   -1    0    0    0    0 -0.00000000000E+00 -0.00000000000E+00 -0.45593999997E+02  0.45594000000E+02  0.51100000000E-03 0.  1.
    9900012    2    1    2    0    0 -0.11447006799E+01 -0.28445360292E+02 -0.32759339342E+02  0.47787272173E+02  0.20000005145E+02 0.  0.
         12    1    1    2    0    0  0.11447006799E+01  0.28445360292E+02  0.32759339342E+02  0.43400727827E+02  0.00000000000E+00 0. -1.
         11    1    3    3    0    0 -0.85402410226E+00 -0.83577489577E+01 -0.13308200889E+02  0.15738155418E+02  0.51100000000E-03 0.  1.
        -11    1    3    3    0    0 -0.41778220312E+01 -0.19535669732E+02 -0.11178896472E+02  0.22892451057E+02  0.51100000000E-03 0. -1.
         12    1    3    3    0    0  0.38871454535E+01 -0.55194160270E+00 -0.82722419811E+01  0.91566656979E+01  0.00000000000E+00 0. -1.
</event>
<event>
 7    1  0.5022032E-011  0.4778727E+02  0.7816164E-02  0.1312668E+00
        -11   -1    0    0    0    0  0.00000000000E+00  0.00000000000E+00  0.45593999997E+02  0.45594000000E+02  0.51100000000E-03 0. -1.
         11   -1    0    0    0    0 -0.00000000000E+00 -0.00000000000E+00 -0.45593999997E+02  0.45594000000E+02  0.51100000000E-03 0.  1.
    9900012    2    1    2    0    0 -0.12259654592E+02 -0.17959213024E+01  0.41594457485E+02  0.47787270081E+02  0.19999995607E+02 0.  0.
        -12    1    1    2    0    0  0.12259654592E+02  0.17959213024E+01 -0.41594457485E+02  0.43400729919E+02  0.00000000000E+00 0.  1.
         11    1    3    3    0    0 -0.92311126680E+01 -0.22881334397E+01  0.15778137810E+02  0.18422774730E+02  0.51100000000E-03 0. -1.
        -11    1    3    3    0    0 -0.25550152434E+01 -0.63456120820E+01  0.98836507160E+01  0.12020043566E+02  0.51100000000E-03 0.  1.
         12    1    3    3    0    0 -0.47352668060E+00  0.68378242194E+01  0.15932668959E+02  0.17344451785E+02  0.00000000000E+00 0. -1.
</event>
<event>
 7    1  0.5022032E-011  0.4778727E+02  0.7816164E-02  0.1312668E+00
        -11   -1    0    0    0    0  0.00000000000E+00  0.00000000000E+00  0.45593999997E+02  0.45594000000E+02  0.51100000000E-03 0. -1.
         11   -1    0    0    0    0 -0.00000000000E+00 -0.00000000000E+00 -0.45593999997E+02  0.45594000000E+02  0.51100000000E-03 0.  1.
    9900012    2    1    2    0    0 -0.37438497977E+02  0.12970993611E+02 -0.17712579024E+02  0.47787271185E+02  0.20000000640E+02 0.  0.
         12    1    1    2    0    0  0.37438497977E+02 -0.12970993611E+02  0.17712579024E+02  0.43400728815E+02  0.00000000000E+00 0. -1.
         11    1    3    3    0    0 -0.75412268933E+01  0.10857927898E+02 -0.30026001030E+01  0.13556559627E+02  0.51100000000E-03 0. -1.
        -11    1    3    3    0    0 -0.11041091030E+01  0.18027082383E+01 -0.10253376631E+01  0.23494960073E+01  0.51100000000E-03 0.  1.
        -12    1    3    3    0    0 -0.28793161980E+02  0.31035747525E+00 -0.13684641258E+02  0.31881215550E+02  0.00000000000E+00 0.  1.
</event>
<event>
 7    1  0.5022032E-011  0.4778727E+02  0.7816164E-02  0.1312668E+00
        -11   -1    0    0    0    0  0.00000000000E+00  0.00000000000E+00  0.45593999997E+02  0.45594000000E+02  0.51100000000E-03 0. -1.
         11   -1    0    0    0    0 -0.00000000000E+00 -0.00000000000E+00 -0.45593999997E+02  0.45594000000E+02  0.51100000000E-03 0.  1.
    9900012    2    1    2    0    0  0.30703189258E+01  0.19914299327E+02  0.38439787544E+02  0.47787269102E+02  0.19999991146E+02 0.  0.
        -12    1    1    2    0    0 -0.30703189258E+01 -0.19914299327E+02 -0.38439787544E+02  0.43400730898E+02  0.00000000000E+00 0.  1.
         11    1    3    3    0    0  0.71981375342E+01  0.16866843645E+02  0.26997453504E+02  0.32636882426E+02  0.51100000000E-03 0. -1.
        -11    1    3    3    0    0  0.24401618427E+01  0.24878973710E+00  0.13855209310E+01  0.28170826511E+01  0.51100000000E-03 0.  1.
        -12    1    3    3    0    0 -0.65679804511E+01  0.27986659454E+01  0.10056813109E+02  0.12333304026E+02  0.00000000000E+00 0.  1.
</event>
<event>
 7    1  0.5022032E-011  0.4778727E+02  0.7816164E-02  0.1312668E+00
        -11   -1    0    0    0    0  0.00000000000E+00  0.00000000000E+00  0.45593999997E+02  0.45594000000E+02  0.51100000000E-03 0. -1.
         11   -1    0    0    0    0 -0.00000000000E+00 -0.00000000000E+00 -0.45593999997E+02  0.45594000000E+02  0.51100000000E-03 0.  1.
    9900012    2    1    2    0    0  0.40731144783E+02  0.41930158786E+01 -0.14388031690E+02  0.47787274276E+02  0.20000014734E+02 0.  0.
         12    1    1    2    0    0 -0.40731144783E+02 -0.41930158786E+01  0.14388031690E+02  0.43400725724E+02  0.00000000000E+00 0. -1.
         11    1    3    3    0    0  0.25763604971E+02 -0.68487276883E+01 -0.73586273787E+01  0.27655339615E+02  0.51100000000E-03 0.  1.
        -11    1    3    3    0    0  0.43077421321E+01  0.46333046608E+01 -0.14002034721E+01  0.64795620516E+01  0.51100000000E-03 0. -1.
        -12    1    3    3    0    0  0.10659797679E+02  0.64084389061E+01 -0.56292008391E+01  0.13652372609E+02  0.00000000000E+00 0.  1.
</event>
<event>
 7    1  0.5022032E-011  0.4778727E+02  0.7816164E-02  0.1312668E+00
        -11   -1    0    0    0    0  0.00000000000E+00  0.00000000000E+00  0.45593999997E+02  0.45594000000E+02  0.51100000000E-03 0. -1.
         11   -1    0    0    0    0 -0.00000000000E+00 -0.00000000000E+00 -0.45593999997E+02  0.45594000000E+02  0.51100000000E-03 0.  1.
    9900012    2    1    2    0    0  0.26368084046E+02  0.16320660388E+02  0.30364178765E+02  0.47787272312E+02  0.20000005781E+02 0.  0.
        -12    1    1    2    0    0 -0.26368084046E+02 -0.16320660388E+02 -0.30364178765E+02  0.43400727688E+02  0.00000000000E+00 0.  1.
         11    1    3    3    0    0  0.20637784459E+02  0.14076617260E+02  0.20929618670E+02  0.32590155550E+02  0.51100000000E-03 0. -1.
        -11    1    3    3    0    0  0.36277328551E+01  0.62708626347E+01  0.68518439942E+01  0.99715560588E+01  0.51100000000E-03 0.  1.
        -12    1    3    3    0    0  0.21025667320E+01 -0.40268195073E+01  0.25827161005E+01  0.52255607032E+01  0.00000000000E+00 0.  1.
</event>
<event>
 7    1  0.5022032E-011  0.4778728E+02  0.7816164E-02  0.1312668E+00
        -11   -1    0    0    0    0  0.00000000000E+00  0.00000000000E+00  0.45593999997E+02  0.45594000000E+02  0.51100000000E-03 0. -1.
         11   -1    0    0    0    0 -0.00000000000E+00 -0.00000000000E+00 -0.45593999997E+02  0.45594000000E+02  0.51100000000E-03 0.  1.
    9900012    2    1    2    0    0 -0.26561308340E+02  0.30548534473E+02 -0.15649499704E+02  0.47787275350E+02  0.20000019631E+02 0.  0.
         12    1    1    2    0    0  0.26561308340E+02 -0.30548534473E+02  0.15649499704E+02  0.43400724650E+02  0.00000000000E+00 0. -1.
         11    1    3    3    0    0 -0.12427462651E+02  0.63354889233E+01 -0.59283098172E+00  0.13961794178E+02  0.51100000000E-03 0.  1.
        -11    1    3    3    0    0 -0.10831729201E+02  0.73725810937E+01 -0.58298776989E+01  0.14341156986E+02  0.51100000000E-03 0. -1.
         12    1    3    3    0    0 -0.33021164885E+01  0.16840464456E+02 -0.92267910234E+01  0.19484324186E+02  0.00000000000E+00 0. -1.
</event>
<event>
 7    1  0.1056366E-010  0.4778727E+02  0.7816164E-02  0.1312668E+00
        -11   -1    0    0    0    0  0.00000000000E+00  0.00000000000E+00  0.45593999997E+02  0.45594000000E+02  0.51100000000E-03 0. -1.
         11   -1    0    0    0    0 -0.00000000000E+00 -0.00000000000E+00 -0.45593999997E+02  0.45594000000E+02  0.51100000000E-03 0.  1.
    9900012    2    1    2    0    0 -0.37806881754E+02  0.47870621378E+01 -0.20768903773E+02  0.47787266875E+02  0.19999980990E+02 0.  0.
         12    1    1    2    0    0  0.37806881754E+02 -0.47870621378E+01  0.20768903773E+02  0.43400733125E+02  0.00000000000E+00 0. -1.
         11    1    3    3    0    0 -0.10755731564E+01  0.74875491240E-01  0.17167474920E+01  0.20272360904E+01  0.51100000000E-03 0.  1.
        -11    1    3    3    0    0 -0.15264636983E+02 -0.43707778609E+01 -0.50857405783E+01  0.16672660220E+02  0.51100000000E-03 0. -1.
        -12    1    3    3    0    0 -0.21466671615E+02  0.90829645074E+01 -0.17399910686E+02  0.29087370564E+02  0.00000000000E+00 0.  1.
</event>
<event>
 7    1  0.5022032E-011  0.4778726E+02  0.7816164E-02  0.1312668E+00
        -11   -1    0    0    0    0  0.00000000000E+00  0.00000000000E+00  0.45593999997E+02  0.45594000000E+02  0.51100000000E-03 0. -1.
         11   -1    0    0    0    0 -0.00000000000E+00 -0.00000000000E+00 -0.45593999997E+02  0.45594000000E+02  0.51100000000E-03 0.  1.
    9900012    2    1    2    0    0  0.10921978518E+02  0.31473397096E+02  0.27816544086E+02  0.47787257329E+02  0.19999937467E+02 0.  0.
        -12    1    1    2    0    0 -0.10921978518E+02 -0.31473397096E+02 -0.27816544086E+02  0.43400742671E+02  0.00000000000E+00 0.  1.
         11    1    3    3    0    0  0.13909102204E+01  0.55439010235E+01 -0.10635291132E+01  0.58138252671E+01  0.51100000000E-03 0. -1.
        -11    1    3    3    0    0  0.54897884284E+01  0.22609797372E+02  0.16469466246E+02  0.28505859624E+02  0.51100000000E-03 0.  1.
        -12    1    3    3    0    0  0.40412798694E+01  0.33196986999E+01  0.12410606953E+02  0.13467572438E+02  0.00000000000E+00 0.  1.
</event>
<event>
 7    1  0.5022032E-011  0.4778728E+02  0.7816164E-02  0.1312668E+00
        -11   -1    0    0    0    0  0.00000000000E+00  0.00000000000E+00  0.45593999997E+02  0.45594000000E+02  0.51100000000E-03 0. -1.
         11   -1    0    0    0    0 -0.00000000000E+00 -0.00000000000E+00 -0.45593999997E+02  0.45594000000E+02  0.51100000000E-03 0.  1.
    9900012    2    1    2    0    0  0.29883495788E+01  0.13025619652E+02 -0.41291959379E+02  0.47787275238E+02  0.20000019122E+02 0.  0.
         12    1    1    2    0    0 -0.29883495788E+01 -0.13025619652E+02  0.41291959379E+02  0.43400724762E+02  0.00000000000E+00 0. -1.
         11    1    3    3    0    0 -0.77635801742E+00 -0.35528915562E+00 -0.27666115912E+01  0.28953587192E+01  0.51100000000E-03 0. -1.
        -11    1    3    3    0    0  0.10901106358E+02  0.90271848318E+01 -0.19352751019E+02  0.23976095555E+02  0.51100000000E-03 0.  1.
         12    1    3    3    0    0 -0.71363987618E+01  0.43537239755E+01 -0.19172596769E+02  0.20915820964E+02  0.00000000000E+00 0. -1.
</event>
<event>
 7    1  0.5022032E-011  0.4778727E+02  0.7816164E-02  0.1312668E+00
        -11   -1    0    0    0    0  0.00000000000E+00  0.00000000000E+00  0.45593999997E+02  0.45594000000E+02  0.51100000000E-03 0. -1.
         11   -1    0    0    0    0 -0.00000000000E+00 -0.00000000000E+00 -0.45593999997E+02  0.45594000000E+02  0.51100000000E-03 0.  1.
    9900012    2    1    2    0    0 -0.21567449612E+02 -0.35362143344E+02  0.12960986307E+02  0.47787271542E+02  0.20000002268E+02 0.  0.
        -12    1    1    2    0    0  0.21567449612E+02  0.35362143344E+02 -0.12960986307E+02  0.43400728458E+02  0.00000000000E+00 0.  1.
         11    1    3    3    0    0 -0.92734140654E+01 -0.15040691304E+02  0.50393224000E+01  0.18374258457E+02  0.51100000000E-03 0. -1.
        -11    1    3    3    0    0 -0.15464763737E+02 -0.12981376820E+02  0.69737939930E+01  0.21361387233E+02  0.51100000000E-03 0.  1.
        -12    1    3    3    0    0  0.31707281906E+01 -0.73400752193E+01  0.94786991414E+00  0.80516258518E+01  0.00000000000E+00 0.  1.
</event>
<event>
 7    1  0.5022032E-011  0.4778727E+02  0.7816164E-02  0.1312668E+00
        -11   -1    0    0    0    0  0.00000000000E+00  0.00000000000E+00  0.45593999997E+02  0.45594000000E+02  0.51100000000E-03 0. -1.
         11   -1    0    0    0    0 -0.00000000000E+00 -0.00000000000E+00 -0.45593999997E+02  0.45594000000E+02  0.51100000000E-03 0.  1.
    9900012    2    1    2    0    0  0.80600184764E+00  0.21591570078E+02 -0.37640105260E+02  0.47787273492E+02  0.20000011161E+02 0.  0.
         12    1    1    2    0    0 -0.80600184764E+00 -0.21591570078E+02  0.37640105260E+02  0.43400726508E+02  0.00000000000E+00 0. -1.
         11    1    3    3    0    0  0.20024324902E+01  0.28477075536E+01 -0.25996912266E+01  0.43448324391E+01  0.51100000000E-03 0. -1.
        -11    1    3    3    0    0 -0.48611606881E+01  0.20786231472E+02 -0.30825150894E+02  0.37495176089E+02  0.51100000000E-03 0.  1.
         12    1    3    3    0    0  0.36647300455E+01 -0.20423689472E+01 -0.42152631396E+01  0.59472649646E+01  0.00000000000E+00 0. -1.
</event>
<event>
 7    1  0.5022032E-011  0.4778727E+02  0.7816164E-02  0.1312668E+00
        -11   -1    0    0    0    0  0.00000000000E+00  0.00000000000E+00  0.45593999997E+02  0.45594000000E+02  0.51100000000E-03 0. -1.
         11   -1    0    0    0    0 -0.00000000000E+00 -0.00000000000E+00 -0.45593999997E+02  0.45594000000E+02  0.51100000000E-03 0.  1.
    9900012    2    1    2    0    0 -0.16139178525E+02  0.12710816269E+02 -0.38230685821E+02  0.47787271066E+02  0.20000000098E+02 0.  0.
         12    1    1    2    0    0  0.16139178525E+02 -0.12710816269E+02  0.38230685821E+02  0.43400728934E+02  0.00000000000E+00 0. -1.
         11    1    3    3    0    0 -0.54517514096E+01 -0.14326221399E+01 -0.41442185898E+01  0.69963238639E+01  0.51100000000E-03 0. -1.
        -11    1    3    3    0    0 -0.12841748604E+02  0.63766091363E+01 -0.22334390130E+02  0.26540471624E+02  0.51100000000E-03 0.  1.
         12    1    3    3    0    0  0.21543214882E+01  0.77668292724E+01 -0.11752077101E+02  0.14250475579E+02  0.00000000000E+00 0. -1.
</event>
<event>
 7    1  0.5022032E-011  0.4778727E+02  0.7816164E-02  0.1312668E+00
        -11   -1    0    0    0    0  0.00000000000E+00  0.00000000000E+00  0.45593999997E+02  0.45594000000E+02  0.51100000000E-03 0. -1.
         11   -1    0    0    0    0 -0.00000000000E+00 -0.00000000000E+00 -0.45593999997E+02  0.45594000000E+02  0.51100000000E-03 0.  1.
    9900012    2    1    2    0    0 -0.33214187541E+02 -0.21944450446E+02  0.17288208703E+02  0.47787270518E+02  0.19999997602E+02 0.  0.
        -12    1    1    2    0    0  0.33214187541E+02  0.21944450446E+02 -0.17288208703E+02  0.43400729482E+02  0.00000000000E+00 0.  1.
         11    1    3    3    0    0 -0.24286194622E+02 -0.13087266824E+02  0.12633048950E+02  0.30342869479E+02  0.51100000000E-03 0. -1.
        -11    1    3    3    0    0 -0.11504512304E+02 -0.79224101805E+01  0.31568717408E+01  0.14320762056E+02  0.51100000000E-03 0.  1.
        -12    1    3    3    0    0  0.25765193857E+01 -0.93477344138E+00  0.14982880121E+01  0.31236389834E+01  0.00000000000E+00 0.  1.
</event>
<event>
 7    1  0.5022032E-011  0.4778727E+02  0.7816164E-02  0.1312668E+00
        -11   -1    0    0    0    0  0.00000000000E+00  0.00000000000E+00  0.45593999997E+02  0.45594000000E+02  0.51100000000E-03 0. -1.
         11   -1    0    0    0    0 -0.00000000000E+00 -0.00000000000E+00 -0.45593999997E+02  0.45594000000E+02  0.51100000000E-03 0.  1.
    9900012    2    1    2    0    0  0.19561786336E+01 -0.71818074565E+01 -0.42757672190E+02  0.47787268159E+02  0.19999986846E+02 0.  0.
         12    1    1    2    0    0 -0.19561786336E+01  0.71818074565E+01  0.42757672190E+02  0.43400731841E+02  0.00000000000E+00 0. -1.
         11    1    3    3    0    0  0.69341605466E+01 -0.82811930675E+01 -0.35349634371E+02  0.36962919143E+02  0.51100000000E-03 0. -1.
        -11    1    3    3    0    0 -0.20683121931E+01 -0.57477624459E+00 -0.71411436762E+01  0.74568234742E+01  0.51100000000E-03 0.  1.
         12    1    3    3    0    0 -0.29096697198E+01  0.16741618556E+01 -0.26689414271E+00  0.33675255426E+01  0.00000000000E+00 0. -1.
</event>
<event>
 7    1  0.6569063E-011  0.4778727E+02  0.7816164E-02  0.1312668E+00
        -11   -1    0    0    0    0  0.00000000000E+00  0.00000000000E+00  0.45593999997E+02  0.45594000000E+02  0.51100000000E-03 0.  1.
         11   -1    0    0    0    0 -0.00000000000E+00 -0.00000000000E+00 -0.45593999997E+02  0.45594000000E+02  0.51100000000E-03 0. -1.
    9900012    2    1    2    0    0  0.38951425233E+02  0.13201896599E+02 -0.13860738710E+02  0.47787266376E+02  0.19999978715E+02 0.  0.
         12    1    1    2    0    0 -0.38951425233E+02 -0.13201896599E+02  0.13860738710E+02  0.43400733624E+02  0.00000000000E+00 0. -1.
         11    1    3    3    0    0  0.13498992139E+01 -0.94268727031E-01 -0.42561813265E+01  0.44661162351E+01  0.51100000000E-03 0. -1.
        -11    1    3    3    0    0  0.22513827200E+02  0.31801163860E+01 -0.10687250426E+02  0.25123751259E+02  0.51100000000E-03 0.  1.
        -12    1    3    3    0    0  0.15087698820E+02  0.10116048940E+02  0.10826930429E+01  0.18197398881E+02  0.00000000000E+00 0.  1.
</event>
<event>
 7    1  0.5022032E-011  0.4778727E+02  0.7816164E-02  0.1312668E+00
        -11   -1    0    0    0    0  0.00000000000E+00  0.00000000000E+00  0.45593999997E+02  0.45594000000E+02  0.51100000000E-03 0. -1.
         11   -1    0    0    0    0 -0.00000000000E+00 -0.00000000000E+00 -0.45593999997E+02  0.45594000000E+02  0.51100000000E-03 0.  1.
    9900012    2    1    2    0    0 -0.25267640786E+02  0.18140177765E+02 -0.30267199434E+02  0.47787273257E+02  0.20000010089E+02 0.  0.
         12    1    1    2    0    0  0.25267640786E+02 -0.18140177765E+02  0.30267199434E+02  0.43400726743E+02  0.00000000000E+00 0. -1.
         11    1    3    3    0    0 -0.58372279084E+01  0.19831880974E+01 -0.53153059379E+00  0.61877936066E+01  0.51100000000E-03 0. -1.
        -11    1    3    3    0    0 -0.93880405592E+01 -0.10462901876E+00 -0.60703658149E+01  0.11180142851E+02  0.51100000000E-03 0.  1.
         12    1    3    3    0    0 -0.10042372318E+02  0.16261618686E+02 -0.23665303026E+02  0.30419336800E+02  0.00000000000E+00 0. -1.
</event>
<event>
 7    1  0.5022032E-011  0.4778733E+02  0.7816164E-02  0.1312667E+00
        -11   -1    0    0    0    0  0.00000000000E+00  0.00000000000E+00  0.45593999997E+02  0.45594000000E+02  0.51100000000E-03 0. -1.
         11   -1    0    0    0    0 -0.00000000000E+00 -0.00000000000E+00 -0.45593999997E+02  0.45594000000E+02  0.51100000000E-03 0.  1.
    9900012    2    1    2    0    0 -0.40815667427E+02 -0.13199224209E+02  0.65939146613E+01  0.47787332519E+02  0.20000280287E+02 0.  0.
        -12    1    1    2    0    0  0.40815667427E+02  0.13199224209E+02 -0.65939146613E+01  0.43400667481E+02  0.00000000000E+00 0.  1.
         11    1    3    3    0    0 -0.16194922765E+02 -0.75809738318E+01  0.77179928755E+01  0.19475987828E+02  0.51100000000E-03 0. -1.
        -11    1    3    3    0    0 -0.13952131850E+02  0.84784272679E+00  0.44195465663E+01  0.14659918573E+02  0.51100000000E-03 0.  1.
         12    1    3    3    0    0 -0.10668612812E+02 -0.64660931041E+01 -0.55436247805E+01  0.13651426119E+02  0.00000000000E+00 0. -1.
</event>
<event>
 7    1  0.5022032E-011  0.4778727E+02  0.7816164E-02  0.1312668E+00
        -11   -1    0    0    0    0  0.00000000000E+00  0.00000000000E+00  0.45593999997E+02  0.45594000000E+02  0.51100000000E-03 0.  1.
         11   -1    0    0    0    0 -0.00000000000E+00 -0.00000000000E+00 -0.45593999997E+02  0.45594000000E+02  0.51100000000E-03 0. -1.
    9900012    2    1    2    0    0 -0.26285807372E+02 -0.24897286058E+02  0.23933349747E+02  0.47787265532E+02  0.19999974867E+02 0.  0.
        -12    1    1    2    0    0  0.26285807372E+02  0.24897286058E+02 -0.23933349747E+02  0.43400734468E+02  0.00000000000E+00 0.  1.
         11    1    3    3    0    0 -0.17823347148E+02 -0.12669163382E+02  0.17207000585E+02  0.27825532767E+02  0.51100000000E-03 0. -1.
        -11    1    3    3    0    0 -0.10824496366E+02 -0.11816540519E+02  0.43932360780E+01  0.16616283427E+02  0.51100000000E-03 0.  1.
        -12    1    3    3    0    0  0.23620361425E+01 -0.41158215610E+00  0.23331130839E+01  0.33454493378E+01  0.00000000000E+00 0.  1.
</event>
<event>
 7    1  0.5022032E-011  0.4778726E+02  0.7816164E-02  0.1312668E+00
        -11   -1    0    0    0    0  0.00000000000E+00  0.00000000000E+00  0.45593999997E+02  0.45594000000E+02  0.51100000000E-03 0. -1.
         11   -1    0    0    0    0 -0.00000000000E+00 -0.00000000000E+00 -0.45593999997E+02  0.45594000000E+02  0.51100000000E-03 0.  1.
    9900012    2    1    2    0    0 -0.27166956382E+01 -0.43315095218E+02  0.21492260992E+00  0.47787261520E+02  0.19999956572E+02 0.  0.
         12    1    1    2    0    0  0.27166956382E+01  0.43315095218E+02 -0.21492260992E+00  0.43400738480E+02  0.00000000000E+00 0. -1.
         11    1    3    3    0    0  0.10459737334E+00 -0.10397523073E+02 -0.16227166151E+01  0.10523907836E+02  0.51100000000E-03 0. -1.
        -11    1    3    3    0    0  0.67918596859E+01 -0.19953712135E+02  0.91623360034E+00  0.21097854636E+02  0.51100000000E-03 0.  1.
         12    1    3    3    0    0 -0.96131526975E+01 -0.12963860010E+02  0.92140562465E+00  0.16165499048E+02  0.00000000000E+00 0. -1.
</event>
<event>
 7    1  0.5022032E-011  0.4778727E+02  0.7816164E-02  0.1312668E+00
        -11   -1    0    0    0    0  0.00000000000E+00  0.00000000000E+00  0.45593999997E+02  0.45594000000E+02  0.51100000000E-03 0. -1.
         11   -1    0    0    0    0 -0.00000000000E+00 -0.00000000000E+00 -0.45593999997E+02  0.45594000000E+02  0.51100000000E-03 0.  1.
    9900012    2    1    2    0    0  0.27591901321E+01 -0.31276099354E+02 -0.29963572661E+02  0.47787271808E+02  0.20000003484E+02 0.  0.
         12    1    1    2    0    0 -0.27591901321E+01  0.31276099354E+02  0.29963572661E+02  0.43400728192E+02  0.00000000000E+00 0. -1.
         11    1    3    3    0    0  0.39979187029E+01 -0.14892844400E+02 -0.87797005837E+01  0.17744388152E+02  0.51100000000E-03 0. -1.
        -11    1    3    3    0    0  0.32302008359E+01 -0.12963532779E+02 -0.20365367644E+02  0.24356427880E+02  0.51100000000E-03 0.  1.
         12    1    3    3    0    0 -0.44689294067E+01 -0.34197221742E+01 -0.81850443345E+00  0.56864557765E+01  0.00000000000E+00 0. -1.
</event>
<event>
 7    1  0.5022032E-011  0.4778727E+02  0.7816164E-02  0.1312668E+00
        -11   -1    0    0    0    0  0.00000000000E+00  0.00000000000E+00  0.45593999997E+02  0.45594000000E+02  0.51100000000E-03 0. -1.
         11   -1    0    0    0    0 -0.00000000000E+00 -0.00000000000E+00 -0.45593999997E+02  0.45594000000E+02  0.51100000000E-03 0.  1.
    9900012    2    1    2    0    0  0.24540847944E+02  0.15834346377E+02  0.32103638322E+02  0.47787270323E+02  0.19999996709E+02 0.  0.
        -12    1    1    2    0    0 -0.24540847944E+02 -0.15834346377E+02 -0.32103638322E+02  0.43400729677E+02  0.00000000000E+00 0.  1.
         11    1    3    3    0    0  0.65254822140E+01  0.18099932723E+01  0.91797953966E+01  0.11407306323E+02  0.51100000000E-03 0. -1.
        -11    1    3    3    0    0  0.17618709556E+02  0.13314156164E+02  0.11446523104E+02  0.24873853184E+02  0.51100000000E-03 0.  1.
        -12    1    3    3    0    0  0.39665617417E+00  0.71019694073E+00  0.11477319821E+02  0.11506110815E+02  0.00000000000E+00 0.  1.
</event>
<event>
 7    1  0.5022032E-011  0.4778727E+02  0.7816164E-02  0.1312668E+00
        -11   -1    0    0    0    0  0.00000000000E+00  0.00000000000E+00  0.45593999997E+02  0.45594000000E+02  0.51100000000E-03 0. -1.
         11   -1    0    0    0    0 -0.00000000000E+00 -0.00000000000E+00 -0.45593999997E+02  0.45594000000E+02  0.51100000000E-03 0.  1.
    9900012    2    1    2    0    0  0.22897949785E+02  0.16596751855E+02  0.32921955030E+02  0.47787269597E+02  0.19999993402E+02 0.  0.
        -12    1    1    2    0    0 -0.22897949785E+02 -0.16596751855E+02 -0.32921955030E+02  0.43400730403E+02  0.00000000000E+00 0.  1.
         11    1    3    3    0    0  0.11550790963E+02  0.88476147903E+01  0.25785105801E+02  0.29606971151E+02  0.51100000000E-03 0. -1.
        -11    1    3    3    0    0  0.51907119793E+01 -0.13270990789E+01  0.42522948376E+01  0.68400800042E+01  0.51100000000E-03 0.  1.
         12    1    3    3    0    0  0.61564468428E+01  0.90762361439E+01  0.28845543918E+01  0.11340218442E+02  0.00000000000E+00 0. -1.
</event>
<event>
 7    1  0.5022032E-011  0.4778726E+02  0.7816164E-02  0.1312668E+00
        -11   -1    0    0    0    0  0.00000000000E+00  0.00000000000E+00  0.45593999997E+02  0.45594000000E+02  0.51100000000E-03 0. -1.
         11   -1    0    0    0    0 -0.00000000000E+00 -0.00000000000E+00 -0.45593999997E+02  0.45594000000E+02  0.51100000000E-03 0.  1.
    9900012    2    1    2    0    0 -0.14500619825E+02 -0.53271213301E+01  0.40558325414E+02  0.47787263170E+02  0.19999964098E+02 0.  0.
        -12    1    1    2    0    0  0.14500619825E+02  0.53271213301E+01 -0.40558325414E+02  0.43400736830E+02  0.00000000000E+00 0.  1.
         11    1    3    3    0    0 -0.42798982484E+01  0.10713479098E+01  0.20888375549E+02  0.21349228292E+02  0.51100000000E-03 0. -1.
        -11    1    3    3    0    0  0.14538901852E+01  0.25023415258E+01  0.23105294720E+01  0.37032494494E+01  0.51100000000E-03 0.  1.
        -12    1    3    3    0    0 -0.11674611762E+02 -0.89008107656E+01  0.17359420394E+02  0.22734785428E+02  0.00000000000E+00 0.  1.
</event>
<event>
 7    1  0.5022032E-011  0.4778727E+02  0.7816164E-02  0.1312668E+00
        -11   -1    0    0    0    0  0.00000000000E+00  0.00000000000E+00  0.45593999997E+02  0.45594000000E+02  0.51100000000E-03 0. -1.
         11   -1    0    0    0    0 -0.00000000000E+00 -0.00000000000E+00 -0.45593999997E+02  0.45594000000E+02  0.51100000000E-03 0.  1.
    9900012    2    1    2    0    0 -0.22652909800E+02 -0.56477946916E+01 -0.36586490642E+02  0.47787271840E+02  0.20000003629E+02 0.  0.
         12    1    1    2    0    0  0.22652909800E+02  0.56477946916E+01  0.36586490642E+02  0.43400728160E+02  0.00000000000E+00 0. -1.
         11    1    3    3    0    0 -0.44076409012E+01  0.29637048042E+00 -0.16968282552E+01  0.47322679726E+01  0.51100000000E-03 0. -1.
        -11    1    3    3    0    0 -0.14546207853E+02 -0.28020111810E+01 -0.10426579453E+02  0.18115103889E+02  0.51100000000E-03 0.  1.
         12    1    3    3    0    0 -0.36990610461E+01 -0.31421539910E+01 -0.24463082934E+02  0.24939899979E+02  0.00000000000E+00 0. -1.
</event>
<event>
 7    1  0.5022032E-011  0.4778728E+02  0.7816164E-02  0.1312668E+00
        -11   -1    0    0    0    0  0.00000000000E+00  0.00000000000E+00  0.45593999997E+02  0.45594000000E+02  0.51100000000E-03 0. -1.
         11   -1    0    0    0    0 -0.00000000000E+00 -0.00000000000E+00 -0.45593999997E+02  0.45594000000E+02  0.51100000000E-03 0.  1.
    9900012    2    1    2    0    0 -0.11209295020E+02  0.21868902305E+02  0.35773249024E+02  0.47787279630E+02  0.20000039146E+02 0.  0.
        -12    1    1    2    0    0  0.11209295020E+02 -0.21868902305E+02 -0.35773249024E+02  0.43400720370E+02  0.00000000000E+00 0.  1.
         11    1    3    3    0    0  0.29574160378E+01  0.30229965351E+01  0.59190260051E+01  0.72745918636E+01  0.51100000000E-03 0. -1.
        -11    1    3    3    0    0 -0.39062955814E+01  0.10609197933E+02  0.49402104010E+01  0.12337743109E+02  0.51100000000E-03 0.  1.
         12    1    3    3    0    0 -0.10260415477E+02  0.82367078368E+01  0.24914012618E+02  0.28174944658E+02  0.00000000000E+00 0. -1.
</event>
<event>
 7    1  0.5022032E-011  0.4778728E+02  0.7816164E-02  0.1312668E+00
        -11   -1    0    0    0    0  0.00000000000E+00  0.00000000000E+00  0.45593999997E+02  0.45594000000E+02  0.51100000000E-03 0. -1.
         11   -1    0    0    0    0 -0.00000000000E+00 -0.00000000000E+00 -0.45593999997E+02  0.45594000000E+02  0.51100000000E-03 0.  1.
    9900012    2    1    2    0    0  0.21519739926E+02  0.13742150571E+01  0.37664772915E+02  0.47787276593E+02  0.20000025296E+02 0.  0.
        -12    1    1    2    0    0 -0.21519739926E+02 -0.13742150571E+01 -0.37664772915E+02  0.43400723407E+02  0.00000000000E+00 0.  1.
         11    1    3    3    0    0  0.60506709209E+01 -0.36880876016E+01  0.78266573663E+01  0.10557896312E+02  0.51100000000E-03 0. -1.
        -11    1    3    3    0    0  0.89951378959E+01  0.62340605681E+01  0.59607675937E+01  0.12462213587E+02  0.51100000000E-03 0.  1.
         12    1    3    3    0    0  0.64739311095E+01 -0.11717579094E+01  0.23877347955E+02  0.24767166693E+02  0.00000000000E+00 0. -1.
</event>
<event>
 7    1  0.5022032E-011  0.4778727E+02  0.7816164E-02  0.1312668E+00
        -11   -1    0    0    0    0  0.00000000000E+00  0.00000000000E+00  0.45593999997E+02  0.45594000000E+02  0.51100000000E-03 0. -1.
         11   -1    0    0    0    0 -0.00000000000E+00 -0.00000000000E+00 -0.45593999997E+02  0.45594000000E+02  0.51100000000E-03 0.  1.
    9900012    2    1    2    0    0 -0.18999359535E+02 -0.27074801172E+02  0.28099871528E+02  0.47787270731E+02  0.19999998571E+02 0.  0.
        -12    1    1    2    0    0  0.18999359535E+02  0.27074801172E+02 -0.28099871528E+02  0.43400729269E+02  0.00000000000E+00 0.  1.
         11    1    3    3    0    0 -0.13416429801E+02 -0.61570286455E+01  0.13064639329E+02  0.19712797655E+02  0.51100000000E-03 0.  1.
        -11    1    3    3    0    0 -0.76155245203E+01 -0.12253648091E+02  0.11683696393E+02  0.18564936491E+02  0.51100000000E-03 0. -1.
        -12    1    3    3    0    0  0.20325947865E+01 -0.86641244358E+01  0.33515358063E+01  0.95095365852E+01  0.00000000000E+00 0.  1.
</event>
<event>
 7    1  0.5022032E-011  0.4778727E+02  0.7816164E-02  0.1312668E+00
        -11   -1    0    0    0    0  0.00000000000E+00  0.00000000000E+00  0.45593999997E+02  0.45594000000E+02  0.51100000000E-03 0. -1.
         11   -1    0    0    0    0 -0.00000000000E+00 -0.00000000000E+00 -0.45593999997E+02  0.45594000000E+02  0.51100000000E-03 0.  1.
    9900012    2    1    2    0    0  0.26079281345E+02 -0.11573846086E+02  0.32703826700E+02  0.47787272937E+02  0.20000008631E+02 0.  0.
        -12    1    1    2    0    0 -0.26079281345E+02  0.11573846086E+02 -0.32703826700E+02  0.43400727063E+02  0.00000000000E+00 0.  1.
         11    1    3    3    0    0  0.18561890102E+02 -0.91968266661E+01  0.13376215142E+02  0.24658639797E+02  0.51100000000E-03 0. -1.
        -11    1    3    3    0    0  0.44682641013E+01 -0.10145913973E+01  0.12560132282E+01  0.47510366525E+01  0.51100000000E-03 0.  1.
         12    1    3    3    0    0  0.30491271421E+01 -0.13624280223E+01  0.18071598330E+02  0.18377596488E+02  0.00000000000E+00 0. -1.
</event>
<event>
 7    1  0.5022032E-011  0.4778727E+02  0.7816164E-02  0.1312668E+00
        -11   -1    0    0    0    0  0.00000000000E+00  0.00000000000E+00  0.45593999997E+02  0.45594000000E+02  0.51100000000E-03 0. -1.
         11   -1    0    0    0    0 -0.00000000000E+00 -0.00000000000E+00 -0.45593999997E+02  0.45594000000E+02  0.51100000000E-03 0.  1.
    9900012    2    1    2    0    0  0.16980002656E+02 -0.12357793725E+02 -0.37981412008E+02  0.47787271733E+02  0.20000003141E+02 0.  0.
         12    1    1    2    0    0 -0.16980002656E+02  0.12357793725E+02  0.37981412008E+02  0.43400728267E+02  0.00000000000E+00 0. -1.
         11    1    3    3    0    0 -0.55139693683E+00 -0.30571983669E+00 -0.65843312183E+01  0.66144479024E+01  0.51100000000E-03 0. -1.
        -11    1    3    3    0    0  0.34239436611E+00 -0.82132792929E+01 -0.15021827892E+02  0.17123974542E+02  0.51100000000E-03 0.  1.
         12    1    3    3    0    0  0.17189005227E+02 -0.38387945959E+01 -0.16375252898E+02  0.24048849289E+02  0.00000000000E+00 0. -1.
</event>
<event>
 7    1  0.5022032E-011  0.4778727E+02  0.7816164E-02  0.1312668E+00
        -11   -1    0    0    0    0  0.00000000000E+00  0.00000000000E+00  0.45593999997E+02  0.45594000000E+02  0.51100000000E-03 0. -1.
         11   -1    0    0    0    0 -0.00000000000E+00 -0.00000000000E+00 -0.45593999997E+02  0.45594000000E+02  0.51100000000E-03 0.  1.
    9900012    2    1    2    0    0 -0.18444232358E+02  0.35058518536E+02 -0.17729463894E+02  0.47787270523E+02  0.19999997621E+02 0.  0.
         12    1    1    2    0    0  0.18444232358E+02 -0.35058518536E+02  0.17729463894E+02  0.43400729477E+02  0.00000000000E+00 0. -1.
         11    1    3    3    0    0 -0.69727282050E+01  0.99173458181E+01 -0.90446290255E+01  0.15125409124E+02  0.51100000000E-03 0.  1.
        -11    1    3    3    0    0 -0.27376084053E+01  0.19958896009E+02 -0.98765598429E+01  0.22436543055E+02  0.51100000000E-03 0. -1.
         12    1    3    3    0    0 -0.87338957476E+01  0.51822767084E+01  0.11917249739E+01  0.10225318343E+02  0.00000000000E+00 0. -1.
</event>
<event>
 7    1  0.5022032E-011  0.4778727E+02  0.7816164E-02  0.1312668E+00
        -11   -1    0    0    0    0  0.00000000000E+00  0.00000000000E+00  0.45593999997E+02  0.45594000000E+02  0.51100000000E-03 0. -1.
         11   -1    0    0    0    0 -0.00000000000E+00 -0.00000000000E+00 -0.45593999997E+02  0.45594000000E+02  0.51100000000E-03 0.  1.
    9900012    2    1    2    0    0 -0.40684192762E+02 -0.96703982312E+01 -0.11614784237E+02  0.47787270104E+02  0.19999995713E+02 0.  0.
         12    1    1    2    0    0  0.40684192762E+02  0.96703982312E+01  0.11614784237E+02  0.43400729896E+02  0.00000000000E+00 0. -1.
         11    1    3    3    0    0 -0.19191624697E+02 -0.33249469949E+01 -0.10021500154E+02  0.21904433264E+02  0.51100000000E-03 0. -1.
        -11    1    3    3    0    0 -0.15984104273E+02  0.15768923804E+01 -0.22146844391E+01  0.16213667273E+02  0.51100000000E-03 0.  1.
         12    1    3    3    0    0 -0.55084637907E+01 -0.79223436167E+01  0.62140035546E+00  0.96691695671E+01  0.00000000000E+00 0. -1.
</event>
<event>
 7    1  0.5022032E-011  0.4778727E+02  0.7816164E-02  0.1312668E+00
        -11   -1    0    0    0    0  0.00000000000E+00  0.00000000000E+00  0.45593999997E+02  0.45594000000E+02  0.51100000000E-03 0.  1.
         11   -1    0    0    0    0 -0.00000000000E+00 -0.00000000000E+00 -0.45593999997E+02  0.45594000000E+02  0.51100000000E-03 0. -1.
    9900012    2    1    2    0    0 -0.30506204793E+02 -0.27135507727E+02  0.14719334864E+02  0.47787272709E+02  0.20000007591E+02 0.  0.
        -12    1    1    2    0    0  0.30506204793E+02  0.27135507727E+02 -0.14719334864E+02  0.43400727291E+02  0.00000000000E+00 0.  1.
         11    1    3    3    0    0 -0.87020277700E+01 -0.51953519165E+01 -0.12171252510E+01  0.10207759940E+02  0.51100000000E-03 0. -1.
        -11    1    3    3    0    0 -0.91897255371E+01 -0.32427307658E+01 -0.36270037737E+00  0.97518157330E+01  0.51100000000E-03 0.  1.
        -12    1    3    3    0    0 -0.12614451486E+02 -0.18697425045E+02  0.16299160492E+02  0.27827697037E+02  0.00000000000E+00 0.  1.
</event>
<event>
 7    1  0.5022032E-011  0.4778727E+02  0.7816164E-02  0.1312668E+00
        -11   -1    0    0    0    0  0.00000000000E+00  0.00000000000E+00  0.45593999997E+02  0.45594000000E+02  0.51100000000E-03 0. -1.
         11   -1    0    0    0    0 -0.00000000000E+00 -0.00000000000E+00 -0.45593999997E+02  0.45594000000E+02  0.51100000000E-03 0.  1.
    9900012    2    1    2    0    0 -0.43273391460E+02 -0.23126208588E+01  0.23851063562E+01  0.47787270098E+02  0.19999995687E+02 0.  0.
         12    1    1    2    0    0  0.43273391460E+02  0.23126208588E+01 -0.23851063562E+01  0.43400729902E+02  0.00000000000E+00 0. -1.
         11    1    3    3    0    0 -0.54570316099E+00 -0.87815020232E+00  0.35358741572E+00  0.10926866154E+01  0.51100000000E-03 0. -1.
        -11    1    3    3    0    0 -0.39247900085E+02 -0.10808014921E+01 -0.42630131155E+01  0.39493532053E+02  0.51100000000E-03 0.  1.
        -12    1    3    3    0    0 -0.34797882134E+01 -0.35366916439E+00  0.62945320560E+01  0.72010514296E+01  0.00000000000E+00 0.  1.
</event>
<event>
 7    1  0.5022032E-011  0.4778727E+02  0.7816164E-02  0.1312668E+00
        -11   -1    0    0    0    0  0.00000000000E+00  0.00000000000E+00  0.45593999997E+02  0.45594000000E+02  0.51100000000E-03 0. -1.
         11   -1    0    0    0    0 -0.00000000000E+00 -0.00000000000E+00 -0.45593999997E+02  0.45594000000E+02  0.51100000000E-03 0.  1.
    9900012    2    1    2    0    0  0.63668391047E+01  0.24835665424E+02  0.35018229001E+02  0.47787270979E+02  0.19999999701E+02 0.  0.
        -12    1    1    2    0    0 -0.63668391047E+01 -0.24835665424E+02 -0.35018229001E+02  0.43400729021E+02  0.00000000000E+00 0.  1.
         11    1    3    3    0    0  0.22284850978E+01  0.48335250222E+01  0.67299819570E+01  0.85803127783E+01  0.51100000000E-03 0. -1.
        -11    1    3    3    0    0 -0.69365224181E+01  0.52497938003E+01  0.89056796129E+01  0.12449369777E+02  0.51100000000E-03 0.  1.
        -12    1    3    3    0    0  0.11074876425E+02  0.14752346601E+02  0.19382567431E+02  0.26757588424E+02  0.00000000000E+00 0.  1.
</event>
<event>
 7    1  0.5022032E-011  0.4778727E+02  0.7816164E-02  0.1312668E+00
        -11   -1    0    0    0    0  0.00000000000E+00  0.00000000000E+00  0.45593999997E+02  0.45594000000E+02  0.51100000000E-03 0. -1.
         11   -1    0    0    0    0 -0.00000000000E+00 -0.00000000000E+00 -0.45593999997E+02  0.45594000000E+02  0.51100000000E-03 0.  1.
    9900012    2    1    2    0    0 -0.83448521798E+01 -0.28410695758E+02  0.31730412792E+02  0.47787270890E+02  0.19999999295E+02 0.  0.
        -12    1    1    2    0    0  0.83448521798E+01  0.28410695758E+02 -0.31730412792E+02  0.43400729110E+02  0.00000000000E+00 0.  1.
         11    1    3    3    0    0 -0.32606489819E+01 -0.20051141961E+02  0.20094124317E+02  0.28573658465E+02  0.51100000000E-03 0. -1.
        -11    1    3    3    0    0 -0.15479072680E+00 -0.99531803600E+01  0.89093720500E+01  0.13359141815E+02  0.51100000000E-03 0.  1.
         12    1    3    3    0    0 -0.49294124710E+01  0.15936265634E+01  0.27269164251E+01  0.58544706099E+01  0.00000000000E+00 0. -1.
</event>
<event>
 7    1  0.5022032E-011  0.4778727E+02  0.7816164E-02  0.1312668E+00
        -11   -1    0    0    0    0  0.00000000000E+00  0.00000000000E+00  0.45593999997E+02  0.45594000000E+02  0.51100000000E-03 0. -1.
         11   -1    0    0    0    0 -0.00000000000E+00 -0.00000000000E+00 -0.45593999997E+02  0.45594000000E+02  0.51100000000E-03 0.  1.
    9900012    2    1    2    0    0  0.27578860975E+02 -0.11450491945E+02  0.31494698130E+02  0.47787270182E+02  0.19999996067E+02 0.  0.
        -12    1    1    2    0    0 -0.27578860975E+02  0.11450491945E+02 -0.31494698130E+02  0.43400729818E+02  0.00000000000E+00 0.  1.
         11    1    3    3    0    0  0.21773994827E+02 -0.50649108932E+01  0.14702853492E+02  0.26756944410E+02  0.51100000000E-03 0. -1.
        -11    1    3    3    0    0  0.23813513406E+00 -0.61550907199E+01  0.48058053803E+01  0.78126574049E+01  0.51100000000E-03 0.  1.
        -12    1    3    3    0    0  0.55667310139E+01 -0.23049033198E+00  0.11986039257E+02  0.13217668367E+02  0.00000000000E+00 0.  1.
</event>
<event>
 7    1  0.5022032E-011  0.4778727E+02  0.7816164E-02  0.1312668E+00
        -11   -1    0    0    0    0  0.00000000000E+00  0.00000000000E+00  0.45593999997E+02  0.45594000000E+02  0.51100000000E-03 0. -1.
         11   -1    0    0    0    0 -0.00000000000E+00 -0.00000000000E+00 -0.45593999997E+02  0.45594000000E+02  0.51100000000E-03 0.  1.
    9900012    2    1    2    0    0  0.16191951805E+02 -0.50806993836E+01  0.39945341110E+02  0.47787273210E+02  0.20000009874E+02 0.  0.
        -12    1    1    2    0    0 -0.16191951805E+02  0.50806993836E+01 -0.39945341110E+02  0.43400726790E+02  0.00000000000E+00 0.  1.
         11    1    3    3    0    0  0.96904113727E+01  0.25086643224E+01  0.17274816439E+02  0.19965388865E+02  0.51100000000E-03 0. -1.
        -11    1    3    3    0    0 -0.11685853775E+00 -0.12069389471E+01  0.16949497595E+02  0.16992816909E+02  0.51100000000E-03 0.  1.
        -12    1    3    3    0    0  0.66183989697E+01 -0.63824247589E+01  0.57210270766E+01  0.10829067436E+02  0.00000000000E+00 0.  1.
</event>
<event>
 7    1  0.5022032E-011  0.4778727E+02  0.7816164E-02  0.1312668E+00
        -11   -1    0    0    0    0  0.00000000000E+00  0.00000000000E+00  0.45593999997E+02  0.45594000000E+02  0.51100000000E-03 0. -1.
         11   -1    0    0    0    0 -0.00000000000E+00 -0.00000000000E+00 -0.45593999997E+02  0.45594000000E+02  0.51100000000E-03 0.  1.
    9900012    2    1    2    0    0 -0.88802409853E+00  0.20261366123E+02 -0.38370711469E+02  0.47787273709E+02  0.20000012147E+02 0.  0.
         12    1    1    2    0    0  0.88802409853E+00 -0.20261366123E+02  0.38370711469E+02  0.43400726291E+02  0.00000000000E+00 0. -1.
         11    1    3    3    0    0 -0.51393829514E+01  0.19350132091E+01 -0.13975292546E+02  0.15015536462E+02  0.51100000000E-03 0. -1.
        -11    1    3    3    0    0 -0.19008356957E+01  0.74801874226E+01 -0.35815165094E+01  0.85084452744E+01  0.51100000000E-03 0.  1.
        -12    1    3    3    0    0  0.61521945486E+01  0.10846165491E+02 -0.20813902414E+02  0.24263291972E+02  0.00000000000E+00 0.  1.
</event>
<event>
 7    1  0.5022032E-011  0.4778727E+02  0.7816164E-02  0.1312668E+00
        -11   -1    0    0    0    0  0.00000000000E+00  0.00000000000E+00  0.45593999997E+02  0.45594000000E+02  0.51100000000E-03 0. -1.
         11   -1    0    0    0    0 -0.00000000000E+00 -0.00000000000E+00 -0.45593999997E+02  0.45594000000E+02  0.51100000000E-03 0.  1.
    9900012    2    1    2    0    0 -0.23136023543E+02 -0.31342298022E+02 -0.19131343472E+02  0.47787268051E+02  0.19999986350E+02 0.  0.
         12    1    1    2    0    0  0.23136023543E+02  0.31342298022E+02  0.19131343472E+02  0.43400731949E+02  0.00000000000E+00 0. -1.
         11    1    3    3    0    0 -0.85376942024E+01 -0.18572351345E+02 -0.94305772053E+01  0.22511335888E+02  0.51100000000E-03 0. -1.
        -11    1    3    3    0    0 -0.71665752476E+01 -0.13558514254E+02 -0.39239107447E+01  0.15830040598E+02  0.51100000000E-03 0.  1.
         12    1    3    3    0    0 -0.74317540929E+01  0.78856757670E+00 -0.57768555221E+01  0.94458915643E+01  0.00000000000E+00 0. -1.
</event>
<event>
 7    1  0.5022032E-011  0.4778725E+02  0.7816164E-02  0.1312668E+00
        -11   -1    0    0    0    0  0.00000000000E+00  0.00000000000E+00  0.45593999997E+02  0.45594000000E+02  0.51100000000E-03 0. -1.
         11   -1    0    0    0    0 -0.00000000000E+00 -0.00000000000E+00 -0.45593999997E+02  0.45594000000E+02  0.51100000000E-03 0.  1.
    9900012    2    1    2    0    0 -0.19076185866E+02 -0.25786868838E+02  0.29236302520E+02  0.47787252810E+02  0.19999916861E+02 0.  0.
        -12    1    1    2    0    0  0.19076185866E+02  0.25786868838E+02 -0.29236302520E+02  0.43400747190E+02  0.00000000000E+00 0.  1.
         11    1    3    3    0    0 -0.27278441652E+01 -0.88030080210E+01  0.60065440508E+01  0.11000575244E+02  0.51100000000E-03 0. -1.
        -11    1    3    3    0    0 -0.42896691661E+01 -0.11233785128E+01 -0.18081573387E+01  0.47888071647E+01  0.51100000000E-03 0.  1.
         12    1    3    3    0    0 -0.12058672534E+02 -0.15860482304E+02  0.25037915808E+02  0.31997870401E+02  0.00000000000E+00 0. -1.
</event>
<event>
 7    1  0.5022032E-011  0.4778727E+02  0.7816164E-02  0.1312668E+00
        -11   -1    0    0    0    0  0.00000000000E+00  0.00000000000E+00  0.45593999997E+02  0.45594000000E+02  0.51100000000E-03 0. -1.
         11   -1    0    0    0    0 -0.00000000000E+00 -0.00000000000E+00 -0.45593999997E+02  0.45594000000E+02  0.51100000000E-03 0.  1.
    9900012    2    1    2    0    0 -0.17281396224E+02  0.77296065315E+01  0.39054188568E+02  0.47787272848E+02  0.20000008225E+02 0.  0.
        -12    1    1    2    0    0  0.17281396224E+02 -0.77296065315E+01 -0.39054188568E+02  0.43400727152E+02  0.00000000000E+00 0.  1.
         11    1    3    3    0    0 -0.70021662873E+01  0.42720539661E+00  0.26119882592E+02  0.27045537599E+02  0.51100000000E-03 0. -1.
        -11    1    3    3    0    0  0.20492821308E+01  0.15237289398E+01  0.14993425348E+01  0.29613063724E+01  0.51100000000E-03 0.  1.
         12    1    3    3    0    0 -0.12328512067E+02  0.57786721950E+01  0.11434963441E+02  0.17780428877E+02  0.00000000000E+00 0. -1.
</event>
<event>
 7    1  0.5022032E-011  0.4778727E+02  0.7816164E-02  0.1312668E+00
        -11   -1    0    0    0    0  0.00000000000E+00  0.00000000000E+00  0.45593999997E+02  0.45594000000E+02  0.51100000000E-03 0. -1.
         11   -1    0    0    0    0 -0.00000000000E+00 -0.00000000000E+00 -0.45593999997E+02  0.45594000000E+02  0.51100000000E-03 0.  1.
    9900012    2    1    2    0    0  0.59411545964E+01  0.40254887457E+02 -0.15095353047E+02  0.47787274594E+02  0.20000016184E+02 0.  0.
         12    1    1    2    0    0 -0.59411545964E+01 -0.40254887457E+02  0.15095353047E+02  0.43400725406E+02  0.00000000000E+00 0. -1.
         11    1    3    3    0    0 -0.37946976570E+00  0.22796960318E+02 -0.79497786125E+01  0.24146311878E+02  0.51100000000E-03 0. -1.
        -11    1    3    3    0    0 -0.17483763320E+01  0.93337040093E+01 -0.76280551911E+01  0.12180397226E+02  0.51100000000E-03 0.  1.
         12    1    3    3    0    0  0.80690006941E+01  0.81242231303E+01  0.48248075651E+00  0.11460565490E+02  0.00000000000E+00 0. -1.
</event>
<event>
 7    1  0.5022032E-011  0.4778727E+02  0.7816164E-02  0.1312668E+00
        -11   -1    0    0    0    0  0.00000000000E+00  0.00000000000E+00  0.45593999997E+02  0.45594000000E+02  0.51100000000E-03 0. -1.
         11   -1    0    0    0    0 -0.00000000000E+00 -0.00000000000E+00 -0.45593999997E+02  0.45594000000E+02  0.51100000000E-03 0.  1.
    9900012    2    1    2    0    0  0.25977562811E+01  0.75844355154E-01  0.43322849517E+02  0.47787269818E+02  0.19999994408E+02 0.  0.
        -12    1    1    2    0    0 -0.25977562811E+01 -0.75844355154E-01 -0.43322849517E+02  0.43400730182E+02  0.00000000000E+00 0.  1.
         11    1    3    3    0    0  0.31711230025E+01 -0.85917927716E+00  0.11204167093E+02  0.11675939818E+02  0.51100000000E-03 0. -1.
        -11    1    3    3    0    0  0.77295892020E+01  0.83094093965E+00  0.19637568532E+02  0.21120395597E+02  0.51100000000E-03 0.  1.
         12    1    3    3    0    0 -0.83029559234E+01  0.10408269266E+00  0.12481113893E+02  0.14990934403E+02  0.00000000000E+00 0. -1.
</event>
<event>
 7    1  0.5022032E-011  0.4778724E+02  0.7816164E-02  0.1312668E+00
        -11   -1    0    0    0    0  0.00000000000E+00  0.00000000000E+00  0.45593999997E+02  0.45594000000E+02  0.51100000000E-03 0. -1.
         11   -1    0    0    0    0 -0.00000000000E+00 -0.00000000000E+00 -0.45593999997E+02  0.45594000000E+02  0.51100000000E-03 0.  1.
    9900012    2    1    2    0    0  0.26721073677E+02  0.22953131708E+02 -0.25352787427E+02  0.47787241205E+02  0.19999863951E+02 0.  0.
         12    1    1    2    0    0 -0.26721073677E+02 -0.22953131708E+02  0.25352787427E+02  0.43400758795E+02  0.00000000000E+00 0. -1.
         11    1    3    3    0    0  0.50712505187E+01  0.11803422974E+02 -0.11684808005E+02  0.17365860592E+02  0.51100000000E-03 0. -1.
        -11    1    3    3    0    0  0.22085351215E+02  0.11617764330E+02 -0.14877720083E+02  0.29053084887E+02  0.51100000000E-03 0.  1.
         12    1    3    3    0    0 -0.43552805664E+00 -0.46805559590E+00  0.12097406608E+01  0.13682957266E+01  0.00000000000E+00 0. -1.
</event>
<event>
 7    1  0.5022032E-011  0.4778728E+02  0.7816164E-02  0.1312668E+00
        -11   -1    0    0    0    0  0.00000000000E+00  0.00000000000E+00  0.45593999997E+02  0.45594000000E+02  0.51100000000E-03 0. -1.
         11   -1    0    0    0    0 -0.00000000000E+00 -0.00000000000E+00 -0.45593999997E+02  0.45594000000E+02  0.51100000000E-03 0.  1.
    9900012    2    1    2    0    0 -0.23414247802E+01 -0.68776769641E+01 -0.42788287000E+02  0.47787283245E+02  0.20000055629E+02 0.  0.
         12    1    1    2    0    0  0.23414247802E+01  0.68776769641E+01  0.42788287000E+02  0.43400716755E+02  0.00000000000E+00 0. -1.
         11    1    3    3    0    0 -0.42541434313E+01 -0.31334940900E+01 -0.92167698404E+01  0.10623811373E+02  0.51100000000E-03 0.  1.
        -11    1    3    3    0    0  0.73025212679E+00 -0.84885742090E+01 -0.10220021291E+02  0.13305562586E+02  0.51100000000E-03 0. -1.
         12    1    3    3    0    0  0.11824665243E+01  0.47443913350E+01 -0.23351495868E+02  0.23857909286E+02  0.00000000000E+00 0. -1.
</event>
<event>
 7    1  0.5022032E-011  0.4778727E+02  0.7816164E-02  0.1312668E+00
        -11   -1    0    0    0    0  0.00000000000E+00  0.00000000000E+00  0.45593999997E+02  0.45594000000E+02  0.51100000000E-03 0. -1.
         11   -1    0    0    0    0 -0.00000000000E+00 -0.00000000000E+00 -0.45593999997E+02  0.45594000000E+02  0.51100000000E-03 0.  1.
    9900012    2    1    2    0    0 -0.69347301986E+01  0.71674862314E+01 -0.42239321049E+02  0.47787267466E+02  0.19999983686E+02 0.  0.
         12    1    1    2    0    0  0.69347301986E+01 -0.71674862314E+01  0.42239321049E+02  0.43400732534E+02  0.00000000000E+00 0. -1.
         11    1    3    3    0    0 -0.89002516625E+01  0.25446484507E+01 -0.27346206631E+02  0.28870482032E+02  0.51100000000E-03 0.  1.
        -11    1    3    3    0    0 -0.27163468095E+01 -0.21217854514E+01 -0.41198240215E+01  0.53715420245E+01  0.51100000000E-03 0. -1.
         12    1    3    3    0    0  0.46818682734E+01  0.67446232320E+01 -0.10773290397E+02  0.13545243410E+02  0.00000000000E+00 0. -1.
</event>
<event>
 7    1  0.5022032E-011  0.4778727E+02  0.7816164E-02  0.1312668E+00
        -11   -1    0    0    0    0  0.00000000000E+00  0.00000000000E+00  0.45593999997E+02  0.45594000000E+02  0.51100000000E-03 0.  1.
         11   -1    0    0    0    0 -0.00000000000E+00 -0.00000000000E+00 -0.45593999997E+02  0.45594000000E+02  0.51100000000E-03 0. -1.
    9900012    2    1    2    0    0 -0.10807243318E+02 -0.40852571595E+02  0.98941370754E+01  0.47787273479E+02  0.20000011102E+02 0.  0.
        -12    1    1    2    0    0  0.10807243318E+02  0.40852571595E+02 -0.98941370754E+01  0.43400726521E+02  0.00000000000E+00 0.  1.
         11    1    3    3    0    0 -0.12079925007E+02 -0.27453788271E+02  0.91036206637E+01  0.31345031314E+02  0.51100000000E-03 0. -1.
        -11    1    3    3    0    0 -0.12334136722E+01 -0.12000819600E+02  0.34312030166E+01  0.12542493164E+02  0.51100000000E-03 0.  1.
        -12    1    3    3    0    0  0.25060953609E+01 -0.13979637233E+01 -0.26406866049E+01  0.38997490015E+01  0.00000000000E+00 0.  1.
</event>
<event>
 7    1  0.5022032E-011  0.4778727E+02  0.7816164E-02  0.1312668E+00
        -11   -1    0    0    0    0  0.00000000000E+00  0.00000000000E+00  0.45593999997E+02  0.45594000000E+02  0.51100000000E-03 0. -1.
         11   -1    0    0    0    0 -0.00000000000E+00 -0.00000000000E+00 -0.45593999997E+02  0.45594000000E+02  0.51100000000E-03 0.  1.
    9900012    2    1    2    0    0  0.85792784090E+01 -0.12817648316E+02 -0.40567564651E+02  0.47787269268E+02  0.19999991898E+02 0.  0.
         12    1    1    2    0    0 -0.85792784090E+01  0.12817648316E+02  0.40567564651E+02  0.43400730732E+02  0.00000000000E+00 0. -1.
         11    1    3    3    0    0  0.79832276764E+01 -0.22792434082E+01 -0.25813373513E+02  0.27115625146E+02  0.51100000000E-03 0. -1.
        -11    1    3    3    0    0 -0.54731581675E+00  0.18193551118E+01 -0.31643237172E+01  0.36908742155E+01  0.51100000000E-03 0.  1.
        -12    1    3    3    0    0  0.11433665494E+01 -0.12357760020E+02 -0.11589867421E+02  0.16980769906E+02  0.00000000000E+00 0.  1.
</event>
<event>
 7    1  0.5022032E-011  0.4778727E+02  0.7816164E-02  0.1312668E+00
        -11   -1    0    0    0    0  0.00000000000E+00  0.00000000000E+00  0.45593999997E+02  0.45594000000E+02  0.51100000000E-03 0. -1.
         11   -1    0    0    0    0 -0.00000000000E+00 -0.00000000000E+00 -0.45593999997E+02  0.45594000000E+02  0.51100000000E-03 0.  1.
    9900012    2    1    2    0    0  0.89322146441E+01 -0.18563582982E+02 -0.38199900189E+02  0.47787269061E+02  0.19999990957E+02 0.  0.
         12    1    1    2    0    0 -0.89322146441E+01  0.18563582982E+02  0.38199900189E+02  0.43400730939E+02  0.00000000000E+00 0. -1.
         11    1    3    3    0    0  0.32531626823E+01 -0.13100202010E-01 -0.56596962743E+01  0.65280472755E+01  0.51100000000E-03 0. -1.
        -11    1    3    3    0    0  0.78128148582E+01 -0.16329185276E+02 -0.15169949379E+02  0.23617995940E+02  0.51100000000E-03 0.  1.
        -12    1    3    3    0    0 -0.21337628965E+01 -0.22212975035E+01 -0.17370254536E+02  0.17641225846E+02  0.00000000000E+00 0.  1.
</event>
<event>
 7    1  0.5022032E-011  0.4778726E+02  0.7816164E-02  0.1312668E+00
        -11   -1    0    0    0    0  0.00000000000E+00  0.00000000000E+00  0.45593999997E+02  0.45594000000E+02  0.51100000000E-03 0. -1.
         11   -1    0    0    0    0 -0.00000000000E+00 -0.00000000000E+00 -0.45593999997E+02  0.45594000000E+02  0.51100000000E-03 0.  1.
    9900012    2    1    2    0    0 -0.57336880140E+01 -0.14397045413E+02 -0.40539780014E+02  0.47787264310E+02  0.19999969293E+02 0.  0.
         12    1    1    2    0    0  0.57336880140E+01  0.14397045413E+02  0.40539780014E+02  0.43400735690E+02  0.00000000000E+00 0. -1.
         11    1    3    3    0    0  0.58034588783E+01 -0.92651719378E+01 -0.18228946267E+02  0.21256011579E+02  0.51100000000E-03 0. -1.
        -11    1    3    3    0    0 -0.29570824055E+01 -0.23615683287E+01 -0.13125886735E+02  0.13660536013E+02  0.51100000000E-03 0.  1.
        -12    1    3    3    0    0 -0.85800644868E+01 -0.27703051466E+01 -0.91849470126E+01  0.12870716718E+02  0.00000000000E+00 0.  1.
</event>
<event>
 7    1  0.5022032E-011  0.4778727E+02  0.7816164E-02  0.1312668E+00
        -11   -1    0    0    0    0  0.00000000000E+00  0.00000000000E+00  0.45593999997E+02  0.45594000000E+02  0.51100000000E-03 0. -1.
         11   -1    0    0    0    0 -0.00000000000E+00 -0.00000000000E+00 -0.45593999997E+02  0.45594000000E+02  0.51100000000E-03 0.  1.
    9900012    2    1    2    0    0  0.70589832994E+01  0.18303869045E+02  0.38713851578E+02  0.47787272227E+02  0.20000005391E+02 0.  0.
        -12    1    1    2    0    0 -0.70589832994E+01 -0.18303869045E+02 -0.38713851578E+02  0.43400727773E+02  0.00000000000E+00 0.  1.
         11    1    3    3    0    0  0.32125059344E+01 -0.83625688430E+00  0.19721551140E+01  0.38612065485E+01  0.51100000000E-03 0. -1.
        -11    1    3    3    0    0  0.79046019345E+01  0.14613798937E+02  0.19359521362E+02  0.25511505615E+02  0.51100000000E-03 0.  1.
        -12    1    3    3    0    0 -0.40581245695E+01  0.45263269930E+01  0.17382175102E+02  0.18414560064E+02  0.00000000000E+00 0.  1.
</event>
<event>
 7    1  0.5621802E-011  0.4778727E+02  0.7816164E-02  0.1312668E+00
        -11   -1    0    0    0    0  0.00000000000E+00  0.00000000000E+00  0.45593999997E+02  0.45594000000E+02  0.51100000000E-03 0. -1.
         11   -1    0    0    0    0 -0.00000000000E+00 -0.00000000000E+00 -0.45593999997E+02  0.45594000000E+02  0.51100000000E-03 0.  1.
    9900012    2    1    2    0    0  0.25130436471E+02 -0.89393592779E+00 -0.35373507146E+02  0.47787274586E+02  0.20000016146E+02 0.  0.
         12    1    1    2    0    0 -0.25130436471E+02  0.89393592779E+00  0.35373507146E+02  0.43400725414E+02  0.00000000000E+00 0. -1.
         11    1    3    3    0    0  0.39138134988E+01  0.19479721457E+01  0.76324825508E+00  0.44379138955E+01  0.51100000000E-03 0. -1.
        -11    1    3    3    0    0  0.12294362724E+02 -0.18152918150E+00 -0.10833185340E+02  0.16387257626E+02  0.51100000000E-03 0.  1.
        -12    1    3    3    0    0  0.89222602487E+01 -0.26603788920E+01 -0.25303570062E+02  0.26962103064E+02  0.00000000000E+00 0.  1.
</event>
<event>
 7    1  0.5022032E-011  0.4778727E+02  0.7816164E-02  0.1312668E+00
        -11   -1    0    0    0    0  0.00000000000E+00  0.00000000000E+00  0.45593999997E+02  0.45594000000E+02  0.51100000000E-03 0. -1.
         11   -1    0    0    0    0 -0.00000000000E+00 -0.00000000000E+00 -0.45593999997E+02  0.45594000000E+02  0.51100000000E-03 0.  1.
    9900012    2    1    2    0    0 -0.12223199723E+02 -0.11014494614E+01  0.41629361388E+02  0.47787268071E+02  0.19999986443E+02 0.  0.
        -12    1    1    2    0    0  0.12223199723E+02  0.11014494614E+01 -0.41629361388E+02  0.43400731929E+02  0.00000000000E+00 0.  1.
         11    1    3    3    0    0 -0.21064875264E+01 -0.17764713537E+01  0.69995692713E+01  0.75224404560E+01  0.51100000000E-03 0.  1.
        -11    1    3    3    0    0 -0.12204082746E+02  0.66031625689E+01  0.27187581242E+02  0.30523858957E+02  0.51100000000E-03 0. -1.
         12    1    3    3    0    0  0.20873705492E+01 -0.59281406766E+01  0.74422108745E+01  0.97409686578E+01  0.00000000000E+00 0. -1.
</event>
<event>
 7    1  0.5022032E-011  0.4778727E+02  0.7816164E-02  0.1312668E+00
        -11   -1    0    0    0    0  0.00000000000E+00  0.00000000000E+00  0.45593999997E+02  0.45594000000E+02  0.51100000000E-03 0. -1.
         11   -1    0    0    0    0 -0.00000000000E+00 -0.00000000000E+00 -0.45593999997E+02  0.45594000000E+02  0.51100000000E-03 0.  1.
    9900012    2    1    2    0    0 -0.47533570448E+01 -0.26759317053E+02  0.33837374727E+02  0.47787269813E+02  0.19999994387E+02 0.  0.
        -12    1    1    2    0    0  0.47533570448E+01  0.26759317053E+02 -0.33837374727E+02  0.43400730187E+02  0.00000000000E+00 0.  1.
         11    1    3    3    0    0 -0.32100737442E+01 -0.73491255831E+01  0.56607923025E+00  0.80395687842E+01  0.51100000000E-03 0. -1.
        -11    1    3    3    0    0  0.82562219488E+00  0.17918908309E+00  0.61506187202E+01  0.62083710939E+01  0.51100000000E-03 0.  1.
        -12    1    3    3    0    0 -0.23689054954E+01 -0.19589380553E+02  0.27120676777E+02  0.33539329935E+02  0.00000000000E+00 0.  1.
</event>
<event>
 7    1  0.5022032E-011  0.4778727E+02  0.7816164E-02  0.1312668E+00
        -11   -1    0    0    0    0  0.00000000000E+00  0.00000000000E+00  0.45593999997E+02  0.45594000000E+02  0.51100000000E-03 0.  1.
         11   -1    0    0    0    0 -0.00000000000E+00 -0.00000000000E+00 -0.45593999997E+02  0.45594000000E+02  0.51100000000E-03 0. -1.
    9900012    2    1    2    0    0 -0.42826926440E+02 -0.24939229139E+01 -0.65770690236E+01  0.47787272855E+02  0.20000008254E+02 0.  0.
        -12    1    1    2    0    0  0.42826926440E+02  0.24939229139E+01  0.65770690236E+01  0.43400727145E+02  0.00000000000E+00 0.  1.
         11    1    3    3    0    0 -0.17704778520E+02 -0.95788395196E+01 -0.63933048626E+01  0.21120788250E+02  0.51100000000E-03 0. -1.
        -11    1    3    3    0    0 -0.57526818353E+01  0.50125400787E+00 -0.20410197853E+01  0.61245706709E+01  0.51100000000E-03 0.  1.
         12    1    3    3    0    0 -0.19369466084E+02  0.65836625978E+01  0.18572556243E+01  0.20541913934E+02  0.00000000000E+00 0. -1.
</event>
<event>
 7    1  0.5022032E-011  0.4778727E+02  0.7816164E-02  0.1312668E+00
        -11   -1    0    0    0    0  0.00000000000E+00  0.00000000000E+00  0.45593999997E+02  0.45594000000E+02  0.51100000000E-03 0. -1.
         11   -1    0    0    0    0 -0.00000000000E+00 -0.00000000000E+00 -0.45593999997E+02  0.45594000000E+02  0.51100000000E-03 0.  1.
    9900012    2    1    2    0    0  0.32727061430E+02 -0.36399361519E+01 -0.28272134734E+02  0.47787270888E+02  0.19999999286E+02 0.  0.
         12    1    1    2    0    0 -0.32727061430E+02  0.36399361519E+01  0.28272134734E+02  0.43400729112E+02  0.00000000000E+00 0. -1.
         11    1    3    3    0    0  0.10746803339E+02 -0.86769864175E+01 -0.10989887999E+02  0.17651105172E+02  0.51100000000E-03 0. -1.
        -11    1    3    3    0    0  0.67599230678E+01 -0.27308025991E+01 -0.30712135288E+01  0.79111437554E+01  0.51100000000E-03 0.  1.
        -12    1    3    3    0    0  0.15220335024E+02  0.77678528647E+01 -0.14211033206E+02  0.22225021960E+02  0.00000000000E+00 0.  1.
</event>
<event>
 7    1  0.5022032E-011  0.4778728E+02  0.7816164E-02  0.1312668E+00
        -11   -1    0    0    0    0  0.00000000000E+00  0.00000000000E+00  0.45593999997E+02  0.45594000000E+02  0.51100000000E-03 0. -1.
         11   -1    0    0    0    0 -0.00000000000E+00 -0.00000000000E+00 -0.45593999997E+02  0.45594000000E+02  0.51100000000E-03 0.  1.
    9900012    2    1    2    0    0 -0.18808971946E+02 -0.17393794131E+01  0.39074540698E+02  0.47787278840E+02  0.20000035544E+02 0.  0.
        -12    1    1    2    0    0  0.18808971946E+02  0.17393794131E+01 -0.39074540698E+02  0.43400721160E+02  0.00000000000E+00 0.  1.
         11    1    3    3    0    0  0.14928345264E+01  0.50888766346E+00  0.17350744049E+01  0.23447825120E+01  0.51100000000E-03 0. -1.
        -11    1    3    3    0    0 -0.90345181851E+01  0.47918909884E+01  0.26128457836E+02  0.28058528957E+02  0.51100000000E-03 0.  1.
         12    1    3    3    0    0 -0.11267288288E+02 -0.70401580649E+01  0.11211008457E+02  0.17383967371E+02  0.00000000000E+00 0. -1.
</event>
<event>
 7    1  0.5022032E-011  0.4778727E+02  0.7816164E-02  0.1312668E+00
        -11   -1    0    0    0    0  0.00000000000E+00  0.00000000000E+00  0.45593999997E+02  0.45594000000E+02  0.51100000000E-03 0. -1.
         11   -1    0    0    0    0 -0.00000000000E+00 -0.00000000000E+00 -0.45593999997E+02  0.45594000000E+02  0.51100000000E-03 0.  1.
    9900012    2    1    2    0    0 -0.18241044168E+01 -0.17878692631E+02 -0.39505046141E+02  0.47787266392E+02  0.19999978787E+02 0.  0.
         12    1    1    2    0    0  0.18241044168E+01  0.17878692631E+02  0.39505046141E+02  0.43400733608E+02  0.00000000000E+00 0. -1.
         11    1    3    3    0    0  0.56649989963E+00 -0.14411049771E+02 -0.17944132790E+02  0.23021537297E+02  0.51100000000E-03 0. -1.
        -11    1    3    3    0    0  0.43322116487E+01 -0.50009236589E+00 -0.49205244824E+01  0.65749305385E+01  0.51100000000E-03 0.  1.
         12    1    3    3    0    0 -0.67228159652E+01 -0.29675504939E+01 -0.16640388868E+02  0.18190798556E+02  0.00000000000E+00 0. -1.
</event>
<event>
 7    1  0.5022032E-011  0.4778727E+02  0.7816164E-02  0.1312668E+00
        -11   -1    0    0    0    0  0.00000000000E+00  0.00000000000E+00  0.45593999997E+02  0.45594000000E+02  0.51100000000E-03 0. -1.
         11   -1    0    0    0    0 -0.00000000000E+00 -0.00000000000E+00 -0.45593999997E+02  0.45594000000E+02  0.51100000000E-03 0.  1.
    9900012    2    1    2    0    0 -0.13012931596E+02 -0.41287184187E+02  0.31073035330E+01  0.47787270719E+02  0.19999998518E+02 0.  0.
        -12    1    1    2    0    0  0.13012931596E+02  0.41287184187E+02 -0.31073035330E+01  0.43400729281E+02  0.00000000000E+00 0.  1.
         11    1    3    3    0    0 -0.61280386827E+01 -0.16619475165E+02  0.69302053475E+01  0.19020713953E+02  0.51100000000E-03 0. -1.
        -11    1    3    3    0    0 -0.57553193409E+01 -0.22789208644E+02  0.93996462186E+00  0.23523504524E+02  0.51100000000E-03 0.  1.
        -12    1    3    3    0    0 -0.11295735721E+01 -0.18785003781E+01 -0.47628664364E+01  0.52430522424E+01  0.00000000000E+00 0.  1.
</event>
<event>
 7    1  0.5022032E-011  0.4778727E+02  0.7816164E-02  0.1312668E+00
        -11   -1    0    0    0    0  0.00000000000E+00  0.00000000000E+00  0.45593999997E+02  0.45594000000E+02  0.51100000000E-03 0. -1.
         11   -1    0    0    0    0 -0.00000000000E+00 -0.00000000000E+00 -0.45593999997E+02  0.45594000000E+02  0.51100000000E-03 0.  1.
    9900012    2    1    2    0    0  0.36455800482E+02  0.21423570301E+02  0.97789857220E+01  0.47787270571E+02  0.19999997842E+02 0.  0.
        -12    1    1    2    0    0 -0.36455800482E+02 -0.21423570301E+02 -0.97789857220E+01  0.43400729429E+02  0.00000000000E+00 0.  1.
         11    1    3    3    0    0  0.17054619880E+02  0.95214855596E+01  0.39362601380E+01  0.19925182324E+02  0.51100000000E-03 0. -1.
        -11    1    3    3    0    0  0.20703466981E+02  0.69810272964E+01  0.30638731584E+01  0.22062538524E+02  0.51100000000E-03 0.  1.
        -12    1    3    3    0    0 -0.13022863788E+01  0.49210574446E+01  0.27788524256E+01  0.57995497229E+01  0.00000000000E+00 0.  1.
</event>
<event>
 7    1  0.5022032E-011  0.4778727E+02  0.7816164E-02  0.1312668E+00
        -11   -1    0    0    0    0  0.00000000000E+00  0.00000000000E+00  0.45593999997E+02  0.45594000000E+02  0.51100000000E-03 0. -1.
         11   -1    0    0    0    0 -0.00000000000E+00 -0.00000000000E+00 -0.45593999997E+02  0.45594000000E+02  0.51100000000E-03 0.  1.
    9900012    2    1    2    0    0 -0.36224017782E+02 -0.20703655599E+02 -0.11949994747E+02  0.47787271966E+02  0.20000004201E+02 0.  0.
         12    1    1    2    0    0  0.36224017782E+02  0.20703655599E+02  0.11949994747E+02  0.43400728034E+02  0.00000000000E+00 0. -1.
         11    1    3    3    0    0 -0.56368483811E+01 -0.12540804765E+02 -0.34857195570E+01  0.14184360575E+02  0.51100000000E-03 0. -1.
        -11    1    3    3    0    0 -0.31039293948E+01 -0.27678577741E+01  0.51601911182E+00  0.41906670508E+01  0.51100000000E-03 0.  1.
        -12    1    3    3    0    0 -0.27483240006E+02 -0.53949930590E+01 -0.89802943018E+01  0.29412244340E+02  0.00000000000E+00 0.  1.
</event>
<event>
 7    1  0.5022032E-011  0.4778727E+02  0.7816164E-02  0.1312668E+00
        -11   -1    0    0    0    0  0.00000000000E+00  0.00000000000E+00  0.45593999997E+02  0.45594000000E+02  0.51100000000E-03 0. -1.
         11   -1    0    0    0    0 -0.00000000000E+00 -0.00000000000E+00 -0.45593999997E+02  0.45594000000E+02  0.51100000000E-03 0.  1.
    9900012    2    1    2    0    0  0.22779470482E+01 -0.12108218341E+02  0.41615206039E+02  0.47787269962E+02  0.19999995066E+02 0.  0.
        -12    1    1    2    0    0 -0.22779470482E+01  0.12108218341E+02 -0.41615206039E+02  0.43400730038E+02  0.00000000000E+00 0.  1.
         11    1    3    3    0    0 -0.23324867532E+01  0.38195962157E+00  0.70564809427E+00  0.24666428806E+01  0.51100000000E-03 0.  1.
        -11    1    3    3    0    0  0.24475399492E+01  0.18068866837E+01  0.17814489346E+02  0.18072391159E+02  0.51100000000E-03 0. -1.
        -12    1    3    3    0    0  0.21628938522E+01 -0.14297064646E+02  0.23095068599E+02  0.27248235923E+02  0.00000000000E+00 0.  1.
</event>
<event>
 7    1  0.5022032E-011  0.4778731E+02  0.7816164E-02  0.1312668E+00
        -11   -1    0    0    0    0  0.00000000000E+00  0.00000000000E+00  0.45593999997E+02  0.45594000000E+02  0.51100000000E-03 0. -1.
         11   -1    0    0    0    0 -0.00000000000E+00 -0.00000000000E+00 -0.45593999997E+02  0.45594000000E+02  0.51100000000E-03 0.  1.
    9900012    2    1    2    0    0  0.18725048355E+02  0.24493510568E+00 -0.39152679100E+02  0.47787312104E+02  0.20000187208E+02 0.  0.
         12    1    1    2    0    0 -0.18725048355E+02 -0.24493510568E+00  0.39152679100E+02  0.43400687896E+02  0.00000000000E+00 0. -1.
         11    1    3    3    0    0  0.11289300961E+02  0.56174751798E+01 -0.18009375179E+02  0.21985038962E+02  0.51100000000E-03 0. -1.
        -11    1    3    3    0    0  0.40145303675E+01  0.26685527137E+01 -0.12970732879E+02  0.13837540943E+02  0.51100000000E-03 0.  1.
         12    1    3    3    0    0  0.34212170262E+01 -0.80410927878E+01 -0.81725710421E+01  0.11964732199E+02  0.00000000000E+00 0. -1.
</event>
<event>
 7    1  0.5022032E-011  0.4778727E+02  0.7816164E-02  0.1312668E+00
        -11   -1    0    0    0    0  0.00000000000E+00  0.00000000000E+00  0.45593999997E+02  0.45594000000E+02  0.51100000000E-03 0. -1.
         11   -1    0    0    0    0 -0.00000000000E+00 -0.00000000000E+00 -0.45593999997E+02  0.45594000000E+02  0.51100000000E-03 0.  1.
    9900012    2    1    2    0    0 -0.27611848083E+02  0.11725324053E+02 -0.31364403565E+02  0.47787272015E+02  0.20000004423E+02 0.  0.
         12    1    1    2    0    0  0.27611848083E+02 -0.11725324053E+02  0.31364403565E+02  0.43400727985E+02  0.00000000000E+00 0. -1.
         11    1    3    3    0    0  0.21528279583E+00 -0.27259627495E+01  0.71419764368E+00  0.28261808380E+01  0.51100000000E-03 0. -1.
        -11    1    3    3    0    0 -0.83141043239E+01  0.28216213831E+01 -0.93924693375E+01  0.12857074257E+02  0.51100000000E-03 0.  1.
         12    1    3    3    0    0 -0.19513026555E+02  0.11629665419E+02 -0.22686131871E+02  0.32104016919E+02  0.00000000000E+00 0. -1.
</event>
<event>
 7    1  0.5022032E-011  0.4778727E+02  0.7816164E-02  0.1312668E+00
        -11   -1    0    0    0    0  0.00000000000E+00  0.00000000000E+00  0.45593999997E+02  0.45594000000E+02  0.51100000000E-03 0.  1.
         11   -1    0    0    0    0 -0.00000000000E+00 -0.00000000000E+00 -0.45593999997E+02  0.45594000000E+02  0.51100000000E-03 0. -1.
    9900012    2    1    2    0    0  0.43026770840E+02 -0.56850998581E+01 -0.13904752655E-02  0.47787269923E+02  0.19999994886E+02 0.  0.
         12    1    1    2    0    0 -0.43026770840E+02  0.56850998581E+01  0.13904752655E-02  0.43400730077E+02  0.00000000000E+00 0. -1.
         11    1    3    3    0    0  0.27452848025E+02 -0.43201486023E+01  0.20921499581E+01  0.27869331537E+02  0.51100000000E-03 0. -1.
        -11    1    3    3    0    0  0.49227282514E+01 -0.64028387688E+00  0.50430762283E+01  0.70764281234E+01  0.51100000000E-03 0.  1.
         12    1    3    3    0    0  0.10651194564E+02 -0.72466737897E+00 -0.71366166616E+01  0.12841510262E+02  0.00000000000E+00 0. -1.
</event>
<event>
 7    1  0.5022032E-011  0.4778727E+02  0.7816164E-02  0.1312668E+00
        -11   -1    0    0    0    0  0.00000000000E+00  0.00000000000E+00  0.45593999997E+02  0.45594000000E+02  0.51100000000E-03 0. -1.
         11   -1    0    0    0    0 -0.00000000000E+00 -0.00000000000E+00 -0.45593999997E+02  0.45594000000E+02  0.51100000000E-03 0.  1.
    9900012    2    1    2    0    0 -0.30888898672E+02 -0.49339448123E+01 -0.30085798891E+02  0.47787272270E+02  0.20000005586E+02 0.  0.
         12    1    1    2    0    0  0.30888898672E+02  0.49339448123E+01  0.30085798891E+02  0.43400727730E+02  0.00000000000E+00 0. -1.
         11    1    3    3    0    0 -0.37741917043E+01  0.69270497093E+00 -0.21612994043E+01  0.44040411639E+01  0.51100000000E-03 0. -1.
        -11    1    3    3    0    0 -0.15289302084E+02 -0.70378308187E+01 -0.50140515079E+01  0.17562304337E+02  0.51100000000E-03 0.  1.
         12    1    3    3    0    0 -0.11825404884E+02  0.14111810354E+01 -0.22910447979E+02  0.25820926769E+02  0.00000000000E+00 0. -1.
</event>
<event>
 7    1  0.5022032E-011  0.4778727E+02  0.7816164E-02  0.1312668E+00
        -11   -1    0    0    0    0  0.00000000000E+00  0.00000000000E+00  0.45593999997E+02  0.45594000000E+02  0.51100000000E-03 0. -1.
         11   -1    0    0    0    0 -0.00000000000E+00 -0.00000000000E+00 -0.45593999997E+02  0.45594000000E+02  0.51100000000E-03 0.  1.
    9900012    2    1    2    0    0 -0.65357487365E+01  0.30526267524E+02  0.30150529944E+02  0.47787268711E+02  0.19999989361E+02 0.  0.
        -12    1    1    2    0    0  0.65357487365E+01 -0.30526267524E+02 -0.30150529944E+02  0.43400731289E+02  0.00000000000E+00 0.  1.
         11    1    3    3    0    0  0.31168212036E+00  0.45548757054E+01  0.97054182042E+01  0.10725631973E+02  0.51100000000E-03 0. -1.
        -11    1    3    3    0    0 -0.83238689598E+01  0.17289608010E+02  0.20733373045E+02  0.28250488450E+02  0.51100000000E-03 0.  1.
        -12    1    3    3    0    0  0.14764381030E+01  0.86817838087E+01 -0.28826130499E+00  0.88111482880E+01  0.00000000000E+00 0.  1.
</event>
<event>
 7    1  0.5022032E-011  0.4778727E+02  0.7816164E-02  0.1312668E+00
        -11   -1    0    0    0    0  0.00000000000E+00  0.00000000000E+00  0.45593999997E+02  0.45594000000E+02  0.51100000000E-03 0. -1.
         11   -1    0    0    0    0 -0.00000000000E+00 -0.00000000000E+00 -0.45593999997E+02  0.45594000000E+02  0.51100000000E-03 0.  1.
    9900012    2    1    2    0    0  0.28767083090E+02  0.28865343319E+02 -0.14928846691E+02  0.47787267541E+02  0.19999984027E+02 0.  0.
         12    1    1    2    0    0 -0.28767083090E+02 -0.28865343319E+02  0.14928846691E+02  0.43400732459E+02  0.00000000000E+00 0. -1.
         11    1    3    3    0    0  0.12054258356E+01  0.47906679928E+01 -0.15874729226E+00  0.49425451163E+01  0.51100000000E-03 0. -1.
        -11    1    3    3    0    0  0.16495048989E+02  0.51522923702E+01 -0.18008190305E+01  0.17374570707E+02  0.51100000000E-03 0.  1.
         12    1    3    3    0    0  0.11066608266E+02  0.18922382956E+02 -0.12969280369E+02  0.25470151718E+02  0.00000000000E+00 0. -1.
</event>
<event>
 7    1  0.5022032E-011  0.4778730E+02  0.7816164E-02  0.1312668E+00
        -11   -1    0    0    0    0  0.00000000000E+00  0.00000000000E+00  0.45593999997E+02  0.45594000000E+02  0.51100000000E-03 0. -1.
         11   -1    0    0    0    0 -0.00000000000E+00 -0.00000000000E+00 -0.45593999997E+02  0.45594000000E+02  0.51100000000E-03 0.  1.
    9900012    2    1    2    0    0 -0.15045929242E+02  0.16761288262E+02  0.37098519810E+02  0.47787297897E+02  0.20000122429E+02 0.  0.
        -12    1    1    2    0    0  0.15045929242E+02 -0.16761288262E+02 -0.37098519810E+02  0.43400702103E+02  0.00000000000E+00 0.  1.
         11    1    3    3    0    0 -0.91362206800E+00 -0.53265267716E+00  0.12598791173E+01  0.16449072342E+01  0.51100000000E-03 0.  1.
        -11    1    3    3    0    0 -0.74249133443E+01  0.20368073071E+02  0.27156779860E+02  0.34748790359E+02  0.51100000000E-03 0. -1.
         12    1    3    3    0    0 -0.67073938296E+01 -0.30741321319E+01  0.86818608327E+01  0.11393600303E+02  0.00000000000E+00 0. -1.
</event>
<event>
 7    1  0.5022032E-011  0.4778727E+02  0.7816164E-02  0.1312668E+00
        -11   -1    0    0    0    0  0.00000000000E+00  0.00000000000E+00  0.45593999997E+02  0.45594000000E+02  0.51100000000E-03 0. -1.
         11   -1    0    0    0    0 -0.00000000000E+00 -0.00000000000E+00 -0.45593999997E+02  0.45594000000E+02  0.51100000000E-03 0.  1.
    9900012    2    1    2    0    0  0.38230842069E+01 -0.10135721643E+02 -0.42027068897E+02  0.47787270212E+02  0.19999996204E+02 0.  0.
         12    1    1    2    0    0 -0.38230842069E+01  0.10135721643E+02  0.42027068897E+02  0.43400729788E+02  0.00000000000E+00 0. -1.
         11    1    3    3    0    0  0.36184075850E+01 -0.52293576555E+01 -0.11275052568E+02  0.12944723466E+02  0.51100000000E-03 0. -1.
        -11    1    3    3    0    0  0.10466662120E+01 -0.76867035007E+01 -0.57097656623E+01  0.96323592669E+01  0.51100000000E-03 0.  1.
        -12    1    3    3    0    0 -0.84198959001E+00  0.27803395130E+01 -0.25042250666E+02  0.25210187479E+02  0.00000000000E+00 0.  1.
</event>
<event>
 7    1  0.5022032E-011  0.4778723E+02  0.7816164E-02  0.1312668E+00
        -11   -1    0    0    0    0  0.00000000000E+00  0.00000000000E+00  0.45593999997E+02  0.45594000000E+02  0.51100000000E-03 0. -1.
         11   -1    0    0    0    0 -0.00000000000E+00 -0.00000000000E+00 -0.45593999997E+02  0.45594000000E+02  0.51100000000E-03 0.  1.
    9900012    2    1    2    0    0  0.17690126480E+02 -0.30548106708E+02 -0.25248744326E+02  0.47787234012E+02  0.19999831152E+02 0.  0.
         12    1    1    2    0    0 -0.17690126480E+02  0.30548106708E+02  0.25248744326E+02  0.43400765988E+02  0.00000000000E+00 0. -1.
         11    1    3    3    0    0  0.17439164001E+01 -0.14504744828E+02 -0.82879092031E+01  0.16796377769E+02  0.51100000000E-03 0. -1.
        -11    1    3    3    0    0  0.11170756948E+02 -0.15525949136E+02 -0.17784195151E+02  0.26117398507E+02  0.51100000000E-03 0.  1.
         12    1    3    3    0    0  0.47754531322E+01 -0.51741274468E+00  0.82336002794E+00  0.48734577357E+01  0.00000000000E+00 0. -1.
</event>
<event>
 7    1  0.5022032E-011  0.4778727E+02  0.7816164E-02  0.1312668E+00
        -11   -1    0    0    0    0  0.00000000000E+00  0.00000000000E+00  0.45593999997E+02  0.45594000000E+02  0.51100000000E-03 0. -1.
         11   -1    0    0    0    0 -0.00000000000E+00 -0.00000000000E+00 -0.45593999997E+02  0.45594000000E+02  0.51100000000E-03 0.  1.
    9900012    2    1    2    0    0 -0.14499771811E+02  0.29386251578E+02  0.28457479292E+02  0.47787270835E+02  0.19999999045E+02 0.  0.
        -12    1    1    2    0    0  0.14499771811E+02 -0.29386251578E+02 -0.28457479292E+02  0.43400729165E+02  0.00000000000E+00 0.  1.
         11    1    3    3    0    0 -0.14271678708E+01  0.96256689553E+01  0.81916367818E+01  0.12719796555E+02  0.51100000000E-03 0. -1.
        -11    1    3    3    0    0  0.19741328684E+01  0.10892556481E+02  0.91757602498E+01  0.14378440934E+02  0.51100000000E-03 0.  1.
         12    1    3    3    0    0 -0.15046736809E+02  0.88680261418E+01  0.11090082261E+02  0.20689033346E+02  0.00000000000E+00 0. -1.
</event>
<event>
 7    1  0.5022032E-011  0.4778730E+02  0.7816164E-02  0.1312668E+00
        -11   -1    0    0    0    0  0.00000000000E+00  0.00000000000E+00  0.45593999997E+02  0.45594000000E+02  0.51100000000E-03 0. -1.
         11   -1    0    0    0    0 -0.00000000000E+00 -0.00000000000E+00 -0.45593999997E+02  0.45594000000E+02  0.51100000000E-03 0.  1.
    9900012    2    1    2    0    0  0.96104834112E+01  0.40705584334E+02 -0.11589430942E+02  0.47787298428E+02  0.20000124851E+02 0.  0.
         12    1    1    2    0    0 -0.96104834112E+01 -0.40705584334E+02  0.11589430942E+02  0.43400701572E+02  0.00000000000E+00 0. -1.
         11    1    3    3    0    0  0.67072941872E+01  0.89403979291E+01  0.34383086602E+00  0.11181982399E+02  0.51100000000E-03 0.  1.
        -11    1    3    3    0    0 -0.22769737279E+01  0.11233305402E+02  0.14533056228E+01  0.11553521416E+02  0.51100000000E-03 0. -1.
        -12    1    3    3    0    0  0.51801629519E+01  0.20531881003E+02 -0.13386567431E+02  0.25051794613E+02  0.00000000000E+00 0.  1.
</event>
<event>
 7    1  0.5022032E-011  0.4778728E+02  0.7816164E-02  0.1312668E+00
        -11   -1    0    0    0    0  0.00000000000E+00  0.00000000000E+00  0.45593999997E+02  0.45594000000E+02  0.51100000000E-03 0. -1.
         11   -1    0    0    0    0 -0.00000000000E+00 -0.00000000000E+00 -0.45593999997E+02  0.45594000000E+02  0.51100000000E-03 0.  1.
    9900012    2    1    2    0    0 -0.15445005338E+02  0.77054037605E+01  0.39820865393E+02  0.47787276991E+02  0.20000027113E+02 0.  0.
        -12    1    1    2    0    0  0.15445005338E+02 -0.77054037605E+01 -0.39820865393E+02  0.43400723009E+02  0.00000000000E+00 0.  1.
         11    1    3    3    0    0 -0.56903349344E+01  0.16296065739E+01  0.10567913166E+02  0.12112651163E+02  0.51100000000E-03 0. -1.
        -11    1    3    3    0    0 -0.86519339421E+01  0.87130799534E+01  0.90079702898E+01  0.15228829640E+02  0.51100000000E-03 0.  1.
         12    1    3    3    0    0 -0.11027364619E+01 -0.26372827669E+01  0.20244981937E+02  0.20445796187E+02  0.00000000000E+00 0. -1.
</event>
<event>
 7    1  0.5022032E-011  0.4778727E+02  0.7816164E-02  0.1312668E+00
        -11   -1    0    0    0    0  0.00000000000E+00  0.00000000000E+00  0.45593999997E+02  0.45594000000E+02  0.51100000000E-03 0.  1.
         11   -1    0    0    0    0 -0.00000000000E+00 -0.00000000000E+00 -0.45593999997E+02  0.45594000000E+02  0.51100000000E-03 0. -1.
    9900012    2    1    2    0    0  0.13697854655E+02  0.40871219725E+02  0.50532839379E+01  0.47787268410E+02  0.19999987989E+02 0.  0.
         12    1    1    2    0    0 -0.13697854655E+02 -0.40871219725E+02 -0.50532839379E+01  0.43400731590E+02  0.00000000000E+00 0. -1.
         11    1    3    3    0    0  0.73575259689E+01  0.26351620186E+02  0.51501354261E+01  0.27839988685E+02  0.51100000000E-03 0. -1.
        -11    1    3    3    0    0  0.17556481131E+01  0.66947564311E+01  0.58835182238E+01  0.90839336700E+01  0.51100000000E-03 0.  1.
         12    1    3    3    0    0  0.45846805728E+01  0.78248431081E+01 -0.59803697120E+01  0.10863346055E+02  0.00000000000E+00 0. -1.
</event>
<event>
 7    1  0.5022032E-011  0.4778731E+02  0.7816164E-02  0.1312668E+00
        -11   -1    0    0    0    0  0.00000000000E+00  0.00000000000E+00  0.45593999997E+02  0.45594000000E+02  0.51100000000E-03 0.  1.
         11   -1    0    0    0    0 -0.00000000000E+00 -0.00000000000E+00 -0.45593999997E+02  0.45594000000E+02  0.51100000000E-03 0. -1.
    9900012    2    1    2    0    0  0.38517323826E+02 -0.43781635048E+01 -0.19515832656E+02  0.47787305597E+02  0.20000157541E+02 0.  0.
        -12    1    1    2    0    0 -0.38517323826E+02  0.43781635048E+01  0.19515832656E+02  0.43400694403E+02  0.00000000000E+00 0.  1.
         11    1    3    3    0    0  0.72014950506E+01  0.10147149280E+01  0.20619370497E+01  0.75592831676E+01  0.51100000000E-03 0. -1.
        -11    1    3    3    0    0  0.51129359010E+00 -0.28555009488E+01 -0.88866030512E+00  0.30339782799E+01  0.51100000000E-03 0.  1.
         12    1    3    3    0    0  0.30804535185E+02 -0.25373774840E+01 -0.20689109400E+02  0.37194044150E+02  0.00000000000E+00 0. -1.
</event>
<event>
 7    1  0.5022032E-011  0.4778727E+02  0.7816164E-02  0.1312668E+00
        -11   -1    0    0    0    0  0.00000000000E+00  0.00000000000E+00  0.45593999997E+02  0.45594000000E+02  0.51100000000E-03 0. -1.
         11   -1    0    0    0    0 -0.00000000000E+00 -0.00000000000E+00 -0.45593999997E+02  0.45594000000E+02  0.51100000000E-03 0.  1.
    9900012    2    1    2    0    0 -0.38689357138E+01  0.14840756999E+02  0.40600574363E+02  0.47787269932E+02  0.19999994926E+02 0.  0.
        -12    1    1    2    0    0  0.38689357138E+01 -0.14840756999E+02 -0.40600574363E+02  0.43400730068E+02  0.00000000000E+00 0.  1.
         11    1    3    3    0    0 -0.38519085874E+01  0.56921115746E+01  0.45701995208E+01  0.82537299364E+01  0.51100000000E-03 0. -1.
        -11    1    3    3    0    0  0.52911053737E+00 -0.25790350206E+01  0.14309933242E+01  0.29965182718E+01  0.51100000000E-03 0.  1.
         12    1    3    3    0    0 -0.54613766377E+00  0.11727680445E+02  0.34599381518E+02  0.36537021723E+02  0.00000000000E+00 0. -1.
</event>
<event>
 7    1  0.5022032E-011  0.4778727E+02  0.7816164E-02  0.1312668E+00
        -11   -1    0    0    0    0  0.00000000000E+00  0.00000000000E+00  0.45593999997E+02  0.45594000000E+02  0.51100000000E-03 0. -1.
         11   -1    0    0    0    0 -0.00000000000E+00 -0.00000000000E+00 -0.45593999997E+02  0.45594000000E+02  0.51100000000E-03 0.  1.
    9900012    2    1    2    0    0  0.20129624989E+01 -0.41094256413E+01 -0.43158822035E+02  0.47787270553E+02  0.19999997758E+02 0.  0.
         12    1    1    2    0    0 -0.20129624989E+01  0.41094256413E+01  0.43158822035E+02  0.43400729447E+02  0.00000000000E+00 0. -1.
         11    1    3    3    0    0 -0.83838491112E+00  0.50552191131E+01 -0.14011692084E+02  0.14919304436E+02  0.51100000000E-03 0. -1.
        -11    1    3    3    0    0  0.75867293219E+00 -0.35835105981E+01 -0.25746099994E+02  0.26005360947E+02  0.51100000000E-03 0.  1.
        -12    1    3    3    0    0  0.20926744778E+01 -0.55811341563E+01 -0.34010299567E+01  0.68626051691E+01  0.00000000000E+00 0.  1.
</event>
<event>
 7    1  0.5022032E-011  0.4778728E+02  0.7816164E-02  0.1312668E+00
        -11   -1    0    0    0    0  0.00000000000E+00  0.00000000000E+00  0.45593999997E+02  0.45594000000E+02  0.51100000000E-03 0. -1.
         11   -1    0    0    0    0 -0.00000000000E+00 -0.00000000000E+00 -0.45593999997E+02  0.45594000000E+02  0.51100000000E-03 0.  1.
    9900012    2    1    2    0    0 -0.18068013060E+02  0.30156365423E+02  0.25451193268E+02  0.47787277539E+02  0.20000029609E+02 0.  0.
        -12    1    1    2    0    0  0.18068013060E+02 -0.30156365423E+02 -0.25451193268E+02  0.43400722461E+02  0.00000000000E+00 0.  1.
         11    1    3    3    0    0 -0.67612931178E+01  0.72826985869E+01  0.12674283821E+02  0.16105596976E+02  0.51100000000E-03 0. -1.
        -11    1    3    3    0    0 -0.54166414526E+01  0.51172827247E+00  0.46918619826E+01  0.71843886014E+01  0.51100000000E-03 0.  1.
         12    1    3    3    0    0 -0.58900784892E+01  0.22361938563E+02  0.80850474645E+01  0.24497291961E+02  0.00000000000E+00 0. -1.
</event>
<event>
 7    1  0.5022032E-011  0.4778727E+02  0.7816164E-02  0.1312668E+00
        -11   -1    0    0    0    0  0.00000000000E+00  0.00000000000E+00  0.45593999997E+02  0.45594000000E+02  0.51100000000E-03 0. -1.
         11   -1    0    0    0    0 -0.00000000000E+00 -0.00000000000E+00 -0.45593999997E+02  0.45594000000E+02  0.51100000000E-03 0.  1.
    9900012    2    1    2    0    0  0.23272520920E+01  0.20794172716E+02 -0.38023799061E+02  0.47787274013E+02  0.20000013534E+02 0.  0.
         12    1    1    2    0    0 -0.23272520920E+01 -0.20794172716E+02  0.38023799061E+02  0.43400725987E+02  0.00000000000E+00 0. -1.
         11    1    3    3    0    0  0.43563010020E+01  0.78832420085E+01 -0.10595885727E+02  0.13906676727E+02  0.51100000000E-03 0.  1.
        -11    1    3    3    0    0 -0.48286790514E+01  0.14127263575E+02 -0.26924733164E+02  0.30786961099E+02  0.51100000000E-03 0. -1.
         12    1    3    3    0    0  0.27996301413E+01 -0.12163328676E+01 -0.50318016924E+00  0.30936361867E+01  0.00000000000E+00 0. -1.
</event>
<event>
 7    1  0.5022032E-011  0.4778727E+02  0.7816164E-02  0.1312668E+00
        -11   -1    0    0    0    0  0.00000000000E+00  0.00000000000E+00  0.45593999997E+02  0.45594000000E+02  0.51100000000E-03 0. -1.
         11   -1    0    0    0    0 -0.00000000000E+00 -0.00000000000E+00 -0.45593999997E+02  0.45594000000E+02  0.51100000000E-03 0.  1.
    9900012    2    1    2    0    0 -0.34140930336E+02 -0.21602918039E+02  0.15853513780E+02  0.47787273149E+02  0.20000009596E+02 0.  0.
        -12    1    1    2    0    0  0.34140930336E+02  0.21602918039E+02 -0.15853513780E+02  0.43400726851E+02  0.00000000000E+00 0.  1.
         11    1    3    3    0    0 -0.34242424387E+01  0.35603432002E+00 -0.24101978399E+01  0.42025290724E+01  0.51100000000E-03 0. -1.
        -11    1    3    3    0    0  0.76650634538E-01 -0.32693335472E+01  0.30861038945E+01  0.44964935974E+01  0.51100000000E-03 0.  1.
         12    1    3    3    0    0 -0.30793338532E+02 -0.18689618812E+02  0.15177607726E+02  0.39088250479E+02  0.00000000000E+00 0. -1.
</event>
<event>
 7    1  0.5022032E-011  0.4778728E+02  0.7816164E-02  0.1312668E+00
        -11   -1    0    0    0    0  0.00000000000E+00  0.00000000000E+00  0.45593999997E+02  0.45594000000E+02  0.51100000000E-03 0. -1.
         11   -1    0    0    0    0 -0.00000000000E+00 -0.00000000000E+00 -0.45593999997E+02  0.45594000000E+02  0.51100000000E-03 0.  1.
    9900012    2    1    2    0    0  0.22742590761E+02 -0.27208233899E+02 -0.25022178951E+02  0.47787275744E+02  0.20000021429E+02 0.  0.
         12    1    1    2    0    0 -0.22742590761E+02  0.27208233899E+02  0.25022178951E+02  0.43400724256E+02  0.00000000000E+00 0. -1.
         11    1    3    3    0    0  0.14493487334E+02 -0.93814593235E+01 -0.44934672080E+01  0.17839960817E+02  0.51100000000E-03 0. -1.
        -11    1    3    3    0    0  0.90204309075E+01 -0.83492685322E+01 -0.11849224647E+02  0.17072861031E+02  0.51100000000E-03 0.  1.
         12    1    3    3    0    0 -0.77132748005E+00 -0.94775060433E+01 -0.86794870964E+01  0.12874453897E+02  0.00000000000E+00 0. -1.
</event>
<event>
 7    1  0.5022032E-011  0.4778726E+02  0.7816164E-02  0.1312668E+00
        -11   -1    0    0    0    0  0.00000000000E+00  0.00000000000E+00  0.45593999997E+02  0.45594000000E+02  0.51100000000E-03 0. -1.
         11   -1    0    0    0    0 -0.00000000000E+00 -0.00000000000E+00 -0.45593999997E+02  0.45594000000E+02  0.51100000000E-03 0.  1.
    9900012    2    1    2    0    0 -0.51029122471E+01  0.19607917320E+02  0.38381171382E+02  0.47787257476E+02  0.19999938134E+02 0.  0.
        -12    1    1    2    0    0  0.51029122471E+01 -0.19607917320E+02 -0.38381171382E+02  0.43400742524E+02  0.00000000000E+00 0.  1.
         11    1    3    3    0    0 -0.35175906357E+01  0.15347586474E+02  0.22802979455E+02  0.27710967626E+02  0.51100000000E-03 0. -1.
        -11    1    3    3    0    0  0.12242532418E+01  0.65548175933E+01  0.36354313088E+01  0.75947870769E+01  0.51100000000E-03 0.  1.
        -12    1    3    3    0    0 -0.28095748532E+01 -0.22944867476E+01  0.11942760618E+02  0.12481502773E+02  0.00000000000E+00 0.  1.
</event>
<event>
 7    1  0.5022032E-011  0.4778726E+02  0.7816164E-02  0.1312668E+00
        -11   -1    0    0    0    0  0.00000000000E+00  0.00000000000E+00  0.45593999997E+02  0.45594000000E+02  0.51100000000E-03 0. -1.
         11   -1    0    0    0    0 -0.00000000000E+00 -0.00000000000E+00 -0.45593999997E+02  0.45594000000E+02  0.51100000000E-03 0.  1.
    9900012    2    1    2    0    0  0.13718627531E+02  0.23997747344E+02 -0.33459400933E+02  0.47787261185E+02  0.19999955046E+02 0.  0.
         12    1    1    2    0    0 -0.13718627531E+02 -0.23997747344E+02  0.33459400933E+02  0.43400738815E+02  0.00000000000E+00 0. -1.
         11    1    3    3    0    0 -0.71737150066E-01  0.33386820285E+01 -0.43781745259E+01  0.55063923168E+01  0.51100000000E-03 0. -1.
        -11    1    3    3    0    0  0.11440213839E+02  0.20416040666E+02 -0.31271639334E+02  0.39059040388E+02  0.51100000000E-03 0.  1.
         12    1    3    3    0    0  0.23501508421E+01  0.24302465005E+00  0.21904129272E+01  0.32218284797E+01  0.00000000000E+00 0. -1.
</event>
<event>
 7    1  0.5022032E-011  0.4778727E+02  0.7816164E-02  0.1312668E+00
        -11   -1    0    0    0    0  0.00000000000E+00  0.00000000000E+00  0.45593999997E+02  0.45594000000E+02  0.51100000000E-03 0. -1.
         11   -1    0    0    0    0 -0.00000000000E+00 -0.00000000000E+00 -0.45593999997E+02  0.45594000000E+02  0.51100000000E-03 0.  1.
    9900012    2    1    2    0    0 -0.10531513269E+02 -0.33415390057E+02  0.25614878049E+02  0.47787273718E+02  0.20000012188E+02 0.  0.
        -12    1    1    2    0    0  0.10531513269E+02  0.33415390057E+02 -0.25614878049E+02  0.43400726282E+02  0.00000000000E+00 0.  1.
         11    1    3    3    0    0 -0.38008733759E+01 -0.54612347821E+01  0.12844069082E+02  0.14465193902E+02  0.51100000000E-03 0. -1.
        -11    1    3    3    0    0 -0.75486753988E+01 -0.11474131892E+02  0.89244804392E+01  0.16379394199E+02  0.51100000000E-03 0.  1.
        -12    1    3    3    0    0  0.81803550575E+00 -0.16480023383E+02  0.38463285278E+01  0.16942685617E+02  0.00000000000E+00 0.  1.
</event>
<event>
 7    1  0.5022032E-011  0.4778727E+02  0.7816164E-02  0.1312668E+00
        -11   -1    0    0    0    0  0.00000000000E+00  0.00000000000E+00  0.45593999997E+02  0.45594000000E+02  0.51100000000E-03 0.  1.
         11   -1    0    0    0    0 -0.00000000000E+00 -0.00000000000E+00 -0.45593999997E+02  0.45594000000E+02  0.51100000000E-03 0. -1.
    9900012    2    1    2    0    0 -0.38309668773E+02 -0.20179917590E+02 -0.29602669805E+01  0.47787274475E+02  0.20000015643E+02 0.  0.
         12    1    1    2    0    0  0.38309668773E+02  0.20179917590E+02  0.29602669805E+01  0.43400725525E+02  0.00000000000E+00 0. -1.
         11    1    3    3    0    0 -0.93006701044E+01 -0.13803605786E+01  0.31819912912E+01  0.99263753987E+01  0.51100000000E-03 0. -1.
        -11    1    3    3    0    0 -0.17323332032E+02 -0.36659301896E+01  0.22497691391E+00  0.17708401726E+02  0.51100000000E-03 0.  1.
        -12    1    3    3    0    0 -0.11685666637E+02 -0.15133626822E+02 -0.63672351857E+01  0.20152497350E+02  0.00000000000E+00 0.  1.
</event>
<event>
 7    1  0.5022032E-011  0.4778728E+02  0.7816164E-02  0.1312668E+00
        -11   -1    0    0    0    0  0.00000000000E+00  0.00000000000E+00  0.45593999997E+02  0.45594000000E+02  0.51100000000E-03 0.  1.
         11   -1    0    0    0    0 -0.00000000000E+00 -0.00000000000E+00 -0.45593999997E+02  0.45594000000E+02  0.51100000000E-03 0. -1.
    9900012    2    1    2    0    0 -0.27618296206E+02 -0.31472650992E+02  0.11415989189E+02  0.47787275870E+02  0.20000022002E+02 0.  0.
         12    1    1    2    0    0  0.27618296206E+02  0.31472650992E+02 -0.11415989189E+02  0.43400724130E+02  0.00000000000E+00 0. -1.
         11    1    3    3    0    0 -0.16049784729E+02 -0.14010930571E+02  0.69797114177E+01  0.22419146662E+02  0.51100000000E-03 0. -1.
        -11    1    3    3    0    0 -0.79083894616E+01 -0.13845498636E+02  0.91554047115E+01  0.18386459476E+02  0.51100000000E-03 0.  1.
         12    1    3    3    0    0 -0.36601220155E+01 -0.36162217848E+01 -0.47191269403E+01  0.69816697318E+01  0.00000000000E+00 0. -1.
</event>
<event>
 7    1  0.5022032E-011  0.4778727E+02  0.7816164E-02  0.1312668E+00
        -11   -1    0    0    0    0  0.00000000000E+00  0.00000000000E+00  0.45593999997E+02  0.45594000000E+02  0.51100000000E-03 0.  1.
         11   -1    0    0    0    0 -0.00000000000E+00 -0.00000000000E+00 -0.45593999997E+02  0.45594000000E+02  0.51100000000E-03 0. -1.
    9900012    2    1    2    0    0  0.18572133799E+02  0.27619987574E+02  0.27853829214E+02  0.47787266489E+02  0.19999979229E+02 0.  0.
        -12    1    1    2    0    0 -0.18572133799E+02 -0.27619987574E+02 -0.27853829214E+02  0.43400733511E+02  0.00000000000E+00 0.  1.
         11    1    3    3    0    0 -0.66104874324E+00  0.11655300740E+02  0.67884393665E+01  0.13504293024E+02  0.51100000000E-03 0. -1.
        -11    1    3    3    0    0  0.19792104280E+01  0.15529413299E+01  0.77644847341E+01  0.81618701374E+01  0.51100000000E-03 0.  1.
         12    1    3    3    0    0  0.17253972115E+02  0.14411745504E+02  0.13300905113E+02  0.26121103327E+02  0.00000000000E+00 0. -1.
</event>
<event>
 7    1  0.5022032E-011  0.4778728E+02  0.7816164E-02  0.1312668E+00
        -11   -1    0    0    0    0  0.00000000000E+00  0.00000000000E+00  0.45593999997E+02  0.45594000000E+02  0.51100000000E-03 0. -1.
         11   -1    0    0    0    0 -0.00000000000E+00 -0.00000000000E+00 -0.45593999997E+02  0.45594000000E+02  0.51100000000E-03 0.  1.
    9900012    2    1    2    0    0  0.18976340419E+02 -0.15536731330E+02 -0.35806860113E+02  0.47787277111E+02  0.20000027661E+02 0.  0.
         12    1    1    2    0    0 -0.18976340419E+02  0.15536731330E+02  0.35806860113E+02  0.43400722889E+02  0.00000000000E+00 0. -1.
         11    1    3    3    0    0  0.85966421842E-02  0.85290758011E+00  0.18163988308E+01  0.20066963437E+01  0.51100000000E-03 0. -1.
        -11    1    3    3    0    0  0.28579495192E+01 -0.55759136695E+01 -0.59734531517E+01  0.86568372700E+01  0.51100000000E-03 0.  1.
         12    1    3    3    0    0  0.16109794258E+02 -0.10813725241E+02 -0.31649805792E+02  0.37123743498E+02  0.00000000000E+00 0. -1.
</event>
<event>
 7    1  0.5022032E-011  0.4778727E+02  0.7816164E-02  0.1312668E+00
        -11   -1    0    0    0    0  0.00000000000E+00  0.00000000000E+00  0.45593999997E+02  0.45594000000E+02  0.51100000000E-03 0. -1.
         11   -1    0    0    0    0 -0.00000000000E+00 -0.00000000000E+00 -0.45593999997E+02  0.45594000000E+02  0.51100000000E-03 0.  1.
    9900012    2    1    2    0    0  0.14969559605E+02  0.23776266308E+02  0.33079062786E+02  0.47787274786E+02  0.20000017060E+02 0.  0.
        -12    1    1    2    0    0 -0.14969559605E+02 -0.23776266308E+02 -0.33079062786E+02  0.43400725214E+02  0.00000000000E+00 0.  1.
         11    1    3    3    0    0  0.11321033132E+02  0.86879976368E+01  0.13695504444E+02  0.19779128807E+02  0.51100000000E-03 0. -1.
        -11    1    3    3    0    0  0.15925432969E+01 -0.22038806239E+01  0.17999278098E+01  0.32608318476E+01  0.51100000000E-03 0.  1.
        -12    1    3    3    0    0  0.20559831757E+01  0.17292149295E+02  0.17583630532E+02  0.24747314132E+02  0.00000000000E+00 0.  1.
</event>
<event>
 7    1  0.5022032E-011  0.4778723E+02  0.7816164E-02  0.1312668E+00
        -11   -1    0    0    0    0  0.00000000000E+00  0.00000000000E+00  0.45593999997E+02  0.45594000000E+02  0.51100000000E-03 0.  1.
         11   -1    0    0    0    0 -0.00000000000E+00 -0.00000000000E+00 -0.45593999997E+02  0.45594000000E+02  0.51100000000E-03 0. -1.
    9900012    2    1    2    0    0 -0.43132803601E+02 -0.48142308713E+01 -0.10794754881E+00  0.47787225605E+02  0.19999792823E+02 0.  0.
        -12    1    1    2    0    0  0.43132803601E+02  0.48142308713E+01  0.10794754881E+00  0.43400774395E+02  0.00000000000E+00 0.  1.
         11    1    3    3    0    0 -0.14520143434E+02  0.47136068226E+00  0.44563378443E+01  0.15195910420E+02  0.51100000000E-03 0. -1.
        -11    1    3    3    0    0 -0.57849986863E+01  0.46027478064E+01 -0.10059253651E+01  0.74607897217E+01  0.51100000000E-03 0.  1.
         12    1    3    3    0    0 -0.22827661481E+02 -0.98883393600E+01 -0.35583600280E+01  0.25130525464E+02  0.00000000000E+00 0. -1.
</event>
<event>
 7    1  0.5022032E-011  0.4778727E+02  0.7816164E-02  0.1312668E+00
        -11   -1    0    0    0    0  0.00000000000E+00  0.00000000000E+00  0.45593999997E+02  0.45594000000E+02  0.51100000000E-03 0. -1.
         11   -1    0    0    0    0 -0.00000000000E+00 -0.00000000000E+00 -0.45593999997E+02  0.45594000000E+02  0.51100000000E-03 0.  1.
    9900012    2    1    2    0    0 -0.36915437537E+01  0.13129300122E+02  0.41202150535E+02  0.47787271600E+02  0.20000002533E+02 0.  0.
        -12    1    1    2    0    0  0.36915437537E+01 -0.13129300122E+02 -0.41202150535E+02  0.43400728400E+02  0.00000000000E+00 0.  1.
         11    1    3    3    0    0 -0.56179891169E+01  0.59490396639E+01  0.48100723528E+01  0.94915578774E+01  0.51100000000E-03 0. -1.
        -11    1    3    3    0    0 -0.36769299445E+01  0.40077288073E+01  0.18346051197E+02  0.19135289358E+02  0.51100000000E-03 0.  1.
        -12    1    3    3    0    0  0.56033753077E+01  0.31725316506E+01  0.18046026984E+02  0.19160424365E+02  0.00000000000E+00 0.  1.
</event>
<event>
 7    1  0.5022032E-011  0.4778727E+02  0.7816164E-02  0.1312668E+00
        -11   -1    0    0    0    0  0.00000000000E+00  0.00000000000E+00  0.45593999997E+02  0.45594000000E+02  0.51100000000E-03 0.  1.
         11   -1    0    0    0    0 -0.00000000000E+00 -0.00000000000E+00 -0.45593999997E+02  0.45594000000E+02  0.51100000000E-03 0. -1.
    9900012    2    1    2    0    0 -0.26629313582E+02  0.33023049287E+02 -0.91641231988E+01  0.47787270973E+02  0.19999999674E+02 0.  0.
         12    1    1    2    0    0  0.26629313582E+02 -0.33023049287E+02  0.91641231988E+01  0.43400729027E+02  0.00000000000E+00 0. -1.
         11    1    3    3    0    0 -0.13582007073E+02  0.25042386710E+02 -0.33124361332E+01  0.28680381477E+02  0.51100000000E-03 0. -1.
        -11    1    3    3    0    0 -0.11199210623E+02  0.99414401365E+01 -0.65166298956E+01  0.16331595636E+02  0.51100000000E-03 0.  1.
         12    1    3    3    0    0 -0.18480958854E+01 -0.19607775593E+01  0.66494283001E+00  0.27752938594E+01  0.00000000000E+00 0. -1.
</event>
<event>
 7    1  0.5022032E-011  0.4778727E+02  0.7816164E-02  0.1312668E+00
        -11   -1    0    0    0    0  0.00000000000E+00  0.00000000000E+00  0.45593999997E+02  0.45594000000E+02  0.51100000000E-03 0. -1.
         11   -1    0    0    0    0 -0.00000000000E+00 -0.00000000000E+00 -0.45593999997E+02  0.45594000000E+02  0.51100000000E-03 0.  1.
    9900012    2    1    2    0    0 -0.11946862776E+02 -0.62512851552E+01  0.41253085798E+02  0.47787272079E+02  0.20000004715E+02 0.  0.
        -12    1    1    2    0    0  0.11946862776E+02  0.62512851552E+01 -0.41253085798E+02  0.43400727921E+02  0.00000000000E+00 0.  1.
         11    1    3    3    0    0 -0.15641862947E+01 -0.17434465498E+01  0.12732111331E+01  0.26659616440E+01  0.51100000000E-03 0.  1.
        -11    1    3    3    0    0 -0.55203314847E+01 -0.11253733699E+02  0.22240316856E+02  0.25529439398E+02  0.51100000000E-03 0. -1.
         12    1    3    3    0    0 -0.48623449969E+01  0.67458950932E+01  0.17739557808E+02  0.19591871036E+02  0.00000000000E+00 0. -1.
</event>
<event>
 7    1  0.5022032E-011  0.4778726E+02  0.7816164E-02  0.1312668E+00
        -11   -1    0    0    0    0  0.00000000000E+00  0.00000000000E+00  0.45593999997E+02  0.45594000000E+02  0.51100000000E-03 0. -1.
         11   -1    0    0    0    0 -0.00000000000E+00 -0.00000000000E+00 -0.45593999997E+02  0.45594000000E+02  0.51100000000E-03 0.  1.
    9900012    2    1    2    0    0 -0.44694442672E+01 -0.30167848434E+02  0.30879587635E+02  0.47787263327E+02  0.19999964815E+02 0.  0.
        -12    1    1    2    0    0  0.44694442672E+01  0.30167848434E+02 -0.30879587635E+02  0.43400736673E+02  0.00000000000E+00 0.  1.
         11    1    3    3    0    0 -0.79455551923E+01 -0.25095144059E+02  0.19065595959E+02  0.32502231496E+02  0.51100000000E-03 0. -1.
        -11    1    3    3    0    0  0.59995202344E-01 -0.58349721931E+01  0.92867570513E+01  0.10967878405E+02  0.51100000000E-03 0.  1.
         12    1    3    3    0    0  0.34161157227E+01  0.76226781847E+00  0.25272346254E+01  0.43171534267E+01  0.00000000000E+00 0. -1.
</event>
<event>
 7    1  0.5022032E-011  0.4778727E+02  0.7816164E-02  0.1312668E+00
        -11   -1    0    0    0    0  0.00000000000E+00  0.00000000000E+00  0.45593999997E+02  0.45594000000E+02  0.51100000000E-03 0. -1.
         11   -1    0    0    0    0 -0.00000000000E+00 -0.00000000000E+00 -0.45593999997E+02  0.45594000000E+02  0.51100000000E-03 0.  1.
    9900012    2    1    2    0    0 -0.43822451574E+01 -0.33494276410E+02  0.27249818643E+02  0.47787271424E+02  0.20000001730E+02 0.  0.
        -12    1    1    2    0    0  0.43822451574E+01  0.33494276410E+02 -0.27249818643E+02  0.43400728576E+02  0.00000000000E+00 0.  1.
         11    1    3    3    0    0 -0.84210125908E+00 -0.10213847314E+02  0.10044537698E+02  0.14350071405E+02  0.51100000000E-03 0. -1.
        -11    1    3    3    0    0  0.61813070201E+01 -0.10540815410E+02  0.46308493219E+01  0.13067597778E+02  0.51100000000E-03 0.  1.
        -12    1    3    3    0    0 -0.97214509185E+01 -0.12739613686E+02  0.12574431623E+02  0.20369602241E+02  0.00000000000E+00 0.  1.
</event>
<event>
 7    1  0.5022032E-011  0.4778727E+02  0.7816164E-02  0.1312668E+00
        -11   -1    0    0    0    0  0.00000000000E+00  0.00000000000E+00  0.45593999997E+02  0.45594000000E+02  0.51100000000E-03 0. -1.
         11   -1    0    0    0    0 -0.00000000000E+00 -0.00000000000E+00 -0.45593999997E+02  0.45594000000E+02  0.51100000000E-03 0.  1.
    9900012    2    1    2    0    0  0.14133250341E+02 -0.41449121917E+01 -0.40825162542E+02  0.47787274673E+02  0.20000016545E+02 0.  0.
         12    1    1    2    0    0 -0.14133250341E+02  0.41449121917E+01  0.40825162542E+02  0.43400725327E+02  0.00000000000E+00 0. -1.
         11    1    3    3    0    0  0.10245543717E+01  0.38656132710E+01 -0.94451896811E+01  0.10256914058E+02  0.51100000000E-03 0. -1.
        -11    1    3    3    0    0  0.10718373511E+02  0.42212983890E+00 -0.23117717030E+02  0.25485104773E+02  0.51100000000E-03 0.  1.
        -12    1    3    3    0    0  0.23903224579E+01 -0.84326553017E+01 -0.82622558311E+01  0.12045255842E+02  0.00000000000E+00 0.  1.
</event>
<event>
 7    1  0.5022032E-011  0.4778727E+02  0.7816164E-02  0.1312668E+00
        -11   -1    0    0    0    0  0.00000000000E+00  0.00000000000E+00  0.45593999997E+02  0.45594000000E+02  0.51100000000E-03 0.  1.
         11   -1    0    0    0    0 -0.00000000000E+00 -0.00000000000E+00 -0.45593999997E+02  0.45594000000E+02  0.51100000000E-03 0. -1.
    9900012    2    1    2    0    0  0.80962344721E+01 -0.40295608345E+02 -0.13940523714E+02  0.47787271136E+02  0.20000000417E+02 0.  0.
         12    1    1    2    0    0 -0.80962344721E+01  0.40295608345E+02  0.13940523714E+02  0.43400728864E+02  0.00000000000E+00 0. -1.
         11    1    3    3    0    0 -0.10810538347E+01 -0.36161258189E+01 -0.20963440142E+00  0.37800780646E+01  0.51100000000E-03 0. -1.
        -11    1    3    3    0    0  0.14226113210E+01 -0.16363453315E+02  0.28379309563E+01  0.16668541620E+02  0.51100000000E-03 0.  1.
         12    1    3    3    0    0  0.77546769858E+01 -0.20316029211E+02 -0.16568820269E+02  0.27338651451E+02  0.00000000000E+00 0. -1.
</event>
<event>
 7    1  0.5022032E-011  0.4778727E+02  0.7816164E-02  0.1312668E+00
        -11   -1    0    0    0    0  0.00000000000E+00  0.00000000000E+00  0.45593999997E+02  0.45594000000E+02  0.51100000000E-03 0. -1.
         11   -1    0    0    0    0 -0.00000000000E+00 -0.00000000000E+00 -0.45593999997E+02  0.45594000000E+02  0.51100000000E-03 0.  1.
    9900012    2    1    2    0    0  0.31214160019E+02  0.14026496468E+02 -0.26693760891E+02  0.47787271212E+02  0.20000000762E+02 0.  0.
         12    1    1    2    0    0 -0.31214160019E+02 -0.14026496468E+02  0.26693760891E+02  0.43400728788E+02  0.00000000000E+00 0. -1.
         11    1    3    3    0    0  0.79042956009E+01  0.16923763632E+01 -0.11295705003E+02  0.13890103617E+02  0.51100000000E-03 0. -1.
        -11    1    3    3    0    0  0.16898981386E+02  0.27404073665E+01 -0.14300115356E+02  0.22306472242E+02  0.51100000000E-03 0.  1.
        -12    1    3    3    0    0  0.64108830318E+01  0.95937127382E+01 -0.10979405317E+01  0.11590695353E+02  0.00000000000E+00 0.  1.
</event>
<event>
 7    1  0.5022032E-011  0.4778726E+02  0.7816164E-02  0.1312668E+00
        -11   -1    0    0    0    0  0.00000000000E+00  0.00000000000E+00  0.45593999997E+02  0.45594000000E+02  0.51100000000E-03 0. -1.
         11   -1    0    0    0    0 -0.00000000000E+00 -0.00000000000E+00 -0.45593999997E+02  0.45594000000E+02  0.51100000000E-03 0.  1.
    9900012    2    1    2    0    0 -0.89257833508E+01  0.25707272277E+02 -0.33809626525E+02  0.47787259199E+02  0.19999945991E+02 0.  0.
         12    1    1    2    0    0  0.89257833508E+01 -0.25707272277E+02  0.33809626525E+02  0.43400740801E+02  0.00000000000E+00 0. -1.
         11    1    3    3    0    0 -0.32682635890E+01  0.83897313052E+01 -0.14577042203E+01  0.91210766972E+01  0.51100000000E-03 0. -1.
        -11    1    3    3    0    0 -0.48144763057E+01  0.21513224846E+01 -0.13252138745E+02  0.14262768039E+02  0.51100000000E-03 0.  1.
        -12    1    3    3    0    0 -0.84304345610E+00  0.15166218487E+02 -0.19099783559E+02  0.24403414463E+02  0.00000000000E+00 0.  1.
</event>
<event>
 7    1  0.5022032E-011  0.4778721E+02  0.7816164E-02  0.1312668E+00
        -11   -1    0    0    0    0  0.00000000000E+00  0.00000000000E+00  0.45593999997E+02  0.45594000000E+02  0.51100000000E-03 0. -1.
         11   -1    0    0    0    0 -0.00000000000E+00 -0.00000000000E+00 -0.45593999997E+02  0.45594000000E+02  0.51100000000E-03 0.  1.
    9900012    2    1    2    0    0 -0.17846818438E+02 -0.96683705132E+01  0.38361988223E+02  0.47787211331E+02  0.19999727740E+02 0.  0.
        -12    1    1    2    0    0  0.17846818438E+02  0.96683705132E+01 -0.38361988223E+02  0.43400788669E+02  0.00000000000E+00 0.  1.
         11    1    3    3    0    0 -0.39994292969E+01  0.23655522216E+01  0.66217978391E+00  0.46935865115E+01  0.51100000000E-03 0. -1.
        -11    1    3    3    0    0 -0.32037501194E+01  0.91569926753E+00  0.27066494899E+01  0.42928395845E+01  0.51100000000E-03 0.  1.
         12    1    3    3    0    0 -0.10643639021E+02 -0.12949622002E+02  0.34993158949E+02  0.38800785235E+02  0.00000000000E+00 0. -1.
</event>
<event>
 7    1  0.5022032E-011  0.4778727E+02  0.7816164E-02  0.1312668E+00
        -11   -1    0    0    0    0  0.00000000000E+00  0.00000000000E+00  0.45593999997E+02  0.45594000000E+02  0.51100000000E-03 0.  1.
         11   -1    0    0    0    0 -0.00000000000E+00 -0.00000000000E+00 -0.45593999997E+02  0.45594000000E+02  0.51100000000E-03 0. -1.
    9900012    2    1    2    0    0 -0.18132414255E+02 -0.36415852064E+02  0.15123636145E+02  0.47787273065E+02  0.20000009212E+02 0.  0.
        -12    1    1    2    0    0  0.18132414255E+02  0.36415852064E+02 -0.15123636145E+02  0.43400726935E+02  0.00000000000E+00 0.  1.
         11    1    3    3    0    0 -0.18337350811E+01 -0.98375046112E+01  0.51172201109E+01  0.11239440522E+02  0.51100000000E-03 0. -1.
        -11    1    3    3    0    0 -0.15911307235E+00 -0.15477540709E+02  0.56761824160E+01  0.16486316461E+02  0.51100000000E-03 0.  1.
         12    1    3    3    0    0 -0.16139566102E+02 -0.11100806743E+02  0.43302336175E+01  0.20061516082E+02  0.00000000000E+00 0. -1.
</event>
<event>
 7    1  0.5022032E-011  0.4778727E+02  0.7816164E-02  0.1312668E+00
        -11   -1    0    0    0    0  0.00000000000E+00  0.00000000000E+00  0.45593999997E+02  0.45594000000E+02  0.51100000000E-03 0. -1.
         11   -1    0    0    0    0 -0.00000000000E+00 -0.00000000000E+00 -0.45593999997E+02  0.45594000000E+02  0.51100000000E-03 0.  1.
    9900012    2    1    2    0    0  0.19201893616E+02  0.35831565821E+02 -0.15198989297E+02  0.47787273010E+02  0.20000008963E+02 0.  0.
         12    1    1    2    0    0 -0.19201893616E+02 -0.35831565821E+02  0.15198989297E+02  0.43400726990E+02  0.00000000000E+00 0. -1.
         11    1    3    3    0    0  0.11580124752E+02  0.20624834941E+02 -0.11262378352E+02  0.26197791358E+02  0.51100000000E-03 0. -1.
        -11    1    3    3    0    0  0.63494441246E+01  0.14992856549E+02 -0.74066066520E+01  0.17887398094E+02  0.51100000000E-03 0.  1.
         12    1    3    3    0    0  0.12723247390E+01  0.21387433006E+00  0.34699957070E+01  0.37020835589E+01  0.00000000000E+00 0. -1.
</event>
<event>
 7    1  0.5022032E-011  0.4778726E+02  0.7816164E-02  0.1312668E+00
        -11   -1    0    0    0    0  0.00000000000E+00  0.00000000000E+00  0.45593999997E+02  0.45594000000E+02  0.51100000000E-03 0. -1.
         11   -1    0    0    0    0 -0.00000000000E+00 -0.00000000000E+00 -0.45593999997E+02  0.45594000000E+02  0.51100000000E-03 0.  1.
    9900012    2    1    2    0    0  0.20752026578E+02  0.18106369271E+02 -0.33543066202E+02  0.47787256855E+02  0.19999935305E+02 0.  0.
         12    1    1    2    0    0 -0.20752026578E+02 -0.18106369271E+02  0.33543066202E+02  0.43400743145E+02  0.00000000000E+00 0. -1.
         11    1    3    3    0    0  0.27450276255E+01  0.25921202683E+00  0.32472669256E+00  0.27762952339E+01  0.51100000000E-03 0. -1.
        -11    1    3    3    0    0  0.12311620867E+02  0.20278201966E+01 -0.11045423431E+02  0.16664016387E+02  0.51100000000E-03 0.  1.
         12    1    3    3    0    0  0.56953780857E+01  0.15819337047E+02 -0.22822369464E+02  0.28346945234E+02  0.00000000000E+00 0. -1.
</event>
<event>
 7    1  0.5022032E-011  0.4778727E+02  0.7816164E-02  0.1312668E+00
        -11   -1    0    0    0    0  0.00000000000E+00  0.00000000000E+00  0.45593999997E+02  0.45594000000E+02  0.51100000000E-03 0. -1.
         11   -1    0    0    0    0 -0.00000000000E+00 -0.00000000000E+00 -0.45593999997E+02  0.45594000000E+02  0.51100000000E-03 0.  1.
    9900012    2    1    2    0    0 -0.40618618343E+02 -0.46165198764E+00 -0.15281949270E+02  0.47787271294E+02  0.20000001139E+02 0.  0.
         12    1    1    2    0    0  0.40618618343E+02  0.46165198764E+00  0.15281949270E+02  0.43400728706E+02  0.00000000000E+00 0. -1.
         11    1    3    3    0    0 -0.13258146302E+01  0.28628124810E+01  0.24474493181E+00  0.31643925290E+01  0.51100000000E-03 0. -1.
        -11    1    3    3    0    0 -0.29328143768E+02 -0.51850568415E+01 -0.17133273310E+02  0.34359480291E+02  0.51100000000E-03 0.  1.
         12    1    3    3    0    0 -0.99646599457E+01  0.18605923729E+01  0.16065791079E+01  0.10263398474E+02  0.00000000000E+00 0. -1.
</event>
<event>
 7    1  0.5048047E-011  0.4778727E+02  0.7816164E-02  0.1312668E+00
        -11   -1    0    0    0    0  0.00000000000E+00  0.00000000000E+00  0.45593999997E+02  0.45594000000E+02  0.51100000000E-03 0. -1.
         11   -1    0    0    0    0 -0.00000000000E+00 -0.00000000000E+00 -0.45593999997E+02  0.45594000000E+02  0.51100000000E-03 0.  1.
    9900012    2    1    2    0    0  0.16797577427E+02  0.23153714120E+02 -0.32640006252E+02  0.47787273127E+02  0.20000009495E+02 0.  0.
         12    1    1    2    0    0 -0.16797577427E+02 -0.23153714120E+02  0.32640006252E+02  0.43400726873E+02  0.00000000000E+00 0. -1.
         11    1    3    3    0    0 -0.27371814477E+01  0.18736705860E+01 -0.13238529164E+01  0.35714689622E+01  0.51100000000E-03 0. -1.
        -11    1    3    3    0    0 -0.12904014233E+01  0.43707100345E+00 -0.32497941728E+01  0.35238231116E+01  0.51100000000E-03 0.  1.
        -12    1    3    3    0    0  0.20825160298E+02  0.20842972530E+02 -0.28066359163E+02  0.40691981053E+02  0.00000000000E+00 0.  1.
</event>
<event>
 7    1  0.5022032E-011  0.4778727E+02  0.7816164E-02  0.1312668E+00
        -11   -1    0    0    0    0  0.00000000000E+00  0.00000000000E+00  0.45593999997E+02  0.45594000000E+02  0.51100000000E-03 0. -1.
         11   -1    0    0    0    0 -0.00000000000E+00 -0.00000000000E+00 -0.45593999997E+02  0.45594000000E+02  0.51100000000E-03 0.  1.
    9900012    2    1    2    0    0 -0.79873835446E+01  0.12797228589E+02 -0.40694670387E+02  0.47787267825E+02  0.19999985320E+02 0.  0.
         12    1    1    2    0    0  0.79873835446E+01 -0.12797228589E+02  0.40694670387E+02  0.43400732175E+02  0.00000000000E+00 0. -1.
         11    1    3    3    0    0 -0.32612608219E+01 -0.14449619621E+00 -0.14667360707E+02  0.15026249421E+02  0.51100000000E-03 0. -1.
        -11    1    3    3    0    0 -0.47996219194E+01  0.73637095444E+00 -0.16722410379E+02  0.17413145089E+02  0.51100000000E-03 0.  1.
        -12    1    3    3    0    0  0.73499196759E-01  0.12205353831E+02 -0.93048993014E+01  0.15347873315E+02  0.00000000000E+00 0.  1.
</event>
<event>
 7    1  0.5022032E-011  0.4778727E+02  0.7816164E-02  0.1312668E+00
        -11   -1    0    0    0    0  0.00000000000E+00  0.00000000000E+00  0.45593999997E+02  0.45594000000E+02  0.51100000000E-03 0. -1.
         11   -1    0    0    0    0 -0.00000000000E+00 -0.00000000000E+00 -0.45593999997E+02  0.45594000000E+02  0.51100000000E-03 0.  1.
    9900012    2    1    2    0    0 -0.86445395309E+01  0.14451678089E+02 -0.40000552036E+02  0.47787271590E+02  0.20000002489E+02 0.  0.
         12    1    1    2    0    0  0.86445395309E+01 -0.14451678089E+02  0.40000552036E+02  0.43400728410E+02  0.00000000000E+00 0. -1.
         11    1    3    3    0    0 -0.22009188754E+01 -0.84538585769E+00 -0.18305623689E+01  0.29849087074E+01  0.51100000000E-03 0. -1.
        -11    1    3    3    0    0  0.41660720432E+01  0.20278942895E+01 -0.17203968291E+02  0.17816987308E+02  0.51100000000E-03 0.  1.
         12    1    3    3    0    0 -0.10609692699E+02  0.13269169657E+02 -0.20966021376E+02  0.26985375575E+02  0.00000000000E+00 0. -1.
</event>
<event>
 7    1  0.5022032E-011  0.4778727E+02  0.7816164E-02  0.1312668E+00
        -11   -1    0    0    0    0  0.00000000000E+00  0.00000000000E+00  0.45593999997E+02  0.45594000000E+02  0.51100000000E-03 0. -1.
         11   -1    0    0    0    0 -0.00000000000E+00 -0.00000000000E+00 -0.45593999997E+02  0.45594000000E+02  0.51100000000E-03 0.  1.
    9900012    2    1    2    0    0  0.29685192417E+02  0.23352450172E+01 -0.31574662552E+02  0.47787270359E+02  0.19999996874E+02 0.  0.
         12    1    1    2    0    0 -0.29685192417E+02 -0.23352450172E+01  0.31574662552E+02  0.43400729641E+02  0.00000000000E+00 0. -1.
         11    1    3    3    0    0  0.81285128013E+01  0.14361274219E+01 -0.13973586885E+02  0.16229488995E+02  0.51100000000E-03 0. -1.
        -11    1    3    3    0    0 -0.52138212396E+00 -0.18765438162E+01 -0.63128191716E+01  0.66064318787E+01  0.51100000000E-03 0.  1.
         12    1    3    3    0    0  0.22078061740E+02  0.27756614114E+01 -0.11288256495E+02  0.24951349486E+02  0.00000000000E+00 0. -1.
</event>
<event>
 7    1  0.5022032E-011  0.4778727E+02  0.7816164E-02  0.1312668E+00
        -11   -1    0    0    0    0  0.00000000000E+00  0.00000000000E+00  0.45593999997E+02  0.45594000000E+02  0.51100000000E-03 0. -1.
         11   -1    0    0    0    0 -0.00000000000E+00 -0.00000000000E+00 -0.45593999997E+02  0.45594000000E+02  0.51100000000E-03 0.  1.
    9900012    2    1    2    0    0  0.54693343363E+01  0.36248159081E+02  0.23233184945E+02  0.47787268007E+02  0.19999986150E+02 0.  0.
        -12    1    1    2    0    0 -0.54693343363E+01 -0.36248159081E+02 -0.23233184945E+02  0.43400731993E+02  0.00000000000E+00 0.  1.
         11    1    3    3    0    0  0.10601861007E+00 -0.67882779102E+00  0.43047448390E+00  0.81077472700E+00  0.51100000000E-03 0. -1.
        -11    1    3    3    0    0 -0.76021610477E+00  0.28962022869E+02  0.98854209518E+01  0.30612060447E+02  0.51100000000E-03 0.  1.
         12    1    3    3    0    0  0.61235318310E+01  0.79649640034E+01  0.12917289509E+02  0.16364432832E+02  0.00000000000E+00 0. -1.
</event>
<event>
 7    1  0.5022032E-011  0.4778725E+02  0.7816164E-02  0.1312668E+00
        -11   -1    0    0    0    0  0.00000000000E+00  0.00000000000E+00  0.45593999997E+02  0.45594000000E+02  0.51100000000E-03 0. -1.
         11   -1    0    0    0    0 -0.00000000000E+00 -0.00000000000E+00 -0.45593999997E+02  0.45594000000E+02  0.51100000000E-03 0.  1.
    9900012    2    1    2    0    0 -0.28610970036E+02 -0.13993202702E+02 -0.29482662059E+02  0.47787254726E+02  0.19999925600E+02 0.  0.
         12    1    1    2    0    0  0.28610970036E+02  0.13993202702E+02  0.29482662059E+02  0.43400745274E+02  0.00000000000E+00 0. -1.
         11    1    3    3    0    0 -0.88446756465E+01 -0.61143029482E+01 -0.21032152307E+02  0.23621270473E+02  0.51100000000E-03 0. -1.
        -11    1    3    3    0    0 -0.61255757952E+01 -0.47649182520E+01 -0.63295342480E+01  0.10014495935E+02  0.51100000000E-03 0.  1.
        -12    1    3    3    0    0 -0.13640718594E+02 -0.31139815018E+01 -0.21209755040E+01  0.14151488319E+02  0.00000000000E+00 0.  1.
</event>
<event>
 7    1  0.5022032E-011  0.4778727E+02  0.7816164E-02  0.1312668E+00
        -11   -1    0    0    0    0  0.00000000000E+00  0.00000000000E+00  0.45593999997E+02  0.45594000000E+02  0.51100000000E-03 0.  1.
         11   -1    0    0    0    0 -0.00000000000E+00 -0.00000000000E+00 -0.45593999997E+02  0.45594000000E+02  0.51100000000E-03 0. -1.
    9900012    2    1    2    0    0  0.12152818270E+02 -0.41609991341E+02  0.21309098649E+01  0.47787272493E+02  0.20000006603E+02 0.  0.
         12    1    1    2    0    0 -0.12152818270E+02  0.41609991341E+02 -0.21309098649E+01  0.43400727507E+02  0.00000000000E+00 0. -1.
         11    1    3    3    0    0  0.74942104080E+01 -0.50323873073E+01 -0.35422167869E+01  0.96971857606E+01  0.51100000000E-03 0. -1.
        -11    1    3    3    0    0  0.29545927557E+01 -0.36693046655E+01  0.58443612659E+00  0.47471023717E+01  0.51100000000E-03 0.  1.
         12    1    3    3    0    0  0.17040151063E+01 -0.32908299368E+02  0.50886905253E+01  0.33342984360E+02  0.00000000000E+00 0. -1.
</event>
<event>
 7    1  0.5022032E-011  0.4778727E+02  0.7816164E-02  0.1312668E+00
        -11   -1    0    0    0    0  0.00000000000E+00  0.00000000000E+00  0.45593999997E+02  0.45594000000E+02  0.51100000000E-03 0. -1.
         11   -1    0    0    0    0 -0.00000000000E+00 -0.00000000000E+00 -0.45593999997E+02  0.45594000000E+02  0.51100000000E-03 0.  1.
    9900012    2    1    2    0    0  0.30120904631E+02  0.70432520191E+01  0.30442517989E+02  0.47787271938E+02  0.20000004074E+02 0.  0.
        -12    1    1    2    0    0 -0.30120904631E+02 -0.70432520191E+01 -0.30442517989E+02  0.43400728062E+02  0.00000000000E+00 0.  1.
         11    1    3    3    0    0  0.58402680622E+00  0.40965505815E+01  0.46376771114E+01  0.62153731366E+01  0.51100000000E-03 0. -1.
        -11    1    3    3    0    0  0.89759146308E+01  0.27270399279E+01  0.16548149333E+02  0.19022224813E+02  0.51100000000E-03 0.  1.
        -12    1    3    3    0    0  0.20560963194E+02  0.21966150970E+00  0.92566915450E+01  0.22549673988E+02  0.00000000000E+00 0.  1.
</event>
<event>
 7    1  0.5022032E-011  0.4778726E+02  0.7816164E-02  0.1312668E+00
        -11   -1    0    0    0    0  0.00000000000E+00  0.00000000000E+00  0.45593999997E+02  0.45594000000E+02  0.51100000000E-03 0. -1.
         11   -1    0    0    0    0 -0.00000000000E+00 -0.00000000000E+00 -0.45593999997E+02  0.45594000000E+02  0.51100000000E-03 0.  1.
    9900012    2    1    2    0    0 -0.20867924989E+02 -0.13423451438E+02  0.35608491066E+02  0.47787262934E+02  0.19999963022E+02 0.  0.
        -12    1    1    2    0    0  0.20867924989E+02  0.13423451438E+02 -0.35608491066E+02  0.43400737066E+02  0.00000000000E+00 0.  1.
         11    1    3    3    0    0 -0.89105076691E+01 -0.68949285175E+01  0.12413072824E+02  0.16763697784E+02  0.51100000000E-03 0. -1.
        -11    1    3    3    0    0  0.14547072179E+01 -0.58934264700E+01  0.29981140752E+01  0.67703276816E+01  0.51100000000E-03 0.  1.
         12    1    3    3    0    0 -0.13412124537E+02 -0.63509645020E+00  0.20197304167E+02  0.24253237469E+02  0.00000000000E+00 0. -1.
</event>
<event>
 7    1  0.5022032E-011  0.4778727E+02  0.7816164E-02  0.1312668E+00
        -11   -1    0    0    0    0  0.00000000000E+00  0.00000000000E+00  0.45593999997E+02  0.45594000000E+02  0.51100000000E-03 0. -1.
         11   -1    0    0    0    0 -0.00000000000E+00 -0.00000000000E+00 -0.45593999997E+02  0.45594000000E+02  0.51100000000E-03 0.  1.
    9900012    2    1    2    0    0  0.18990995472E+02  0.26287476833E+00 -0.39024303624E+02  0.47787270910E+02  0.19999999389E+02 0.  0.
         12    1    1    2    0    0 -0.18990995472E+02 -0.26287476833E+00  0.39024303624E+02  0.43400729090E+02  0.00000000000E+00 0. -1.
         11    1    3    3    0    0  0.23232715479E+01 -0.14601020123E-01 -0.13124716966E+01  0.26684051586E+01  0.51100000000E-03 0. -1.
        -11    1    3    3    0    0  0.14617526751E+02 -0.76797159418E+01 -0.26373021084E+02  0.31115693253E+02  0.51100000000E-03 0.  1.
        -12    1    3    3    0    0  0.20501971730E+01  0.79571917302E+01 -0.11338810843E+02  0.14003172498E+02  0.00000000000E+00 0.  1.
</event>
<event>
 7    1  0.5022032E-011  0.4778726E+02  0.7816164E-02  0.1312668E+00
        -11   -1    0    0    0    0  0.00000000000E+00  0.00000000000E+00  0.45593999997E+02  0.45594000000E+02  0.51100000000E-03 0. -1.
         11   -1    0    0    0    0 -0.00000000000E+00 -0.00000000000E+00 -0.45593999997E+02  0.45594000000E+02  0.51100000000E-03 0.  1.
    9900012    2    1    2    0    0  0.25386762114E+02  0.56677489741E+01 -0.34742096539E+02  0.47787258750E+02  0.19999943946E+02 0.  0.
         12    1    1    2    0    0 -0.25386762114E+02 -0.56677489741E+01  0.34742096539E+02  0.43400741250E+02  0.00000000000E+00 0. -1.
         11    1    3    3    0    0 -0.19742216872E+01  0.44335611705E+00 -0.11013019974E-01  0.20234222161E+01  0.51100000000E-03 0. -1.
        -11    1    3    3    0    0  0.58420915682E+01  0.47262952262E+00 -0.15296972810E+02  0.16381415994E+02  0.51100000000E-03 0.  1.
         12    1    3    3    0    0  0.21518892233E+02  0.47517633344E+01 -0.19434110709E+02  0.29382420540E+02  0.00000000000E+00 0. -1.
</event>
<event>
 7    1  0.5022032E-011  0.4778727E+02  0.7816164E-02  0.1312668E+00
        -11   -1    0    0    0    0  0.00000000000E+00  0.00000000000E+00  0.45593999997E+02  0.45594000000E+02  0.51100000000E-03 0. -1.
         11   -1    0    0    0    0 -0.00000000000E+00 -0.00000000000E+00 -0.45593999997E+02  0.45594000000E+02  0.51100000000E-03 0.  1.
    9900012    2    1    2    0    0  0.39447697134E+02 -0.13630520891E+02 -0.11904273509E+02  0.47787266864E+02  0.19999980942E+02 0.  0.
         12    1    1    2    0    0 -0.39447697134E+02  0.13630520891E+02  0.11904273509E+02  0.43400733136E+02  0.00000000000E+00 0. -1.
         11    1    3    3    0    0  0.16452689322E+02  0.13179669832E+01 -0.88947211865E+01  0.18749509010E+02  0.51100000000E-03 0. -1.
        -11    1    3    3    0    0  0.49875576943E+01  0.11119731068E+00 -0.24462583769E+01  0.55562826515E+01  0.51100000000E-03 0.  1.
        -12    1    3    3    0    0  0.18007450118E+02 -0.15059685185E+02 -0.56329394522E+00  0.23481475203E+02  0.00000000000E+00 0.  1.
</event>
<event>
 7    1  0.5022032E-011  0.4778727E+02  0.7816164E-02  0.1312668E+00
        -11   -1    0    0    0    0  0.00000000000E+00  0.00000000000E+00  0.45593999997E+02  0.45594000000E+02  0.51100000000E-03 0. -1.
         11   -1    0    0    0    0 -0.00000000000E+00 -0.00000000000E+00 -0.45593999997E+02  0.45594000000E+02  0.51100000000E-03 0.  1.
    9900012    2    1    2    0    0 -0.38563128070E+01 -0.25205283844E+02  0.35120445587E+02  0.47787272122E+02  0.20000004913E+02 0.  0.
        -12    1    1    2    0    0  0.38563128070E+01  0.25205283844E+02 -0.35120445587E+02  0.43400727878E+02  0.00000000000E+00 0.  1.
         11    1    3    3    0    0 -0.13126073279E+01 -0.12816591896E+02  0.19400138861E+02  0.23288481142E+02  0.51100000000E-03 0. -1.
        -11    1    3    3    0    0 -0.81783082953E+00  0.30420675706E+01  0.37226431038E+01  0.48765863377E+01  0.51100000000E-03 0.  1.
         12    1    3    3    0    0 -0.17258746495E+01 -0.15430759519E+02  0.11997663622E+02  0.19622204642E+02  0.00000000000E+00 0. -1.
</event>
<event>
 7    1  0.5022032E-011  0.4778725E+02  0.7816164E-02  0.1312668E+00
        -11   -1    0    0    0    0  0.00000000000E+00  0.00000000000E+00  0.45593999997E+02  0.45594000000E+02  0.51100000000E-03 0. -1.
         11   -1    0    0    0    0 -0.00000000000E+00 -0.00000000000E+00 -0.45593999997E+02  0.45594000000E+02  0.51100000000E-03 0.  1.
    9900012    2    1    2    0    0 -0.24199939178E+02 -0.17286679234E+02 -0.31609472306E+02  0.47787250299E+02  0.19999905412E+02 0.  0.
         12    1    1    2    0    0  0.24199939178E+02  0.17286679234E+02  0.31609472306E+02  0.43400749701E+02  0.00000000000E+00 0. -1.
         11    1    3    3    0    0  0.27916902702E-01 -0.17223225261E+01 -0.10142802713E+02  0.10288032920E+02  0.51100000000E-03 0. -1.
        -11    1    3    3    0    0 -0.60726510663E+01 -0.16958642755E+01 -0.10284346684E+02  0.12063201631E+02  0.51100000000E-03 0.  1.
         12    1    3    3    0    0 -0.18155205015E+02 -0.13868492432E+02 -0.11182322909E+02  0.25436015748E+02  0.00000000000E+00 0. -1.
</event>
<event>
 7    1  0.5022032E-011  0.4778727E+02  0.7816164E-02  0.1312668E+00
        -11   -1    0    0    0    0  0.00000000000E+00  0.00000000000E+00  0.45593999997E+02  0.45594000000E+02  0.51100000000E-03 0. -1.
         11   -1    0    0    0    0 -0.00000000000E+00 -0.00000000000E+00 -0.45593999997E+02  0.45594000000E+02  0.51100000000E-03 0.  1.
    9900012    2    1    2    0    0 -0.29817334674E+02 -0.29210368298E+02  0.11887162490E+02  0.47787266190E+02  0.19999977867E+02 0.  0.
        -12    1    1    2    0    0  0.29817334674E+02  0.29210368298E+02 -0.11887162490E+02  0.43400733810E+02  0.00000000000E+00 0.  1.
         11    1    3    3    0    0 -0.11716445767E+02 -0.59547198132E+01 -0.43311410149E+01  0.13838084124E+02  0.51100000000E-03 0. -1.
        -11    1    3    3    0    0 -0.40268494670E+01 -0.24839925547E+01  0.24066751094E+01  0.53082785331E+01  0.51100000000E-03 0.  1.
         12    1    3    3    0    0 -0.14074039439E+02 -0.20771655931E+02  0.13811628396E+02  0.28640903533E+02  0.00000000000E+00 0. -1.
</event>
<event>
 7    1  0.5022032E-011  0.4778727E+02  0.7816164E-02  0.1312668E+00
        -11   -1    0    0    0    0  0.00000000000E+00  0.00000000000E+00  0.45593999997E+02  0.45594000000E+02  0.51100000000E-03 0. -1.
         11   -1    0    0    0    0 -0.00000000000E+00 -0.00000000000E+00 -0.45593999997E+02  0.45594000000E+02  0.51100000000E-03 0.  1.
    9900012    2    1    2    0    0 -0.96513920703E+01  0.38615200001E+02 -0.17301453967E+02  0.47787270174E+02  0.19999996033E+02 0.  0.
         12    1    1    2    0    0  0.96513920703E+01 -0.38615200001E+02  0.17301453967E+02  0.43400729826E+02  0.00000000000E+00 0. -1.
         11    1    3    3    0    0 -0.21122893233E+01  0.50304587414E+00  0.36817999638E+00  0.22023573978E+01  0.51100000000E-03 0. -1.
        -11    1    3    3    0    0 -0.95611490978E+01  0.22972931648E+02 -0.17301198648E+02  0.30306808402E+02  0.51100000000E-03 0.  1.
        -12    1    3    3    0    0  0.20220463508E+01  0.15139222479E+02 -0.36843531573E+00  0.15278104375E+02  0.00000000000E+00 0.  1.
</event>
<event>
 7    1  0.5022032E-011  0.4778727E+02  0.7816164E-02  0.1312668E+00
        -11   -1    0    0    0    0  0.00000000000E+00  0.00000000000E+00  0.45593999997E+02  0.45594000000E+02  0.51100000000E-03 0. -1.
         11   -1    0    0    0    0 -0.00000000000E+00 -0.00000000000E+00 -0.45593999997E+02  0.45594000000E+02  0.51100000000E-03 0.  1.
    9900012    2    1    2    0    0 -0.96571532412E+00  0.35114550286E+01  0.43247663058E+02  0.47787270946E+02  0.19999999549E+02 0.  0.
        -12    1    1    2    0    0  0.96571532412E+00 -0.35114550286E+01 -0.43247663058E+02  0.43400729054E+02  0.00000000000E+00 0.  1.
         11    1    3    3    0    0 -0.19826315197E+01  0.12289393530E+01 -0.67396869321E+00  0.24280349538E+01  0.51100000000E-03 0. -1.
        -11    1    3    3    0    0  0.38425960042E+01  0.39971359602E+01  0.11471271591E+02  0.12740985524E+02  0.51100000000E-03 0.  1.
         12    1    3    3    0    0 -0.28256798086E+01 -0.17146202846E+01  0.32450360160E+02  0.32618250468E+02  0.00000000000E+00 0. -1.
</event>
<event>
 7    1  0.5022032E-011  0.4778727E+02  0.7816164E-02  0.1312668E+00
        -11   -1    0    0    0    0  0.00000000000E+00  0.00000000000E+00  0.45593999997E+02  0.45594000000E+02  0.51100000000E-03 0. -1.
         11   -1    0    0    0    0 -0.00000000000E+00 -0.00000000000E+00 -0.45593999997E+02  0.45594000000E+02  0.51100000000E-03 0.  1.
    9900012    2    1    2    0    0  0.19858701254E+02 -0.32716892515E+01  0.38451940166E+02  0.47787266498E+02  0.19999979269E+02 0.  0.
        -12    1    1    2    0    0 -0.19858701254E+02  0.32716892515E+01 -0.38451940166E+02  0.43400733502E+02  0.00000000000E+00 0.  1.
         11    1    3    3    0    0  0.12660124606E+02  0.40510010335E+01  0.27300255545E+02  0.30364342862E+02  0.51100000000E-03 0. -1.
        -11    1    3    3    0    0 -0.63253404254E+00  0.52217844577E+00  0.43308853224E+01  0.44078722284E+01  0.51100000000E-03 0.  1.
        -12    1    3    3    0    0  0.78311106907E+01 -0.78448687308E+01  0.68207992985E+01  0.13015051407E+02  0.00000000000E+00 0.  1.
</event>
<event>
 7    1  0.5022032E-011  0.4778727E+02  0.7816164E-02  0.1312668E+00
        -11   -1    0    0    0    0  0.00000000000E+00  0.00000000000E+00  0.45593999997E+02  0.45594000000E+02  0.51100000000E-03 0.  1.
         11   -1    0    0    0    0 -0.00000000000E+00 -0.00000000000E+00 -0.45593999997E+02  0.45594000000E+02  0.51100000000E-03 0. -1.
    9900012    2    1    2    0    0 -0.17505645759E+02 -0.39326696299E+02 -0.55305307797E+01  0.47787269062E+02  0.19999990960E+02 0.  0.
        -12    1    1    2    0    0  0.17505645759E+02  0.39326696299E+02  0.55305307797E+01  0.43400730938E+02  0.00000000000E+00 0.  1.
         11    1    3    3    0    0 -0.10380044208E+02 -0.28080653754E+02  0.14469958200E+01  0.29972691407E+02  0.51100000000E-03 0.  1.
        -11    1    3    3    0    0 -0.46210059722E+01 -0.12678295610E+02 -0.60036718014E+01  0.14769460083E+02  0.51100000000E-03 0. -1.
        -12    1    3    3    0    0 -0.25045955791E+01  0.14322530651E+01 -0.97385479824E+00  0.30451175716E+01  0.00000000000E+00 0.  1.
</event>
<event>
 7    1  0.5022032E-011  0.4778727E+02  0.7816164E-02  0.1312668E+00
        -11   -1    0    0    0    0  0.00000000000E+00  0.00000000000E+00  0.45593999997E+02  0.45594000000E+02  0.51100000000E-03 0.  1.
         11   -1    0    0    0    0 -0.00000000000E+00 -0.00000000000E+00 -0.45593999997E+02  0.45594000000E+02  0.51100000000E-03 0. -1.
    9900012    2    1    2    0    0  0.39913891025E+02  0.15663411006E+02  0.67202774583E+01  0.47787271087E+02  0.20000000194E+02 0.  0.
        -12    1    1    2    0    0 -0.39913891025E+02 -0.15663411006E+02 -0.67202774583E+01  0.43400728913E+02  0.00000000000E+00 0.  1.
         11    1    3    3    0    0  0.25789483065E+02  0.54958753278E+01  0.73038091220E+00  0.26378694792E+02  0.51100000000E-03 0. -1.
        -11    1    3    3    0    0  0.73604157506E+01  0.57554317780E+00 -0.14338277185E+01  0.75208265609E+01  0.51100000000E-03 0.  1.
        -12    1    3    3    0    0  0.67639922086E+01  0.95919925000E+01  0.74237242646E+01  0.13887749734E+02  0.00000000000E+00 0.  1.
</event>
<event>
 7    1  0.5022032E-011  0.4778727E+02  0.7816164E-02  0.1312668E+00
        -11   -1    0    0    0    0  0.00000000000E+00  0.00000000000E+00  0.45593999997E+02  0.45594000000E+02  0.51100000000E-03 0. -1.
         11   -1    0    0    0    0 -0.00000000000E+00 -0.00000000000E+00 -0.45593999997E+02  0.45594000000E+02  0.51100000000E-03 0.  1.
    9900012    2    1    2    0    0 -0.29646509326E+02  0.24675078211E+02  0.19895942400E+02  0.47787268164E+02  0.19999986865E+02 0.  0.
        -12    1    1    2    0    0  0.29646509326E+02 -0.24675078211E+02 -0.19895942400E+02  0.43400731836E+02  0.00000000000E+00 0.  1.
         11    1    3    3    0    0  0.13920047391E+01  0.15429894809E+01  0.14213748808E+01  0.25176974689E+01  0.51100000000E-03 0. -1.
        -11    1    3    3    0    0 -0.52118710458E+00 -0.12808526404E+01 -0.90001782387E+00  0.16499247949E+01  0.51100000000E-03 0.  1.
        -12    1    3    3    0    0 -0.30517326961E+02  0.24412941371E+02  0.19374585343E+02  0.43619645900E+02  0.00000000000E+00 0.  1.
</event>
<event>
 7    1  0.5022032E-011  0.4778727E+02  0.7816164E-02  0.1312668E+00
        -11   -1    0    0    0    0  0.00000000000E+00  0.00000000000E+00  0.45593999997E+02  0.45594000000E+02  0.51100000000E-03 0. -1.
         11   -1    0    0    0    0 -0.00000000000E+00 -0.00000000000E+00 -0.45593999997E+02  0.45594000000E+02  0.51100000000E-03 0.  1.
    9900012    2    1    2    0    0 -0.97562026244E+01  0.15199881086E+02  0.39463950702E+02  0.47787270978E+02  0.19999999697E+02 0.  0.
        -12    1    1    2    0    0  0.97562026244E+01 -0.15199881086E+02 -0.39463950702E+02  0.43400729022E+02  0.00000000000E+00 0.  1.
         11    1    3    3    0    0  0.15849543557E+01  0.36525090714E+01  0.12103512703E+02  0.12741582431E+02  0.51100000000E-03 0. -1.
        -11    1    3    3    0    0 -0.36652052249E+01 -0.34211598448E+01  0.51963946703E+01  0.72208435694E+01  0.51100000000E-03 0.  1.
        -12    1    3    3    0    0 -0.76759517553E+01  0.14968531859E+02  0.22164043328E+02  0.27824844977E+02  0.00000000000E+00 0.  1.
</event>
<event>
 7    1  0.5022032E-011  0.4778728E+02  0.7816164E-02  0.1312668E+00
        -11   -1    0    0    0    0  0.00000000000E+00  0.00000000000E+00  0.45593999997E+02  0.45594000000E+02  0.51100000000E-03 0. -1.
         11   -1    0    0    0    0 -0.00000000000E+00 -0.00000000000E+00 -0.45593999997E+02  0.45594000000E+02  0.51100000000E-03 0.  1.
    9900012    2    1    2    0    0 -0.35247694951E+01 -0.15206112767E+02 -0.40496578810E+02  0.47787276955E+02  0.20000026950E+02 0.  0.
         12    1    1    2    0    0  0.35247694951E+01  0.15206112767E+02  0.40496578810E+02  0.43400723045E+02  0.00000000000E+00 0. -1.
         11    1    3    3    0    0 -0.12968687123E+01  0.11791021834E+01 -0.12760006778E+02  0.12879826228E+02  0.51100000000E-03 0. -1.
        -11    1    3    3    0    0 -0.60683968102E+01 -0.16077784820E+02 -0.24175501802E+02  0.29661009629E+02  0.51100000000E-03 0.  1.
         12    1    3    3    0    0  0.38404960274E+01 -0.30743013092E+00 -0.35610702294E+01  0.52464410985E+01  0.00000000000E+00 0. -1.
</event>
<event>
 7    1  0.5022032E-011  0.4778727E+02  0.7816164E-02  0.1312668E+00
        -11   -1    0    0    0    0  0.00000000000E+00  0.00000000000E+00  0.45593999997E+02  0.45594000000E+02  0.51100000000E-03 0.  1.
         11   -1    0    0    0    0 -0.00000000000E+00 -0.00000000000E+00 -0.45593999997E+02  0.45594000000E+02  0.51100000000E-03 0. -1.
    9900012    2    1    2    0    0 -0.33739287608E+02  0.15896348470E+02  0.22194367806E+02  0.47787269761E+02  0.19999994148E+02 0.  0.
        -12    1    1    2    0    0  0.33739287608E+02 -0.15896348470E+02 -0.22194367806E+02  0.43400730239E+02  0.00000000000E+00 0.  1.
         11    1    3    3    0    0 -0.19419336033E+02  0.12154741231E+02  0.53726019606E+01  0.23531111288E+02  0.51100000000E-03 0. -1.
        -11    1    3    3    0    0 -0.12241834024E+02  0.17536950596E+01  0.74146007366E+01  0.14419231983E+02  0.51100000000E-03 0.  1.
        -12    1    3    3    0    0 -0.20781175511E+01  0.19879121792E+01  0.94071651087E+01  0.98369264900E+01  0.00000000000E+00 0.  1.
</event>
<event>
 7    1  0.5022032E-011  0.4778727E+02  0.7816164E-02  0.1312668E+00
        -11   -1    0    0    0    0  0.00000000000E+00  0.00000000000E+00  0.45593999997E+02  0.45594000000E+02  0.51100000000E-03 0.  1.
         11   -1    0    0    0    0 -0.00000000000E+00 -0.00000000000E+00 -0.45593999997E+02  0.45594000000E+02  0.51100000000E-03 0. -1.
    9900012    2    1    2    0    0 -0.37298504221E+01 -0.40238547331E+02  0.15829435421E+02  0.47787268425E+02  0.19999988059E+02 0.  0.
        -12    1    1    2    0    0  0.37298504221E+01  0.40238547331E+02 -0.15829435421E+02  0.43400731575E+02  0.00000000000E+00 0.  1.
         11    1    3    3    0    0  0.46373626546E+01 -0.19173219119E+02  0.41161918642E+01  0.20150942894E+02  0.51100000000E-03 0. -1.
        -11    1    3    3    0    0  0.11140305299E+01 -0.48234235901E+00  0.32098803754E+01  0.34317707468E+01  0.51100000000E-03 0.  1.
        -12    1    3    3    0    0 -0.94812436066E+01 -0.20582985852E+02  0.85033631811E+01  0.24204554785E+02  0.00000000000E+00 0.  1.
</event>
<event>
 7    1  0.5022032E-011  0.4778728E+02  0.7816164E-02  0.1312668E+00
        -11   -1    0    0    0    0  0.00000000000E+00  0.00000000000E+00  0.45593999997E+02  0.45594000000E+02  0.51100000000E-03 0. -1.
         11   -1    0    0    0    0 -0.00000000000E+00 -0.00000000000E+00 -0.45593999997E+02  0.45594000000E+02  0.51100000000E-03 0.  1.
    9900012    2    1    2    0    0 -0.29395169017E+02 -0.22570295253E+02  0.22586026603E+02  0.47787276653E+02  0.20000025569E+02 0.  0.
        -12    1    1    2    0    0  0.29395169017E+02  0.22570295253E+02 -0.22586026603E+02  0.43400723347E+02  0.00000000000E+00 0.  1.
         11    1    3    3    0    0 -0.80982305794E+01 -0.11721489645E+02  0.85608133600E+01  0.16621136654E+02  0.51100000000E-03 0. -1.
        -11    1    3    3    0    0 -0.16624181198E+02 -0.69274118128E+01  0.16648342367E+02  0.24525899347E+02  0.51100000000E-03 0.  1.
        -12    1    3    3    0    0 -0.46727572396E+01 -0.39213937957E+01 -0.26231291238E+01  0.66402406524E+01  0.00000000000E+00 0.  1.
</event>
<event>
 7    1  0.5022032E-011  0.4778727E+02  0.7816164E-02  0.1312668E+00
        -11   -1    0    0    0    0  0.00000000000E+00  0.00000000000E+00  0.45593999997E+02  0.45594000000E+02  0.51100000000E-03 0. -1.
         11   -1    0    0    0    0 -0.00000000000E+00 -0.00000000000E+00 -0.45593999997E+02  0.45594000000E+02  0.51100000000E-03 0.  1.
    9900012    2    1    2    0    0  0.28651424875E+02 -0.27633472128E+02  0.17294806344E+02  0.47787271254E+02  0.20000000955E+02 0.  0.
        -12    1    1    2    0    0 -0.28651424875E+02  0.27633472128E+02 -0.17294806344E+02  0.43400728746E+02  0.00000000000E+00 0.  1.
         11    1    3    3    0    0 -0.96405596427E+00 -0.29285861700E+01  0.72551115305E+00  0.31673944420E+01  0.51100000000E-03 0.  1.
        -11    1    3    3    0    0  0.76692452828E+01 -0.10814245532E+02  0.12702507251E+02  0.18360798467E+02  0.51100000000E-03 0. -1.
         12    1    3    3    0    0  0.21946235556E+02 -0.13890640426E+02  0.38667879400E+01  0.26259078345E+02  0.00000000000E+00 0. -1.
</event>
<event>
 7    1  0.5022032E-011  0.4778727E+02  0.7816164E-02  0.1312668E+00
        -11   -1    0    0    0    0  0.00000000000E+00  0.00000000000E+00  0.45593999997E+02  0.45594000000E+02  0.51100000000E-03 0. -1.
         11   -1    0    0    0    0 -0.00000000000E+00 -0.00000000000E+00 -0.45593999997E+02  0.45594000000E+02  0.51100000000E-03 0.  1.
    9900012    2    1    2    0    0  0.10159656732E+02 -0.14964777998E+02  0.39451999510E+02  0.47787268776E+02  0.19999989658E+02 0.  0.
        -12    1    1    2    0    0 -0.10159656732E+02  0.14964777998E+02 -0.39451999510E+02  0.43400731224E+02  0.00000000000E+00 0.  1.
         11    1    3    3    0    0  0.28839071578E+00 -0.17509348533E+01  0.20294762785E+02  0.20372195238E+02  0.51100000000E-03 0. -1.
        -11    1    3    3    0    0  0.40642815503E+01 -0.70322923174E+00  0.10112467725E+02  0.10921305765E+02  0.51100000000E-03 0.  1.
        -12    1    3    3    0    0  0.58069844658E+01 -0.12510613913E+02  0.90447689998E+01  0.16493767772E+02  0.00000000000E+00 0.  1.
</event>
<event>
 7    1  0.5022032E-011  0.4778727E+02  0.7816164E-02  0.1312668E+00
        -11   -1    0    0    0    0  0.00000000000E+00  0.00000000000E+00  0.45593999997E+02  0.45594000000E+02  0.51100000000E-03 0. -1.
         11   -1    0    0    0    0 -0.00000000000E+00 -0.00000000000E+00 -0.45593999997E+02  0.45594000000E+02  0.51100000000E-03 0.  1.
    9900012    2    1    2    0    0 -0.21746974781E+02 -0.17497081911E+02 -0.33234692878E+02  0.47787267308E+02  0.19999982963E+02 0.  0.
         12    1    1    2    0    0  0.21746974781E+02  0.17497081911E+02  0.33234692878E+02  0.43400732692E+02  0.00000000000E+00 0. -1.
         11    1    3    3    0    0 -0.14401009858E+02 -0.16094199165E+02 -0.19699323023E+02  0.29231415626E+02  0.51100000000E-03 0. -1.
        -11    1    3    3    0    0 -0.23010588630E+01 -0.48718564167E+01 -0.10316602609E+02  0.11638820666E+02  0.51100000000E-03 0.  1.
         12    1    3    3    0    0 -0.50449060602E+01  0.34689736713E+01 -0.32187672465E+01  0.69170310160E+01  0.00000000000E+00 0. -1.
</event>
<event>
 7    1  0.5022032E-011  0.4778727E+02  0.7816164E-02  0.1312668E+00
        -11   -1    0    0    0    0  0.00000000000E+00  0.00000000000E+00  0.45593999997E+02  0.45594000000E+02  0.51100000000E-03 0. -1.
         11   -1    0    0    0    0 -0.00000000000E+00 -0.00000000000E+00 -0.45593999997E+02  0.45594000000E+02  0.51100000000E-03 0.  1.
    9900012    2    1    2    0    0  0.61634179749E+01 -0.18763425990E+02 -0.38646724803E+02  0.47787271734E+02  0.20000003142E+02 0.  0.
         12    1    1    2    0    0 -0.61634179749E+01  0.18763425990E+02  0.38646724803E+02  0.43400728266E+02  0.00000000000E+00 0. -1.
         11    1    3    3    0    0  0.58224147742E+01 -0.11581362395E+02 -0.22774659551E+02  0.26205220600E+02  0.51100000000E-03 0. -1.
        -11    1    3    3    0    0  0.43714375890E+01 -0.61160855915E+01 -0.30737290161E+01  0.81218089046E+01  0.51100000000E-03 0.  1.
         12    1    3    3    0    0 -0.40304343883E+01 -0.10659780036E+01 -0.12798336236E+02  0.13460242229E+02  0.00000000000E+00 0. -1.
</event>
<event>
 7    1  0.5022032E-011  0.4778728E+02  0.7816164E-02  0.1312668E+00
        -11   -1    0    0    0    0  0.00000000000E+00  0.00000000000E+00  0.45593999997E+02  0.45594000000E+02  0.51100000000E-03 0. -1.
         11   -1    0    0    0    0 -0.00000000000E+00 -0.00000000000E+00 -0.45593999997E+02  0.45594000000E+02  0.51100000000E-03 0.  1.
    9900012    2    1    2    0    0  0.85065278053E+01 -0.15596737579E+02 -0.39598023762E+02  0.47787277376E+02  0.20000028868E+02 0.  0.
         12    1    1    2    0    0 -0.85065278053E+01  0.15596737579E+02  0.39598023762E+02  0.43400722624E+02  0.00000000000E+00 0. -1.
         11    1    3    3    0    0  0.43783243325E-01  0.29905057869E+00 -0.27748225624E+01  0.27912342673E+01  0.51100000000E-03 0. -1.
        -11    1    3    3    0    0 -0.21340449314E+01 -0.94696284711E+01 -0.28395644080E+02  0.30009008882E+02  0.51100000000E-03 0.  1.
         12    1    3    3    0    0  0.10596789493E+02 -0.64261596865E+01 -0.84275571203E+01  0.14987034226E+02  0.00000000000E+00 0. -1.
</event>
<event>
 7    1  0.5022032E-011  0.4778724E+02  0.7816164E-02  0.1312668E+00
        -11   -1    0    0    0    0  0.00000000000E+00  0.00000000000E+00  0.45593999997E+02  0.45594000000E+02  0.51100000000E-03 0. -1.
         11   -1    0    0    0    0 -0.00000000000E+00 -0.00000000000E+00 -0.45593999997E+02  0.45594000000E+02  0.51100000000E-03 0.  1.
    9900012    2    1    2    0    0  0.62493128656E+01  0.38544458655E+01 -0.42775167184E+02  0.47787244340E+02  0.19999878243E+02 0.  0.
         12    1    1    2    0    0 -0.62493128656E+01 -0.38544458655E+01  0.42775167184E+02  0.43400755660E+02  0.00000000000E+00 0. -1.
         11    1    3    3    0    0 -0.17294787374E+01 -0.35611333795E+00 -0.19737174991E+02  0.19816003389E+02  0.51100000000E-03 0. -1.
        -11    1    3    3    0    0  0.37229918757E+01  0.19957646526E+01 -0.22778221106E+02  0.23166594529E+02  0.51100000000E-03 0.  1.
        -12    1    3    3    0    0  0.42557997273E+01  0.22147945508E+01 -0.25977108682E+00  0.48046464218E+01  0.00000000000E+00 0.  1.
</event>
<event>
 7    1  0.5022032E-011  0.4778727E+02  0.7816164E-02  0.1312668E+00
        -11   -1    0    0    0    0  0.00000000000E+00  0.00000000000E+00  0.45593999997E+02  0.45594000000E+02  0.51100000000E-03 0. -1.
         11   -1    0    0    0    0 -0.00000000000E+00 -0.00000000000E+00 -0.45593999997E+02  0.45594000000E+02  0.51100000000E-03 0.  1.
    9900012    2    1    2    0    0 -0.26228689014E+02 -0.14232199640E+02  0.31513860253E+02  0.47787273946E+02  0.20000013229E+02 0.  0.
        -12    1    1    2    0    0  0.26228689014E+02  0.14232199640E+02 -0.31513860253E+02  0.43400726054E+02  0.00000000000E+00 0.  1.
         11    1    3    3    0    0 -0.28141822997E+01 -0.80766901945E+01  0.56350344053E+01  0.10242370796E+02  0.51100000000E-03 0.  1.
        -11    1    3    3    0    0 -0.44233500397E+01 -0.68992884248E+01  0.77999821700E+01  0.11313970499E+02  0.51100000000E-03 0. -1.
        -12    1    3    3    0    0 -0.18991156674E+02  0.74377897890E+00  0.18078843678E+02  0.26230932651E+02  0.00000000000E+00 0.  1.
</event>
<event>
 7    1  0.5022032E-011  0.4778727E+02  0.7816164E-02  0.1312668E+00
        -11   -1    0    0    0    0  0.00000000000E+00  0.00000000000E+00  0.45593999997E+02  0.45594000000E+02  0.51100000000E-03 0. -1.
         11   -1    0    0    0    0 -0.00000000000E+00 -0.00000000000E+00 -0.45593999997E+02  0.45594000000E+02  0.51100000000E-03 0.  1.
    9900012    2    1    2    0    0 -0.35867062295E+02  0.17114232079E+02 -0.17443625894E+02  0.47787272107E+02  0.20000004843E+02 0.  0.
         12    1    1    2    0    0  0.35867062295E+02 -0.17114232079E+02  0.17443625894E+02  0.43400727893E+02  0.00000000000E+00 0. -1.
         11    1    3    3    0    0 -0.24857266565E+02  0.11181028114E+02 -0.13060811929E+02  0.30223896164E+02  0.51100000000E-03 0. -1.
        -11    1    3    3    0    0 -0.10792155946E+02 -0.26885880899E+00 -0.30136357825E+01  0.11208252135E+02  0.51100000000E-03 0.  1.
         12    1    3    3    0    0 -0.21763978365E+00  0.62020627739E+01 -0.13691781824E+01  0.63551238086E+01  0.00000000000E+00 0. -1.
</event>
<event>
 7    1  0.5022032E-011  0.4778727E+02  0.7816164E-02  0.1312668E+00
        -11   -1    0    0    0    0  0.00000000000E+00  0.00000000000E+00  0.45593999997E+02  0.45594000000E+02  0.51100000000E-03 0. -1.
         11   -1    0    0    0    0 -0.00000000000E+00 -0.00000000000E+00 -0.45593999997E+02  0.45594000000E+02  0.51100000000E-03 0.  1.
    9900012    2    1    2    0    0 -0.88089265646E+01 -0.17147559130E+02  0.38884280549E+02  0.47787271376E+02  0.20000001510E+02 0.  0.
        -12    1    1    2    0    0  0.88089265646E+01  0.17147559130E+02 -0.38884280549E+02  0.43400728624E+02  0.00000000000E+00 0.  1.
         11    1    3    3    0    0 -0.56633024444E+01 -0.15673536082E+01  0.14867104510E+01  0.60613447465E+01  0.51100000000E-03 0. -1.
        -11    1    3    3    0    0 -0.37884641029E+01 -0.20916249951E+01  0.14612248154E+02  0.15239591588E+02  0.51100000000E-03 0.  1.
         12    1    3    3    0    0  0.64283998266E+00 -0.13488580527E+02  0.22785321943E+02  0.26486335042E+02  0.00000000000E+00 0. -1.
</event>
<event>
 7    1  0.5022032E-011  0.4778727E+02  0.7816164E-02  0.1312668E+00
        -11   -1    0    0    0    0  0.00000000000E+00  0.00000000000E+00  0.45593999997E+02  0.45594000000E+02  0.51100000000E-03 0.  1.
         11   -1    0    0    0    0 -0.00000000000E+00 -0.00000000000E+00 -0.45593999997E+02  0.45594000000E+02  0.51100000000E-03 0. -1.
    9900012    2    1    2    0    0 -0.41655611227E+02 -0.12088201349E+02 -0.15194421754E+01  0.47787271169E+02  0.20000000568E+02 0.  0.
        -12    1    1    2    0    0  0.41655611227E+02  0.12088201349E+02  0.15194421754E+01  0.43400728831E+02  0.00000000000E+00 0.  1.
         11    1    3    3    0    0 -0.15061879500E+02 -0.47359260513E+01 -0.46928083552E+01  0.16471540916E+02  0.51100000000E-03 0. -1.
        -11    1    3    3    0    0 -0.70086663704E+01  0.43152856476E+01 -0.39981142567E+00  0.82403242624E+01  0.51100000000E-03 0.  1.
         12    1    3    3    0    0 -0.19585065357E+02 -0.11667560945E+02  0.35731776055E+01  0.23075405991E+02  0.00000000000E+00 0. -1.
</event>
<event>
 7    1  0.5022032E-011  0.4778727E+02  0.7816164E-02  0.1312668E+00
        -11   -1    0    0    0    0  0.00000000000E+00  0.00000000000E+00  0.45593999997E+02  0.45594000000E+02  0.51100000000E-03 0. -1.
         11   -1    0    0    0    0 -0.00000000000E+00 -0.00000000000E+00 -0.45593999997E+02  0.45594000000E+02  0.51100000000E-03 0.  1.
    9900012    2    1    2    0    0  0.31138886623E+01  0.16280283781E+02  0.40110838556E+02  0.47787270602E+02  0.19999997982E+02 0.  0.
        -12    1    1    2    0    0 -0.31138886623E+01 -0.16280283781E+02 -0.40110838556E+02  0.43400729398E+02  0.00000000000E+00 0.  1.
         11    1    3    3    0    0 -0.26840817849E+01  0.14326387710E+02  0.13353304678E+02  0.19767661115E+02  0.51100000000E-03 0. -1.
        -11    1    3    3    0    0  0.10926559797E+01 -0.17559599054E+00  0.42519173849E+00  0.11855459997E+01  0.51100000000E-03 0.  1.
         12    1    3    3    0    0  0.47053144675E+01  0.21294920610E+01  0.26332342140E+02  0.26834063488E+02  0.00000000000E+00 0. -1.
</event>
<event>
 7    1  0.5022032E-011  0.4778729E+02  0.7816164E-02  0.1312668E+00
        -11   -1    0    0    0    0  0.00000000000E+00  0.00000000000E+00  0.45593999997E+02  0.45594000000E+02  0.51100000000E-03 0. -1.
         11   -1    0    0    0    0 -0.00000000000E+00 -0.00000000000E+00 -0.45593999997E+02  0.45594000000E+02  0.51100000000E-03 0.  1.
    9900012    2    1    2    0    0  0.49570235846E+00 -0.16479080514E+02 -0.40147428820E+02  0.47787287376E+02  0.20000074462E+02 0.  0.
         12    1    1    2    0    0 -0.49570235846E+00  0.16479080514E+02  0.40147428820E+02  0.43400712624E+02  0.00000000000E+00 0. -1.
         11    1    3    3    0    0 -0.76759798995E+01 -0.30460638100E+01 -0.82428508664E+01  0.11668065942E+02  0.51100000000E-03 0. -1.
        -11    1    3    3    0    0  0.94163060421E+00 -0.63729706565E+00 -0.78366299943E+01  0.79186858552E+01  0.51100000000E-03 0.  1.
         12    1    3    3    0    0  0.72300516538E+01 -0.12795719638E+02 -0.24067947959E+02  0.28200535579E+02  0.00000000000E+00 0. -1.
</event>
<event>
 7    1  0.5022032E-011  0.4778727E+02  0.7816164E-02  0.1312668E+00
        -11   -1    0    0    0    0  0.00000000000E+00  0.00000000000E+00  0.45593999997E+02  0.45594000000E+02  0.51100000000E-03 0.  1.
         11   -1    0    0    0    0 -0.00000000000E+00 -0.00000000000E+00 -0.45593999997E+02  0.45594000000E+02  0.51100000000E-03 0. -1.
    9900012    2    1    2    0    0  0.38069723618E+02 -0.18329944898E+02 -0.99162762274E+01  0.47787271083E+02  0.20000000178E+02 0.  0.
         12    1    1    2    0    0 -0.38069723618E+02  0.18329944898E+02  0.99162762274E+01  0.43400728917E+02  0.00000000000E+00 0. -1.
         11    1    3    3    0    0  0.25762367101E+02 -0.20250669021E+02 -0.97278112500E+01  0.34182151284E+02  0.51100000000E-03 0. -1.
        -11    1    3    3    0    0  0.62162392262E+01 -0.16374863452E+01  0.81534702572E+00  0.64797980433E+01  0.51100000000E-03 0.  1.
        -12    1    3    3    0    0  0.60911172904E+01  0.35582104687E+01 -0.10038120031E+01  0.71253217557E+01  0.00000000000E+00 0.  1.
</event>
<event>
 7    1  0.5022032E-011  0.4778727E+02  0.7816164E-02  0.1312668E+00
        -11   -1    0    0    0    0  0.00000000000E+00  0.00000000000E+00  0.45593999997E+02  0.45594000000E+02  0.51100000000E-03 0. -1.
         11   -1    0    0    0    0 -0.00000000000E+00 -0.00000000000E+00 -0.45593999997E+02  0.45594000000E+02  0.51100000000E-03 0.  1.
    9900012    2    1    2    0    0 -0.16605140062E+02  0.39946891734E+02  0.34840277517E+01  0.47787270915E+02  0.19999999411E+02 0.  0.
         12    1    1    2    0    0  0.16605140062E+02 -0.39946891734E+02 -0.34840277517E+01  0.43400729085E+02  0.00000000000E+00 0. -1.
         11    1    3    3    0    0 -0.18593430909E+02  0.26655731830E+02  0.14589840300E+01  0.32532635107E+02  0.51100000000E-03 0. -1.
        -11    1    3    3    0    0  0.18725509239E+00  0.36682215028E+01 -0.25267468861E+01  0.44581793987E+01  0.51100000000E-03 0.  1.
         12    1    3    3    0    0  0.18010357543E+01  0.96229384011E+01  0.45517906078E+01  0.10796456409E+02  0.00000000000E+00 0. -1.
</event>
<event>
 7    1  0.5022032E-011  0.4778727E+02  0.7816164E-02  0.1312668E+00
        -11   -1    0    0    0    0  0.00000000000E+00  0.00000000000E+00  0.45593999997E+02  0.45594000000E+02  0.51100000000E-03 0. -1.
         11   -1    0    0    0    0 -0.00000000000E+00 -0.00000000000E+00 -0.45593999997E+02  0.45594000000E+02  0.51100000000E-03 0.  1.
    9900012    2    1    2    0    0 -0.23040869928E+02  0.23704260895E+02 -0.28122051317E+02  0.47787269108E+02  0.19999991173E+02 0.  0.
         12    1    1    2    0    0  0.23040869928E+02 -0.23704260895E+02  0.28122051317E+02  0.43400730892E+02  0.00000000000E+00 0. -1.
         11    1    3    3    0    0 -0.13547534525E+02  0.11813527638E+02 -0.98682565239E+01  0.20505550810E+02  0.51100000000E-03 0. -1.
        -11    1    3    3    0    0 -0.92129604167E+01  0.14602334350E+02 -0.17164801024E+02  0.24346194828E+02  0.51100000000E-03 0.  1.
         12    1    3    3    0    0 -0.28037498689E+00 -0.27116010926E+01 -0.10889937689E+01  0.29355234707E+01  0.00000000000E+00 0. -1.
</event>
<event>
 7    1  0.5022032E-011  0.4778727E+02  0.7816164E-02  0.1312668E+00
        -11   -1    0    0    0    0  0.00000000000E+00  0.00000000000E+00  0.45593999997E+02  0.45594000000E+02  0.51100000000E-03 0. -1.
         11   -1    0    0    0    0 -0.00000000000E+00 -0.00000000000E+00 -0.45593999997E+02  0.45594000000E+02  0.51100000000E-03 0.  1.
    9900012    2    1    2    0    0  0.11679770506E+02  0.30882697270E+02 -0.28168510790E+02  0.47787273855E+02  0.20000012816E+02 0.  0.
         12    1    1    2    0    0 -0.11679770506E+02 -0.30882697270E+02  0.28168510790E+02  0.43400726145E+02  0.00000000000E+00 0. -1.
         11    1    3    3    0    0  0.14505902153E+02  0.20368649199E+02 -0.15143202682E+02  0.29233878552E+02  0.51100000000E-03 0. -1.
        -11    1    3    3    0    0 -0.16295097807E+00  0.94749801960E+01 -0.66808492329E+01  0.11594634512E+02  0.51100000000E-03 0.  1.
         12    1    3    3    0    0 -0.26631806689E+01  0.10390678745E+01 -0.63444588756E+01  0.69587607911E+01  0.00000000000E+00 0. -1.
</event>
<event>
 7    1  0.5022032E-011  0.4778727E+02  0.7816164E-02  0.1312668E+00
        -11   -1    0    0    0    0  0.00000000000E+00  0.00000000000E+00  0.45593999997E+02  0.45594000000E+02  0.51100000000E-03 0. -1.
         11   -1    0    0    0    0 -0.00000000000E+00 -0.00000000000E+00 -0.45593999997E+02  0.45594000000E+02  0.51100000000E-03 0.  1.
    9900012    2    1    2    0    0 -0.16056600500E+02 -0.16444414774E+02  0.36815626864E+02  0.47787267537E+02  0.19999984010E+02 0.  0.
        -12    1    1    2    0    0  0.16056600500E+02  0.16444414774E+02 -0.36815626864E+02  0.43400732463E+02  0.00000000000E+00 0.  1.
         11    1    3    3    0    0  0.23523157955E+01 -0.70632211377E+00 -0.99559851348E-01  0.24580872554E+01  0.51100000000E-03 0. -1.
        -11    1    3    3    0    0 -0.48069476797E+01 -0.46574476925E+00  0.12964671052E+02  0.13834968736E+02  0.51100000000E-03 0.  1.
         12    1    3    3    0    0 -0.13601968615E+02 -0.15272347891E+02  0.23950515664E+02  0.31494211546E+02  0.00000000000E+00 0. -1.
</event>
<event>
 7    1  0.5022032E-011  0.4778727E+02  0.7816164E-02  0.1312668E+00
        -11   -1    0    0    0    0  0.00000000000E+00  0.00000000000E+00  0.45593999997E+02  0.45594000000E+02  0.51100000000E-03 0. -1.
         11   -1    0    0    0    0 -0.00000000000E+00 -0.00000000000E+00 -0.45593999997E+02  0.45594000000E+02  0.51100000000E-03 0.  1.
    9900012    2    1    2    0    0  0.25866475084E+02  0.16577172801E+01  0.34810924999E+02  0.47787273518E+02  0.20000011280E+02 0.  0.
        -12    1    1    2    0    0 -0.25866475084E+02 -0.16577172801E+01 -0.34810924999E+02  0.43400726482E+02  0.00000000000E+00 0.  1.
         11    1    3    3    0    0  0.12243825049E+02 -0.21246575336E+01  0.19987454047E+02  0.23535584569E+02  0.51100000000E-03 0. -1.
        -11    1    3    3    0    0  0.44269821570E-01 -0.36854569297E+01  0.31886956211E+01  0.48736364886E+01  0.51100000000E-03 0.  1.
         12    1    3    3    0    0  0.13578380214E+02  0.74678317434E+01  0.11634775330E+02  0.19378052461E+02  0.00000000000E+00 0. -1.
</event>
<event>
 7    1  0.5022032E-011  0.4778723E+02  0.7816164E-02  0.1312668E+00
        -11   -1    0    0    0    0  0.00000000000E+00  0.00000000000E+00  0.45593999997E+02  0.45594000000E+02  0.51100000000E-03 0. -1.
         11   -1    0    0    0    0 -0.00000000000E+00 -0.00000000000E+00 -0.45593999997E+02  0.45594000000E+02  0.51100000000E-03 0.  1.
    9900012    2    1    2    0    0  0.17860538732E+01 -0.28348812569E+01  0.43271237367E+02  0.47787233608E+02  0.19999829311E+02 0.  0.
        -12    1    1    2    0    0 -0.17860538732E+01  0.28348812569E+01 -0.43271237367E+02  0.43400766392E+02  0.00000000000E+00 0.  1.
         11    1    3    3    0    0 -0.18802473023E+01  0.14900531374E+01  0.11974462237E+02  0.12212425410E+02  0.51100000000E-03 0. -1.
        -11    1    3    3    0    0  0.11902156500E+01  0.59310984215E+01  0.14848660125E+02  0.16033628708E+02  0.51100000000E-03 0.  1.
         12    1    3    3    0    0  0.24760855255E+01 -0.10256032816E+02  0.16448115005E+02  0.19541179490E+02  0.00000000000E+00 0. -1.
</event>
<event>
 7    1  0.5022032E-011  0.4778727E+02  0.7816164E-02  0.1312668E+00
        -11   -1    0    0    0    0  0.00000000000E+00  0.00000000000E+00  0.45593999997E+02  0.45594000000E+02  0.51100000000E-03 0. -1.
         11   -1    0    0    0    0 -0.00000000000E+00 -0.00000000000E+00 -0.45593999997E+02  0.45594000000E+02  0.51100000000E-03 0.  1.
    9900012    2    1    2    0    0  0.13475813043E+02 -0.22818595753E+02 -0.34370585542E+02  0.47787274202E+02  0.20000014397E+02 0.  0.
         12    1    1    2    0    0 -0.13475813043E+02  0.22818595753E+02  0.34370585542E+02  0.43400725798E+02  0.00000000000E+00 0. -1.
         11    1    3    3    0    0  0.52617634913E+01 -0.47739363589E+00 -0.40504799584E+01  0.66573604287E+01  0.51100000000E-03 0. -1.
        -11    1    3    3    0    0  0.11935678301E+02 -0.13575191050E+02 -0.22089082375E+02  0.28542490938E+02  0.51100000000E-03 0.  1.
         12    1    3    3    0    0 -0.37216287490E+01 -0.87660110672E+01 -0.82310232084E+01  0.12587422835E+02  0.00000000000E+00 0. -1.
</event>
<event>
 7    1  0.5022032E-011  0.4778727E+02  0.7816164E-02  0.1312668E+00
        -11   -1    0    0    0    0  0.00000000000E+00  0.00000000000E+00  0.45593999997E+02  0.45594000000E+02  0.51100000000E-03 0. -1.
         11   -1    0    0    0    0 -0.00000000000E+00 -0.00000000000E+00 -0.45593999997E+02  0.45594000000E+02  0.51100000000E-03 0.  1.
    9900012    2    1    2    0    0 -0.16355990152E+02 -0.16519532754E+02  0.36649828238E+02  0.47787270903E+02  0.19999999355E+02 0.  0.
        -12    1    1    2    0    0  0.16355990152E+02  0.16519532754E+02 -0.36649828238E+02  0.43400729097E+02  0.00000000000E+00 0.  1.
         11    1    3    3    0    0 -0.24685744637E+01 -0.38723257213E+00  0.13552928263E+01  0.28426445177E+01  0.51100000000E-03 0. -1.
        -11    1    3    3    0    0 -0.70974225521E+01 -0.17591715768E+02  0.17366640693E+02  0.25718516282E+02  0.51100000000E-03 0.  1.
         12    1    3    3    0    0 -0.67899931367E+01  0.14594155859E+01  0.17927894719E+02  0.19226110103E+02  0.00000000000E+00 0. -1.
</event>
<event>
 7    1  0.5022032E-011  0.4778728E+02  0.7816164E-02  0.1312668E+00
        -11   -1    0    0    0    0  0.00000000000E+00  0.00000000000E+00  0.45593999997E+02  0.45594000000E+02  0.51100000000E-03 0.  1.
         11   -1    0    0    0    0 -0.00000000000E+00 -0.00000000000E+00 -0.45593999997E+02  0.45594000000E+02  0.51100000000E-03 0. -1.
    9900012    2    1    2    0    0 -0.14390719278E+02  0.36248574752E+02  0.19041291491E+02  0.47787277028E+02  0.20000027279E+02 0.  0.
        -12    1    1    2    0    0  0.14390719278E+02 -0.36248574752E+02 -0.19041291491E+02  0.43400722972E+02  0.00000000000E+00 0.  1.
         11    1    3    3    0    0 -0.99557356847E+01  0.13644078312E+02  0.23020841927E+00  0.16891729994E+02  0.51100000000E-03 0. -1.
        -11    1    3    3    0    0  0.21338544582E+01  0.43730592741E+01  0.20735175408E+01  0.52892775987E+01  0.51100000000E-03 0.  1.
         12    1    3    3    0    0 -0.65688380510E+01  0.18231437166E+02  0.16737565531E+02  0.25606269435E+02  0.00000000000E+00 0. -1.
</event>
<event>
 7    1  0.5022032E-011  0.4778727E+02  0.7816164E-02  0.1312668E+00
        -11   -1    0    0    0    0  0.00000000000E+00  0.00000000000E+00  0.45593999997E+02  0.45594000000E+02  0.51100000000E-03 0. -1.
         11   -1    0    0    0    0 -0.00000000000E+00 -0.00000000000E+00 -0.45593999997E+02  0.45594000000E+02  0.51100000000E-03 0.  1.
    9900012    2    1    2    0    0  0.34866962882E+02  0.25794804665E+02  0.15957616832E+01  0.47787268397E+02  0.19999987929E+02 0.  0.
        -12    1    1    2    0    0 -0.34866962882E+02 -0.25794804665E+02 -0.15957616832E+01  0.43400731603E+02  0.00000000000E+00 0.  1.
         11    1    3    3    0    0  0.31446232089E+02  0.17668606346E+02 -0.74316965813E+00  0.36077658797E+02  0.51100000000E-03 0. -1.
        -11    1    3    3    0    0  0.32215307103E+01 -0.82380400541E-01  0.22259387037E+00  0.32302623640E+01  0.51100000000E-03 0.  1.
        -12    1    3    3    0    0  0.19920008251E+00  0.82085787194E+01  0.21163374710E+01  0.84793472364E+01  0.00000000000E+00 0.  1.
</event>
<event>
 7    1  0.5022032E-011  0.4778727E+02  0.7816164E-02  0.1312668E+00
        -11   -1    0    0    0    0  0.00000000000E+00  0.00000000000E+00  0.45593999997E+02  0.45594000000E+02  0.51100000000E-03 0. -1.
         11   -1    0    0    0    0 -0.00000000000E+00 -0.00000000000E+00 -0.45593999997E+02  0.45594000000E+02  0.51100000000E-03 0.  1.
    9900012    2    1    2    0    0  0.89129918435E+01  0.14367147657E+01 -0.42451356768E+02  0.47787271154E+02  0.20000000502E+02 0.  0.
         12    1    1    2    0    0 -0.89129918435E+01 -0.14367147657E+01  0.42451356768E+02  0.43400728846E+02  0.00000000000E+00 0. -1.
         11    1    3    3    0    0  0.27688497110E+01  0.17089292497E+01 -0.39752018725E+01  0.51370417645E+01  0.51100000000E-03 0. -1.
        -11    1    3    3    0    0  0.96375333377E+01 -0.26336249806E+01 -0.11030454206E+02  0.14882504817E+02  0.51100000000E-03 0.  1.
         12    1    3    3    0    0 -0.34933912053E+01  0.23614104966E+01 -0.27445700689E+02  0.27767724573E+02  0.00000000000E+00 0. -1.
</event>
<event>
 7    1  0.5022032E-011  0.4778727E+02  0.7816164E-02  0.1312668E+00
        -11   -1    0    0    0    0  0.00000000000E+00  0.00000000000E+00  0.45593999997E+02  0.45594000000E+02  0.51100000000E-03 0. -1.
         11   -1    0    0    0    0 -0.00000000000E+00 -0.00000000000E+00 -0.45593999997E+02  0.45594000000E+02  0.51100000000E-03 0.  1.
    9900012    2    1    2    0    0  0.13436161932E+02 -0.29325095874E+02 -0.29036728156E+02  0.47787271003E+02  0.19999999810E+02 0.  0.
         12    1    1    2    0    0 -0.13436161932E+02  0.29325095874E+02  0.29036728156E+02  0.43400728997E+02  0.00000000000E+00 0. -1.
         11    1    3    3    0    0  0.49679906189E+01 -0.67133744662E+01 -0.20654902479E+01  0.86032887745E+01  0.51100000000E-03 0. -1.
        -11    1    3    3    0    0  0.86264326324E+01 -0.13310983387E+02 -0.73760414410E+01  0.17492958763E+02  0.51100000000E-03 0.  1.
        -12    1    3    3    0    0 -0.15826131907E+00 -0.93007380205E+01 -0.19595196467E+02  0.21691023465E+02  0.00000000000E+00 0.  1.
</event>
<event>
 7    1  0.5022032E-011  0.4778727E+02  0.7816164E-02  0.1312668E+00
        -11   -1    0    0    0    0  0.00000000000E+00  0.00000000000E+00  0.45593999997E+02  0.45594000000E+02  0.51100000000E-03 0. -1.
         11   -1    0    0    0    0 -0.00000000000E+00 -0.00000000000E+00 -0.45593999997E+02  0.45594000000E+02  0.51100000000E-03 0.  1.
    9900012    2    1    2    0    0  0.17861925723E+02  0.73118655612E+01  0.38873017622E+02  0.47787271118E+02  0.20000000333E+02 0.  0.
        -12    1    1    2    0    0 -0.17861925723E+02 -0.73118655612E+01 -0.38873017622E+02  0.43400728882E+02  0.00000000000E+00 0.  1.
         11    1    3    3    0    0  0.31022203225E+01  0.43562320929E+01  0.14557261822E+02  0.15508526719E+02  0.51100000000E-03 0. -1.
        -11    1    3    3    0    0  0.66954535234E+00 -0.11431405176E+01  0.14644202807E+02  0.14704004126E+02  0.51100000000E-03 0.  1.
        -12    1    3    3    0    0  0.14090160048E+02  0.40987739860E+01  0.96715529928E+01  0.17574740273E+02  0.00000000000E+00 0.  1.
</event>
<event>
 7    1  0.5842252E-011  0.4778727E+02  0.7816164E-02  0.1312668E+00
        -11   -1    0    0    0    0  0.00000000000E+00  0.00000000000E+00  0.45593999997E+02  0.45594000000E+02  0.51100000000E-03 0. -1.
         11   -1    0    0    0    0 -0.00000000000E+00 -0.00000000000E+00 -0.45593999997E+02  0.45594000000E+02  0.51100000000E-03 0.  1.
    9900012    2    1    2    0    0  0.55352716046E+01 -0.29473691917E+02 -0.31373331419E+02  0.47787266467E+02  0.19999979129E+02 0.  0.
         12    1    1    2    0    0 -0.55352716046E+01  0.29473691917E+02  0.31373331419E+02  0.43400733533E+02  0.00000000000E+00 0. -1.
         11    1    3    3    0    0 -0.39324253391E+01 -0.34735958849E+01 -0.51568136233E+01  0.73568039546E+01  0.51100000000E-03 0. -1.
        -11    1    3    3    0    0 -0.54359222820E+00 -0.16760899936E+02 -0.17605158215E+02  0.24313881944E+02  0.51100000000E-03 0.  1.
        -12    1    3    3    0    0  0.10011289172E+02 -0.92391960954E+01 -0.86113595805E+01  0.16116580568E+02  0.00000000000E+00 0.  1.
</event>
<event>
 7    1  0.5022032E-011  0.4778727E+02  0.7816164E-02  0.1312668E+00
        -11   -1    0    0    0    0  0.00000000000E+00  0.00000000000E+00  0.45593999997E+02  0.45594000000E+02  0.51100000000E-03 0. -1.
         11   -1    0    0    0    0 -0.00000000000E+00 -0.00000000000E+00 -0.45593999997E+02  0.45594000000E+02  0.51100000000E-03 0.  1.
    9900012    2    1    2    0    0  0.28941642898E+02  0.14178957651E+02 -0.29068226540E+02  0.47787270422E+02  0.19999997160E+02 0.  0.
         12    1    1    2    0    0 -0.28941642898E+02 -0.14178957651E+02  0.29068226540E+02  0.43400729578E+02  0.00000000000E+00 0. -1.
         11    1    3    3    0    0  0.16490807249E+02  0.11902574491E+02 -0.27313671543E+02  0.34053702540E+02  0.51100000000E-03 0.  1.
        -11    1    3    3    0    0  0.38750480522E+01  0.13270835978E+00 -0.28698106238E+01  0.48238389477E+01  0.51100000000E-03 0. -1.
        -12    1    3    3    0    0  0.85757875977E+01  0.21436748006E+01  0.11152556267E+01  0.89097289344E+01  0.00000000000E+00 0.  1.
</event>
<event>
 7    1  0.5022032E-011  0.4778728E+02  0.7816164E-02  0.1312668E+00
        -11   -1    0    0    0    0  0.00000000000E+00  0.00000000000E+00  0.45593999997E+02  0.45594000000E+02  0.51100000000E-03 0. -1.
         11   -1    0    0    0    0 -0.00000000000E+00 -0.00000000000E+00 -0.45593999997E+02  0.45594000000E+02  0.51100000000E-03 0.  1.
    9900012    2    1    2    0    0 -0.16465137249E+02 -0.30337963761E+02 -0.26308362001E+02  0.47787277645E+02  0.20000030094E+02 0.  0.
         12    1    1    2    0    0  0.16465137249E+02  0.30337963761E+02  0.26308362001E+02  0.43400722355E+02  0.00000000000E+00 0. -1.
         11    1    3    3    0    0 -0.26553954854E+01 -0.28911741027E+01 -0.93661054316E+00  0.40357468264E+01  0.51100000000E-03 0. -1.
        -11    1    3    3    0    0 -0.12225088310E+02 -0.27240681841E+02 -0.27831757211E+02  0.40818062682E+02  0.51100000000E-03 0.  1.
        -12    1    3    3    0    0 -0.15846534538E+01 -0.20610781657E+00  0.24600057537E+01  0.29334681367E+01  0.00000000000E+00 0.  1.
</event>
<event>
 7    1  0.5022032E-011  0.4778727E+02  0.7816164E-02  0.1312668E+00
        -11   -1    0    0    0    0  0.00000000000E+00  0.00000000000E+00  0.45593999997E+02  0.45594000000E+02  0.51100000000E-03 0. -1.
         11   -1    0    0    0    0 -0.00000000000E+00 -0.00000000000E+00 -0.45593999997E+02  0.45594000000E+02  0.51100000000E-03 0.  1.
    9900012    2    1    2    0    0 -0.27081321183E+02 -0.19461612400E+02 -0.27775363630E+02  0.47787272598E+02  0.20000007085E+02 0.  0.
         12    1    1    2    0    0  0.27081321183E+02  0.19461612400E+02  0.27775363630E+02  0.43400727402E+02  0.00000000000E+00 0. -1.
         11    1    3    3    0    0 -0.74307860940E+01  0.45291680152E+00  0.84054288482E+00  0.74918774820E+01  0.51100000000E-03 0. -1.
        -11    1    3    3    0    0 -0.68417566550E+01 -0.69618923062E+01 -0.69146587808E+01  0.11962026790E+02  0.51100000000E-03 0.  1.
         12    1    3    3    0    0 -0.12808778434E+02 -0.12952636895E+02 -0.21701247734E+02  0.28333368326E+02  0.00000000000E+00 0. -1.
</event>
<event>
 7    1  0.5022032E-011  0.4778727E+02  0.7816164E-02  0.1312668E+00
        -11   -1    0    0    0    0  0.00000000000E+00  0.00000000000E+00  0.45593999997E+02  0.45594000000E+02  0.51100000000E-03 0. -1.
         11   -1    0    0    0    0 -0.00000000000E+00 -0.00000000000E+00 -0.45593999997E+02  0.45594000000E+02  0.51100000000E-03 0.  1.
    9900012    2    1    2    0    0 -0.12560491126E+02 -0.17784910404E+02  0.37544029259E+02  0.47787272951E+02  0.20000008691E+02 0.  0.
        -12    1    1    2    0    0  0.12560491126E+02  0.17784910404E+02 -0.37544029259E+02  0.43400727049E+02  0.00000000000E+00 0.  1.
         11    1    3    3    0    0 -0.69313117811E+01 -0.66571358753E+01  0.23533548049E+02  0.25420236528E+02  0.51100000000E-03 0. -1.
        -11    1    3    3    0    0 -0.83896935984E+01 -0.10963393167E+02  0.13913080831E+02  0.19599917522E+02  0.51100000000E-03 0.  1.
        -12    1    3    3    0    0  0.27605142537E+01 -0.16438136172E+00  0.97400378681E-01  0.27671189007E+01  0.00000000000E+00 0.  1.
</event>
<event>
 7    1  0.5022032E-011  0.4778727E+02  0.7816164E-02  0.1312668E+00
        -11   -1    0    0    0    0  0.00000000000E+00  0.00000000000E+00  0.45593999997E+02  0.45594000000E+02  0.51100000000E-03 0. -1.
         11   -1    0    0    0    0 -0.00000000000E+00 -0.00000000000E+00 -0.45593999997E+02  0.45594000000E+02  0.51100000000E-03 0.  1.
    9900012    2    1    2    0    0 -0.26493698781E+02  0.30108737131E+02 -0.16588294761E+02  0.47787266714E+02  0.19999980254E+02 0.  0.
         12    1    1    2    0    0  0.26493698781E+02 -0.30108737131E+02  0.16588294761E+02  0.43400733286E+02  0.00000000000E+00 0. -1.
         11    1    3    3    0    0 -0.54665857809E+01  0.13192164400E+01 -0.64308593505E+01  0.85428241444E+01  0.51100000000E-03 0. -1.
        -11    1    3    3    0    0 -0.46079197077E+01  0.33830392119E+01 -0.66844746613E+01  0.87954579244E+01  0.51100000000E-03 0.  1.
         12    1    3    3    0    0 -0.16419193292E+02  0.25406481479E+02 -0.34729607492E+01  0.30448984645E+02  0.00000000000E+00 0. -1.
</event>
<event>
 7    1  0.5022032E-011  0.4778728E+02  0.7816164E-02  0.1312668E+00
        -11   -1    0    0    0    0  0.00000000000E+00  0.00000000000E+00  0.45593999997E+02  0.45594000000E+02  0.51100000000E-03 0. -1.
         11   -1    0    0    0    0 -0.00000000000E+00 -0.00000000000E+00 -0.45593999997E+02  0.45594000000E+02  0.51100000000E-03 0.  1.
    9900012    2    1    2    0    0  0.11027277966E+02 -0.12296916159E+02  0.40134870314E+02  0.47787276256E+02  0.20000023763E+02 0.  0.
        -12    1    1    2    0    0 -0.11027277966E+02  0.12296916159E+02 -0.40134870314E+02  0.43400723744E+02  0.00000000000E+00 0.  1.
         11    1    3    3    0    0 -0.21584330367E+00  0.71702647500E+00  0.49979282530E+01  0.50537117429E+01  0.51100000000E-03 0. -1.
        -11    1    3    3    0    0  0.31470612794E-02 -0.77840012867E+01  0.26512508918E+02  0.27631572799E+02  0.51100000000E-03 0.  1.
         12    1    3    3    0    0  0.11239974209E+02 -0.52299413477E+01  0.86244331425E+01  0.15101991715E+02  0.00000000000E+00 0. -1.
</event>
<event>
 7    1  0.5022032E-011  0.4778727E+02  0.7816164E-02  0.1312668E+00
        -11   -1    0    0    0    0  0.00000000000E+00  0.00000000000E+00  0.45593999997E+02  0.45594000000E+02  0.51100000000E-03 0. -1.
         11   -1    0    0    0    0 -0.00000000000E+00 -0.00000000000E+00 -0.45593999997E+02  0.45594000000E+02  0.51100000000E-03 0.  1.
    9900012    2    1    2    0    0  0.11338368243E+01 -0.41012120637E+02  0.14154290633E+02  0.47787267651E+02  0.19999984528E+02 0.  0.
        -12    1    1    2    0    0 -0.11338368243E+01  0.41012120637E+02 -0.14154290633E+02  0.43400732349E+02  0.00000000000E+00 0.  1.
         11    1    3    3    0    0 -0.54023843264E+00  0.67031177009E-01  0.41065877400E+00  0.68190294953E+00  0.51100000000E-03 0. -1.
        -11    1    3    3    0    0 -0.65593981824E+01 -0.24956869885E+02  0.28105844201E+01  0.25957088512E+02  0.51100000000E-03 0.  1.
         12    1    3    3    0    0  0.82334734394E+01 -0.16122281929E+02  0.10933047439E+02  0.21148276189E+02  0.00000000000E+00 0. -1.
</event>
<event>
 7    1  0.5022032E-011  0.4778727E+02  0.7816164E-02  0.1312668E+00
        -11   -1    0    0    0    0  0.00000000000E+00  0.00000000000E+00  0.45593999997E+02  0.45594000000E+02  0.51100000000E-03 0. -1.
         11   -1    0    0    0    0 -0.00000000000E+00 -0.00000000000E+00 -0.45593999997E+02  0.45594000000E+02  0.51100000000E-03 0.  1.
    9900012    2    1    2    0    0  0.24188512678E+02 -0.24374795724E+02  0.26540697544E+02  0.47787269150E+02  0.19999991364E+02 0.  0.
        -12    1    1    2    0    0 -0.24188512678E+02  0.24374795724E+02 -0.26540697544E+02  0.43400730850E+02  0.00000000000E+00 0.  1.
         11    1    3    3    0    0 -0.63940269301E+00  0.12657145327E+01  0.16998651297E+01  0.22136871509E+01  0.51100000000E-03 0. -1.
        -11    1    3    3    0    0  0.15713353758E+02 -0.72665680421E+01  0.81725581842E+01  0.19144273425E+02  0.51100000000E-03 0.  1.
         12    1    3    3    0    0  0.91145616132E+01 -0.18373942215E+02  0.16668274230E+02  0.26429308575E+02  0.00000000000E+00 0. -1.
</event>
<event>
 7    1  0.5022032E-011  0.4778727E+02  0.7816164E-02  0.1312668E+00
        -11   -1    0    0    0    0  0.00000000000E+00  0.00000000000E+00  0.45593999997E+02  0.45594000000E+02  0.51100000000E-03 0. -1.
         11   -1    0    0    0    0 -0.00000000000E+00 -0.00000000000E+00 -0.45593999997E+02  0.45594000000E+02  0.51100000000E-03 0.  1.
    9900012    2    1    2    0    0  0.26773569585E+02  0.32975535145E+02 -0.89114377869E+01  0.47787266482E+02  0.19999979198E+02 0.  0.
         12    1    1    2    0    0 -0.26773569585E+02 -0.32975535145E+02  0.89114377869E+01  0.43400733518E+02  0.00000000000E+00 0. -1.
         11    1    3    3    0    0  0.54207368172E+01  0.44007773445E+01 -0.59277440224E+01  0.91591144951E+01  0.51100000000E-03 0. -1.
        -11    1    3    3    0    0 -0.16675673916E+01  0.18118022226E+01  0.17356337062E+01  0.30126123087E+01  0.51100000000E-03 0.  1.
        -12    1    3    3    0    0  0.23020400160E+02  0.26762955578E+02 -0.47193274706E+01  0.35615539678E+02  0.00000000000E+00 0.  1.
</event>
<event>
 7    1  0.5022032E-011  0.4778727E+02  0.7816164E-02  0.1312668E+00
        -11   -1    0    0    0    0  0.00000000000E+00  0.00000000000E+00  0.45593999997E+02  0.45594000000E+02  0.51100000000E-03 0. -1.
         11   -1    0    0    0    0 -0.00000000000E+00 -0.00000000000E+00 -0.45593999997E+02  0.45594000000E+02  0.51100000000E-03 0.  1.
    9900012    2    1    2    0    0  0.16220325155E+01 -0.21402153160E+01 -0.43317569750E+02  0.47787270051E+02  0.19999995471E+02 0.  0.
         12    1    1    2    0    0 -0.16220325155E+01  0.21402153160E+01  0.43317569750E+02  0.43400729949E+02  0.00000000000E+00 0. -1.
         11    1    3    3    0    0  0.28791333271E+01  0.10741198395E+01 -0.37375582367E+02  0.37501697291E+02  0.51100000000E-03 0. -1.
        -11    1    3    3    0    0  0.25653009435E+01 -0.31509336604E+01 -0.48144210324E+01  0.62998255533E+01  0.51100000000E-03 0.  1.
         12    1    3    3    0    0 -0.38224017550E+01 -0.63401495064E-01 -0.11275663501E+01  0.39857472073E+01  0.00000000000E+00 0. -1.
</event>
<event>
 7    1  0.5022032E-011  0.4778728E+02  0.7816164E-02  0.1312668E+00
        -11   -1    0    0    0    0  0.00000000000E+00  0.00000000000E+00  0.45593999997E+02  0.45594000000E+02  0.51100000000E-03 0. -1.
         11   -1    0    0    0    0 -0.00000000000E+00 -0.00000000000E+00 -0.45593999997E+02  0.45594000000E+02  0.51100000000E-03 0.  1.
    9900012    2    1    2    0    0  0.94074009075E+01 -0.95652609369E+01  0.41275046490E+02  0.47787275682E+02  0.20000021143E+02 0.  0.
        -12    1    1    2    0    0 -0.94074009075E+01  0.95652609369E+01 -0.41275046490E+02  0.43400724318E+02  0.00000000000E+00 0.  1.
         11    1    3    3    0    0  0.12475079553E+01  0.28522711170E+01  0.55008893308E+01  0.63207207116E+01  0.51100000000E-03 0. -1.
        -11    1    3    3    0    0 -0.27884209801E+01 -0.75149705420E+01  0.20726911899E+02  0.22222847499E+02  0.51100000000E-03 0.  1.
         12    1    3    3    0    0  0.10948313932E+02 -0.49025615119E+01  0.15047245260E+02  0.19243707471E+02  0.00000000000E+00 0. -1.
</event>
<event>
 7    1  0.5022032E-011  0.4778727E+02  0.7816164E-02  0.1312668E+00
        -11   -1    0    0    0    0  0.00000000000E+00  0.00000000000E+00  0.45593999997E+02  0.45594000000E+02  0.51100000000E-03 0.  1.
         11   -1    0    0    0    0 -0.00000000000E+00 -0.00000000000E+00 -0.45593999997E+02  0.45594000000E+02  0.51100000000E-03 0. -1.
    9900012    2    1    2    0    0 -0.40503862598E+02  0.15331136970E+02  0.28313208570E+01  0.47787273924E+02  0.20000013127E+02 0.  0.
        -12    1    1    2    0    0  0.40503862598E+02 -0.15331136970E+02 -0.28313208570E+01  0.43400726076E+02  0.00000000000E+00 0.  1.
         11    1    3    3    0    0 -0.16866494175E+02  0.36026410825E+01  0.15177221266E+01  0.17313611097E+02  0.51100000000E-03 0. -1.
        -11    1    3    3    0    0 -0.34531668317E+01 -0.36731167438E+01  0.57010280368E+00  0.50735751940E+01  0.51100000000E-03 0.  1.
        -12    1    3    3    0    0 -0.20184201592E+02  0.15401612631E+02  0.74349592672E+00  0.25400087632E+02  0.00000000000E+00 0.  1.
</event>
<event>
 7    1  0.5022032E-011  0.4778728E+02  0.7816164E-02  0.1312668E+00
        -11   -1    0    0    0    0  0.00000000000E+00  0.00000000000E+00  0.45593999997E+02  0.45594000000E+02  0.51100000000E-03 0. -1.
         11   -1    0    0    0    0 -0.00000000000E+00 -0.00000000000E+00 -0.45593999997E+02  0.45594000000E+02  0.51100000000E-03 0.  1.
    9900012    2    1    2    0    0 -0.42246298957E+01 -0.39978920247E+02  0.16354240619E+02  0.47787277102E+02  0.20000027619E+02 0.  0.
        -12    1    1    2    0    0  0.42246298957E+01  0.39978920247E+02 -0.16354240619E+02  0.43400722898E+02  0.00000000000E+00 0.  1.
         11    1    3    3    0    0 -0.55226528500E+01 -0.19075218718E+02  0.48492664708E+00  0.19864511516E+02  0.51100000000E-03 0. -1.
        -11    1    3    3    0    0  0.23540856099E+01 -0.46784577180E+01  0.50211569988E-01  0.52375764568E+01  0.51100000000E-03 0.  1.
        -12    1    3    3    0    0 -0.10560626556E+01 -0.16225243811E+02  0.15819102402E+02  0.22685189130E+02  0.00000000000E+00 0.  1.
</event>
<event>
 7    1  0.5022032E-011  0.4778727E+02  0.7816164E-02  0.1312668E+00
        -11   -1    0    0    0    0  0.00000000000E+00  0.00000000000E+00  0.45593999997E+02  0.45594000000E+02  0.51100000000E-03 0. -1.
         11   -1    0    0    0    0 -0.00000000000E+00 -0.00000000000E+00 -0.45593999997E+02  0.45594000000E+02  0.51100000000E-03 0.  1.
    9900012    2    1    2    0    0  0.24067906729E+02 -0.16975214216E+02 -0.31877918057E+02  0.47787266232E+02  0.19999978056E+02 0.  0.
         12    1    1    2    0    0 -0.24067906729E+02  0.16975214216E+02  0.31877918057E+02  0.43400733768E+02  0.00000000000E+00 0. -1.
         11    1    3    3    0    0  0.84379375334E+01 -0.34666014930E+01  0.13184727734E+00  0.91232395394E+01  0.51100000000E-03 0. -1.
        -11    1    3    3    0    0 -0.36839122606E+00 -0.61703110544E+00 -0.31919036761E+01  0.32718020752E+01  0.51100000000E-03 0.  1.
        -12    1    3    3    0    0  0.15998360421E+02 -0.12891581618E+02 -0.28817861658E+02  0.35392224617E+02  0.00000000000E+00 0.  1.
</event>
<event>
 7    1  0.5022032E-011  0.4778727E+02  0.7816164E-02  0.1312668E+00
        -11   -1    0    0    0    0  0.00000000000E+00  0.00000000000E+00  0.45593999997E+02  0.45594000000E+02  0.51100000000E-03 0. -1.
         11   -1    0    0    0    0 -0.00000000000E+00 -0.00000000000E+00 -0.45593999997E+02  0.45594000000E+02  0.51100000000E-03 0.  1.
    9900012    2    1    2    0    0  0.29930148351E+02  0.29004488634E+01 -0.31295317764E+02  0.47787270769E+02  0.19999998742E+02 0.  0.
         12    1    1    2    0    0 -0.29930148351E+02 -0.29004488634E+01  0.31295317764E+02  0.43400729231E+02  0.00000000000E+00 0. -1.
         11    1    3    3    0    0  0.16623937781E+02 -0.82976028346E+00 -0.95428514870E+01  0.19186188371E+02  0.51100000000E-03 0. -1.
        -11    1    3    3    0    0  0.15374141662E+02  0.32812929036E+01 -0.21238313369E+02  0.26423418969E+02  0.51100000000E-03 0.  1.
        -12    1    3    3    0    0 -0.20679310921E+01  0.44891624327E+00 -0.51415290749E+00  0.21776634284E+01  0.00000000000E+00 0.  1.
</event>
<event>
 7    1  0.5022032E-011  0.4778727E+02  0.7816164E-02  0.1312668E+00
        -11   -1    0    0    0    0  0.00000000000E+00  0.00000000000E+00  0.45593999997E+02  0.45594000000E+02  0.51100000000E-03 0. -1.
         11   -1    0    0    0    0 -0.00000000000E+00 -0.00000000000E+00 -0.45593999997E+02  0.45594000000E+02  0.51100000000E-03 0.  1.
    9900012    2    1    2    0    0  0.72837119574E+01  0.25685637591E+02 -0.34217229858E+02  0.47787271233E+02  0.20000000861E+02 0.  0.
         12    1    1    2    0    0 -0.72837119574E+01 -0.25685637591E+02  0.34217229858E+02  0.43400728767E+02  0.00000000000E+00 0. -1.
         11    1    3    3    0    0 -0.33413460857E+00  0.14659451341E+02 -0.10041855854E+02  0.17772170065E+02  0.51100000000E-03 0. -1.
        -11    1    3    3    0    0  0.15330736563E+01  0.11549026099E+02 -0.16698782426E+02  0.20361229173E+02  0.51100000000E-03 0.  1.
         12    1    3    3    0    0  0.60847729096E+01 -0.52283984979E+00 -0.74765915777E+01  0.96538719947E+01  0.00000000000E+00 0. -1.
</event>
<event>
 7    1  0.5022032E-011  0.4778727E+02  0.7816164E-02  0.1312668E+00
        -11   -1    0    0    0    0  0.00000000000E+00  0.00000000000E+00  0.45593999997E+02  0.45594000000E+02  0.51100000000E-03 0. -1.
         11   -1    0    0    0    0 -0.00000000000E+00 -0.00000000000E+00 -0.45593999997E+02  0.45594000000E+02  0.51100000000E-03 0.  1.
    9900012    2    1    2    0    0 -0.39636383209E-01  0.22676341653E+02 -0.37005480551E+02  0.47787266912E+02  0.19999981157E+02 0.  0.
         12    1    1    2    0    0  0.39636383209E-01 -0.22676341653E+02  0.37005480551E+02  0.43400733088E+02  0.00000000000E+00 0. -1.
         11    1    3    3    0    0 -0.29716651518E+01  0.18021873499E+01 -0.11938585847E+02  0.12434166852E+02  0.51100000000E-03 0. -1.
        -11    1    3    3    0    0  0.22672842425E+01  0.16936791882E+01  0.98380276384E+00  0.29961634081E+01  0.51100000000E-03 0.  1.
        -12    1    3    3    0    0  0.66474452609E+00  0.19180475115E+02 -0.26050697468E+02  0.32356936652E+02  0.00000000000E+00 0.  1.
</event>
<event>
 7    1  0.5022032E-011  0.4778727E+02  0.7816164E-02  0.1312668E+00
        -11   -1    0    0    0    0  0.00000000000E+00  0.00000000000E+00  0.45593999997E+02  0.45594000000E+02  0.51100000000E-03 0. -1.
         11   -1    0    0    0    0 -0.00000000000E+00 -0.00000000000E+00 -0.45593999997E+02  0.45594000000E+02  0.51100000000E-03 0.  1.
    9900012    2    1    2    0    0 -0.24868416591E+01  0.21800439308E+02 -0.37445686281E+02  0.47787274700E+02  0.20000016669E+02 0.  0.
         12    1    1    2    0    0  0.24868416591E+01 -0.21800439308E+02  0.37445686281E+02  0.43400725300E+02  0.00000000000E+00 0. -1.
         11    1    3    3    0    0 -0.35353833048E+00 -0.72123455762E+00 -0.55253093595E+00  0.97491503964E+00  0.51100000000E-03 0. -1.
        -11    1    3    3    0    0 -0.73654656358E+01  0.18294213423E+02 -0.17790295544E+02  0.26559799408E+02  0.51100000000E-03 0.  1.
         12    1    3    3    0    0  0.52321623072E+01  0.42274604429E+01 -0.19102859801E+02  0.20252560253E+02  0.00000000000E+00 0. -1.
</event>
<event>
 7    1  0.5022032E-011  0.4778728E+02  0.7816164E-02  0.1312668E+00
        -11   -1    0    0    0    0  0.00000000000E+00  0.00000000000E+00  0.45593999997E+02  0.45594000000E+02  0.51100000000E-03 0. -1.
         11   -1    0    0    0    0 -0.00000000000E+00 -0.00000000000E+00 -0.45593999997E+02  0.45594000000E+02  0.51100000000E-03 0.  1.
    9900012    2    1    2    0    0  0.28208266714E+02 -0.18390500957E+02  0.27380751865E+02  0.47787281007E+02  0.20000045422E+02 0.  0.
        -12    1    1    2    0    0 -0.28208266714E+02  0.18390500957E+02 -0.27380751865E+02  0.43400718993E+02  0.00000000000E+00 0.  1.
         11    1    3    3    0    0  0.35376101002E+01 -0.19382725154E+01 -0.28186638889E+01  0.49210214331E+01  0.51100000000E-03 0. -1.
        -11    1    3    3    0    0  0.43556755125E+00 -0.18725254459E+01  0.83361746979E+00  0.20954686790E+01  0.51100000000E-03 0.  1.
         12    1    3    3    0    0  0.24235089063E+02 -0.14579702995E+02  0.29365798284E+02  0.40770790895E+02  0.00000000000E+00 0. -1.
</event>
<event>
 7    1  0.5022032E-011  0.4778727E+02  0.7816164E-02  0.1312668E+00
        -11   -1    0    0    0    0  0.00000000000E+00  0.00000000000E+00  0.45593999997E+02  0.45594000000E+02  0.51100000000E-03 0. -1.
         11   -1    0    0    0    0 -0.00000000000E+00 -0.00000000000E+00 -0.45593999997E+02  0.45594000000E+02  0.51100000000E-03 0.  1.
    9900012    2    1    2    0    0 -0.17707476355E+02 -0.25986399473E+02  0.29912801903E+02  0.47787269659E+02  0.19999993684E+02 0.  0.
        -12    1    1    2    0    0  0.17707476355E+02  0.25986399473E+02 -0.29912801903E+02  0.43400730341E+02  0.00000000000E+00 0.  1.
         11    1    3    3    0    0 -0.50487422144E+01 -0.43167067922E+01  0.48400491860E-01  0.66427478009E+01  0.51100000000E-03 0. -1.
        -11    1    3    3    0    0  0.15117235865E+01 -0.90474782060E+01  0.77901443204E+01  0.12034472107E+02  0.51100000000E-03 0.  1.
         12    1    3    3    0    0 -0.14170457727E+02 -0.12622214475E+02  0.22074257091E+02  0.29110049752E+02  0.00000000000E+00 0. -1.
</event>
<event>
 7    1  0.5022032E-011  0.4778726E+02  0.7816164E-02  0.1312668E+00
        -11   -1    0    0    0    0  0.00000000000E+00  0.00000000000E+00  0.45593999997E+02  0.45594000000E+02  0.51100000000E-03 0. -1.
         11   -1    0    0    0    0 -0.00000000000E+00 -0.00000000000E+00 -0.45593999997E+02  0.45594000000E+02  0.51100000000E-03 0.  1.
    9900012    2    1    2    0    0 -0.11602495215E+01 -0.14979217676E+02 -0.40717326574E+02  0.47787264701E+02  0.19999971078E+02 0.  0.
         12    1    1    2    0    0  0.11602495215E+01  0.14979217676E+02  0.40717326574E+02  0.43400735299E+02  0.00000000000E+00 0. -1.
         11    1    3    3    0    0  0.27313470102E+01 -0.40237011605E+01 -0.16956913658E+02  0.17640503071E+02  0.51100000000E-03 0. -1.
        -11    1    3    3    0    0  0.38186808286E+01 -0.71768417623E+01 -0.50767306634E+01  0.95844966191E+01  0.51100000000E-03 0.  1.
         12    1    3    3    0    0 -0.77102773603E+01 -0.37786747528E+01 -0.18683682253E+02  0.20562265011E+02  0.00000000000E+00 0. -1.
</event>
<event>
 7    1  0.5022032E-011  0.4778728E+02  0.7816164E-02  0.1312668E+00
        -11   -1    0    0    0    0  0.00000000000E+00  0.00000000000E+00  0.45593999997E+02  0.45594000000E+02  0.51100000000E-03 0. -1.
         11   -1    0    0    0    0 -0.00000000000E+00 -0.00000000000E+00 -0.45593999997E+02  0.45594000000E+02  0.51100000000E-03 0.  1.
    9900012    2    1    2    0    0 -0.64727349004E+01 -0.27756250020E+02  0.32730979666E+02  0.47787277170E+02  0.20000027931E+02 0.  0.
        -12    1    1    2    0    0  0.64727349004E+01  0.27756250020E+02 -0.32730979666E+02  0.43400722830E+02  0.00000000000E+00 0.  1.
         11    1    3    3    0    0 -0.99123710122E+01 -0.21795393985E+02  0.23241490492E+02  0.33368565726E+02  0.51100000000E-03 0. -1.
        -11    1    3    3    0    0  0.20838237172E+00 -0.45310927314E+01  0.26840858560E+00  0.45438164557E+01  0.51100000000E-03 0.  1.
         12    1    3    3    0    0  0.32312537401E+01 -0.14297633039E+01  0.92210805876E+01  0.98748949888E+01  0.00000000000E+00 0. -1.
</event>
<event>
 7    1  0.5022032E-011  0.4778727E+02  0.7816164E-02  0.1312668E+00
        -11   -1    0    0    0    0  0.00000000000E+00  0.00000000000E+00  0.45593999997E+02  0.45594000000E+02  0.51100000000E-03 0. -1.
         11   -1    0    0    0    0 -0.00000000000E+00 -0.00000000000E+00 -0.45593999997E+02  0.45594000000E+02  0.51100000000E-03 0.  1.
    9900012    2    1    2    0    0  0.41701844412E+02 -0.49393712040E+01  0.10962762297E+02  0.47787269909E+02  0.19999994823E+02 0.  0.
        -12    1    1    2    0    0 -0.41701844412E+02  0.49393712040E+01 -0.10962762297E+02  0.43400730091E+02  0.00000000000E+00 0.  1.
         11    1    3    3    0    0  0.21197651189E+01  0.68990757833E-01  0.15941648959E+01  0.26532104817E+01  0.51100000000E-03 0. -1.
        -11    1    3    3    0    0 -0.14397093341E+01 -0.15712245306E+01  0.26874880531E+01  0.34298836407E+01  0.51100000000E-03 0.  1.
        -12    1    3    3    0    0  0.41021788627E+02 -0.34371374312E+01  0.66811093478E+01  0.41704175786E+02  0.00000000000E+00 0.  1.
</event>
<event>
 7    1  0.5022032E-011  0.4778727E+02  0.7816164E-02  0.1312668E+00
        -11   -1    0    0    0    0  0.00000000000E+00  0.00000000000E+00  0.45593999997E+02  0.45594000000E+02  0.51100000000E-03 0. -1.
         11   -1    0    0    0    0 -0.00000000000E+00 -0.00000000000E+00 -0.45593999997E+02  0.45594000000E+02  0.51100000000E-03 0.  1.
    9900012    2    1    2    0    0 -0.60113483685E+01 -0.25594726730E+02  0.34531098551E+02  0.47787272901E+02  0.20000008464E+02 0.  0.
        -12    1    1    2    0    0  0.60113483685E+01  0.25594726730E+02 -0.34531098551E+02  0.43400727099E+02  0.00000000000E+00 0.  1.
         11    1    3    3    0    0 -0.51819020862E+01 -0.12123710483E+01  0.34542526243E+01  0.63445893676E+01  0.51100000000E-03 0. -1.
        -11    1    3    3    0    0 -0.45469705922E+01 -0.24572037053E+01  0.54072225225E+01  0.74800298987E+01  0.51100000000E-03 0.  1.
         12    1    3    3    0    0  0.37175243100E+01 -0.21925151976E+02  0.25669623405E+02  0.33962653635E+02  0.00000000000E+00 0. -1.
</event>
<event>
 7    1  0.5022032E-011  0.4778727E+02  0.7816164E-02  0.1312668E+00
        -11   -1    0    0    0    0  0.00000000000E+00  0.00000000000E+00  0.45593999997E+02  0.45594000000E+02  0.51100000000E-03 0. -1.
         11   -1    0    0    0    0 -0.00000000000E+00 -0.00000000000E+00 -0.45593999997E+02  0.45594000000E+02  0.51100000000E-03 0.  1.
    9900012    2    1    2    0    0  0.15775124625E+02  0.14251112698E+02  0.37837478492E+02  0.47787267878E+02  0.19999985563E+02 0.  0.
        -12    1    1    2    0    0 -0.15775124625E+02 -0.14251112698E+02 -0.37837478492E+02  0.43400732122E+02  0.00000000000E+00 0.  1.
         11    1    3    3    0    0  0.12719222104E+02  0.10882046729E+02  0.21791064421E+02  0.27478137506E+02  0.51100000000E-03 0. -1.
        -11    1    3    3    0    0  0.20379034035E+01  0.73339912570E+01  0.13471041417E+02  0.15472861247E+02  0.51100000000E-03 0.  1.
         12    1    3    3    0    0  0.10179991175E+01 -0.39649252880E+01  0.25753726547E+01  0.48362691254E+01  0.00000000000E+00 0. -1.
</event>
<event>
 7    1  0.5022032E-011  0.4778727E+02  0.7816164E-02  0.1312668E+00
        -11   -1    0    0    0    0  0.00000000000E+00  0.00000000000E+00  0.45593999997E+02  0.45594000000E+02  0.51100000000E-03 0. -1.
         11   -1    0    0    0    0 -0.00000000000E+00 -0.00000000000E+00 -0.45593999997E+02  0.45594000000E+02  0.51100000000E-03 0.  1.
    9900012    2    1    2    0    0 -0.25115846612E+02 -0.80513272900E+01  0.34467283888E+02  0.47787270965E+02  0.19999999636E+02 0.  0.
        -12    1    1    2    0    0  0.25115846612E+02  0.80513272900E+01 -0.34467283888E+02  0.43400729035E+02  0.00000000000E+00 0.  1.
         11    1    3    3    0    0 -0.10153562104E+02 -0.33492334870E+01  0.67994896273E+01  0.12670645122E+02  0.51100000000E-03 0. -1.
        -11    1    3    3    0    0 -0.37146233304E+01 -0.58544905215E+01  0.22366554582E+01  0.72853355209E+01  0.51100000000E-03 0.  1.
        -12    1    3    3    0    0 -0.11247661178E+02  0.11523967186E+01  0.25431138803E+02  0.27831290322E+02  0.00000000000E+00 0.  1.
</event>
<event>
 7    1  0.5022032E-011  0.4778727E+02  0.7816164E-02  0.1312668E+00
        -11   -1    0    0    0    0  0.00000000000E+00  0.00000000000E+00  0.45593999997E+02  0.45594000000E+02  0.51100000000E-03 0. -1.
         11   -1    0    0    0    0 -0.00000000000E+00 -0.00000000000E+00 -0.45593999997E+02  0.45594000000E+02  0.51100000000E-03 0.  1.
    9900012    2    1    2    0    0 -0.35476537309E+02  0.79578415047E+01  0.23700444275E+02  0.47787274203E+02  0.20000014402E+02 0.  0.
        -12    1    1    2    0    0  0.35476537309E+02 -0.79578415047E+01 -0.23700444275E+02  0.43400725797E+02  0.00000000000E+00 0.  1.
         11    1    3    3    0    0 -0.69280104579E+01 -0.36063865785E+01  0.96200851578E+01  0.12391504822E+02  0.51100000000E-03 0. -1.
        -11    1    3    3    0    0 -0.17826169785E+01 -0.13015325685E+01 -0.57229705899E+00  0.22801829979E+01  0.51100000000E-03 0.  1.
        -12    1    3    3    0    0 -0.26765909873E+02  0.12865760652E+02  0.14652656176E+02  0.33115586383E+02  0.00000000000E+00 0.  1.
</event>
<event>
 7    1  0.5022032E-011  0.4778727E+02  0.7816164E-02  0.1312668E+00
        -11   -1    0    0    0    0  0.00000000000E+00  0.00000000000E+00  0.45593999997E+02  0.45594000000E+02  0.51100000000E-03 0. -1.
         11   -1    0    0    0    0 -0.00000000000E+00 -0.00000000000E+00 -0.45593999997E+02  0.45594000000E+02  0.51100000000E-03 0.  1.
    9900012    2    1    2    0    0  0.35917272232E+02 -0.29544827546E+01 -0.24183541838E+02  0.47787272946E+02  0.20000008672E+02 0.  0.
         12    1    1    2    0    0 -0.35917272232E+02  0.29544827546E+01  0.24183541838E+02  0.43400727054E+02  0.00000000000E+00 0. -1.
         11    1    3    3    0    0  0.58736272285E+01 -0.44178473488E+01 -0.57872196066E+01  0.93546129291E+01  0.51100000000E-03 0. -1.
        -11    1    3    3    0    0  0.19014105564E+02 -0.55731403002E+01 -0.15179013006E+02  0.24959938688E+02  0.51100000000E-03 0.  1.
        -12    1    3    3    0    0  0.11029539439E+02  0.70365048944E+01 -0.32173092261E+01  0.13472721329E+02  0.00000000000E+00 0.  1.
</event>
<event>
 7    1  0.5022032E-011  0.4778727E+02  0.7816164E-02  0.1312668E+00
        -11   -1    0    0    0    0  0.00000000000E+00  0.00000000000E+00  0.45593999997E+02  0.45594000000E+02  0.51100000000E-03 0. -1.
         11   -1    0    0    0    0 -0.00000000000E+00 -0.00000000000E+00 -0.45593999997E+02  0.45594000000E+02  0.51100000000E-03 0.  1.
    9900012    2    1    2    0    0  0.20002537648E+02  0.17490899058E+02 -0.34316036703E+02  0.47787269162E+02  0.19999991418E+02 0.  0.
         12    1    1    2    0    0 -0.20002537648E+02 -0.17490899058E+02  0.34316036703E+02  0.43400730838E+02  0.00000000000E+00 0. -1.
         11    1    3    3    0    0  0.50987876470E+01  0.57833552047E+01 -0.14004367558E+02  0.15986467523E+02  0.51100000000E-03 0. -1.
        -11    1    3    3    0    0  0.11422982049E+02  0.41038784703E+01 -0.20045678531E+02  0.23434068477E+02  0.51100000000E-03 0.  1.
         12    1    3    3    0    0  0.34807679527E+01  0.76036653830E+01 -0.26599061437E+00  0.83667331620E+01  0.00000000000E+00 0. -1.
</event>
<event>
 7    1  0.5022032E-011  0.4778727E+02  0.7816164E-02  0.1312668E+00
        -11   -1    0    0    0    0  0.00000000000E+00  0.00000000000E+00  0.45593999997E+02  0.45594000000E+02  0.51100000000E-03 0.  1.
         11   -1    0    0    0    0 -0.00000000000E+00 -0.00000000000E+00 -0.45593999997E+02  0.45594000000E+02  0.51100000000E-03 0. -1.
    9900012    2    1    2    0    0  0.34871834783E+02 -0.25764724910E+02  0.19384350014E+01  0.47787269118E+02  0.19999991216E+02 0.  0.
         12    1    1    2    0    0 -0.34871834783E+02  0.25764724910E+02 -0.19384350014E+01  0.43400730882E+02  0.00000000000E+00 0. -1.
         11    1    3    3    0    0  0.51993109928E+01 -0.64305009154E+00 -0.18936005521E+00  0.52423473475E+01  0.51100000000E-03 0. -1.
        -11    1    3    3    0    0  0.24566202473E+02 -0.11990683329E+02 -0.31126449394E+01  0.27512966932E+02  0.51100000000E-03 0.  1.
         12    1    3    3    0    0  0.51063213177E+01 -0.13130991490E+02  0.52404399960E+01  0.15031954839E+02  0.00000000000E+00 0. -1.
</event>
<event>
 7    1  0.6355782E-011  0.4778727E+02  0.7816164E-02  0.1312668E+00
        -11   -1    0    0    0    0  0.00000000000E+00  0.00000000000E+00  0.45593999997E+02  0.45594000000E+02  0.51100000000E-03 0. -1.
         11   -1    0    0    0    0 -0.00000000000E+00 -0.00000000000E+00 -0.45593999997E+02  0.45594000000E+02  0.51100000000E-03 0.  1.
    9900012    2    1    2    0    0 -0.23005434914E+02 -0.32158369977E+02 -0.17894472717E+02  0.47787274787E+02  0.20000017065E+02 0.  0.
         12    1    1    2    0    0  0.23005434914E+02  0.32158369977E+02  0.17894472717E+02  0.43400725213E+02  0.00000000000E+00 0. -1.
         11    1    3    3    0    0  0.16074387423E+01 -0.76484277411E+01 -0.16169598364E+01  0.79810316122E+01  0.51100000000E-03 0. -1.
        -11    1    3    3    0    0 -0.23262346267E+01  0.65048248853E+00  0.98632633926E-01  0.24174829190E+01  0.51100000000E-03 0.  1.
        -12    1    3    3    0    0 -0.22286639030E+02 -0.25160424725E+02 -0.16376145514E+02  0.37388760256E+02  0.00000000000E+00 0.  1.
</event>
<event>
 7    1  0.5022032E-011  0.4778727E+02  0.7816164E-02  0.1312668E+00
        -11   -1    0    0    0    0  0.00000000000E+00  0.00000000000E+00  0.45593999997E+02  0.45594000000E+02  0.51100000000E-03 0. -1.
         11   -1    0    0    0    0 -0.00000000000E+00 -0.00000000000E+00 -0.45593999997E+02  0.45594000000E+02  0.51100000000E-03 0.  1.
    9900012    2    1    2    0    0 -0.18904588873E+02  0.34228842080E+02 -0.18831516078E+02  0.47787272951E+02  0.20000008691E+02 0.  0.
         12    1    1    2    0    0  0.18904588873E+02 -0.34228842080E+02  0.18831516078E+02  0.43400727049E+02  0.00000000000E+00 0. -1.
         11    1    3    3    0    0  0.63828439126E+00  0.56598558855E+00  0.48308835694E+00  0.98036792701E+00  0.51100000000E-03 0. -1.
        -11    1    3    3    0    0 -0.22052966775E+02  0.27666949726E+02 -0.12856912710E+02  0.37644304422E+02  0.51100000000E-03 0.  1.
        -12    1    3    3    0    0  0.25100935105E+01  0.59959067653E+01 -0.64576917250E+01  0.91626006016E+01  0.00000000000E+00 0.  1.
</event>
<event>
 7    1  0.5022032E-011  0.4778726E+02  0.7816164E-02  0.1312668E+00
        -11   -1    0    0    0    0  0.00000000000E+00  0.00000000000E+00  0.45593999997E+02  0.45594000000E+02  0.51100000000E-03 0. -1.
         11   -1    0    0    0    0 -0.00000000000E+00 -0.00000000000E+00 -0.45593999997E+02  0.45594000000E+02  0.51100000000E-03 0.  1.
    9900012    2    1    2    0    0  0.12591444269E+02  0.24835507910E+02  0.33290793952E+02  0.47787264017E+02  0.19999967958E+02 0.  0.
        -12    1    1    2    0    0 -0.12591444269E+02 -0.24835507910E+02 -0.33290793952E+02  0.43400735983E+02  0.00000000000E+00 0.  1.
         11    1    3    3    0    0  0.20787456927E+01 -0.62656953948E+00  0.90691309857E+01  0.93253906159E+01  0.51100000000E-03 0. -1.
        -11    1    3    3    0    0 -0.46874449451E+00  0.32352680268E+01 -0.66276849451E+00  0.33355573665E+01  0.51100000000E-03 0.  1.
         12    1    3    3    0    0  0.10981443071E+02  0.22226809422E+02  0.24884431461E+02  0.35126316034E+02  0.00000000000E+00 0. -1.
</event>
<event>
 7    1  0.5022032E-011  0.4778727E+02  0.7816164E-02  0.1312668E+00
        -11   -1    0    0    0    0  0.00000000000E+00  0.00000000000E+00  0.45593999997E+02  0.45594000000E+02  0.51100000000E-03 0. -1.
         11   -1    0    0    0    0 -0.00000000000E+00 -0.00000000000E+00 -0.45593999997E+02  0.45594000000E+02  0.51100000000E-03 0.  1.
    9900012    2    1    2    0    0  0.18365095678E+02 -0.10460259475E+02 -0.37906854051E+02  0.47787270149E+02  0.19999995919E+02 0.  0.
         12    1    1    2    0    0 -0.18365095678E+02  0.10460259475E+02  0.37906854051E+02  0.43400729851E+02  0.00000000000E+00 0. -1.
         11    1    3    3    0    0  0.54525724545E+01  0.81078051742E+00 -0.44599942582E+01  0.70908011157E+01  0.51100000000E-03 0. -1.
        -11    1    3    3    0    0  0.14768573793E+02 -0.48618249181E+01 -0.28222418168E+02  0.32221933538E+02  0.51100000000E-03 0.  1.
         12    1    3    3    0    0 -0.18560505691E+01 -0.64092150742E+01 -0.52244416247E+01  0.84745354959E+01  0.00000000000E+00 0. -1.
</event>
<event>
 7    1  0.5022032E-011  0.4778727E+02  0.7816164E-02  0.1312668E+00
        -11   -1    0    0    0    0  0.00000000000E+00  0.00000000000E+00  0.45593999997E+02  0.45594000000E+02  0.51100000000E-03 0. -1.
         11   -1    0    0    0    0 -0.00000000000E+00 -0.00000000000E+00 -0.45593999997E+02  0.45594000000E+02  0.51100000000E-03 0.  1.
    9900012    2    1    2    0    0 -0.37559685594E+02  0.12981256955E+02 -0.17446493162E+02  0.47787272613E+02  0.20000007153E+02 0.  0.
         12    1    1    2    0    0  0.37559685594E+02 -0.12981256955E+02  0.17446493162E+02  0.43400727387E+02  0.00000000000E+00 0. -1.
         11    1    3    3    0    0 -0.96001975540E+01  0.35655462416E+01 -0.19696216694E+01  0.10428629961E+02  0.51100000000E-03 0. -1.
        -11    1    3    3    0    0 -0.14802504141E+02 -0.35408100994E+01 -0.95369807479E+01  0.17961221202E+02  0.51100000000E-03 0.  1.
         12    1    3    3    0    0 -0.13156983899E+02  0.12956520813E+02 -0.59398907443E+01  0.19397421451E+02  0.00000000000E+00 0. -1.
</event>
<event>
 7    1  0.5022032E-011  0.4778727E+02  0.7816164E-02  0.1312668E+00
        -11   -1    0    0    0    0  0.00000000000E+00  0.00000000000E+00  0.45593999997E+02  0.45594000000E+02  0.51100000000E-03 0. -1.
         11   -1    0    0    0    0 -0.00000000000E+00 -0.00000000000E+00 -0.45593999997E+02  0.45594000000E+02  0.51100000000E-03 0.  1.
    9900012    2    1    2    0    0  0.19709044650E+01 -0.84788520465E+01 -0.42518791587E+02  0.47787273803E+02  0.20000012577E+02 0.  0.
         12    1    1    2    0    0 -0.19709044650E+01  0.84788520465E+01  0.42518791587E+02  0.43400726197E+02  0.00000000000E+00 0. -1.
         11    1    3    3    0    0 -0.24778462713E+01 -0.31904299996E+01 -0.27328546482E+01  0.48771980190E+01  0.51100000000E-03 0. -1.
        -11    1    3    3    0    0 -0.85402730299E+00  0.46371246137E+01 -0.96172115747E+01  0.10710884466E+02  0.51100000000E-03 0.  1.
        -12    1    3    3    0    0  0.53027780393E+01 -0.99255466605E+01 -0.30168725364E+02  0.32199191318E+02  0.00000000000E+00 0.  1.
</event>
<event>
 7    1  0.5022032E-011  0.4778727E+02  0.7816164E-02  0.1312668E+00
        -11   -1    0    0    0    0  0.00000000000E+00  0.00000000000E+00  0.45593999997E+02  0.45594000000E+02  0.51100000000E-03 0. -1.
         11   -1    0    0    0    0 -0.00000000000E+00 -0.00000000000E+00 -0.45593999997E+02  0.45594000000E+02  0.51100000000E-03 0.  1.
    9900012    2    1    2    0    0  0.13212767945E+02 -0.39692614429E+02  0.11556046024E+02  0.47787273316E+02  0.20000010358E+02 0.  0.
        -12    1    1    2    0    0 -0.13212767945E+02  0.39692614429E+02 -0.11556046024E+02  0.43400726684E+02  0.00000000000E+00 0.  1.
         11    1    3    3    0    0  0.39236807246E+01 -0.96651301312E+01  0.64526464617E+01  0.12265669876E+02  0.51100000000E-03 0. -1.
        -11    1    3    3    0    0 -0.41451506004E+01 -0.10517249625E+02  0.32425621434E+01  0.11760485648E+02  0.51100000000E-03 0.  1.
         12    1    3    3    0    0  0.13434237821E+02 -0.19510234673E+02  0.18608374190E+01  0.23761117792E+02  0.00000000000E+00 0. -1.
</event>
<event>
 7    1  0.5022032E-011  0.4778727E+02  0.7816164E-02  0.1312668E+00
        -11   -1    0    0    0    0  0.00000000000E+00  0.00000000000E+00  0.45593999997E+02  0.45594000000E+02  0.51100000000E-03 0. -1.
         11   -1    0    0    0    0 -0.00000000000E+00 -0.00000000000E+00 -0.45593999997E+02  0.45594000000E+02  0.51100000000E-03 0.  1.
    9900012    2    1    2    0    0  0.96860414342E+01 -0.33681523780E+02  0.25599972909E+02  0.47787273557E+02  0.20000011456E+02 0.  0.
        -12    1    1    2    0    0 -0.96860414342E+01  0.33681523780E+02 -0.25599972909E+02  0.43400726443E+02  0.00000000000E+00 0.  1.
         11    1    3    3    0    0  0.80638060481E+01 -0.20941808600E+02  0.14255756757E+02  0.26585915753E+02  0.51100000000E-03 0. -1.
        -11    1    3    3    0    0  0.58669687609E+01 -0.62910138516E+01  0.15674102670E+01  0.87438522934E+01  0.51100000000E-03 0.  1.
        -12    1    3    3    0    0 -0.42447333748E+01 -0.64487013287E+01  0.97768058846E+01  0.12457505511E+02  0.00000000000E+00 0.  1.
</event>
<event>
 7    1  0.5022032E-011  0.4778727E+02  0.7816164E-02  0.1312668E+00
        -11   -1    0    0    0    0  0.00000000000E+00  0.00000000000E+00  0.45593999997E+02  0.45594000000E+02  0.51100000000E-03 0. -1.
         11   -1    0    0    0    0 -0.00000000000E+00 -0.00000000000E+00 -0.45593999997E+02  0.45594000000E+02  0.51100000000E-03 0.  1.
    9900012    2    1    2    0    0 -0.20316207612E+02  0.14974238358E+01 -0.38322742502E+02  0.47787272325E+02  0.20000005837E+02 0.  0.
         12    1    1    2    0    0  0.20316207612E+02 -0.14974238358E+01  0.38322742502E+02  0.43400727675E+02  0.00000000000E+00 0. -1.
         11    1    3    3    0    0  0.72135489356E+00  0.64932937863E+00 -0.27324464745E+01  0.28996974879E+01  0.51100000000E-03 0. -1.
        -11    1    3    3    0    0 -0.23118262710E+02  0.34854018015E+01 -0.27302176847E+02  0.35944553931E+02  0.51100000000E-03 0.  1.
        -12    1    3    3    0    0  0.20807002047E+01 -0.26373073443E+01 -0.82881191806E+01  0.89430209058E+01  0.00000000000E+00 0.  1.
</event>
<event>
 7    1  0.5022032E-011  0.4778726E+02  0.7816164E-02  0.1312668E+00
        -11   -1    0    0    0    0  0.00000000000E+00  0.00000000000E+00  0.45593999997E+02  0.45594000000E+02  0.51100000000E-03 0.  1.
         11   -1    0    0    0    0 -0.00000000000E+00 -0.00000000000E+00 -0.45593999997E+02  0.45594000000E+02  0.51100000000E-03 0. -1.
    9900012    2    1    2    0    0 -0.37928172708E+02  0.62416150129E+00  0.21087639830E+02  0.47787257884E+02  0.19999939998E+02 0.  0.
         12    1    1    2    0    0  0.37928172708E+02 -0.62416150129E+00 -0.21087639830E+02  0.43400742116E+02  0.00000000000E+00 0. -1.
         11    1    3    3    0    0 -0.10066045436E+02 -0.62556770079E+01  0.93072620232E+01  0.15069302976E+02  0.51100000000E-03 0. -1.
        -11    1    3    3    0    0  0.20092301964E+00 -0.11476530851E+01 -0.17050846053E+00  0.11775190273E+01  0.51100000000E-03 0.  1.
        -12    1    3    3    0    0 -0.28063050292E+02  0.80274915943E+01  0.11950886268E+02  0.31540435881E+02  0.00000000000E+00 0.  1.
</event>
<event>
 7    1  0.5022032E-011  0.4778727E+02  0.7816164E-02  0.1312668E+00
        -11   -1    0    0    0    0  0.00000000000E+00  0.00000000000E+00  0.45593999997E+02  0.45594000000E+02  0.51100000000E-03 0. -1.
         11   -1    0    0    0    0 -0.00000000000E+00 -0.00000000000E+00 -0.45593999997E+02  0.45594000000E+02  0.51100000000E-03 0.  1.
    9900012    2    1    2    0    0 -0.81146862596E+01 -0.17151194429E+02  0.39033466844E+02  0.47787272618E+02  0.20000007172E+02 0.  0.
        -12    1    1    2    0    0  0.81146862596E+01  0.17151194429E+02 -0.39033466844E+02  0.43400727382E+02  0.00000000000E+00 0.  1.
         11    1    3    3    0    0 -0.57799814014E+01 -0.22759986247E+01  0.18246010812E+01  0.64743744182E+01  0.51100000000E-03 0.  1.
        -11    1    3    3    0    0 -0.56593880946E+01 -0.52942303859E+01  0.17811797933E+02  0.19424667175E+02  0.51100000000E-03 0. -1.
        -12    1    3    3    0    0  0.33246832364E+01 -0.95809654186E+01  0.19397067830E+02  0.21888231024E+02  0.00000000000E+00 0.  1.
</event>
<event>
 7    1  0.5022032E-011  0.4778727E+02  0.7816164E-02  0.1312668E+00
        -11   -1    0    0    0    0  0.00000000000E+00  0.00000000000E+00  0.45593999997E+02  0.45594000000E+02  0.51100000000E-03 0. -1.
         11   -1    0    0    0    0 -0.00000000000E+00 -0.00000000000E+00 -0.45593999997E+02  0.45594000000E+02  0.51100000000E-03 0.  1.
    9900012    2    1    2    0    0  0.29404850269E+02  0.30721348011E+02 -0.86704692377E+01  0.47787268673E+02  0.19999989186E+02 0.  0.
         12    1    1    2    0    0 -0.29404850269E+02 -0.30721348011E+02  0.86704692377E+01  0.43400731327E+02  0.00000000000E+00 0. -1.
         11    1    3    3    0    0  0.57962617760E+01  0.98388665827E+01 -0.93510686999E+00  0.11457502840E+02  0.51100000000E-03 0. -1.
        -11    1    3    3    0    0 -0.67397279257E+00  0.56968863072E+01 -0.49097626693E+01  0.75507961601E+01  0.51100000000E-03 0.  1.
         12    1    3    3    0    0  0.24282561285E+02  0.15185595121E+02 -0.28255996984E+01  0.28778969673E+02  0.00000000000E+00 0. -1.
</event>
<event>
 7    1  0.5022032E-011  0.4778732E+02  0.7816164E-02  0.1312668E+00
        -11   -1    0    0    0    0  0.00000000000E+00  0.00000000000E+00  0.45593999997E+02  0.45594000000E+02  0.51100000000E-03 0. -1.
         11   -1    0    0    0    0 -0.00000000000E+00 -0.00000000000E+00 -0.45593999997E+02  0.45594000000E+02  0.51100000000E-03 0.  1.
    9900012    2    1    2    0    0  0.72151645225E+01 -0.12071824331E+02  0.41058873184E+02  0.47787324787E+02  0.20000245034E+02 0.  0.
        -12    1    1    2    0    0 -0.72151645225E+01  0.12071824331E+02 -0.41058873184E+02  0.43400675213E+02  0.00000000000E+00 0.  1.
         11    1    3    3    0    0  0.38240391236E+01 -0.65656110247E+00  0.20037074474E+02  0.20409279787E+02  0.51100000000E-03 0. -1.
        -11    1    3    3    0    0  0.20352968856E+01 -0.34756107224E+01  0.18506701938E+02  0.18939913415E+02  0.51100000000E-03 0.  1.
        -12    1    3    3    0    0  0.13558285133E+01 -0.79396525057E+01  0.25150967725E+01  0.84381315849E+01  0.00000000000E+00 0.  1.
</event>
<event>
 7    1  0.5022032E-011  0.4778728E+02  0.7816164E-02  0.1312668E+00
        -11   -1    0    0    0    0  0.00000000000E+00  0.00000000000E+00  0.45593999997E+02  0.45594000000E+02  0.51100000000E-03 0.  1.
         11   -1    0    0    0    0 -0.00000000000E+00 -0.00000000000E+00 -0.45593999997E+02  0.45594000000E+02  0.51100000000E-03 0. -1.
    9900012    2    1    2    0    0  0.13481129647E+01  0.41783606914E+02  0.11659132523E+02  0.47787278963E+02  0.20000036104E+02 0.  0.
        -12    1    1    2    0    0 -0.13481129647E+01 -0.41783606914E+02 -0.11659132523E+02  0.43400721037E+02  0.00000000000E+00 0.  1.
         11    1    3    3    0    0 -0.15098539864E+01  0.30233771829E+01  0.48918148767E+01  0.59456136520E+01  0.51100000000E-03 0. -1.
        -11    1    3    3    0    0  0.65925029039E+01  0.16048395328E+02  0.72896819850E+01  0.18818914709E+02  0.51100000000E-03 0.  1.
         12    1    3    3    0    0 -0.37345359528E+01  0.22711834404E+02 -0.52236433880E+00  0.23022750602E+02  0.00000000000E+00 0. -1.
</event>
<event>
 7    1  0.5022032E-011  0.4778727E+02  0.7816164E-02  0.1312668E+00
        -11   -1    0    0    0    0  0.00000000000E+00  0.00000000000E+00  0.45593999997E+02  0.45594000000E+02  0.51100000000E-03 0. -1.
         11   -1    0    0    0    0 -0.00000000000E+00 -0.00000000000E+00 -0.45593999997E+02  0.45594000000E+02  0.51100000000E-03 0.  1.
    9900012    2    1    2    0    0  0.30873349959E+02  0.13562037434E+02 -0.27322710661E+02  0.47787272876E+02  0.20000008351E+02 0.  0.
         12    1    1    2    0    0 -0.30873349959E+02 -0.13562037434E+02  0.27322710661E+02  0.43400727124E+02  0.00000000000E+00 0. -1.
         11    1    3    3    0    0  0.24178196937E-01  0.49824486685E+00 -0.14184416616E+01  0.15035988631E+01  0.51100000000E-03 0. -1.
        -11    1    3    3    0    0  0.11116635812E+02 -0.17032174682E+01 -0.10728150447E+01  0.11297410053E+02  0.51100000000E-03 0.  1.
        -12    1    3    3    0    0  0.19732535950E+02  0.14767010035E+02 -0.24831453955E+02  0.34986263960E+02  0.00000000000E+00 0.  1.
</event>
<event>
 7    1  0.5022032E-011  0.4778727E+02  0.7816164E-02  0.1312668E+00
        -11   -1    0    0    0    0  0.00000000000E+00  0.00000000000E+00  0.45593999997E+02  0.45594000000E+02  0.51100000000E-03 0. -1.
         11   -1    0    0    0    0 -0.00000000000E+00 -0.00000000000E+00 -0.45593999997E+02  0.45594000000E+02  0.51100000000E-03 0.  1.
    9900012    2    1    2    0    0 -0.32842321369E+02  0.15972802354E+02  0.23449409020E+02  0.47787271074E+02  0.20000000134E+02 0.  0.
        -12    1    1    2    0    0  0.32842321369E+02 -0.15972802354E+02 -0.23449409020E+02  0.43400728926E+02  0.00000000000E+00 0.  1.
         11    1    3    3    0    0 -0.27266945764E+01  0.55815731958E+00  0.74583458563E+00  0.28814358221E+01  0.51100000000E-03 0. -1.
        -11    1    3    3    0    0 -0.15499004416E+02  0.85248554719E+00  0.17953805602E+02  0.23733626047E+02  0.51100000000E-03 0.  1.
        -12    1    3    3    0    0 -0.14616622376E+02  0.14562159488E+02  0.47497688321E+01  0.21172209204E+02  0.00000000000E+00 0.  1.
</event>
<event>
 7    1  0.5022032E-011  0.4778727E+02  0.7816164E-02  0.1312668E+00
        -11   -1    0    0    0    0  0.00000000000E+00  0.00000000000E+00  0.45593999997E+02  0.45594000000E+02  0.51100000000E-03 0. -1.
         11   -1    0    0    0    0 -0.00000000000E+00 -0.00000000000E+00 -0.45593999997E+02  0.45594000000E+02  0.51100000000E-03 0.  1.
    9900012    2    1    2    0    0 -0.23329879803E+02  0.36454398543E+02  0.32274838787E+01  0.47787272853E+02  0.20000008244E+02 0.  0.
         12    1    1    2    0    0  0.23329879803E+02 -0.36454398543E+02 -0.32274838787E+01  0.43400727147E+02  0.00000000000E+00 0. -1.
         11    1    3    3    0    0 -0.86947084272E+01  0.17574862825E+01 -0.15518977556E+01  0.90052817597E+01  0.51100000000E-03 0. -1.
        -11    1    3    3    0    0 -0.11508179344E+02  0.20825664791E+02  0.40791283816E-01  0.23793868328E+02  0.51100000000E-03 0.  1.
        -12    1    3    3    0    0 -0.31269920322E+01  0.13871247469E+02  0.47385903505E+01  0.14988122765E+02  0.00000000000E+00 0.  1.
</event>
<event>
 7    1  0.5022032E-011  0.4778725E+02  0.7816164E-02  0.1312668E+00
        -11   -1    0    0    0    0  0.00000000000E+00  0.00000000000E+00  0.45593999997E+02  0.45594000000E+02  0.51100000000E-03 0. -1.
         11   -1    0    0    0    0 -0.00000000000E+00 -0.00000000000E+00 -0.45593999997E+02  0.45594000000E+02  0.51100000000E-03 0.  1.
    9900012    2    1    2    0    0  0.51655083025E+01 -0.26345482619E+02  0.34100704968E+02  0.47787251046E+02  0.19999908819E+02 0.  0.
        -12    1    1    2    0    0 -0.51655083025E+01  0.26345482619E+02 -0.34100704968E+02  0.43400748954E+02  0.00000000000E+00 0.  1.
         11    1    3    3    0    0 -0.33714303351E+01 -0.52467505266E+01  0.13587392771E+02  0.14950323614E+02  0.51100000000E-03 0. -1.
        -11    1    3    3    0    0  0.18941676352E+01  0.40164957212E+00  0.53817056885E+01  0.57194361425E+01  0.51100000000E-03 0.  1.
         12    1    3    3    0    0  0.66427710024E+01 -0.21500381664E+02  0.15131606508E+02  0.27117491289E+02  0.00000000000E+00 0. -1.
</event>
<event>
 7    1  0.5022032E-011  0.4778727E+02  0.7816164E-02  0.1312668E+00
        -11   -1    0    0    0    0  0.00000000000E+00  0.00000000000E+00  0.45593999997E+02  0.45594000000E+02  0.51100000000E-03 0. -1.
         11   -1    0    0    0    0 -0.00000000000E+00 -0.00000000000E+00 -0.45593999997E+02  0.45594000000E+02  0.51100000000E-03 0.  1.
    9900012    2    1    2    0    0  0.12834643980E+02  0.13943961313E+02 -0.39044350426E+02  0.47787269092E+02  0.19999991098E+02 0.  0.
         12    1    1    2    0    0 -0.12834643980E+02 -0.13943961313E+02  0.39044350426E+02  0.43400730908E+02  0.00000000000E+00 0. -1.
         11    1    3    3    0    0  0.75397087325E+01  0.73480121519E+01 -0.10533044299E+02  0.14892464968E+02  0.51100000000E-03 0. -1.
        -11    1    3    3    0    0  0.66359138300E+01  0.82478524918E+01 -0.11042988937E+02  0.15297386313E+02  0.51100000000E-03 0.  1.
         12    1    3    3    0    0 -0.13409785830E+01 -0.16519033305E+01 -0.17468317190E+02  0.17597417811E+02  0.00000000000E+00 0. -1.
</event>
<event>
 7    1  0.5022032E-011  0.4778727E+02  0.7816164E-02  0.1312668E+00
        -11   -1    0    0    0    0  0.00000000000E+00  0.00000000000E+00  0.45593999997E+02  0.45594000000E+02  0.51100000000E-03 0. -1.
         11   -1    0    0    0    0 -0.00000000000E+00 -0.00000000000E+00 -0.45593999997E+02  0.45594000000E+02  0.51100000000E-03 0.  1.
    9900012    2    1    2    0    0  0.31613303577E+02  0.12281121503E+02  0.27081296263E+02  0.47787268258E+02  0.19999987297E+02 0.  0.
        -12    1    1    2    0    0 -0.31613303577E+02 -0.12281121503E+02 -0.27081296263E+02  0.43400731742E+02  0.00000000000E+00 0.  1.
         11    1    3    3    0    0  0.11174032466E+02  0.14369223066E+02  0.11130380409E+02  0.21335860455E+02  0.51100000000E-03 0. -1.
        -11    1    3    3    0    0  0.56968353938E+01  0.13111796857E+01  0.31925533711E+01  0.66607449254E+01  0.51100000000E-03 0.  1.
        -12    1    3    3    0    0  0.14742435718E+02 -0.33992812481E+01  0.12758362483E+02  0.19790662878E+02  0.00000000000E+00 0.  1.
</event>
<event>
 7    1  0.5022032E-011  0.4778727E+02  0.7816164E-02  0.1312668E+00
        -11   -1    0    0    0    0  0.00000000000E+00  0.00000000000E+00  0.45593999997E+02  0.45594000000E+02  0.51100000000E-03 0. -1.
         11   -1    0    0    0    0 -0.00000000000E+00 -0.00000000000E+00 -0.45593999997E+02  0.45594000000E+02  0.51100000000E-03 0.  1.
    9900012    2    1    2    0    0  0.23518498421E+02 -0.11385424513E+01 -0.36458293309E+02  0.47787271920E+02  0.20000003993E+02 0.  0.
         12    1    1    2    0    0 -0.23518498421E+02  0.11385424513E+01  0.36458293309E+02  0.43400728080E+02  0.00000000000E+00 0. -1.
         11    1    3    3    0    0  0.11337675196E+02 -0.14343433996E+01 -0.12131991658E+02  0.16666896583E+02  0.51100000000E-03 0. -1.
        -11    1    3    3    0    0  0.10604453226E+02  0.33123835116E+01 -0.25256454876E+02  0.27591934073E+02  0.51100000000E-03 0.  1.
        -12    1    3    3    0    0  0.15763699985E+01 -0.30165825632E+01  0.93015322514E+00  0.35284412642E+01  0.00000000000E+00 0.  1.
</event>
<event>
 7    1  0.5022032E-011  0.4778727E+02  0.7816164E-02  0.1312668E+00
        -11   -1    0    0    0    0  0.00000000000E+00  0.00000000000E+00  0.45593999997E+02  0.45594000000E+02  0.51100000000E-03 0. -1.
         11   -1    0    0    0    0 -0.00000000000E+00 -0.00000000000E+00 -0.45593999997E+02  0.45594000000E+02  0.51100000000E-03 0.  1.
    9900012    2    1    2    0    0 -0.36613643003E+02  0.25618769505E+01  0.23162489236E+02  0.47787274487E+02  0.20000015694E+02 0.  0.
        -12    1    1    2    0    0  0.36613643003E+02 -0.25618769505E+01 -0.23162489236E+02  0.43400725513E+02  0.00000000000E+00 0.  1.
         11    1    3    3    0    0 -0.18637676517E+02  0.19956415799E+01  0.16719904511E+02  0.25117738322E+02  0.51100000000E-03 0. -1.
        -11    1    3    3    0    0 -0.13583207602E+02  0.58947853403E+01  0.48644995567E+01  0.15585742817E+02  0.51100000000E-03 0.  1.
        -12    1    3    3    0    0 -0.43927588840E+01 -0.53285499697E+01  0.15780851684E+01  0.70837933476E+01  0.00000000000E+00 0.  1.
</event>
<event>
 7    1  0.5022032E-011  0.4778727E+02  0.7816164E-02  0.1312668E+00
        -11   -1    0    0    0    0  0.00000000000E+00  0.00000000000E+00  0.45593999997E+02  0.45594000000E+02  0.51100000000E-03 0. -1.
         11   -1    0    0    0    0 -0.00000000000E+00 -0.00000000000E+00 -0.45593999997E+02  0.45594000000E+02  0.51100000000E-03 0.  1.
    9900012    2    1    2    0    0  0.20836998580E+02 -0.76781154597E+01  0.37289269295E+02  0.47787267617E+02  0.19999984372E+02 0.  0.
        -12    1    1    2    0    0 -0.20836998580E+02  0.76781154597E+01 -0.37289269295E+02  0.43400732383E+02  0.00000000000E+00 0.  1.
         11    1    3    3    0    0  0.10351555616E+02  0.17217027047E+01  0.11747195056E+02  0.15751684222E+02  0.51100000000E-03 0. -1.
        -11    1    3    3    0    0  0.88470987120E+01 -0.58200634517E+01  0.61461633741E+01  0.12244166721E+02  0.51100000000E-03 0.  1.
         12    1    3    3    0    0  0.16383442517E+01 -0.35797547127E+01  0.19395910865E+02  0.19791416675E+02  0.00000000000E+00 0. -1.
</event>
<event>
 7    1  0.5022032E-011  0.4778727E+02  0.7816164E-02  0.1312668E+00
        -11   -1    0    0    0    0  0.00000000000E+00  0.00000000000E+00  0.45593999997E+02  0.45594000000E+02  0.51100000000E-03 0. -1.
         11   -1    0    0    0    0 -0.00000000000E+00 -0.00000000000E+00 -0.45593999997E+02  0.45594000000E+02  0.51100000000E-03 0.  1.
    9900012    2    1    2    0    0  0.29345034609E+02 -0.26016404291E+02  0.18591362884E+02  0.47787272790E+02  0.20000007961E+02 0.  0.
        -12    1    1    2    0    0 -0.29345034609E+02  0.26016404291E+02 -0.18591362884E+02  0.43400727210E+02  0.00000000000E+00 0.  1.
         11    1    3    3    0    0  0.20633317624E+01  0.50424311260E+00 -0.23836128256E+00  0.21373851877E+01  0.51100000000E-03 0. -1.
        -11    1    3    3    0    0  0.12731263822E+02 -0.23007556343E+02  0.92322099385E+01  0.27868735673E+02  0.51100000000E-03 0.  1.
         12    1    3    3    0    0  0.14550439025E+02 -0.35130910608E+01  0.95975142281E+01  0.17781151930E+02  0.00000000000E+00 0. -1.
</event>
<event>
 7    1  0.5022032E-011  0.4778727E+02  0.7816164E-02  0.1312668E+00
        -11   -1    0    0    0    0  0.00000000000E+00  0.00000000000E+00  0.45593999997E+02  0.45594000000E+02  0.51100000000E-03 0. -1.
         11   -1    0    0    0    0 -0.00000000000E+00 -0.00000000000E+00 -0.45593999997E+02  0.45594000000E+02  0.51100000000E-03 0.  1.
    9900012    2    1    2    0    0  0.38917851308E+02  0.11780678319E+02  0.15173655426E+02  0.47787270155E+02  0.19999995946E+02 0.  0.
        -12    1    1    2    0    0 -0.38917851308E+02 -0.11780678319E+02 -0.15173655426E+02  0.43400729845E+02  0.00000000000E+00 0.  1.
         11    1    3    3    0    0  0.17828518628E+01  0.15678779627E+01  0.26280406666E+01  0.35416662854E+01  0.51100000000E-03 0. -1.
        -11    1    3    3    0    0  0.21692652935E+02  0.76722401027E+01 -0.17144370011E+01  0.23073225914E+02  0.51100000000E-03 0.  1.
         12    1    3    3    0    0  0.15442346509E+02  0.25405602537E+01  0.14260051760E+02  0.21172377956E+02  0.00000000000E+00 0. -1.
</event>
<event>
 7    1  0.5022032E-011  0.4778728E+02  0.7816164E-02  0.1312668E+00
        -11   -1    0    0    0    0  0.00000000000E+00  0.00000000000E+00  0.45593999997E+02  0.45594000000E+02  0.51100000000E-03 0. -1.
         11   -1    0    0    0    0 -0.00000000000E+00 -0.00000000000E+00 -0.45593999997E+02  0.45594000000E+02  0.51100000000E-03 0.  1.
    9900012    2    1    2    0    0 -0.17936822902E+01 -0.47480519800E+00  0.43361038290E+02  0.47787281368E+02  0.20000047071E+02 0.  0.
        -12    1    1    2    0    0  0.17936822902E+01  0.47480519800E+00 -0.43361038290E+02  0.43400718632E+02  0.00000000000E+00 0.  1.
         11    1    3    3    0    0 -0.78321564101E+01 -0.53281086068E+01  0.28495079329E+02  0.30028335978E+02  0.51100000000E-03 0.  1.
        -11    1    3    3    0    0 -0.75559338571E+00  0.23329432152E+01  0.42192952394E+01  0.48801637255E+01  0.51100000000E-03 0. -1.
        -12    1    3    3    0    0  0.67940675056E+01  0.25203601936E+01  0.10646663722E+02  0.12878781665E+02  0.00000000000E+00 0.  1.
</event>
<event>
 7    1  0.5022032E-011  0.4778728E+02  0.7816164E-02  0.1312668E+00
        -11   -1    0    0    0    0  0.00000000000E+00  0.00000000000E+00  0.45593999997E+02  0.45594000000E+02  0.51100000000E-03 0. -1.
         11   -1    0    0    0    0 -0.00000000000E+00 -0.00000000000E+00 -0.45593999997E+02  0.45594000000E+02  0.51100000000E-03 0.  1.
    9900012    2    1    2    0    0 -0.71409303959E+01 -0.40577620904E+02  0.13641358140E+02  0.47787275846E+02  0.20000021893E+02 0.  0.
        -12    1    1    2    0    0  0.71409303959E+01  0.40577620904E+02 -0.13641358140E+02  0.43400724154E+02  0.00000000000E+00 0.  1.
         11    1    3    3    0    0 -0.42394681376E+01 -0.35550815160E+02  0.18191926474E+02  0.40159429002E+02  0.51100000000E-03 0. -1.
        -11    1    3    3    0    0  0.26501292976E+00 -0.47591966202E+00 -0.65526265033E+00  0.85211547320E+00  0.51100000000E-03 0.  1.
         12    1    3    3    0    0 -0.31664751881E+01 -0.45508860820E+01 -0.38953056837E+01  0.67757313714E+01  0.00000000000E+00 0. -1.
</event>
<event>
 7    1  0.5022032E-011  0.4778727E+02  0.7816164E-02  0.1312668E+00
        -11   -1    0    0    0    0  0.00000000000E+00  0.00000000000E+00  0.45593999997E+02  0.45594000000E+02  0.51100000000E-03 0. -1.
         11   -1    0    0    0    0 -0.00000000000E+00 -0.00000000000E+00 -0.45593999997E+02  0.45594000000E+02  0.51100000000E-03 0.  1.
    9900012    2    1    2    0    0 -0.45066055236E+01  0.22603737955E+02  0.36774787171E+02  0.47787269196E+02  0.19999991571E+02 0.  0.
        -12    1    1    2    0    0  0.45066055236E+01 -0.22603737955E+02 -0.36774787171E+02  0.43400730804E+02  0.00000000000E+00 0.  1.
         11    1    3    3    0    0  0.82753109209E+00  0.12071213109E+02  0.15809794203E+02  0.19908505384E+02  0.51100000000E-03 0.  1.
        -11    1    3    3    0    0 -0.22539919631E+01  0.13601263929E+02  0.13862136625E+02  0.19550797741E+02  0.51100000000E-03 0. -1.
        -12    1    3    3    0    0 -0.30801446527E+01 -0.30687390831E+01  0.71028563432E+01  0.83279660706E+01  0.00000000000E+00 0.  1.
</event>
<event>
 7    1  0.5022032E-011  0.4778722E+02  0.7816164E-02  0.1312668E+00
        -11   -1    0    0    0    0  0.00000000000E+00  0.00000000000E+00  0.45593999997E+02  0.45594000000E+02  0.51100000000E-03 0.  1.
         11   -1    0    0    0    0 -0.00000000000E+00 -0.00000000000E+00 -0.45593999997E+02  0.45594000000E+02  0.51100000000E-03 0. -1.
    9900012    2    1    2    0    0  0.41017810789E+02  0.11951412254E+02 -0.76374445869E+01  0.47787221014E+02  0.19999771891E+02 0.  0.
        -12    1    1    2    0    0 -0.41017810789E+02 -0.11951412254E+02  0.76374445869E+01  0.43400778986E+02  0.00000000000E+00 0.  1.
         11    1    3    3    0    0  0.62259957637E+00 -0.15240886065E+01 -0.13278273194E+01  0.21150891150E+01  0.51100000000E-03 0. -1.
        -11    1    3    3    0    0  0.98542697388E+01  0.62445083210E+01 -0.81529660471E+01  0.14232757002E+02  0.51100000000E-03 0.  1.
         12    1    3    3    0    0  0.30540941474E+02  0.72309925393E+01  0.18433487796E+01  0.31439374897E+02  0.00000000000E+00 0. -1.
</event>
<event>
 7    1  0.5022032E-011  0.4778726E+02  0.7816164E-02  0.1312668E+00
        -11   -1    0    0    0    0  0.00000000000E+00  0.00000000000E+00  0.45593999997E+02  0.45594000000E+02  0.51100000000E-03 0. -1.
         11   -1    0    0    0    0 -0.00000000000E+00 -0.00000000000E+00 -0.45593999997E+02  0.45594000000E+02  0.51100000000E-03 0.  1.
    9900012    2    1    2    0    0 -0.23583801040E+02  0.61928950764E+01  0.35903707365E+02  0.47787264713E+02  0.19999971130E+02 0.  0.
        -12    1    1    2    0    0  0.23583801040E+02 -0.61928950764E+01 -0.35903707365E+02  0.43400735287E+02  0.00000000000E+00 0.  1.
         11    1    3    3    0    0 -0.55911111683E+01 -0.22925933370E+01  0.68303051779E+01  0.91197355987E+01  0.51100000000E-03 0. -1.
        -11    1    3    3    0    0 -0.70225736907E+01  0.65400934144E+01  0.25955282384E+01  0.99411332457E+01  0.51100000000E-03 0.  1.
         12    1    3    3    0    0 -0.10970116181E+02  0.19453949990E+01  0.26477873949E+02  0.28726395868E+02  0.00000000000E+00 0. -1.
</event>
<event>
 7    1  0.5022032E-011  0.4778727E+02  0.7816164E-02  0.1312668E+00
        -11   -1    0    0    0    0  0.00000000000E+00  0.00000000000E+00  0.45593999997E+02  0.45594000000E+02  0.51100000000E-03 0. -1.
         11   -1    0    0    0    0 -0.00000000000E+00 -0.00000000000E+00 -0.45593999997E+02  0.45594000000E+02  0.51100000000E-03 0.  1.
    9900012    2    1    2    0    0 -0.18685429544E+02 -0.38481781988E+02 -0.73232889819E+01  0.47787269779E+02  0.19999994229E+02 0.  0.
         12    1    1    2    0    0  0.18685429544E+02  0.38481781988E+02  0.73232889819E+01  0.43400730221E+02  0.00000000000E+00 0. -1.
         11    1    3    3    0    0 -0.28063157763E+01 -0.29660279555E+01  0.32591961065E+01  0.52244702689E+01  0.51100000000E-03 0. -1.
        -11    1    3    3    0    0 -0.32683530841E+01 -0.27741937333E+01 -0.57095470262E+01  0.71398326491E+01  0.51100000000E-03 0.  1.
         12    1    3    3    0    0 -0.12610760684E+02 -0.32741560299E+02 -0.48729380621E+01  0.35422966861E+02  0.00000000000E+00 0. -1.
</event>
<event>
 7    1  0.5022032E-011  0.4778726E+02  0.7816164E-02  0.1312668E+00
        -11   -1    0    0    0    0  0.00000000000E+00  0.00000000000E+00  0.45593999997E+02  0.45594000000E+02  0.51100000000E-03 0.  1.
         11   -1    0    0    0    0 -0.00000000000E+00 -0.00000000000E+00 -0.45593999997E+02  0.45594000000E+02  0.51100000000E-03 0. -1.
    9900012    2    1    2    0    0 -0.60703974994E+01  0.42229153322E+02 -0.79669847712E+01  0.47787263112E+02  0.19999963832E+02 0.  0.
         12    1    1    2    0    0  0.60703974994E+01 -0.42229153322E+02  0.79669847712E+01  0.43400736888E+02  0.00000000000E+00 0. -1.
         11    1    3    3    0    0  0.39410502637E+00  0.29239348703E+01  0.45111300689E+01  0.53902698130E+01  0.51100000000E-03 0. -1.
        -11    1    3    3    0    0 -0.32229053793E+01  0.11453058560E+02 -0.50799600563E+00  0.11908724939E+02  0.51100000000E-03 0.  1.
        -12    1    3    3    0    0 -0.32415971464E+01  0.27852159891E+02 -0.11970118834E+02  0.30488268360E+02  0.00000000000E+00 0.  1.
</event>
<event>
 7    1  0.5022032E-011  0.4778727E+02  0.7816164E-02  0.1312668E+00
        -11   -1    0    0    0    0  0.00000000000E+00  0.00000000000E+00  0.45593999997E+02  0.45594000000E+02  0.51100000000E-03 0. -1.
         11   -1    0    0    0    0 -0.00000000000E+00 -0.00000000000E+00 -0.45593999997E+02  0.45594000000E+02  0.51100000000E-03 0.  1.
    9900012    2    1    2    0    0 -0.85345838486E+01 -0.23255313640E+01  0.42489722087E+02  0.47787266128E+02  0.19999977582E+02 0.  0.
        -12    1    1    2    0    0  0.85345838486E+01  0.23255313640E+01 -0.42489722087E+02  0.43400733872E+02  0.00000000000E+00 0.  1.
         11    1    3    3    0    0 -0.96952506435E+01 -0.26100420343E+01  0.16449745803E+02  0.19271853613E+02  0.51100000000E-03 0. -1.
        -11    1    3    3    0    0 -0.19338970229E+01 -0.49189210800E+01  0.90672690081E+01  0.10495289887E+02  0.51100000000E-03 0.  1.
        -12    1    3    3    0    0  0.30945638178E+01  0.52034317503E+01  0.16972707277E+02  0.18020122627E+02  0.00000000000E+00 0.  1.
</event>
<event>
 7    1  0.5022032E-011  0.4778727E+02  0.7816164E-02  0.1312668E+00
        -11   -1    0    0    0    0  0.00000000000E+00  0.00000000000E+00  0.45593999997E+02  0.45594000000E+02  0.51100000000E-03 0. -1.
         11   -1    0    0    0    0 -0.00000000000E+00 -0.00000000000E+00 -0.45593999997E+02  0.45594000000E+02  0.51100000000E-03 0.  1.
    9900012    2    1    2    0    0  0.85783100358E+01 -0.18317140348E+01  0.42505064008E+02  0.47787273673E+02  0.20000011986E+02 0.  0.
        -12    1    1    2    0    0 -0.85783100358E+01  0.18317140348E+01 -0.42505064008E+02  0.43400726327E+02  0.00000000000E+00 0.  1.
         11    1    3    3    0    0  0.82195740206E-01 -0.22601331560E+01  0.46068401350E+01  0.51320497185E+01  0.51100000000E-03 0.  1.
        -11    1    3    3    0    0  0.49166878674E+01 -0.22977757331E+01  0.37765942081E+02  0.38153898549E+02  0.51100000000E-03 0. -1.
        -12    1    3    3    0    0  0.35794264282E+01  0.27261948543E+01  0.13228179147E+00  0.45013254060E+01  0.00000000000E+00 0.  1.
</event>
<event>
 7    1  0.5022032E-011  0.4778727E+02  0.7816164E-02  0.1312668E+00
        -11   -1    0    0    0    0  0.00000000000E+00  0.00000000000E+00  0.45593999997E+02  0.45594000000E+02  0.51100000000E-03 0.  1.
         11   -1    0    0    0    0 -0.00000000000E+00 -0.00000000000E+00 -0.45593999997E+02  0.45594000000E+02  0.51100000000E-03 0. -1.
    9900012    2    1    2    0    0 -0.31712275136E+02 -0.23185064091E+02  0.18450137976E+02  0.47787272097E+02  0.20000004799E+02 0.  0.
        -12    1    1    2    0    0  0.31712275136E+02  0.23185064091E+02 -0.18450137976E+02  0.43400727903E+02  0.00000000000E+00 0.  1.
         11    1    3    3    0    0 -0.20181604249E+02 -0.21828121741E+02  0.74608779152E+01  0.30650101930E+02  0.51100000000E-03 0. -1.
        -11    1    3    3    0    0 -0.69015664408E+01 -0.38386227851E+01  0.65494047578E+01  0.10259695276E+02  0.51100000000E-03 0.  1.
        -12    1    3    3    0    0 -0.46291044461E+01  0.24816804353E+01  0.44398553031E+01  0.68774748905E+01  0.00000000000E+00 0.  1.
</event>
<event>
 7    1  0.5022032E-011  0.4778727E+02  0.7816164E-02  0.1312668E+00
        -11   -1    0    0    0    0  0.00000000000E+00  0.00000000000E+00  0.45593999997E+02  0.45594000000E+02  0.51100000000E-03 0. -1.
         11   -1    0    0    0    0 -0.00000000000E+00 -0.00000000000E+00 -0.45593999997E+02  0.45594000000E+02  0.51100000000E-03 0.  1.
    9900012    2    1    2    0    0 -0.66459482958E+01  0.37065356942E+02 -0.21578094928E+02  0.47787268500E+02  0.19999988398E+02 0.  0.
         12    1    1    2    0    0  0.66459482958E+01 -0.37065356942E+02  0.21578094928E+02  0.43400731500E+02  0.00000000000E+00 0. -1.
         11    1    3    3    0    0  0.87618699001E+00  0.71023329719E+01 -0.36478527763E+01  0.80322890525E+01  0.51100000000E-03 0. -1.
        -11    1    3    3    0    0 -0.12561472955E+02  0.16853166134E+02 -0.13687052941E+02  0.25082966930E+02  0.51100000000E-03 0.  1.
        -12    1    3    3    0    0  0.50393376687E+01  0.13109857837E+02 -0.42431892105E+01  0.14672012517E+02  0.00000000000E+00 0.  1.
</event>
<event>
 7    1  0.5022032E-011  0.4778727E+02  0.7816164E-02  0.1312668E+00
        -11   -1    0    0    0    0  0.00000000000E+00  0.00000000000E+00  0.45593999997E+02  0.45594000000E+02  0.51100000000E-03 0.  1.
         11   -1    0    0    0    0 -0.00000000000E+00 -0.00000000000E+00 -0.45593999997E+02  0.45594000000E+02  0.51100000000E-03 0. -1.
    9900012    2    1    2    0    0  0.26748139291E+02 -0.31918021495E+02  0.12222929301E+02  0.47787273596E+02  0.20000011634E+02 0.  0.
        -12    1    1    2    0    0 -0.26748139291E+02  0.31918021495E+02 -0.12222929301E+02  0.43400726404E+02  0.00000000000E+00 0.  1.
         11    1    3    3    0    0  0.37330632057E+01 -0.61931475551E+01  0.17099684867E+01  0.74306682084E+01  0.51100000000E-03 0. -1.
        -11    1    3    3    0    0  0.18612352504E+02 -0.25636765469E+02  0.32287358932E+01  0.31844750670E+02  0.51100000000E-03 0.  1.
        -12    1    3    3    0    0  0.44027235816E+01 -0.88108470242E-01  0.72842249212E+01  0.85118547181E+01  0.00000000000E+00 0.  1.
</event>
<event>
 7    1  0.5022032E-011  0.4778727E+02  0.7816164E-02  0.1312668E+00
        -11   -1    0    0    0    0  0.00000000000E+00  0.00000000000E+00  0.45593999997E+02  0.45594000000E+02  0.51100000000E-03 0. -1.
         11   -1    0    0    0    0 -0.00000000000E+00 -0.00000000000E+00 -0.45593999997E+02  0.45594000000E+02  0.51100000000E-03 0.  1.
    9900012    2    1    2    0    0 -0.41624909600E+01  0.24686319092E+01 -0.43130065122E+02  0.47787274293E+02  0.20000014810E+02 0.  0.
         12    1    1    2    0    0  0.41624909600E+01 -0.24686319092E+01  0.43130065122E+02  0.43400725707E+02  0.00000000000E+00 0. -1.
         11    1    3    3    0    0  0.33394804563E+01  0.74559041413E+01 -0.29734471945E+02  0.30836365842E+02  0.51100000000E-03 0. -1.
        -11    1    3    3    0    0 -0.72908508430E+00 -0.17112774895E+01 -0.64451868554E+01  0.67082389319E+01  0.51100000000E-03 0.  1.
         12    1    3    3    0    0 -0.67728863320E+01 -0.32759947426E+01 -0.69504063220E+01  0.10242669518E+02  0.00000000000E+00 0. -1.
</event>
<event>
 7    1  0.5022032E-011  0.4778727E+02  0.7816164E-02  0.1312668E+00
        -11   -1    0    0    0    0  0.00000000000E+00  0.00000000000E+00  0.45593999997E+02  0.45594000000E+02  0.51100000000E-03 0. -1.
         11   -1    0    0    0    0 -0.00000000000E+00 -0.00000000000E+00 -0.45593999997E+02  0.45594000000E+02  0.51100000000E-03 0.  1.
    9900012    2    1    2    0    0  0.31914139820E+02 -0.11620382892E+02  0.27019950448E+02  0.47787270268E+02  0.19999996461E+02 0.  0.
        -12    1    1    2    0    0 -0.31914139820E+02  0.11620382892E+02 -0.27019950448E+02  0.43400729732E+02  0.00000000000E+00 0.  1.
         11    1    3    3    0    0  0.56148519885E+01 -0.61961995612E+01  0.16814509801E+02  0.18778902842E+02  0.51100000000E-03 0. -1.
        -11    1    3    3    0    0  0.15851236077E+01  0.63442216263E+00  0.59595852188E+00  0.18083902104E+01  0.51100000000E-03 0.  1.
        -12    1    3    3    0    0  0.24714164224E+02 -0.60586054938E+01  0.96094821255E+01  0.27199977215E+02  0.00000000000E+00 0.  1.
</event>
<event>
 7    1  0.5022032E-011  0.4778728E+02  0.7816164E-02  0.1312668E+00
        -11   -1    0    0    0    0  0.00000000000E+00  0.00000000000E+00  0.45593999997E+02  0.45594000000E+02  0.51100000000E-03 0. -1.
         11   -1    0    0    0    0 -0.00000000000E+00 -0.00000000000E+00 -0.45593999997E+02  0.45594000000E+02  0.51100000000E-03 0.  1.
    9900012    2    1    2    0    0  0.33158522854E+02 -0.80758516815E+01 -0.26812605050E+02  0.47787276414E+02  0.20000024480E+02 0.  0.
         12    1    1    2    0    0 -0.33158522854E+02  0.80758516815E+01  0.26812605050E+02  0.43400723586E+02  0.00000000000E+00 0. -1.
         11    1    3    3    0    0  0.78846224164E+01 -0.19003417886E+01 -0.14607054804E+00  0.81117141486E+01  0.51100000000E-03 0. -1.
        -11    1    3    3    0    0  0.16496263127E+02  0.25074167070E+01 -0.12280322185E+02  0.20717628941E+02  0.51100000000E-03 0.  1.
        -12    1    3    3    0    0  0.87776373106E+01 -0.86829266000E+01 -0.14386212316E+02  0.18957933324E+02  0.00000000000E+00 0.  1.
</event>
<event>
 7    1  0.5022032E-011  0.4778728E+02  0.7816164E-02  0.1312668E+00
        -11   -1    0    0    0    0  0.00000000000E+00  0.00000000000E+00  0.45593999997E+02  0.45594000000E+02  0.51100000000E-03 0. -1.
         11   -1    0    0    0    0 -0.00000000000E+00 -0.00000000000E+00 -0.45593999997E+02  0.45594000000E+02  0.51100000000E-03 0.  1.
    9900012    2    1    2    0    0 -0.89458868201E+01  0.86105342625E+01  0.41586689209E+02  0.47787275229E+02  0.20000019081E+02 0.  0.
        -12    1    1    2    0    0  0.89458868201E+01 -0.86105342625E+01 -0.41586689209E+02  0.43400724771E+02  0.00000000000E+00 0.  1.
         11    1    3    3    0    0 -0.21708812299E+01  0.73605030406E+00  0.26109604377E+02  0.26210035032E+02  0.51100000000E-03 0. -1.
        -11    1    3    3    0    0 -0.23485642522E+01  0.98630769378E+01  0.11215657363E+02  0.15119094255E+02  0.51100000000E-03 0.  1.
         12    1    3    3    0    0 -0.44264413381E+01 -0.19885929794E+01  0.42614274680E+01  0.64581459431E+01  0.00000000000E+00 0. -1.
</event>
<event>
 7    1  0.5022032E-011  0.4778727E+02  0.7816164E-02  0.1312668E+00
        -11   -1    0    0    0    0  0.00000000000E+00  0.00000000000E+00  0.45593999997E+02  0.45594000000E+02  0.51100000000E-03 0. -1.
         11   -1    0    0    0    0 -0.00000000000E+00 -0.00000000000E+00 -0.45593999997E+02  0.45594000000E+02  0.51100000000E-03 0.  1.
    9900012    2    1    2    0    0 -0.18202230207E+02  0.17304653534E+02 -0.35395636242E+02  0.47787270934E+02  0.19999999497E+02 0.  0.
         12    1    1    2    0    0  0.18202230207E+02 -0.17304653534E+02  0.35395636242E+02  0.43400729066E+02  0.00000000000E+00 0. -1.
         11    1    3    3    0    0  0.95109014747E+00 -0.22464846267E+01 -0.74978084594E+00  0.25521436529E+01  0.51100000000E-03 0. -1.
        -11    1    3    3    0    0 -0.23242733746E+01  0.85412338266E+01 -0.12550428997E+02  0.15358000856E+02  0.51100000000E-03 0.  1.
         12    1    3    3    0    0 -0.16829046980E+02  0.11009904334E+02 -0.22095426399E+02  0.29877126426E+02  0.00000000000E+00 0. -1.
</event>
<event>
 7    1  0.5931820E-011  0.4778726E+02  0.7816164E-02  0.1312668E+00
        -11   -1    0    0    0    0  0.00000000000E+00  0.00000000000E+00  0.45593999997E+02  0.45594000000E+02  0.51100000000E-03 0. -1.
         11   -1    0    0    0    0 -0.00000000000E+00 -0.00000000000E+00 -0.45593999997E+02  0.45594000000E+02  0.51100000000E-03 0.  1.
    9900012    2    1    2    0    0  0.24425944581E+02  0.33070653181E+02 -0.13904292951E+02  0.47787259995E+02  0.19999949620E+02 0.  0.
         12    1    1    2    0    0 -0.24425944581E+02 -0.33070653181E+02  0.13904292951E+02  0.43400740005E+02  0.00000000000E+00 0. -1.
         11    1    3    3    0    0  0.49479095826E+01 -0.30615267978E+00  0.99668554903E+00  0.50565720647E+01  0.51100000000E-03 0. -1.
        -11    1    3    3    0    0  0.39521465596E+01  0.15505160595E+01 -0.35808769655E+01  0.55539393751E+01  0.51100000000E-03 0.  1.
        -12    1    3    3    0    0  0.15525888439E+02  0.31826289802E+02 -0.11320101535E+02  0.37176748555E+02  0.00000000000E+00 0.  1.
</event>
<event>
 7    1  0.5022032E-011  0.4778728E+02  0.7816164E-02  0.1312668E+00
        -11   -1    0    0    0    0  0.00000000000E+00  0.00000000000E+00  0.45593999997E+02  0.45594000000E+02  0.51100000000E-03 0. -1.
         11   -1    0    0    0    0 -0.00000000000E+00 -0.00000000000E+00 -0.45593999997E+02  0.45594000000E+02  0.51100000000E-03 0.  1.
    9900012    2    1    2    0    0 -0.70740844544E+01  0.18689891125E+01  0.42779516488E+02  0.47787276249E+02  0.20000023727E+02 0.  0.
        -12    1    1    2    0    0  0.70740844544E+01 -0.18689891125E+01 -0.42779516488E+02  0.43400723751E+02  0.00000000000E+00 0.  1.
         11    1    3    3    0    0  0.39365703514E+00  0.38578410728E+01  0.20016931212E+02  0.20389100986E+02  0.51100000000E-03 0. -1.
        -11    1    3    3    0    0 -0.97240668306E+01  0.25281259739E+01  0.13250164765E+02  0.16628763130E+02  0.51100000000E-03 0.  1.
         12    1    3    3    0    0  0.22563253411E+01 -0.45169779342E+01  0.95124205120E+01  0.10769412133E+02  0.00000000000E+00 0. -1.
</event>
<event>
 7    1  0.6914320E-011  0.4778727E+02  0.7816164E-02  0.1312668E+00
        -11   -1    0    0    0    0  0.00000000000E+00  0.00000000000E+00  0.45593999997E+02  0.45594000000E+02  0.51100000000E-03 0. -1.
         11   -1    0    0    0    0 -0.00000000000E+00 -0.00000000000E+00 -0.45593999997E+02  0.45594000000E+02  0.51100000000E-03 0.  1.
    9900012    2    1    2    0    0  0.31501136441E+02 -0.13410844694E+02 -0.26673044419E+02  0.47787266699E+02  0.19999980187E+02 0.  0.
         12    1    1    2    0    0 -0.31501136441E+02  0.13410844694E+02  0.26673044419E+02  0.43400733301E+02  0.00000000000E+00 0. -1.
         11    1    3    3    0    0  0.22856821073E+01 -0.36406438254E+01 -0.25826407336E+00  0.43064290023E+01  0.51100000000E-03 0.  1.
        -11    1    3    3    0    0 -0.18636730507E+01 -0.96051347522E-01 -0.67885049997E+00  0.19857848231E+01  0.51100000000E-03 0. -1.
        -12    1    3    3    0    0  0.31079127385E+02 -0.96741495214E+01 -0.25735929845E+02  0.41495052873E+02  0.00000000000E+00 0.  1.
</event>
<event>
 7    1  0.5022032E-011  0.4778727E+02  0.7816164E-02  0.1312668E+00
        -11   -1    0    0    0    0  0.00000000000E+00  0.00000000000E+00  0.45593999997E+02  0.45594000000E+02  0.51100000000E-03 0. -1.
         11   -1    0    0    0    0 -0.00000000000E+00 -0.00000000000E+00 -0.45593999997E+02  0.45594000000E+02  0.51100000000E-03 0.  1.
    9900012    2    1    2    0    0 -0.35563239914E+02  0.20561623554E+02 -0.14003536169E+02  0.47787269343E+02  0.19999992242E+02 0.  0.
         12    1    1    2    0    0  0.35563239914E+02 -0.20561623554E+02  0.14003536169E+02  0.43400730657E+02  0.00000000000E+00 0. -1.
         11    1    3    3    0    0 -0.58493983507E+01  0.80186661524E+01 -0.46269901072E+01  0.10950959120E+02  0.51100000000E-03 0. -1.
        -11    1    3    3    0    0 -0.15687432726E+02  0.28370052912E+01 -0.11486727358E+02  0.19649148842E+02  0.51100000000E-03 0.  1.
         12    1    3    3    0    0 -0.14026408837E+02  0.97059521102E+01  0.21101812965E+01  0.17187161381E+02  0.00000000000E+00 0. -1.
</event>
<event>
 7    1  0.5022032E-011  0.4778728E+02  0.7816164E-02  0.1312668E+00
        -11   -1    0    0    0    0  0.00000000000E+00  0.00000000000E+00  0.45593999997E+02  0.45594000000E+02  0.51100000000E-03 0. -1.
         11   -1    0    0    0    0 -0.00000000000E+00 -0.00000000000E+00 -0.45593999997E+02  0.45594000000E+02  0.51100000000E-03 0.  1.
    9900012    2    1    2    0    0  0.24906900889E+02 -0.22106952271E+02 -0.27830771936E+02  0.47787275154E+02  0.20000018736E+02 0.  0.
         12    1    1    2    0    0 -0.24906900889E+02  0.22106952271E+02  0.27830771936E+02  0.43400724846E+02  0.00000000000E+00 0. -1.
         11    1    3    3    0    0  0.14157916283E+02 -0.15161287049E+02 -0.15750138413E+02  0.26045692134E+02  0.51100000000E-03 0.  1.
        -11    1    3    3    0    0  0.88685757057E+01 -0.10678576980E+02 -0.88991997430E+01  0.16488765803E+02  0.51100000000E-03 0. -1.
         12    1    3    3    0    0  0.18804088997E+01  0.37329117572E+01 -0.31814337800E+01  0.52528172169E+01  0.00000000000E+00 0. -1.
</event>
<event>
 7    1  0.5022032E-011  0.4778727E+02  0.7816164E-02  0.1312668E+00
        -11   -1    0    0    0    0  0.00000000000E+00  0.00000000000E+00  0.45593999997E+02  0.45594000000E+02  0.51100000000E-03 0. -1.
         11   -1    0    0    0    0 -0.00000000000E+00 -0.00000000000E+00 -0.45593999997E+02  0.45594000000E+02  0.51100000000E-03 0.  1.
    9900012    2    1    2    0    0 -0.81560081589E+01 -0.83433252074E+01 -0.41803009461E+02  0.47787272534E+02  0.20000006791E+02 0.  0.
         12    1    1    2    0    0  0.81560081589E+01  0.83433252074E+01  0.41803009461E+02  0.43400727466E+02  0.00000000000E+00 0. -1.
         11    1    3    3    0    0 -0.57999716515E+01 -0.38018458353E+01 -0.15278728449E+02  0.16778952476E+02  0.51100000000E-03 0. -1.
        -11    1    3    3    0    0 -0.39849067389E+01 -0.44818976081E+01 -0.18440805026E+01  0.62743542336E+01  0.51100000000E-03 0.  1.
         12    1    3    3    0    0  0.16288702315E+01 -0.59581763976E-01 -0.24680200509E+02  0.24733965824E+02  0.00000000000E+00 0. -1.
</event>
<event>
 7    1  0.5022032E-011  0.4778729E+02  0.7816164E-02  0.1312668E+00
        -11   -1    0    0    0    0  0.00000000000E+00  0.00000000000E+00  0.45593999997E+02  0.45594000000E+02  0.51100000000E-03 0. -1.
         11   -1    0    0    0    0 -0.00000000000E+00 -0.00000000000E+00 -0.45593999997E+02  0.45594000000E+02  0.51100000000E-03 0.  1.
    9900012    2    1    2    0    0  0.38696852274E+02  0.10896406090E+02 -0.16353699079E+02  0.47787291306E+02  0.20000092380E+02 0.  0.
         12    1    1    2    0    0 -0.38696852274E+02 -0.10896406090E+02  0.16353699079E+02  0.43400708694E+02  0.00000000000E+00 0. -1.
         11    1    3    3    0    0  0.44840196025E-01 -0.60103816435E+00  0.12574560812E+01  0.13944366516E+01  0.51100000000E-03 0. -1.
        -11    1    3    3    0    0  0.13840984443E+02  0.84595046464E+01 -0.13408366680E+02  0.21045673344E+02  0.51100000000E-03 0.  1.
         12    1    3    3    0    0  0.24811027635E+02  0.30379396078E+01 -0.42027884800E+01  0.25347181310E+02  0.00000000000E+00 0. -1.
</event>
<event>
 7    1  0.5022032E-011  0.4778727E+02  0.7816164E-02  0.1312668E+00
        -11   -1    0    0    0    0  0.00000000000E+00  0.00000000000E+00  0.45593999997E+02  0.45594000000E+02  0.51100000000E-03 0. -1.
         11   -1    0    0    0    0 -0.00000000000E+00 -0.00000000000E+00 -0.45593999997E+02  0.45594000000E+02  0.51100000000E-03 0.  1.
    9900012    2    1    2    0    0  0.63789596163E+01  0.68488600327E+01 -0.42379537786E+02  0.47787271521E+02  0.20000002174E+02 0.  0.
         12    1    1    2    0    0 -0.63789596163E+01 -0.68488600327E+01  0.42379537786E+02  0.43400728479E+02  0.00000000000E+00 0. -1.
         11    1    3    3    0    0 -0.99665344175E+00 -0.31761738338E+00  0.33597445536E+00  0.10986710067E+01  0.51100000000E-03 0. -1.
        -11    1    3    3    0    0  0.11044003887E+02  0.51304251410E+00 -0.21957395963E+02  0.24583744064E+02  0.51100000000E-03 0.  1.
        -12    1    3    3    0    0 -0.36683908289E+01  0.66534349020E+01 -0.20758116278E+02  0.22104856450E+02  0.00000000000E+00 0.  1.
</event>
<event>
 7    1  0.5022032E-011  0.4778727E+02  0.7816164E-02  0.1312668E+00
        -11   -1    0    0    0    0  0.00000000000E+00  0.00000000000E+00  0.45593999997E+02  0.45594000000E+02  0.51100000000E-03 0.  1.
         11   -1    0    0    0    0 -0.00000000000E+00 -0.00000000000E+00 -0.45593999997E+02  0.45594000000E+02  0.51100000000E-03 0. -1.
    9900012    2    1    2    0    0  0.88581548354E+01  0.40087838701E+02  0.14075558225E+02  0.47787273530E+02  0.20000011331E+02 0.  0.
        -12    1    1    2    0    0 -0.88581548354E+01 -0.40087838701E+02 -0.14075558225E+02  0.43400726470E+02  0.00000000000E+00 0.  1.
         11    1    3    3    0    0  0.46405916641E+01  0.17203019494E+02  0.87792429362E+01  0.19863385348E+02  0.51100000000E-03 0. -1.
        -11    1    3    3    0    0  0.77553522770E+01  0.86467037315E+01  0.63089328594E+01  0.13217927540E+02  0.51100000000E-03 0.  1.
         12    1    3    3    0    0 -0.35377891057E+01  0.14238115476E+02 -0.10126175704E+01  0.14705960642E+02  0.00000000000E+00 0. -1.
</event>
<event>
 7    1  0.5022032E-011  0.4778728E+02  0.7816164E-02  0.1312668E+00
        -11   -1    0    0    0    0  0.00000000000E+00  0.00000000000E+00  0.45593999997E+02  0.45594000000E+02  0.51100000000E-03 0.  1.
         11   -1    0    0    0    0 -0.00000000000E+00 -0.00000000000E+00 -0.45593999997E+02  0.45594000000E+02  0.51100000000E-03 0. -1.
    9900012    2    1    2    0    0 -0.79504172830E+01  0.37234569864E+02 -0.20832675666E+02  0.47787277618E+02  0.20000029970E+02 0.  0.
        -12    1    1    2    0    0  0.79504172830E+01 -0.37234569864E+02  0.20832675666E+02  0.43400722382E+02  0.00000000000E+00 0.  1.
         11    1    3    3    0    0 -0.97657524455E+01  0.19309034423E+02 -0.10648891234E+02  0.24116542371E+02  0.51100000000E-03 0. -1.
        -11    1    3    3    0    0  0.13171286743E+01  0.18133581809E+02 -0.11994391463E+02  0.21781346239E+02  0.51100000000E-03 0.  1.
        -12    1    3    3    0    0  0.49820648829E+00 -0.20804636818E+00  0.18106070317E+01  0.18893890069E+01  0.00000000000E+00 0.  1.
</event>
<event>
 7    1  0.5022032E-011  0.4778727E+02  0.7816164E-02  0.1312668E+00
        -11   -1    0    0    0    0  0.00000000000E+00  0.00000000000E+00  0.45593999997E+02  0.45594000000E+02  0.51100000000E-03 0. -1.
         11   -1    0    0    0    0 -0.00000000000E+00 -0.00000000000E+00 -0.45593999997E+02  0.45594000000E+02  0.51100000000E-03 0.  1.
    9900012    2    1    2    0    0 -0.20450861766E+02 -0.32159545962E+02  0.20764140664E+02  0.47787266354E+02  0.19999978616E+02 0.  0.
        -12    1    1    2    0    0  0.20450861766E+02  0.32159545962E+02 -0.20764140664E+02  0.43400733646E+02  0.00000000000E+00 0.  1.
         11    1    3    3    0    0 -0.54048249664E+01 -0.24695960067E+01  0.73287102929E+00  0.59873314223E+01  0.51100000000E-03 0. -1.
        -11    1    3    3    0    0 -0.43089845432E+01 -0.11043618965E+01  0.76509556000E+01  0.88500895389E+01  0.51100000000E-03 0.  1.
         12    1    3    3    0    0 -0.10737052257E+02 -0.28585588059E+02  0.12380314034E+02  0.32949845393E+02  0.00000000000E+00 0. -1.
</event>
<event>
 7    1  0.5022032E-011  0.4778727E+02  0.7816164E-02  0.1312668E+00
        -11   -1    0    0    0    0  0.00000000000E+00  0.00000000000E+00  0.45593999997E+02  0.45594000000E+02  0.51100000000E-03 0. -1.
         11   -1    0    0    0    0 -0.00000000000E+00 -0.00000000000E+00 -0.45593999997E+02  0.45594000000E+02  0.51100000000E-03 0.  1.
    9900012    2    1    2    0    0 -0.68610259530E+01 -0.13090210697E+02  0.40806813854E+02  0.47787270166E+02  0.19999995994E+02 0.  0.
        -12    1    1    2    0    0  0.68610259530E+01  0.13090210697E+02 -0.40806813854E+02  0.43400729834E+02  0.00000000000E+00 0.  1.
         11    1    3    3    0    0  0.38710543752E+01 -0.16786043161E+01  0.60771817732E+01  0.73983047377E+01  0.51100000000E-03 0. -1.
        -11    1    3    3    0    0 -0.32750730893E+01  0.66774725047E+00  0.56155092515E+00  0.33892963625E+01  0.51100000000E-03 0.  1.
        -12    1    3    3    0    0 -0.74570072390E+01 -0.12079353632E+02  0.34168081156E+02  0.36999669066E+02  0.00000000000E+00 0.  1.
</event>
<event>
 7    1  0.5022032E-011  0.4778727E+02  0.7816164E-02  0.1312668E+00
        -11   -1    0    0    0    0  0.00000000000E+00  0.00000000000E+00  0.45593999997E+02  0.45594000000E+02  0.51100000000E-03 0. -1.
         11   -1    0    0    0    0 -0.00000000000E+00 -0.00000000000E+00 -0.45593999997E+02  0.45594000000E+02  0.51100000000E-03 0.  1.
    9900012    2    1    2    0    0 -0.35425385378E+01  0.83348238584E+01  0.42445311234E+02  0.47787270584E+02  0.19999997902E+02 0.  0.
        -12    1    1    2    0    0  0.35425385378E+01 -0.83348238584E+01 -0.42445311234E+02  0.43400729416E+02  0.00000000000E+00 0.  1.
         11    1    3    3    0    0  0.37935928322E+01  0.49484158700E+01  0.99571740285E+01  0.11748339504E+02  0.51100000000E-03 0. -1.
        -11    1    3    3    0    0  0.33280870978E+01 -0.48118864457E+00  0.32469230181E+01  0.46744214176E+01  0.51100000000E-03 0.  1.
        -12    1    3    3    0    0 -0.10664218468E+02  0.38675966330E+01  0.29241214188E+02  0.31364509663E+02  0.00000000000E+00 0.  1.
</event>
<event>
 7    1  0.5022032E-011  0.4778727E+02  0.7816164E-02  0.1312668E+00
        -11   -1    0    0    0    0  0.00000000000E+00  0.00000000000E+00  0.45593999997E+02  0.45594000000E+02  0.51100000000E-03 0. -1.
         11   -1    0    0    0    0 -0.00000000000E+00 -0.00000000000E+00 -0.45593999997E+02  0.45594000000E+02  0.51100000000E-03 0.  1.
    9900012    2    1    2    0    0 -0.89937580335E+01  0.29571574937E+02 -0.30467320203E+02  0.47787270419E+02  0.19999997149E+02 0.  0.
         12    1    1    2    0    0  0.89937580335E+01 -0.29571574937E+02  0.30467320203E+02  0.43400729581E+02  0.00000000000E+00 0. -1.
         11    1    3    3    0    0 -0.53072046898E+01  0.78801986912E+01 -0.61297866238E+01  0.11306557272E+02  0.51100000000E-03 0.  1.
        -11    1    3    3    0    0  0.39638869507E+01  0.12601273927E+02 -0.57201820432E+01  0.14395311293E+02  0.51100000000E-03 0. -1.
        -12    1    3    3    0    0 -0.76504402943E+01  0.90901023186E+01 -0.18617351536E+02  0.22085401854E+02  0.00000000000E+00 0.  1.
</event>
<event>
 7    1  0.5022032E-011  0.4778727E+02  0.7816164E-02  0.1312668E+00
        -11   -1    0    0    0    0  0.00000000000E+00  0.00000000000E+00  0.45593999997E+02  0.45594000000E+02  0.51100000000E-03 0. -1.
         11   -1    0    0    0    0 -0.00000000000E+00 -0.00000000000E+00 -0.45593999997E+02  0.45594000000E+02  0.51100000000E-03 0.  1.
    9900012    2    1    2    0    0  0.20443133808E+01  0.34817963307E+02 -0.25829315152E+02  0.47787270660E+02  0.19999998248E+02 0.  0.
         12    1    1    2    0    0 -0.20443133808E+01 -0.34817963307E+02  0.25829315152E+02  0.43400729340E+02  0.00000000000E+00 0. -1.
         11    1    3    3    0    0  0.35584925044E+01 -0.13378093944E+01 -0.11262707757E+01  0.39649828500E+01  0.51100000000E-03 0. -1.
        -11    1    3    3    0    0 -0.14152806155E-01  0.24775058276E+01 -0.14801700823E+01  0.28860248027E+01  0.51100000000E-03 0.  1.
         12    1    3    3    0    0 -0.15000263175E+01  0.33678266873E+02 -0.23222874294E+02  0.40936263007E+02  0.00000000000E+00 0. -1.
</event>
<event>
 7    1  0.5022032E-011  0.4778727E+02  0.7816164E-02  0.1312668E+00
        -11   -1    0    0    0    0  0.00000000000E+00  0.00000000000E+00  0.45593999997E+02  0.45594000000E+02  0.51100000000E-03 0. -1.
         11   -1    0    0    0    0 -0.00000000000E+00 -0.00000000000E+00 -0.45593999997E+02  0.45594000000E+02  0.51100000000E-03 0.  1.
    9900012    2    1    2    0    0  0.81633049556E+00  0.17338849680E+02 -0.39778399328E+02  0.47787272393E+02  0.20000006149E+02 0.  0.
         12    1    1    2    0    0 -0.81633049556E+00 -0.17338849680E+02  0.39778399328E+02  0.43400727607E+02  0.00000000000E+00 0. -1.
         11    1    3    3    0    0 -0.11095942629E+01  0.21745123998E+00 -0.20324871594E+02  0.20356298535E+02  0.51100000000E-03 0. -1.
        -11    1    3    3    0    0 -0.14248716377E+01  0.12501555257E+01  0.24709186651E+00  0.19115968911E+01  0.51100000000E-03 0.  1.
        -12    1    3    3    0    0  0.33507963961E+01  0.15871242914E+02 -0.19700619600E+02  0.25519376967E+02  0.00000000000E+00 0.  1.
</event>
<event>
 7    1  0.5022032E-011  0.4778727E+02  0.7816164E-02  0.1312668E+00
        -11   -1    0    0    0    0  0.00000000000E+00  0.00000000000E+00  0.45593999997E+02  0.45594000000E+02  0.51100000000E-03 0. -1.
         11   -1    0    0    0    0 -0.00000000000E+00 -0.00000000000E+00 -0.45593999997E+02  0.45594000000E+02  0.51100000000E-03 0.  1.
    9900012    2    1    2    0    0 -0.26051612455E+01  0.33801032547E+02 -0.27098462623E+02  0.47787270249E+02  0.19999996374E+02 0.  0.
         12    1    1    2    0    0  0.26051612455E+01 -0.33801032547E+02  0.27098462623E+02  0.43400729751E+02  0.00000000000E+00 0. -1.
         11    1    3    3    0    0 -0.41140528848E+01  0.16406757205E+02 -0.20318998927E+02  0.26438018662E+02  0.51100000000E-03 0.  1.
        -11    1    3    3    0    0 -0.41781002097E+01  0.48533317642E+01 -0.13339991600E+01  0.65414757200E+01  0.51100000000E-03 0. -1.
         12    1    3    3    0    0  0.56869918489E+01  0.12540943577E+02 -0.54454645363E+01  0.14807775867E+02  0.00000000000E+00 0. -1.
</event>
<event>
 7    1  0.5022032E-011  0.4778727E+02  0.7816164E-02  0.1312668E+00
        -11   -1    0    0    0    0  0.00000000000E+00  0.00000000000E+00  0.45593999997E+02  0.45594000000E+02  0.51100000000E-03 0. -1.
         11   -1    0    0    0    0 -0.00000000000E+00 -0.00000000000E+00 -0.45593999997E+02  0.45594000000E+02  0.51100000000E-03 0.  1.
    9900012    2    1    2    0    0  0.20782369244E+02  0.28523279396E+02 -0.25261415326E+02  0.47787269094E+02  0.19999991105E+02 0.  0.
         12    1    1    2    0    0 -0.20782369244E+02 -0.28523279396E+02  0.25261415326E+02  0.43400730906E+02  0.00000000000E+00 0. -1.
         11    1    3    3    0    0  0.18130319477E+01  0.27585392359E+01 -0.10369221192E+02  0.10881974635E+02  0.51100000000E-03 0. -1.
        -11    1    3    3    0    0  0.77688484152E+01  0.12092935939E+02 -0.12541423257E+02  0.19075675686E+02  0.51100000000E-03 0.  1.
        -12    1    3    3    0    0  0.11200488881E+02  0.13671804221E+02 -0.23507708774E+01  0.17829618772E+02  0.00000000000E+00 0.  1.
</event>
<event>
 7    1  0.5022032E-011  0.4778727E+02  0.7816164E-02  0.1312668E+00
        -11   -1    0    0    0    0  0.00000000000E+00  0.00000000000E+00  0.45593999997E+02  0.45594000000E+02  0.51100000000E-03 0. -1.
         11   -1    0    0    0    0 -0.00000000000E+00 -0.00000000000E+00 -0.45593999997E+02  0.45594000000E+02  0.51100000000E-03 0.  1.
    9900012    2    1    2    0    0  0.28914617799E+02 -0.11497371442E+02  0.30255226012E+02  0.47787269896E+02  0.19999994764E+02 0.  0.
        -12    1    1    2    0    0 -0.28914617799E+02  0.11497371442E+02 -0.30255226012E+02  0.43400730104E+02  0.00000000000E+00 0.  1.
         11    1    3    3    0    0  0.67415357008E+01 -0.10366853111E+02  0.16835946291E+02  0.20889447930E+02  0.51100000000E-03 0. -1.
        -11    1    3    3    0    0  0.67551214377E+00  0.12030537658E+01  0.20395764511E+01  0.24624230710E+01  0.51100000000E-03 0.  1.
        -12    1    3    3    0    0  0.21497569954E+02 -0.23335720975E+01  0.11379703270E+02  0.24435398895E+02  0.00000000000E+00 0.  1.
</event>
<event>
 7    1  0.5022032E-011  0.4778727E+02  0.7816164E-02  0.1312668E+00
        -11   -1    0    0    0    0  0.00000000000E+00  0.00000000000E+00  0.45593999997E+02  0.45594000000E+02  0.51100000000E-03 0. -1.
         11   -1    0    0    0    0 -0.00000000000E+00 -0.00000000000E+00 -0.45593999997E+02  0.45594000000E+02  0.51100000000E-03 0.  1.
    9900012    2    1    2    0    0  0.54350614692E+01  0.83373873876E+01  0.42244191651E+02  0.47787266713E+02  0.19999980252E+02 0.  0.
        -12    1    1    2    0    0 -0.54350614692E+01 -0.83373873876E+01 -0.42244191651E+02  0.43400733287E+02  0.00000000000E+00 0.  1.
         11    1    3    3    0    0 -0.27365207598E+00  0.22305403895E+01  0.69855519410E+01  0.73381286490E+01  0.51100000000E-03 0. -1.
        -11    1    3    3    0    0 -0.25211496811E+01 -0.24856776341E+01  0.33720430640E+00  0.35564724125E+01  0.51100000000E-03 0.  1.
         12    1    3    3    0    0  0.82298632262E+01  0.85925246322E+01  0.34921435403E+02  0.36892665652E+02  0.00000000000E+00 0. -1.
</event>
<event>
 7    1  0.5022032E-011  0.4778728E+02  0.7816164E-02  0.1312668E+00
        -11   -1    0    0    0    0  0.00000000000E+00  0.00000000000E+00  0.45593999997E+02  0.45594000000E+02  0.51100000000E-03 0. -1.
         11   -1    0    0    0    0 -0.00000000000E+00 -0.00000000000E+00 -0.45593999997E+02  0.45594000000E+02  0.51100000000E-03 0.  1.
    9900012    2    1    2    0    0  0.18073932425E+02 -0.20894903375E+02 -0.33471761202E+02  0.47787276292E+02  0.20000023928E+02 0.  0.
         12    1    1    2    0    0 -0.18073932425E+02  0.20894903375E+02  0.33471761202E+02  0.43400723708E+02  0.00000000000E+00 0. -1.
         11    1    3    3    0    0 -0.95670022091E+00  0.20853536460E+01  0.50970782461E+00  0.23502717863E+01  0.51100000000E-03 0. -1.
        -11    1    3    3    0    0  0.31457235084E+01 -0.41068501855E+01 -0.36038557552E+01  0.63047261164E+01  0.51100000000E-03 0.  1.
        -12    1    3    3    0    0  0.15884909138E+02 -0.18873406836E+02 -0.30377613272E+02  0.39132278390E+02  0.00000000000E+00 0.  1.
</event>
<event>
 7    1  0.5022032E-011  0.4778727E+02  0.7816164E-02  0.1312668E+00
        -11   -1    0    0    0    0  0.00000000000E+00  0.00000000000E+00  0.45593999997E+02  0.45594000000E+02  0.51100000000E-03 0. -1.
         11   -1    0    0    0    0 -0.00000000000E+00 -0.00000000000E+00 -0.45593999997E+02  0.45594000000E+02  0.51100000000E-03 0.  1.
    9900012    2    1    2    0    0  0.13477735225E+02 -0.17156135263E+02 -0.37518537468E+02  0.47787274457E+02  0.20000015558E+02 0.  0.
         12    1    1    2    0    0 -0.13477735225E+02  0.17156135263E+02  0.37518537468E+02  0.43400725543E+02  0.00000000000E+00 0. -1.
         11    1    3    3    0    0  0.11471937312E+02 -0.77945832569E+01 -0.80180869433E+01  0.16020318110E+02  0.51100000000E-03 0. -1.
        -11    1    3    3    0    0 -0.10838464109E+01 -0.23661232153E+01 -0.21755018652E+01  0.33920599551E+01  0.51100000000E-03 0.  1.
        -12    1    3    3    0    0  0.30896443237E+01 -0.69954287909E+01 -0.27324948659E+02  0.28374896392E+02  0.00000000000E+00 0.  1.
</event>
<event>
 7    1  0.5022032E-011  0.4778727E+02  0.7816164E-02  0.1312668E+00
        -11   -1    0    0    0    0  0.00000000000E+00  0.00000000000E+00  0.45593999997E+02  0.45594000000E+02  0.51100000000E-03 0.  1.
         11   -1    0    0    0    0 -0.00000000000E+00 -0.00000000000E+00 -0.45593999997E+02  0.45594000000E+02  0.51100000000E-03 0. -1.
    9900012    2    1    2    0    0 -0.12374576530E+01 -0.42690566513E+02  0.77206202333E+01  0.47787265588E+02  0.19999975124E+02 0.  0.
        -12    1    1    2    0    0  0.12374576530E+01  0.42690566513E+02 -0.77206202333E+01  0.43400734412E+02  0.00000000000E+00 0.  1.
         11    1    3    3    0    0  0.34580674621E+01 -0.10818174997E+02 -0.29127190754E+01  0.11724976483E+02  0.51100000000E-03 0. -1.
        -11    1    3    3    0    0 -0.55988294759E+01 -0.99205049223E+01 -0.55933648360E+00  0.11405093905E+02  0.51100000000E-03 0.  1.
         12    1    3    3    0    0  0.90330436079E+00 -0.21951886594E+02  0.11192675792E+02  0.24657195201E+02  0.00000000000E+00 0. -1.
</event>
<event>
 7    1  0.5022032E-011  0.4778727E+02  0.7816164E-02  0.1312668E+00
        -11   -1    0    0    0    0  0.00000000000E+00  0.00000000000E+00  0.45593999997E+02  0.45594000000E+02  0.51100000000E-03 0.  1.
         11   -1    0    0    0    0 -0.00000000000E+00 -0.00000000000E+00 -0.45593999997E+02  0.45594000000E+02  0.51100000000E-03 0. -1.
    9900012    2    1    2    0    0 -0.20507573246E+01 -0.43080513349E+02 -0.48463312148E+01  0.47787272331E+02  0.20000005864E+02 0.  0.
        -12    1    1    2    0    0  0.20507573246E+01  0.43080513349E+02  0.48463312148E+01  0.43400727669E+02  0.00000000000E+00 0.  1.
         11    1    3    3    0    0  0.23944464220E+01 -0.20812748203E+02 -0.75846324331E+01  0.22280720609E+02  0.51100000000E-03 0. -1.
        -11    1    3    3    0    0 -0.35126405832E+01 -0.27958213359E+01 -0.27369740686E+01  0.52579737659E+01  0.51100000000E-03 0.  1.
         12    1    3    3    0    0 -0.93256316343E+00 -0.19471943809E+02  0.54752752869E+01  0.20248577956E+02  0.00000000000E+00 0. -1.
</event>
<event>
 7    1  0.5022032E-011  0.4778727E+02  0.7816164E-02  0.1312668E+00
        -11   -1    0    0    0    0  0.00000000000E+00  0.00000000000E+00  0.45593999997E+02  0.45594000000E+02  0.51100000000E-03 0. -1.
         11   -1    0    0    0    0 -0.00000000000E+00 -0.00000000000E+00 -0.45593999997E+02  0.45594000000E+02  0.51100000000E-03 0.  1.
    9900012    2    1    2    0    0 -0.14047377143E+02 -0.32162759035E+02  0.25531375824E+02  0.47787273914E+02  0.20000013083E+02 0.  0.
        -12    1    1    2    0    0  0.14047377143E+02  0.32162759035E+02 -0.25531375824E+02  0.43400726086E+02  0.00000000000E+00 0.  1.
         11    1    3    3    0    0  0.22324585624E+01 -0.52590546217E+01  0.97621548076E+01  0.11311109296E+02  0.51100000000E-03 0. -1.
        -11    1    3    3    0    0 -0.19450760274E+01 -0.91767692661E+01  0.12893677254E+01  0.94688375374E+01  0.51100000000E-03 0.  1.
        -12    1    3    3    0    0 -0.14334759678E+02 -0.17726935147E+02  0.14479853291E+02  0.27007327081E+02  0.00000000000E+00 0.  1.
</event>
<event>
 7    1  0.5022032E-011  0.4778727E+02  0.7816164E-02  0.1312668E+00
        -11   -1    0    0    0    0  0.00000000000E+00  0.00000000000E+00  0.45593999997E+02  0.45594000000E+02  0.51100000000E-03 0. -1.
         11   -1    0    0    0    0 -0.00000000000E+00 -0.00000000000E+00 -0.45593999997E+02  0.45594000000E+02  0.51100000000E-03 0.  1.
    9900012    2    1    2    0    0 -0.70450226091E+01  0.39677357366E+02  0.16115156306E+02  0.47787270814E+02  0.19999998949E+02 0.  0.
        -12    1    1    2    0    0  0.70450226091E+01 -0.39677357366E+02 -0.16115156306E+02  0.43400729186E+02  0.00000000000E+00 0.  1.
         11    1    3    3    0    0  0.37740241695E+01  0.16845033794E+01 -0.22613568190E+00  0.41390757030E+01  0.51100000000E-03 0.  1.
        -11    1    3    3    0    0 -0.13747680973E+01  0.12067138822E+02  0.12789082521E+01  0.12212347573E+02  0.51100000000E-03 0. -1.
        -12    1    3    3    0    0 -0.94442786813E+01  0.25925715165E+02  0.15062383736E+02  0.31435847538E+02  0.00000000000E+00 0.  1.
</event>
<event>
 7    1  0.5022032E-011  0.4778727E+02  0.7816164E-02  0.1312668E+00
        -11   -1    0    0    0    0  0.00000000000E+00  0.00000000000E+00  0.45593999997E+02  0.45594000000E+02  0.51100000000E-03 0. -1.
         11   -1    0    0    0    0 -0.00000000000E+00 -0.00000000000E+00 -0.45593999997E+02  0.45594000000E+02  0.51100000000E-03 0.  1.
    9900012    2    1    2    0    0  0.95730749590E+01  0.31884128405E+02  0.27845678523E+02  0.47787271657E+02  0.20000002791E+02 0.  0.
        -12    1    1    2    0    0 -0.95730749590E+01 -0.31884128405E+02 -0.27845678523E+02  0.43400728343E+02  0.00000000000E+00 0.  1.
         11    1    3    3    0    0  0.38071977284E+01  0.28804559331E+02  0.23948709784E+02  0.37652863017E+02  0.51100000000E-03 0. -1.
        -11    1    3    3    0    0 -0.86981550772E+00  0.14887023034E+00  0.26254021335E+01  0.27697433070E+01  0.51100000000E-03 0.  1.
        -12    1    3    3    0    0  0.66356927383E+01  0.29306988446E+01  0.12715666056E+01  0.73646653330E+01  0.00000000000E+00 0.  1.
</event>
<event>
 7    1  0.5022032E-011  0.4778727E+02  0.7816164E-02  0.1312668E+00
        -11   -1    0    0    0    0  0.00000000000E+00  0.00000000000E+00  0.45593999997E+02  0.45594000000E+02  0.51100000000E-03 0. -1.
         11   -1    0    0    0    0 -0.00000000000E+00 -0.00000000000E+00 -0.45593999997E+02  0.45594000000E+02  0.51100000000E-03 0.  1.
    9900012    2    1    2    0    0  0.16323692550E+01 -0.39990068776E+01  0.43185257240E+02  0.47787272722E+02  0.20000007648E+02 0.  0.
        -12    1    1    2    0    0 -0.16323692550E+01  0.39990068776E+01 -0.43185257240E+02  0.43400727278E+02  0.00000000000E+00 0.  1.
         11    1    3    3    0    0 -0.51459996387E+01 -0.45872414267E+01  0.18054405473E+02  0.19325776917E+02  0.51100000000E-03 0. -1.
        -11    1    3    3    0    0 -0.21525650037E+01 -0.21012188543E+01  0.22618197434E+01  0.37635735122E+01  0.51100000000E-03 0.  1.
         12    1    3    3    0    0  0.89309338975E+01  0.26894534034E+01  0.22869032023E+02  0.24697922293E+02  0.00000000000E+00 0. -1.
</event>
<event>
 7    1  0.5022032E-011  0.4778727E+02  0.7816164E-02  0.1312668E+00
        -11   -1    0    0    0    0  0.00000000000E+00  0.00000000000E+00  0.45593999997E+02  0.45594000000E+02  0.51100000000E-03 0. -1.
         11   -1    0    0    0    0 -0.00000000000E+00 -0.00000000000E+00 -0.45593999997E+02  0.45594000000E+02  0.51100000000E-03 0.  1.
    9900012    2    1    2    0    0 -0.53332784906E+01 -0.62565339041E+01  0.42614964935E+02  0.47787270601E+02  0.19999997980E+02 0.  0.
        -12    1    1    2    0    0  0.53332784906E+01  0.62565339041E+01 -0.42614964935E+02  0.43400729399E+02  0.00000000000E+00 0.  1.
         11    1    3    3    0    0  0.16713335286E+01  0.26687312371E+01  0.27151796171E+01  0.41578459320E+01  0.51100000000E-03 0. -1.
        -11    1    3    3    0    0  0.10390842795E+01 -0.61490121255E+01  0.59138146395E+01  0.85943731657E+01  0.51100000000E-03 0.  1.
         12    1    3    3    0    0 -0.80436962987E+01 -0.27762530157E+01  0.33985970678E+02  0.35035051504E+02  0.00000000000E+00 0. -1.
</event>
<event>
 7    1  0.5022032E-011  0.4778728E+02  0.7816164E-02  0.1312668E+00
        -11   -1    0    0    0    0  0.00000000000E+00  0.00000000000E+00  0.45593999997E+02  0.45594000000E+02  0.51100000000E-03 0. -1.
         11   -1    0    0    0    0 -0.00000000000E+00 -0.00000000000E+00 -0.45593999997E+02  0.45594000000E+02  0.51100000000E-03 0.  1.
    9900012    2    1    2    0    0  0.14619769002E+02  0.25053015218E+02  0.32283606496E+02  0.47787280356E+02  0.20000042457E+02 0.  0.
        -12    1    1    2    0    0 -0.14619769002E+02 -0.25053015218E+02 -0.32283606496E+02  0.43400719644E+02  0.00000000000E+00 0.  1.
         11    1    3    3    0    0  0.17608794040E-01  0.65388550066E+01  0.55350694452E+01  0.85670256735E+01  0.51100000000E-03 0. -1.
        -11    1    3    3    0    0 -0.27624586577E+00  0.10885450685E+02  0.55513644311E+01  0.12222397297E+02  0.51100000000E-03 0.  1.
         12    1    3    3    0    0  0.14878406074E+02  0.76287095267E+01  0.21197172620E+02  0.26997857386E+02  0.00000000000E+00 0. -1.
</event>
<event>
 7    1  0.5434852E-011  0.4778727E+02  0.7816164E-02  0.1312668E+00
        -11   -1    0    0    0    0  0.00000000000E+00  0.00000000000E+00  0.45593999997E+02  0.45594000000E+02  0.51100000000E-03 0. -1.
         11   -1    0    0    0    0 -0.00000000000E+00 -0.00000000000E+00 -0.45593999997E+02  0.45594000000E+02  0.51100000000E-03 0.  1.
    9900012    2    1    2    0    0  0.27740938273E+02  0.41319626628E+00 -0.33375034540E+02  0.47787270537E+02  0.19999997685E+02 0.  0.
         12    1    1    2    0    0 -0.27740938273E+02 -0.41319626628E+00  0.33375034540E+02  0.43400729463E+02  0.00000000000E+00 0. -1.
         11    1    3    3    0    0  0.11674249172E+02 -0.41772163989E+01 -0.79640648436E+01  0.14736470393E+02  0.51100000000E-03 0.  1.
        -11    1    3    3    0    0 -0.38599279657E+00 -0.29908113762E+01 -0.38187814877E+01  0.48659054079E+01  0.51100000000E-03 0. -1.
        -12    1    3    3    0    0  0.16452681898E+02  0.75812240414E+01 -0.21592188209E+02  0.28184894735E+02  0.00000000000E+00 0.  1.
</event>
<event>
 7    1  0.5022032E-011  0.4778727E+02  0.7816164E-02  0.1312668E+00
        -11   -1    0    0    0    0  0.00000000000E+00  0.00000000000E+00  0.45593999997E+02  0.45594000000E+02  0.51100000000E-03 0. -1.
         11   -1    0    0    0    0 -0.00000000000E+00 -0.00000000000E+00 -0.45593999997E+02  0.45594000000E+02  0.51100000000E-03 0.  1.
    9900012    2    1    2    0    0 -0.32335211917E+02  0.11544428375E+02  0.26547756916E+02  0.47787272431E+02  0.20000006324E+02 0.  0.
        -12    1    1    2    0    0  0.32335211917E+02 -0.11544428375E+02 -0.26547756916E+02  0.43400727569E+02  0.00000000000E+00 0.  1.
         11    1    3    3    0    0 -0.13516514837E+02  0.10631485826E+01  0.60872228020E+01  0.14862057057E+02  0.51100000000E-03 0. -1.
        -11    1    3    3    0    0 -0.54880281811E+01  0.11249895075E+01 -0.12940829336E+01  0.57496700434E+01  0.51100000000E-03 0.  1.
         12    1    3    3    0    0 -0.13330668899E+02  0.93562902847E+01  0.21754617047E+02  0.27175545331E+02  0.00000000000E+00 0. -1.
</event>
<event>
 7    1  0.5022032E-011  0.4778727E+02  0.7816164E-02  0.1312668E+00
        -11   -1    0    0    0    0  0.00000000000E+00  0.00000000000E+00  0.45593999997E+02  0.45594000000E+02  0.51100000000E-03 0. -1.
         11   -1    0    0    0    0 -0.00000000000E+00 -0.00000000000E+00 -0.45593999997E+02  0.45594000000E+02  0.51100000000E-03 0.  1.
    9900012    2    1    2    0    0 -0.13288349725E+02 -0.11403122592E+02  0.39711608371E+02  0.47787270943E+02  0.19999999540E+02 0.  0.
        -12    1    1    2    0    0  0.13288349725E+02  0.11403122592E+02 -0.39711608371E+02  0.43400729057E+02  0.00000000000E+00 0.  1.
         11    1    3    3    0    0 -0.59317063972E+01 -0.11314835573E+02  0.14864085407E+02  0.19599787756E+02  0.51100000000E-03 0. -1.
        -11    1    3    3    0    0 -0.23714800646E+01 -0.47884640281E+01  0.55254535390E+01  0.76866079982E+01  0.51100000000E-03 0.  1.
         12    1    3    3    0    0 -0.49851632630E+01  0.47001770094E+01  0.19322069425E+02  0.20500875190E+02  0.00000000000E+00 0. -1.
</event>
<event>
 7    1  0.5022032E-011  0.4778726E+02  0.7816164E-02  0.1312668E+00
        -11   -1    0    0    0    0  0.00000000000E+00  0.00000000000E+00  0.45593999997E+02  0.45594000000E+02  0.51100000000E-03 0. -1.
         11   -1    0    0    0    0 -0.00000000000E+00 -0.00000000000E+00 -0.45593999997E+02  0.45594000000E+02  0.51100000000E-03 0.  1.
    9900012    2    1    2    0    0  0.17797303797E+02  0.67951450150E+01 -0.38996235641E+02  0.47787257928E+02  0.19999940196E+02 0.  0.
         12    1    1    2    0    0 -0.17797303797E+02 -0.67951450150E+01  0.38996235641E+02  0.43400742072E+02  0.00000000000E+00 0. -1.
         11    1    3    3    0    0  0.47449967337E+01  0.88517071894E-01 -0.20012207285E+02  0.20567237781E+02  0.51100000000E-03 0.  1.
        -11    1    3    3    0    0  0.54010296878E+01  0.42625749588E+01 -0.17822263712E+02  0.19104286196E+02  0.51100000000E-03 0. -1.
         12    1    3    3    0    0  0.76512773756E+01  0.24440529842E+01 -0.11617646444E+01  0.81157339506E+01  0.00000000000E+00 0. -1.
</event>
<event>
 7    1  0.5022032E-011  0.4778727E+02  0.7816164E-02  0.1312668E+00
        -11   -1    0    0    0    0  0.00000000000E+00  0.00000000000E+00  0.45593999997E+02  0.45594000000E+02  0.51100000000E-03 0. -1.
         11   -1    0    0    0    0 -0.00000000000E+00 -0.00000000000E+00 -0.45593999997E+02  0.45594000000E+02  0.51100000000E-03 0.  1.
    9900012    2    1    2    0    0 -0.33088894051E+01 -0.11761371069E+02 -0.41645463185E+02  0.47787271868E+02  0.20000003755E+02 0.  0.
         12    1    1    2    0    0  0.33088894051E+01  0.11761371069E+02  0.41645463185E+02  0.43400728132E+02  0.00000000000E+00 0. -1.
         11    1    3    3    0    0  0.38066937695E+01  0.19198169559E+01 -0.38231530108E+01  0.57265272028E+01  0.51100000000E-03 0. -1.
        -11    1    3    3    0    0 -0.99119661828E+00 -0.59170576098E+00 -0.15022464714E+02  0.15066752563E+02  0.51100000000E-03 0.  1.
         12    1    3    3    0    0 -0.61243865563E+01 -0.13089482264E+02 -0.22799845459E+02  0.26993992102E+02  0.00000000000E+00 0. -1.
</event>
<event>
 7    1  0.5022032E-011  0.4778728E+02  0.7816164E-02  0.1312668E+00
        -11   -1    0    0    0    0  0.00000000000E+00  0.00000000000E+00  0.45593999997E+02  0.45594000000E+02  0.51100000000E-03 0. -1.
         11   -1    0    0    0    0 -0.00000000000E+00 -0.00000000000E+00 -0.45593999997E+02  0.45594000000E+02  0.51100000000E-03 0.  1.
    9900012    2    1    2    0    0 -0.25985744122E+02 -0.10978729801E+02  0.32982291036E+02  0.47787275033E+02  0.20000018187E+02 0.  0.
        -12    1    1    2    0    0  0.25985744122E+02  0.10978729801E+02 -0.32982291036E+02  0.43400724967E+02  0.00000000000E+00 0.  1.
         11    1    3    3    0    0 -0.25395620349E+01  0.12156751394E+01  0.49303302032E+01  0.56776225260E+01  0.51100000000E-03 0. -1.
        -11    1    3    3    0    0 -0.10241488406E+01  0.29931814193E+01  0.74136795772E+01  0.80604380149E+01  0.51100000000E-03 0.  1.
         12    1    3    3    0    0 -0.22422033247E+02 -0.15187586360E+02  0.20638281256E+02  0.34049214492E+02  0.00000000000E+00 0. -1.
</event>
<event>
 7    1  0.5022032E-011  0.4778728E+02  0.7816164E-02  0.1312668E+00
        -11   -1    0    0    0    0  0.00000000000E+00  0.00000000000E+00  0.45593999997E+02  0.45594000000E+02  0.51100000000E-03 0. -1.
         11   -1    0    0    0    0 -0.00000000000E+00 -0.00000000000E+00 -0.45593999997E+02  0.45594000000E+02  0.51100000000E-03 0.  1.
    9900012    2    1    2    0    0  0.36164574672E+02 -0.43394781589E+01 -0.23599053072E+02  0.47787276069E+02  0.20000022907E+02 0.  0.
         12    1    1    2    0    0 -0.36164574672E+02  0.43394781589E+01  0.23599053072E+02  0.43400723931E+02  0.00000000000E+00 0. -1.
         11    1    3    3    0    0  0.16768272267E+02 -0.27347478888E+00 -0.66081385708E+01  0.18025460851E+02  0.51100000000E-03 0. -1.
        -11    1    3    3    0    0  0.37749133634E+01  0.50286293812E+01 -0.54040338574E+01  0.82909991284E+01  0.51100000000E-03 0.  1.
         12    1    3    3    0    0  0.15621389042E+02 -0.90946327513E+01 -0.11586880644E+02  0.21470816089E+02  0.00000000000E+00 0. -1.
</event>
<event>
 7    1  0.5022032E-011  0.4778727E+02  0.7816164E-02  0.1312668E+00
        -11   -1    0    0    0    0  0.00000000000E+00  0.00000000000E+00  0.45593999997E+02  0.45594000000E+02  0.51100000000E-03 0. -1.
         11   -1    0    0    0    0 -0.00000000000E+00 -0.00000000000E+00 -0.45593999997E+02  0.45594000000E+02  0.51100000000E-03 0.  1.
    9900012    2    1    2    0    0 -0.30450414586E+02 -0.10376117426E+02  0.29132998620E+02  0.47787272242E+02  0.20000005462E+02 0.  0.
        -12    1    1    2    0    0  0.30450414586E+02  0.10376117426E+02 -0.29132998620E+02  0.43400727758E+02  0.00000000000E+00 0.  1.
         11    1    3    3    0    0 -0.85692767466E+01  0.16652216114E+01  0.13977075329E+02  0.16479202104E+02  0.51100000000E-03 0. -1.
        -11    1    3    3    0    0  0.40279786566E+00 -0.33359037524E+01  0.28427401046E+01  0.44013261103E+01  0.51100000000E-03 0.  1.
         12    1    3    3    0    0 -0.22283935705E+02 -0.87054352848E+01  0.12313183186E+02  0.26906744028E+02  0.00000000000E+00 0. -1.
</event>
<event>
 7    1  0.5022032E-011  0.4778727E+02  0.7816164E-02  0.1312668E+00
        -11   -1    0    0    0    0  0.00000000000E+00  0.00000000000E+00  0.45593999997E+02  0.45594000000E+02  0.51100000000E-03 0. -1.
         11   -1    0    0    0    0 -0.00000000000E+00 -0.00000000000E+00 -0.45593999997E+02  0.45594000000E+02  0.51100000000E-03 0.  1.
    9900012    2    1    2    0    0  0.33602594236E+02 -0.21430543866E+02  0.17181988184E+02  0.47787271115E+02  0.20000000321E+02 0.  0.
        -12    1    1    2    0    0 -0.33602594236E+02  0.21430543866E+02 -0.17181988184E+02  0.43400728885E+02  0.00000000000E+00 0.  1.
         11    1    3    3    0    0  0.29750113967E+02 -0.22448828465E+02  0.12242719084E+02  0.39228858654E+02  0.51100000000E-03 0. -1.
        -11    1    3    3    0    0  0.32799495779E+01  0.38487045766E+00 -0.23818279105E+00  0.33110309279E+01  0.51100000000E-03 0.  1.
         12    1    3    3    0    0  0.57253069176E+00  0.63341414150E+00  0.51774518906E+01  0.52473815325E+01  0.00000000000E+00 0. -1.
</event>
<event>
 7    1  0.5022032E-011  0.4778727E+02  0.7816164E-02  0.1312668E+00
        -11   -1    0    0    0    0  0.00000000000E+00  0.00000000000E+00  0.45593999997E+02  0.45594000000E+02  0.51100000000E-03 0. -1.
         11   -1    0    0    0    0 -0.00000000000E+00 -0.00000000000E+00 -0.45593999997E+02  0.45594000000E+02  0.51100000000E-03 0.  1.
    9900012    2    1    2    0    0 -0.21211512490E+02  0.20195359194E+02  0.32028779946E+02  0.47787267980E+02  0.19999986027E+02 0.  0.
        -12    1    1    2    0    0  0.21211512490E+02 -0.20195359194E+02 -0.32028779946E+02  0.43400732020E+02  0.00000000000E+00 0.  1.
         11    1    3    3    0    0 -0.10250875760E+02  0.11918879895E+02  0.27955306107E+02  0.32072407013E+02  0.51100000000E-03 0. -1.
        -11    1    3    3    0    0 -0.69113455055E+00  0.60918999547E-01  0.23509367730E+01  0.24511797289E+01  0.51100000000E-03 0.  1.
         12    1    3    3    0    0 -0.10269502179E+02  0.82155602993E+01  0.17225370662E+01  0.13263681238E+02  0.00000000000E+00 0. -1.
</event>
<event>
 7    1  0.5022032E-011  0.4778727E+02  0.7816164E-02  0.1312668E+00
        -11   -1    0    0    0    0  0.00000000000E+00  0.00000000000E+00  0.45593999997E+02  0.45594000000E+02  0.51100000000E-03 0. -1.
         11   -1    0    0    0    0 -0.00000000000E+00 -0.00000000000E+00 -0.45593999997E+02  0.45594000000E+02  0.51100000000E-03 0.  1.
    9900012    2    1    2    0    0 -0.44280127541E+01 -0.27590065904E+02  0.33208499295E+02  0.47787268912E+02  0.19999990278E+02 0.  0.
        -12    1    1    2    0    0  0.44280127541E+01  0.27590065904E+02 -0.33208499295E+02  0.43400731088E+02  0.00000000000E+00 0.  1.
         11    1    3    3    0    0  0.38917483225E+01 -0.23808880057E+01  0.95402508637E+01  0.10575004468E+02  0.51100000000E-03 0.  1.
        -11    1    3    3    0    0 -0.53858586771E+01 -0.61484675087E+01  0.12474419065E+02  0.14913827733E+02  0.51100000000E-03 0. -1.
         12    1    3    3    0    0 -0.29339023995E+01 -0.19060710390E+02  0.11193829367E+02  0.22298436711E+02  0.00000000000E+00 0. -1.
</event>
<event>
 7    1  0.5022032E-011  0.4778727E+02  0.7816164E-02  0.1312668E+00
        -11   -1    0    0    0    0  0.00000000000E+00  0.00000000000E+00  0.45593999997E+02  0.45594000000E+02  0.51100000000E-03 0. -1.
         11   -1    0    0    0    0 -0.00000000000E+00 -0.00000000000E+00 -0.45593999997E+02  0.45594000000E+02  0.51100000000E-03 0.  1.
    9900012    2    1    2    0    0 -0.19399416422E+02  0.37665465814E+02 -0.94126898525E+01  0.47787269559E+02  0.19999993228E+02 0.  0.
         12    1    1    2    0    0  0.19399416422E+02 -0.37665465814E+02  0.94126898525E+01  0.43400730441E+02  0.00000000000E+00 0. -1.
         11    1    3    3    0    0 -0.62731518623E+01  0.15430176970E+02 -0.96206722394E+00  0.16684375003E+02  0.51100000000E-03 0. -1.
        -11    1    3    3    0    0 -0.74515707259E+01  0.19832914069E+02 -0.69604059847E+00  0.21197991875E+02  0.51100000000E-03 0.  1.
         12    1    3    3    0    0 -0.56746938339E+01  0.24023747748E+01 -0.77545820300E+01  0.99049026814E+01  0.00000000000E+00 0. -1.
</event>
<event>
 7    1  0.5022032E-011  0.4778727E+02  0.7816164E-02  0.1312668E+00
        -11   -1    0    0    0    0  0.00000000000E+00  0.00000000000E+00  0.45593999997E+02  0.45594000000E+02  0.51100000000E-03 0. -1.
         11   -1    0    0    0    0 -0.00000000000E+00 -0.00000000000E+00 -0.45593999997E+02  0.45594000000E+02  0.51100000000E-03 0.  1.
    9900012    2    1    2    0    0 -0.35835379152E+02  0.72605937375E+01  0.23382308262E+02  0.47787274660E+02  0.20000016486E+02 0.  0.
        -12    1    1    2    0    0  0.35835379152E+02 -0.72605937375E+01 -0.23382308262E+02  0.43400725340E+02  0.00000000000E+00 0.  1.
         11    1    3    3    0    0 -0.11648402233E+01  0.18535934656E+01  0.13556743254E+01  0.25749785668E+01  0.51100000000E-03 0.  1.
        -11    1    3    3    0    0 -0.26957408146E+02  0.97393590795E+01  0.22370169714E+02  0.36359063004E+02  0.51100000000E-03 0. -1.
         12    1    3    3    0    0 -0.77131307824E+01 -0.43323588076E+01 -0.34353577782E+00  0.88532330894E+01  0.00000000000E+00 0. -1.
</event>
<event>
 7    1  0.5022032E-011  0.4778727E+02  0.7816164E-02  0.1312668E+00
        -11   -1    0    0    0    0  0.00000000000E+00  0.00000000000E+00  0.45593999997E+02  0.45594000000E+02  0.51100000000E-03 0. -1.
         11   -1    0    0    0    0 -0.00000000000E+00 -0.00000000000E+00 -0.45593999997E+02  0.45594000000E+02  0.51100000000E-03 0.  1.
    9900012    2    1    2    0    0 -0.11117711162E+02  0.51345478218E+01  0.41637200478E+02  0.47787267904E+02  0.19999985683E+02 0.  0.
        -12    1    1    2    0    0  0.11117711162E+02 -0.51345478218E+01 -0.41637200478E+02  0.43400732096E+02  0.00000000000E+00 0.  1.
         11    1    3    3    0    0 -0.61470562081E+01  0.27329121755E+01  0.27244842258E+02  0.28063081422E+02  0.51100000000E-03 0. -1.
        -11    1    3    3    0    0 -0.67108577446E+01  0.55228104601E+01  0.13475110079E+02  0.16034825816E+02  0.51100000000E-03 0.  1.
         12    1    3    3    0    0  0.17402027911E+01 -0.31211748138E+01  0.91724814047E+00  0.36893606660E+01  0.00000000000E+00 0. -1.
</event>
<event>
 7    1  0.5022032E-011  0.4778727E+02  0.7816164E-02  0.1312668E+00
        -11   -1    0    0    0    0  0.00000000000E+00  0.00000000000E+00  0.45593999997E+02  0.45594000000E+02  0.51100000000E-03 0. -1.
         11   -1    0    0    0    0 -0.00000000000E+00 -0.00000000000E+00 -0.45593999997E+02  0.45594000000E+02  0.51100000000E-03 0.  1.
    9900012    2    1    2    0    0  0.18561868783E+02 -0.19840395376E+02  0.33844335299E+02  0.47787270821E+02  0.19999998982E+02 0.  0.
        -12    1    1    2    0    0 -0.18561868783E+02  0.19840395376E+02 -0.33844335299E+02  0.43400729179E+02  0.00000000000E+00 0.  1.
         11    1    3    3    0    0  0.63482808161E+01 -0.90015445949E+01  0.12578677587E+02  0.16719796784E+02  0.51100000000E-03 0. -1.
        -11    1    3    3    0    0  0.35045731104E+01  0.39114310906E+01  0.71487979153E+01  0.88705488983E+01  0.51100000000E-03 0.  1.
         12    1    3    3    0    0  0.87090148570E+01 -0.14750281872E+02  0.14116859797E+02  0.22196925139E+02  0.00000000000E+00 0. -1.
</event>
<event>
 7    1  0.5022032E-011  0.4778728E+02  0.7816164E-02  0.1312668E+00
        -11   -1    0    0    0    0  0.00000000000E+00  0.00000000000E+00  0.45593999997E+02  0.45594000000E+02  0.51100000000E-03 0. -1.
         11   -1    0    0    0    0 -0.00000000000E+00 -0.00000000000E+00 -0.45593999997E+02  0.45594000000E+02  0.51100000000E-03 0.  1.
    9900012    2    1    2    0    0 -0.75195023543E+00 -0.42383924839E+02 -0.93091297094E+01  0.47787280999E+02  0.20000045386E+02 0.  0.
         12    1    1    2    0    0  0.75195023543E+00  0.42383924839E+02  0.93091297094E+01  0.43400719001E+02  0.00000000000E+00 0. -1.
         11    1    3    3    0    0 -0.47233333484E+01 -0.21794033078E+02 -0.56060878824E+01  0.22993868255E+02  0.51100000000E-03 0. -1.
        -11    1    3    3    0    0 -0.28153884744E+01 -0.27316259326E+01  0.25651135625E+01  0.46870033441E+01  0.51100000000E-03 0.  1.
        -12    1    3    3    0    0  0.67867715874E+01 -0.17858265828E+02 -0.62681553894E+01  0.20106409400E+02  0.00000000000E+00 0.  1.
</event>
<event>
 7    1  0.5022032E-011  0.4778727E+02  0.7816164E-02  0.1312668E+00
        -11   -1    0    0    0    0  0.00000000000E+00  0.00000000000E+00  0.45593999997E+02  0.45594000000E+02  0.51100000000E-03 0. -1.
         11   -1    0    0    0    0 -0.00000000000E+00 -0.00000000000E+00 -0.45593999997E+02  0.45594000000E+02  0.51100000000E-03 0.  1.
    9900012    2    1    2    0    0  0.31855314448E+02  0.29192660294E+02  0.40805434900E+01  0.47787270642E+02  0.19999998165E+02 0.  0.
        -12    1    1    2    0    0 -0.31855314448E+02 -0.29192660294E+02 -0.40805434900E+01  0.43400729358E+02  0.00000000000E+00 0.  1.
         11    1    3    3    0    0  0.20896534485E+02  0.63654724509E+01  0.38870819543E+01  0.22187694775E+02  0.51100000000E-03 0. -1.
        -11    1    3    3    0    0  0.20343929145E+00 -0.65346777591E-01 -0.21495198963E+00  0.30308804928E+00  0.51100000000E-03 0.  1.
        -12    1    3    3    0    0  0.10755340671E+02  0.22892534621E+02  0.40841352536E+00  0.25296487818E+02  0.00000000000E+00 0.  1.
</event>
<event>
 7    1  0.5022032E-011  0.4778727E+02  0.7816164E-02  0.1312668E+00
        -11   -1    0    0    0    0  0.00000000000E+00  0.00000000000E+00  0.45593999997E+02  0.45594000000E+02  0.51100000000E-03 0. -1.
         11   -1    0    0    0    0 -0.00000000000E+00 -0.00000000000E+00 -0.45593999997E+02  0.45594000000E+02  0.51100000000E-03 0.  1.
    9900012    2    1    2    0    0 -0.23704069366E+02 -0.18266854337E+02 -0.31433459345E+02  0.47787271455E+02  0.20000001870E+02 0.  0.
         12    1    1    2    0    0  0.23704069366E+02  0.18266854337E+02  0.31433459345E+02  0.43400728545E+02  0.00000000000E+00 0. -1.
         11    1    3    3    0    0 -0.20899649845E+02 -0.55664805551E+01 -0.18272252748E+02  0.28313535458E+02  0.51100000000E-03 0. -1.
        -11    1    3    3    0    0  0.97867883233E+00  0.11894926964E+00 -0.84009039030E+00  0.12952657297E+01  0.51100000000E-03 0.  1.
        -12    1    3    3    0    0 -0.37830983531E+01 -0.12819323051E+02 -0.12321116207E+02  0.18178470267E+02  0.00000000000E+00 0.  1.
</event>
<event>
 7    1  0.5022032E-011  0.4778727E+02  0.7816164E-02  0.1312668E+00
        -11   -1    0    0    0    0  0.00000000000E+00  0.00000000000E+00  0.45593999997E+02  0.45594000000E+02  0.51100000000E-03 0. -1.
         11   -1    0    0    0    0 -0.00000000000E+00 -0.00000000000E+00 -0.45593999997E+02  0.45594000000E+02  0.51100000000E-03 0.  1.
    9900012    2    1    2    0    0  0.24144798348E+02 -0.18447188000E+02 -0.30989569436E+02  0.47787269059E+02  0.19999990949E+02 0.  0.
         12    1    1    2    0    0 -0.24144798348E+02  0.18447188000E+02  0.30989569436E+02  0.43400730941E+02  0.00000000000E+00 0. -1.
         11    1    3    3    0    0  0.16184638253E+02 -0.63088413672E+01 -0.19350420176E+02  0.26003514302E+02  0.51100000000E-03 0. -1.
        -11    1    3    3    0    0  0.10501092289E+02 -0.10170287370E+02 -0.11441300566E+02  0.18563702307E+02  0.51100000000E-03 0.  1.
         12    1    3    3    0    0 -0.25409321941E+01 -0.19680592629E+01 -0.19784869347E+00  0.32200524503E+01  0.00000000000E+00 0. -1.
</event>
<event>
 7    1  0.5022032E-011  0.4778727E+02  0.7816164E-02  0.1312668E+00
        -11   -1    0    0    0    0  0.00000000000E+00  0.00000000000E+00  0.45593999997E+02  0.45594000000E+02  0.51100000000E-03 0. -1.
         11   -1    0    0    0    0 -0.00000000000E+00 -0.00000000000E+00 -0.45593999997E+02  0.45594000000E+02  0.51100000000E-03 0.  1.
    9900012    2    1    2    0    0 -0.29105311727E+02 -0.29117296131E+02 -0.13736342454E+02  0.47787271795E+02  0.20000003421E+02 0.  0.
         12    1    1    2    0    0  0.29105311727E+02  0.29117296131E+02  0.13736342454E+02  0.43400728205E+02  0.00000000000E+00 0. -1.
         11    1    3    3    0    0 -0.15867040616E+02 -0.24009285458E+02 -0.11446520721E+02  0.30971464334E+02  0.51100000000E-03 0. -1.
        -11    1    3    3    0    0 -0.12676424613E+01 -0.34640515252E+01 -0.29375360737E+01  0.47154733404E+01  0.51100000000E-03 0.  1.
        -12    1    3    3    0    0 -0.11970628650E+02 -0.16439591479E+01  0.64771434072E+00  0.12100334120E+02  0.00000000000E+00 0.  1.
</event>
<event>
 7    1  0.5022032E-011  0.4778728E+02  0.7816164E-02  0.1312668E+00
        -11   -1    0    0    0    0  0.00000000000E+00  0.00000000000E+00  0.45593999997E+02  0.45594000000E+02  0.51100000000E-03 0. -1.
         11   -1    0    0    0    0 -0.00000000000E+00 -0.00000000000E+00 -0.45593999997E+02  0.45594000000E+02  0.51100000000E-03 0.  1.
    9900012    2    1    2    0    0  0.29849886379E+02  0.26842969961E+02  0.16494304853E+02  0.47787275977E+02  0.20000022489E+02 0.  0.
        -12    1    1    2    0    0 -0.29849886379E+02 -0.26842969961E+02 -0.16494304853E+02  0.43400724023E+02  0.00000000000E+00 0.  1.
         11    1    3    3    0    0  0.10182149611E+02  0.26022836240E+01 -0.33717250763E+00  0.10514834108E+02  0.51100000000E-03 0. -1.
        -11    1    3    3    0    0  0.68058145901E+01  0.12634694663E+01  0.36419369236E+01  0.78217115865E+01  0.51100000000E-03 0.  1.
        -12    1    3    3    0    0  0.12861922178E+02  0.22977216871E+02  0.13189540437E+02  0.29450730282E+02  0.00000000000E+00 0.  1.
</event>
<event>
 7    1  0.5022032E-011  0.4778727E+02  0.7816164E-02  0.1312668E+00
        -11   -1    0    0    0    0  0.00000000000E+00  0.00000000000E+00  0.45593999997E+02  0.45594000000E+02  0.51100000000E-03 0. -1.
         11   -1    0    0    0    0 -0.00000000000E+00 -0.00000000000E+00 -0.45593999997E+02  0.45594000000E+02  0.51100000000E-03 0.  1.
    9900012    2    1    2    0    0 -0.32685241329E+02  0.21228702418E+02  0.19095557182E+02  0.47787272919E+02  0.20000008547E+02 0.  0.
        -12    1    1    2    0    0  0.32685241329E+02 -0.21228702418E+02 -0.19095557182E+02  0.43400727081E+02  0.00000000000E+00 0.  1.
         11    1    3    3    0    0 -0.42611977083E+01 -0.25989282009E+01  0.83191889732E+00  0.50600714437E+01  0.51100000000E-03 0. -1.
        -11    1    3    3    0    0 -0.70838278856E+00  0.36715095480E+01 -0.30207369561E+00  0.37514047123E+01  0.51100000000E-03 0.  1.
         12    1    3    3    0    0 -0.27715660832E+02  0.20156121070E+02  0.18565711980E+02  0.38975796763E+02  0.00000000000E+00 0. -1.
</event>
<event>
 7    1  0.5022032E-011  0.4778727E+02  0.7816164E-02  0.1312668E+00
        -11   -1    0    0    0    0  0.00000000000E+00  0.00000000000E+00  0.45593999997E+02  0.45594000000E+02  0.51100000000E-03 0. -1.
         11   -1    0    0    0    0 -0.00000000000E+00 -0.00000000000E+00 -0.45593999997E+02  0.45594000000E+02  0.51100000000E-03 0.  1.
    9900012    2    1    2    0    0  0.12919953339E+01 -0.27760022644E+01  0.43292585071E+02  0.47787270022E+02  0.19999995339E+02 0.  0.
        -12    1    1    2    0    0 -0.12919953339E+01  0.27760022644E+01 -0.43292585071E+02  0.43400729978E+02  0.00000000000E+00 0.  1.
         11    1    3    3    0    0 -0.67159698878E+01  0.60675272819E+00  0.15393798444E+02  0.16805993907E+02  0.51100000000E-03 0. -1.
        -11    1    3    3    0    0  0.72220502370E+00 -0.57010038911E+01  0.10327572574E+02  0.11818704709E+02  0.51100000000E-03 0.  1.
         12    1    3    3    0    0  0.72857601980E+01  0.23182488985E+01  0.17571214053E+02  0.19162571406E+02  0.00000000000E+00 0. -1.
</event>
<event>
 7    1  0.5022032E-011  0.4778726E+02  0.7816164E-02  0.1312668E+00
        -11   -1    0    0    0    0  0.00000000000E+00  0.00000000000E+00  0.45593999997E+02  0.45594000000E+02  0.51100000000E-03 0.  1.
         11   -1    0    0    0    0 -0.00000000000E+00 -0.00000000000E+00 -0.45593999997E+02  0.45594000000E+02  0.51100000000E-03 0. -1.
    9900012    2    1    2    0    0 -0.22650632470E+02 -0.36968738475E+02  0.19710891033E+01  0.47787263047E+02  0.19999963538E+02 0.  0.
        -12    1    1    2    0    0  0.22650632470E+02  0.36968738475E+02 -0.19710891033E+01  0.43400736953E+02  0.00000000000E+00 0.  1.
         11    1    3    3    0    0 -0.77764187442E+01 -0.16757648565E+02 -0.77398365967E+01  0.20029891281E+02  0.51100000000E-03 0. -1.
        -11    1    3    3    0    0  0.47316307524E+00 -0.16861725164E+01 -0.15123115420E+00  0.17578202906E+01  0.51100000000E-03 0.  1.
         12    1    3    3    0    0 -0.15347376801E+02 -0.18524917394E+02  0.98621568542E+01  0.25999551476E+02  0.00000000000E+00 0. -1.
</event>
<event>
 7    1  0.5022032E-011  0.4778726E+02  0.7816164E-02  0.1312668E+00
        -11   -1    0    0    0    0  0.00000000000E+00  0.00000000000E+00  0.45593999997E+02  0.45594000000E+02  0.51100000000E-03 0.  1.
         11   -1    0    0    0    0 -0.00000000000E+00 -0.00000000000E+00 -0.45593999997E+02  0.45594000000E+02  0.51100000000E-03 0. -1.
    9900012    2    1    2    0    0  0.49593623190E+01 -0.29232627898E+02  0.31693574192E+02  0.47787257455E+02  0.19999938038E+02 0.  0.
        -12    1    1    2    0    0 -0.49593623190E+01  0.29232627898E+02 -0.31693574192E+02  0.43400742545E+02  0.00000000000E+00 0.  1.
         11    1    3    3    0    0 -0.14952924280E+00 -0.12102613044E+02  0.15694885420E+02  0.19819814078E+02  0.51100000000E-03 0. -1.
        -11    1    3    3    0    0 -0.44704814296E+01 -0.17840591657E+01  0.27401991717E+01  0.55386607660E+01  0.51100000000E-03 0.  1.
         12    1    3    3    0    0  0.95793729915E+01 -0.15345955689E+02  0.13258489600E+02  0.22428782611E+02  0.00000000000E+00 0. -1.
</event>
<event>
 7    1  0.5022032E-011  0.4778729E+02  0.7816164E-02  0.1312668E+00
        -11   -1    0    0    0    0  0.00000000000E+00  0.00000000000E+00  0.45593999997E+02  0.45594000000E+02  0.51100000000E-03 0.  1.
         11   -1    0    0    0    0 -0.00000000000E+00 -0.00000000000E+00 -0.45593999997E+02  0.45594000000E+02  0.51100000000E-03 0. -1.
    9900012    2    1    2    0    0 -0.25364542890E+02  0.32659318789E+02  0.13176899563E+02  0.47787287772E+02  0.20000076270E+02 0.  0.
        -12    1    1    2    0    0  0.25364542890E+02 -0.32659318789E+02 -0.13176899563E+02  0.43400712228E+02  0.00000000000E+00 0.  1.
         11    1    3    3    0    0 -0.41288203686E+01  0.38442976231E+01  0.24314269722E+00  0.56466716288E+01  0.51100000000E-03 0. -1.
        -11    1    3    3    0    0 -0.62974671256E+01 -0.77526943973E+00  0.49448397060E+01  0.80442883390E+01  0.51100000000E-03 0.  1.
         12    1    3    3    0    0 -0.14938255396E+02  0.29590290605E+02  0.79889171601E+01  0.34096327805E+02  0.00000000000E+00 0. -1.
</event>
<event>
 7    1  0.5022032E-011  0.4778727E+02  0.7816164E-02  0.1312668E+00
        -11   -1    0    0    0    0  0.00000000000E+00  0.00000000000E+00  0.45593999997E+02  0.45594000000E+02  0.51100000000E-03 0. -1.
         11   -1    0    0    0    0 -0.00000000000E+00 -0.00000000000E+00 -0.45593999997E+02  0.45594000000E+02  0.51100000000E-03 0.  1.
    9900012    2    1    2    0    0 -0.38856091396E+02  0.10055658335E+02 -0.16513982923E+02  0.47787265731E+02  0.19999975774E+02 0.  0.
         12    1    1    2    0    0  0.38856091396E+02 -0.10055658335E+02  0.16513982923E+02  0.43400734269E+02  0.00000000000E+00 0. -1.
         11    1    3    3    0    0 -0.11141316017E+02  0.87885472304E+01 -0.63120158952E+01  0.15530905638E+02  0.51100000000E-03 0. -1.
        -11    1    3    3    0    0 -0.20084439454E+01 -0.79341588704E+00 -0.56766772914E+01  0.60735509534E+01  0.51100000000E-03 0.  1.
        -12    1    3    3    0    0 -0.25706331433E+02  0.20605269920E+01 -0.45252897359E+01  0.26182809139E+02  0.00000000000E+00 0.  1.
</event>
<event>
 7    1  0.5022032E-011  0.4778727E+02  0.7816164E-02  0.1312668E+00
        -11   -1    0    0    0    0  0.00000000000E+00  0.00000000000E+00  0.45593999997E+02  0.45594000000E+02  0.51100000000E-03 0.  1.
         11   -1    0    0    0    0 -0.00000000000E+00 -0.00000000000E+00 -0.45593999997E+02  0.45594000000E+02  0.51100000000E-03 0. -1.
    9900012    2    1    2    0    0  0.36169846667E+02  0.14460317165E+02  0.19138045254E+02  0.47787270092E+02  0.19999995657E+02 0.  0.
        -12    1    1    2    0    0 -0.36169846667E+02 -0.14460317165E+02 -0.19138045254E+02  0.43400729908E+02  0.00000000000E+00 0.  1.
         11    1    3    3    0    0  0.29799809725E+02  0.48815046091E+01  0.13462709615E+02  0.33062097594E+02  0.51100000000E-03 0. -1.
        -11    1    3    3    0    0  0.77596202334E+01  0.66615359113E+01  0.51537446223E+01  0.11452023872E+02  0.51100000000E-03 0.  1.
        -12    1    3    3    0    0 -0.13895832908E+01  0.29172766443E+01  0.52159101593E+00  0.32731486262E+01  0.00000000000E+00 0.  1.
</event>
<event>
 7    1  0.5022032E-011  0.4778727E+02  0.7816164E-02  0.1312668E+00
        -11   -1    0    0    0    0  0.00000000000E+00  0.00000000000E+00  0.45593999997E+02  0.45594000000E+02  0.51100000000E-03 0. -1.
         11   -1    0    0    0    0 -0.00000000000E+00 -0.00000000000E+00 -0.45593999997E+02  0.45594000000E+02  0.51100000000E-03 0.  1.
    9900012    2    1    2    0    0  0.40701460257E+00  0.13771147024E+02  0.41155962716E+02  0.47787269380E+02  0.19999992413E+02 0.  0.
        -12    1    1    2    0    0 -0.40701460257E+00 -0.13771147024E+02 -0.41155962716E+02  0.43400730620E+02  0.00000000000E+00 0.  1.
         11    1    3    3    0    0 -0.20793093856E+00 -0.13905278429E+01  0.47524553810E+01  0.49560705571E+01  0.51100000000E-03 0.  1.
        -11    1    3    3    0    0 -0.61984590745E+01  0.47862794639E+00  0.79081692804E+01  0.10059280354E+02  0.51100000000E-03 0. -1.
         12    1    3    3    0    0  0.68134046156E+01  0.14683046920E+02  0.28495338054E+02  0.32771918469E+02  0.00000000000E+00 0. -1.
</event>
<event>
 7    1  0.5022032E-011  0.4778727E+02  0.7816164E-02  0.1312668E+00
        -11   -1    0    0    0    0  0.00000000000E+00  0.00000000000E+00  0.45593999997E+02  0.45594000000E+02  0.51100000000E-03 0. -1.
         11   -1    0    0    0    0 -0.00000000000E+00 -0.00000000000E+00 -0.45593999997E+02  0.45594000000E+02  0.51100000000E-03 0.  1.
    9900012    2    1    2    0    0 -0.32332940915E+01  0.93990130800E+01 -0.42247218426E+02  0.47787273021E+02  0.20000009013E+02 0.  0.
         12    1    1    2    0    0  0.32332940915E+01 -0.93990130800E+01  0.42247218426E+02  0.43400726979E+02  0.00000000000E+00 0. -1.
         11    1    3    3    0    0 -0.35105769845E+01  0.29631766154E+01 -0.48251960026E+01  0.66623631800E+01  0.51100000000E-03 0. -1.
        -11    1    3    3    0    0 -0.66269191014E+01  0.73785177865E+01 -0.19075067366E+02  0.21499227353E+02  0.51100000000E-03 0.  1.
        -12    1    3    3    0    0  0.69042019944E+01 -0.94268132179E+00 -0.18346955057E+02  0.19625682488E+02  0.00000000000E+00 0.  1.
</event>
<event>
 7    1  0.5022032E-011  0.4778728E+02  0.7816164E-02  0.1312668E+00
        -11   -1    0    0    0    0  0.00000000000E+00  0.00000000000E+00  0.45593999997E+02  0.45594000000E+02  0.51100000000E-03 0. -1.
         11   -1    0    0    0    0 -0.00000000000E+00 -0.00000000000E+00 -0.45593999997E+02  0.45594000000E+02  0.51100000000E-03 0.  1.
    9900012    2    1    2    0    0 -0.96549845640E+01  0.26776821521E+02 -0.32762866586E+02  0.47787281980E+02  0.20000049861E+02 0.  0.
         12    1    1    2    0    0  0.96549845640E+01 -0.26776821521E+02  0.32762866586E+02  0.43400718020E+02  0.00000000000E+00 0. -1.
         11    1    3    3    0    0 -0.20258601489E+01 -0.13401832277E+01 -0.43242938691E+00  0.24672243236E+01  0.51100000000E-03 0. -1.
        -11    1    3    3    0    0 -0.10696907694E+02  0.21570598902E+02 -0.27849134096E+02  0.36814247804E+02  0.51100000000E-03 0.  1.
         12    1    3    3    0    0  0.30677832790E+01  0.65464058465E+01 -0.44813031030E+01  0.85058098529E+01  0.00000000000E+00 0. -1.
</event>
<event>
 7    1  0.5022032E-011  0.4778727E+02  0.7816164E-02  0.1312668E+00
        -11   -1    0    0    0    0  0.00000000000E+00  0.00000000000E+00  0.45593999997E+02  0.45594000000E+02  0.51100000000E-03 0. -1.
         11   -1    0    0    0    0 -0.00000000000E+00 -0.00000000000E+00 -0.45593999997E+02  0.45594000000E+02  0.51100000000E-03 0.  1.
    9900012    2    1    2    0    0 -0.20849740913E+01  0.10849078614E+02  0.41971110353E+02  0.47787265813E+02  0.19999976147E+02 0.  0.
        -12    1    1    2    0    0  0.20849740913E+01 -0.10849078614E+02 -0.41971110353E+02  0.43400734187E+02  0.00000000000E+00 0.  1.
         11    1    3    3    0    0 -0.59422014151E+01  0.14303968548E+02  0.27673797403E+02  0.31713598611E+02  0.51100000000E-03 0. -1.
        -11    1    3    3    0    0 -0.47128295410E+00 -0.30165808790E+00  0.69991518545E+01  0.70214836159E+01  0.51100000000E-03 0.  1.
         12    1    3    3    0    0  0.43285102779E+01 -0.31532318465E+01  0.72981610957E+01  0.90521835865E+01  0.00000000000E+00 0. -1.
</event>
<event>
 7    1  0.5022032E-011  0.4778727E+02  0.7816164E-02  0.1312668E+00
        -11   -1    0    0    0    0  0.00000000000E+00  0.00000000000E+00  0.45593999997E+02  0.45594000000E+02  0.51100000000E-03 0. -1.
         11   -1    0    0    0    0 -0.00000000000E+00 -0.00000000000E+00 -0.45593999997E+02  0.45594000000E+02  0.51100000000E-03 0.  1.
    9900012    2    1    2    0    0  0.68152904529E+01  0.52098053393E+01  0.42544486979E+02  0.47787266966E+02  0.19999981404E+02 0.  0.
        -12    1    1    2    0    0 -0.68152904529E+01 -0.52098053393E+01 -0.42544486979E+02  0.43400733034E+02  0.00000000000E+00 0.  1.
         11    1    3    3    0    0  0.48959945921E+01  0.14923530670E+01  0.24669587847E+02  0.25194968655E+02  0.51100000000E-03 0. -1.
        -11    1    3    3    0    0  0.73231022765E+01  0.35338118282E+01  0.12876722580E+02  0.15229104952E+02  0.51100000000E-03 0.  1.
        -12    1    3    3    0    0 -0.54038064156E+01  0.18364044409E+00  0.49981765518E+01  0.73631933584E+01  0.00000000000E+00 0.  1.
</event>
<event>
 7    1  0.5022032E-011  0.4778727E+02  0.7816164E-02  0.1312668E+00
        -11   -1    0    0    0    0  0.00000000000E+00  0.00000000000E+00  0.45593999997E+02  0.45594000000E+02  0.51100000000E-03 0. -1.
         11   -1    0    0    0    0 -0.00000000000E+00 -0.00000000000E+00 -0.45593999997E+02  0.45594000000E+02  0.51100000000E-03 0.  1.
    9900012    2    1    2    0    0  0.25611574880E+01  0.18082823374E+02 -0.39370991813E+02  0.47787273909E+02  0.20000013062E+02 0.  0.
         12    1    1    2    0    0 -0.25611574880E+01 -0.18082823374E+02  0.39370991813E+02  0.43400726091E+02  0.00000000000E+00 0. -1.
         11    1    3    3    0    0 -0.45065046079E+01  0.27858254703E+01 -0.79884358691E+01  0.95856410963E+01  0.51100000000E-03 0. -1.
        -11    1    3    3    0    0 -0.13962071831E+01  0.18974426307E+01 -0.15802906802E+02  0.15977532559E+02  0.51100000000E-03 0.  1.
         12    1    3    3    0    0  0.84638692790E+01  0.13399555273E+02 -0.15579649142E+02  0.22224100254E+02  0.00000000000E+00 0. -1.
</event>
<event>
 7    1  0.5022032E-011  0.4778728E+02  0.7816164E-02  0.1312668E+00
        -11   -1    0    0    0    0  0.00000000000E+00  0.00000000000E+00  0.45593999997E+02  0.45594000000E+02  0.51100000000E-03 0. -1.
         11   -1    0    0    0    0 -0.00000000000E+00 -0.00000000000E+00 -0.45593999997E+02  0.45594000000E+02  0.51100000000E-03 0.  1.
    9900012    2    1    2    0    0  0.12370239007E+02  0.38531926898E+02  0.15680899885E+02  0.47787276219E+02  0.20000023592E+02 0.  0.
        -12    1    1    2    0    0 -0.12370239007E+02 -0.38531926898E+02 -0.15680899885E+02  0.43400723781E+02  0.00000000000E+00 0.  1.
         11    1    3    3    0    0  0.30681993722E+01  0.63153465856E+01  0.49908078264E+01  0.86142679843E+01  0.51100000000E-03 0. -1.
        -11    1    3    3    0    0  0.88808184724E+01  0.33474589347E+02  0.71098481462E+01  0.35354872502E+02  0.51100000000E-03 0.  1.
         12    1    3    3    0    0  0.42122116208E+00 -0.12580090353E+01  0.35802439124E+01  0.38181357327E+01  0.00000000000E+00 0. -1.
</event>
<event>
 7    1  0.5022032E-011  0.4778727E+02  0.7816164E-02  0.1312668E+00
        -11   -1    0    0    0    0  0.00000000000E+00  0.00000000000E+00  0.45593999997E+02  0.45594000000E+02  0.51100000000E-03 0. -1.
         11   -1    0    0    0    0 -0.00000000000E+00 -0.00000000000E+00 -0.45593999997E+02  0.45594000000E+02  0.51100000000E-03 0.  1.
    9900012    2    1    2    0    0 -0.19328393143E+02  0.12259526751E+02  0.36874660399E+02  0.47787270085E+02  0.19999995624E+02 0.  0.
        -12    1    1    2    0    0  0.19328393143E+02 -0.12259526751E+02 -0.36874660399E+02  0.43400729915E+02  0.00000000000E+00 0.  1.
         11    1    3    3    0    0 -0.86009805647E+01  0.66874544313E+01  0.18270085054E+02  0.21271928018E+02  0.51100000000E-03 0. -1.
        -11    1    3    3    0    0 -0.94512049511E+00 -0.16048570125E+01  0.13031482178E+02  0.13163903175E+02  0.51100000000E-03 0.  1.
        -12    1    3    3    0    0 -0.97822920835E+01  0.71769293323E+01  0.55730931668E+01  0.13351438892E+02  0.00000000000E+00 0.  1.
</event>
<event>
 7    1  0.5022032E-011  0.4778727E+02  0.7816164E-02  0.1312668E+00
        -11   -1    0    0    0    0  0.00000000000E+00  0.00000000000E+00  0.45593999997E+02  0.45594000000E+02  0.51100000000E-03 0. -1.
         11   -1    0    0    0    0 -0.00000000000E+00 -0.00000000000E+00 -0.45593999997E+02  0.45594000000E+02  0.51100000000E-03 0.  1.
    9900012    2    1    2    0    0  0.33742712011E+02  0.14796892548E+02 -0.22936973087E+02  0.47787269852E+02  0.19999994565E+02 0.  0.
         12    1    1    2    0    0 -0.33742712011E+02 -0.14796892548E+02  0.22936973087E+02  0.43400730148E+02  0.00000000000E+00 0. -1.
         11    1    3    3    0    0  0.12421946875E+02  0.10087265591E+02 -0.63080425637E+01  0.17200264315E+02  0.51100000000E-03 0.  1.
        -11    1    3    3    0    0  0.15204304438E+02  0.36889325266E+01 -0.34488512486E+01  0.16021038412E+02  0.51100000000E-03 0. -1.
         12    1    3    3    0    0  0.61164606985E+01  0.10206944312E+01 -0.13180079274E+02  0.14565967125E+02  0.00000000000E+00 0. -1.
</event>
<event>
 7    1  0.5022032E-011  0.4778727E+02  0.7816164E-02  0.1312668E+00
        -11   -1    0    0    0    0  0.00000000000E+00  0.00000000000E+00  0.45593999997E+02  0.45594000000E+02  0.51100000000E-03 0.  1.
         11   -1    0    0    0    0 -0.00000000000E+00 -0.00000000000E+00 -0.45593999997E+02  0.45594000000E+02  0.51100000000E-03 0. -1.
    9900012    2    1    2    0    0  0.26460239171E+02 -0.32230379385E+02 -0.12028359727E+02  0.47787273624E+02  0.20000011760E+02 0.  0.
         12    1    1    2    0    0 -0.26460239171E+02  0.32230379385E+02  0.12028359727E+02  0.43400726376E+02  0.00000000000E+00 0. -1.
         11    1    3    3    0    0 -0.13005416693E+01 -0.26941481331E+01  0.27271656763E+01  0.40481200184E+01  0.51100000000E-03 0. -1.
        -11    1    3    3    0    0  0.12349928709E+01 -0.45896619768E+01 -0.14203035418E+01  0.49605913825E+01  0.51100000000E-03 0.  1.
        -12    1    3    3    0    0  0.26525787969E+02 -0.24946569275E+02 -0.13335221862E+02  0.38778562223E+02  0.00000000000E+00 0.  1.
</event>
<event>
 7    1  0.5022032E-011  0.4778727E+02  0.7816164E-02  0.1312668E+00
        -11   -1    0    0    0    0  0.00000000000E+00  0.00000000000E+00  0.45593999997E+02  0.45594000000E+02  0.51100000000E-03 0. -1.
         11   -1    0    0    0    0 -0.00000000000E+00 -0.00000000000E+00 -0.45593999997E+02  0.45594000000E+02  0.51100000000E-03 0.  1.
    9900012    2    1    2    0    0  0.16961308575E+02 -0.46139718208E+01  0.39681844205E+02  0.47787268623E+02  0.19999988958E+02 0.  0.
        -12    1    1    2    0    0 -0.16961308575E+02  0.46139718208E+01 -0.39681844205E+02  0.43400731377E+02  0.00000000000E+00 0.  1.
         11    1    3    3    0    0  0.95975900680E+01 -0.44268704043E+01  0.29497468490E+02  0.31333872474E+02  0.51100000000E-03 0. -1.
        -11    1    3    3    0    0 -0.19913277292E+01 -0.14567390585E+01  0.52499570723E+01  0.58008210050E+01  0.51100000000E-03 0.  1.
         12    1    3    3    0    0  0.93550462367E+01  0.12696376420E+01  0.49344186435E+01  0.10652575143E+02  0.00000000000E+00 0. -1.
</event>
<event>
 7    1  0.5022032E-011  0.4778727E+02  0.7816164E-02  0.1312668E+00
        -11   -1    0    0    0    0  0.00000000000E+00  0.00000000000E+00  0.45593999997E+02  0.45594000000E+02  0.51100000000E-03 0. -1.
         11   -1    0    0    0    0 -0.00000000000E+00 -0.00000000000E+00 -0.45593999997E+02  0.45594000000E+02  0.51100000000E-03 0.  1.
    9900012    2    1    2    0    0 -0.83371875732E+01 -0.19023213335E+02  0.38108162065E+02  0.47787270073E+02  0.19999995573E+02 0.  0.
        -12    1    1    2    0    0  0.83371875732E+01  0.19023213335E+02 -0.38108162065E+02  0.43400729927E+02  0.00000000000E+00 0.  1.
         11    1    3    3    0    0 -0.15481768566E+01 -0.81873877429E+01  0.17354851291E+02  0.19251520283E+02  0.51100000000E-03 0. -1.
        -11    1    3    3    0    0  0.34318246304E+01 -0.57058060474E+00  0.97281355224E+01  0.10331486027E+02  0.51100000000E-03 0.  1.
         12    1    3    3    0    0 -0.10220835347E+02 -0.10265244987E+02  0.11025175251E+02  0.18204263763E+02  0.00000000000E+00 0. -1.
</event>
<event>
 7    1  0.5022032E-011  0.4778726E+02  0.7816164E-02  0.1312668E+00
        -11   -1    0    0    0    0  0.00000000000E+00  0.00000000000E+00  0.45593999997E+02  0.45594000000E+02  0.51100000000E-03 0. -1.
         11   -1    0    0    0    0 -0.00000000000E+00 -0.00000000000E+00 -0.45593999997E+02  0.45594000000E+02  0.51100000000E-03 0.  1.
    9900012    2    1    2    0    0 -0.26058157370E+02 -0.27135031083E+02  0.21639930461E+02  0.47787261899E+02  0.19999958301E+02 0.  0.
        -12    1    1    2    0    0  0.26058157370E+02  0.27135031083E+02 -0.21639930461E+02  0.43400738101E+02  0.00000000000E+00 0.  1.
         11    1    3    3    0    0 -0.19307348847E+02 -0.20571207629E+02  0.14497827850E+02  0.31719636118E+02  0.51100000000E-03 0.  1.
        -11    1    3    3    0    0 -0.74846243269E+01 -0.80478570900E+01  0.26858328209E+01  0.11313766095E+02  0.51100000000E-03 0. -1.
        -12    1    3    3    0    0  0.73381580451E+00  0.14840336360E+01  0.44562697901E+01  0.47538596855E+01  0.00000000000E+00 0.  1.
</event>
<event>
 7    1  0.5110026E-011  0.4778727E+02  0.7816164E-02  0.1312668E+00
        -11   -1    0    0    0    0  0.00000000000E+00  0.00000000000E+00  0.45593999997E+02  0.45594000000E+02  0.51100000000E-03 0. -1.
         11   -1    0    0    0    0 -0.00000000000E+00 -0.00000000000E+00 -0.45593999997E+02  0.45594000000E+02  0.51100000000E-03 0.  1.
    9900012    2    1    2    0    0  0.16519170162E+02  0.27644033992E+02 -0.29095493135E+02  0.47787270525E+02  0.19999997632E+02 0.  0.
         12    1    1    2    0    0 -0.16519170162E+02 -0.27644033992E+02  0.29095493135E+02  0.43400729475E+02  0.00000000000E+00 0. -1.
         11    1    3    3    0    0 -0.14541164477E+01  0.33280860000E+01 -0.10379222297E+02  0.10996311509E+02  0.51100000000E-03 0. -1.
        -11    1    3    3    0    0  0.95039931916E+00 -0.83261726515E+00 -0.39377566474E+00  0.13234688932E+01  0.51100000000E-03 0.  1.
        -12    1    3    3    0    0  0.17022887290E+02  0.25148565257E+02 -0.18322495174E+02  0.35467490122E+02  0.00000000000E+00 0.  1.
</event>
<event>
 7    1  0.5022032E-011  0.4778722E+02  0.7816164E-02  0.1312668E+00
        -11   -1    0    0    0    0  0.00000000000E+00  0.00000000000E+00  0.45593999997E+02  0.45594000000E+02  0.51100000000E-03 0. -1.
         11   -1    0    0    0    0 -0.00000000000E+00 -0.00000000000E+00 -0.45593999997E+02  0.45594000000E+02  0.51100000000E-03 0.  1.
    9900012    2    1    2    0    0 -0.38764022208E+02  0.57251841862E+01  0.18660131544E+02  0.47787220503E+02  0.19999769559E+02 0.  0.
        -12    1    1    2    0    0  0.38764022208E+02 -0.57251841862E+01 -0.18660131544E+02  0.43400779497E+02  0.00000000000E+00 0.  1.
         11    1    3    3    0    0 -0.89754801608E+01 -0.89519435934E+00  0.94090064045E+01  0.13034186543E+02  0.51100000000E-03 0. -1.
        -11    1    3    3    0    0 -0.11701199261E+02 -0.38356721189E+01  0.12341380133E+01  0.12375521873E+02  0.51100000000E-03 0.  1.
         12    1    3    3    0    0 -0.18087342787E+02  0.10456050664E+02  0.80169871259E+01  0.22377512086E+02  0.00000000000E+00 0. -1.
</event>
<event>
 7    1  0.5022032E-011  0.4778727E+02  0.7816164E-02  0.1312668E+00
        -11   -1    0    0    0    0  0.00000000000E+00  0.00000000000E+00  0.45593999997E+02  0.45594000000E+02  0.51100000000E-03 0. -1.
         11   -1    0    0    0    0 -0.00000000000E+00 -0.00000000000E+00 -0.45593999997E+02  0.45594000000E+02  0.51100000000E-03 0.  1.
    9900012    2    1    2    0    0 -0.69831373853E+01 -0.17711850950E+02  0.39001918151E+02  0.47787268540E+02  0.19999988581E+02 0.  0.
        -12    1    1    2    0    0  0.69831373853E+01  0.17711850950E+02 -0.39001918151E+02  0.43400731460E+02  0.00000000000E+00 0.  1.
         11    1    3    3    0    0 -0.80289072177E+01 -0.67167605229E+01  0.21179320149E+02  0.23625025403E+02  0.51100000000E-03 0. -1.
        -11    1    3    3    0    0 -0.16795067160E+01  0.31390128193E-01  0.10532757593E+02  0.10665866628E+02  0.51100000000E-03 0.  1.
         12    1    3    3    0    0  0.27252765484E+01 -0.11026480555E+02  0.72898404084E+01  0.13496376509E+02  0.00000000000E+00 0. -1.
</event>
<event>
 7    1  0.5022032E-011  0.4778726E+02  0.7816164E-02  0.1312668E+00
        -11   -1    0    0    0    0  0.00000000000E+00  0.00000000000E+00  0.45593999997E+02  0.45594000000E+02  0.51100000000E-03 0. -1.
         11   -1    0    0    0    0 -0.00000000000E+00 -0.00000000000E+00 -0.45593999997E+02  0.45594000000E+02  0.51100000000E-03 0.  1.
    9900012    2    1    2    0    0  0.24555168345E+01 -0.10349859688E+02  0.42077009890E+02  0.47787263603E+02  0.19999966072E+02 0.  0.
        -12    1    1    2    0    0 -0.24555168345E+01  0.10349859688E+02 -0.42077009890E+02  0.43400736397E+02  0.00000000000E+00 0.  1.
         11    1    3    3    0    0 -0.47344431227E+01  0.69437132997E+00  0.19848212800E+02  0.20416871818E+02  0.51100000000E-03 0. -1.
        -11    1    3    3    0    0  0.12514713707E+01 -0.11207697879E+01 -0.59639863453E+00  0.17826937767E+01  0.51100000000E-03 0.  1.
         12    1    3    3    0    0  0.59384885866E+01 -0.99234612301E+01  0.22825195725E+02  0.25587698008E+02  0.00000000000E+00 0. -1.
</event>
<event>
 7    1  0.5022032E-011  0.4778727E+02  0.7816164E-02  0.1312668E+00
        -11   -1    0    0    0    0  0.00000000000E+00  0.00000000000E+00  0.45593999997E+02  0.45594000000E+02  0.51100000000E-03 0. -1.
         11   -1    0    0    0    0 -0.00000000000E+00 -0.00000000000E+00 -0.45593999997E+02  0.45594000000E+02  0.51100000000E-03 0.  1.
    9900012    2    1    2    0    0 -0.18842564910E+02  0.10312983363E+02  0.37712376688E+02  0.47787271508E+02  0.20000002112E+02 0.  0.
        -12    1    1    2    0    0  0.18842564910E+02 -0.10312983363E+02 -0.37712376688E+02  0.43400728492E+02  0.00000000000E+00 0.  1.
         11    1    3    3    0    0 -0.12535513851E+01  0.33655891548E+01  0.19331072514E+01  0.40786621999E+01  0.51100000000E-03 0.  1.
        -11    1    3    3    0    0 -0.13329417831E+02 -0.31512587350E+01  0.15717328683E+02  0.20847979099E+02  0.51100000000E-03 0. -1.
         12    1    3    3    0    0 -0.42595956940E+01  0.10098652943E+02  0.20061940754E+02  0.22860630209E+02  0.00000000000E+00 0. -1.
</event>
<event>
 7    1  0.5022032E-011  0.4778727E+02  0.7816164E-02  0.1312668E+00
        -11   -1    0    0    0    0  0.00000000000E+00  0.00000000000E+00  0.45593999997E+02  0.45594000000E+02  0.51100000000E-03 0. -1.
         11   -1    0    0    0    0 -0.00000000000E+00 -0.00000000000E+00 -0.45593999997E+02  0.45594000000E+02  0.51100000000E-03 0.  1.
    9900012    2    1    2    0    0 -0.17614530498E+02 -0.23420852660E+02 -0.32012736668E+02  0.47787270364E+02  0.19999996897E+02 0.  0.
         12    1    1    2    0    0  0.17614530498E+02  0.23420852660E+02  0.32012736668E+02  0.43400729636E+02  0.00000000000E+00 0. -1.
         11    1    3    3    0    0 -0.26304293862E+01 -0.59692299510E+01 -0.14089243883E+00  0.65246238132E+01  0.51100000000E-03 0. -1.
        -11    1    3    3    0    0 -0.61516549340E+01 -0.15289795445E+02 -0.15996801325E+02  0.22967767764E+02  0.51100000000E-03 0.  1.
        -12    1    3    3    0    0 -0.88324461783E+01 -0.21618272637E+01 -0.15875042904E+02  0.18294878787E+02  0.00000000000E+00 0.  1.
</event>
<event>
 7    1  0.5022032E-011  0.4778727E+02  0.7816164E-02  0.1312668E+00
        -11   -1    0    0    0    0  0.00000000000E+00  0.00000000000E+00  0.45593999997E+02  0.45594000000E+02  0.51100000000E-03 0. -1.
         11   -1    0    0    0    0 -0.00000000000E+00 -0.00000000000E+00 -0.45593999997E+02  0.45594000000E+02  0.51100000000E-03 0.  1.
    9900012    2    1    2    0    0  0.14907102983E+02 -0.25582646991E+02 -0.31732155250E+02  0.47787271627E+02  0.20000002658E+02 0.  0.
         12    1    1    2    0    0 -0.14907102983E+02  0.25582646991E+02  0.31732155250E+02  0.43400728373E+02  0.00000000000E+00 0. -1.
         11    1    3    3    0    0 -0.30445024796E+00 -0.58414105081E+01 -0.73894941251E+01  0.94244039793E+01  0.51100000000E-03 0. -1.
        -11    1    3    3    0    0  0.77584404637E+01 -0.11781417959E+02 -0.23521790904E+02  0.27427538262E+02  0.51100000000E-03 0.  1.
        -12    1    3    3    0    0  0.74531127676E+01 -0.79598185238E+01 -0.82087022173E+00  0.10935329386E+02  0.00000000000E+00 0.  1.
</event>
<event>
 7    1  0.5022032E-011  0.4778728E+02  0.7816164E-02  0.1312668E+00
        -11   -1    0    0    0    0  0.00000000000E+00  0.00000000000E+00  0.45593999997E+02  0.45594000000E+02  0.51100000000E-03 0. -1.
         11   -1    0    0    0    0 -0.00000000000E+00 -0.00000000000E+00 -0.45593999997E+02  0.45594000000E+02  0.51100000000E-03 0.  1.
    9900012    2    1    2    0    0  0.21906411292E+02  0.21626416874E+02 -0.30594608666E+02  0.47787276021E+02  0.20000022688E+02 0.  0.
         12    1    1    2    0    0 -0.21906411292E+02 -0.21626416874E+02  0.30594608666E+02  0.43400723979E+02  0.00000000000E+00 0. -1.
         11    1    3    3    0    0  0.92361294899E+01  0.33827760601E+01 -0.14938246788E+02  0.17885761913E+02  0.51100000000E-03 0. -1.
        -11    1    3    3    0    0  0.88181628121E+01  0.80372766202E+01 -0.14725842679E+02  0.18952790130E+02  0.51100000000E-03 0.  1.
         12    1    3    3    0    0  0.38521189903E+01  0.10206364193E+02 -0.93051919924E+00  0.10948723978E+02  0.00000000000E+00 0. -1.
</event>
<event>
 7    1  0.5022032E-011  0.4778727E+02  0.7816164E-02  0.1312668E+00
        -11   -1    0    0    0    0  0.00000000000E+00  0.00000000000E+00  0.45593999997E+02  0.45594000000E+02  0.51100000000E-03 0. -1.
         11   -1    0    0    0    0 -0.00000000000E+00 -0.00000000000E+00 -0.45593999997E+02  0.45594000000E+02  0.51100000000E-03 0.  1.
    9900012    2    1    2    0    0  0.26459852344E+02 -0.16349917905E+01  0.34363150853E+02  0.47787272808E+02  0.20000008040E+02 0.  0.
        -12    1    1    2    0    0 -0.26459852344E+02  0.16349917905E+01 -0.34363150853E+02  0.43400727192E+02  0.00000000000E+00 0.  1.
         11    1    3    3    0    0  0.67323636173E+01  0.23225417914E-01  0.74970300987E+01  0.10076245325E+02  0.51100000000E-03 0. -1.
        -11    1    3    3    0    0 -0.20915648709E+01  0.19607106868E+01  0.84739594577E+01  0.89457821993E+01  0.51100000000E-03 0.  1.
        -12    1    3    3    0    0  0.21819053598E+02 -0.36189278952E+01  0.18392161297E+02  0.28765245283E+02  0.00000000000E+00 0.  1.
</event>
<event>
 7    1  0.5022032E-011  0.4778728E+02  0.7816164E-02  0.1312668E+00
        -11   -1    0    0    0    0  0.00000000000E+00  0.00000000000E+00  0.45593999997E+02  0.45594000000E+02  0.51100000000E-03 0. -1.
         11   -1    0    0    0    0 -0.00000000000E+00 -0.00000000000E+00 -0.45593999997E+02  0.45594000000E+02  0.51100000000E-03 0.  1.
    9900012    2    1    2    0    0  0.16307343475E+02 -0.39560336086E+02 -0.72576296395E+01  0.47787276154E+02  0.20000023295E+02 0.  0.
         12    1    1    2    0    0 -0.16307343475E+02  0.39560336086E+02  0.72576296395E+01  0.43400723846E+02  0.00000000000E+00 0. -1.
         11    1    3    3    0    0 -0.79604560435E+00 -0.10669811027E+02 -0.34388877348E+01  0.11238527710E+02  0.51100000000E-03 0. -1.
        -11    1    3    3    0    0  0.69036158438E+01 -0.21247958701E+02  0.22082430862E+01  0.22450211547E+02  0.51100000000E-03 0.  1.
        -12    1    3    3    0    0  0.10199773235E+02 -0.76425663568E+01 -0.60269849909E+01  0.14098536897E+02  0.00000000000E+00 0.  1.
</event>
<event>
 7    1  0.5022032E-011  0.4778727E+02  0.7816164E-02  0.1312668E+00
        -11   -1    0    0    0    0  0.00000000000E+00  0.00000000000E+00  0.45593999997E+02  0.45594000000E+02  0.51100000000E-03 0. -1.
         11   -1    0    0    0    0 -0.00000000000E+00 -0.00000000000E+00 -0.45593999997E+02  0.45594000000E+02  0.51100000000E-03 0.  1.
    9900012    2    1    2    0    0  0.35379658661E+02  0.55932700902E+01 -0.24507513941E+02  0.47787272392E+02  0.20000006145E+02 0.  0.
         12    1    1    2    0    0 -0.35379658661E+02 -0.55932700902E+01  0.24507513941E+02  0.43400727608E+02  0.00000000000E+00 0. -1.
         11    1    3    3    0    0  0.57461427853E+01  0.45198654277E+01 -0.53182506236E+01  0.90405271058E+01  0.51100000000E-03 0. -1.
        -11    1    3    3    0    0  0.41014675071E+01 -0.46264059166E+01  0.19731210797E+00  0.61858386453E+01  0.51100000000E-03 0.  1.
        -12    1    3    3    0    0  0.25532048369E+02  0.56998105791E+01 -0.19386575426E+02  0.32560906641E+02  0.00000000000E+00 0.  1.
</event>
<event>
 7    1  0.5022032E-011  0.4778727E+02  0.7816164E-02  0.1312668E+00
        -11   -1    0    0    0    0  0.00000000000E+00  0.00000000000E+00  0.45593999997E+02  0.45594000000E+02  0.51100000000E-03 0. -1.
         11   -1    0    0    0    0 -0.00000000000E+00 -0.00000000000E+00 -0.45593999997E+02  0.45594000000E+02  0.51100000000E-03 0.  1.
    9900012    2    1    2    0    0 -0.32920522577E+02 -0.48323468717E+01  0.27865942451E+02  0.47787272683E+02  0.20000007469E+02 0.  0.
        -12    1    1    2    0    0  0.32920522577E+02  0.48323468717E+01 -0.27865942451E+02  0.43400727317E+02  0.00000000000E+00 0.  1.
         11    1    3    3    0    0 -0.28938583952E+01 -0.14938693611E+00  0.20586244069E+01  0.35545277574E+01  0.51100000000E-03 0. -1.
        -11    1    3    3    0    0 -0.22904136912E+02 -0.92298559571E+01  0.25895426133E+02  0.35782157894E+02  0.51100000000E-03 0.  1.
        -12    1    3    3    0    0 -0.71225272699E+01  0.45468960215E+01 -0.88108089239E-01  0.84505870315E+01  0.00000000000E+00 0.  1.
</event>
<event>
 7    1  0.5022032E-011  0.4778724E+02  0.7816164E-02  0.1312668E+00
        -11   -1    0    0    0    0  0.00000000000E+00  0.00000000000E+00  0.45593999997E+02  0.45594000000E+02  0.51100000000E-03 0. -1.
         11   -1    0    0    0    0 -0.00000000000E+00 -0.00000000000E+00 -0.45593999997E+02  0.45594000000E+02  0.51100000000E-03 0.  1.
    9900012    2    1    2    0    0  0.62248376067E+01 -0.21572356847E+02  0.37141769505E+02  0.47787237044E+02  0.19999844979E+02 0.  0.
        -12    1    1    2    0    0 -0.62248376067E+01  0.21572356847E+02 -0.37141769505E+02  0.43400762956E+02  0.00000000000E+00 0.  1.
         11    1    3    3    0    0  0.77140657686E+00 -0.29358990250E+00  0.62274821344E+01  0.62819421466E+01  0.51100000000E-03 0. -1.
        -11    1    3    3    0    0 -0.33349602493E+00 -0.46347883801E+01 -0.12661480017E+01  0.48161825080E+01  0.51100000000E-03 0.  1.
        -12    1    3    3    0    0  0.57869270548E+01 -0.16643978564E+02  0.32180435372E+02  0.36689112390E+02  0.00000000000E+00 0.  1.
</event>
<event>
 7    1  0.5022032E-011  0.4778728E+02  0.7816164E-02  0.1312668E+00
        -11   -1    0    0    0    0  0.00000000000E+00  0.00000000000E+00  0.45593999997E+02  0.45594000000E+02  0.51100000000E-03 0. -1.
         11   -1    0    0    0    0 -0.00000000000E+00 -0.00000000000E+00 -0.45593999997E+02  0.45594000000E+02  0.51100000000E-03 0.  1.
    9900012    2    1    2    0    0 -0.18562608656E+02 -0.37906999689E+02  0.10105031406E+02  0.47787277365E+02  0.20000028818E+02 0.  0.
         12    1    1    2    0    0  0.18562608656E+02  0.37906999689E+02 -0.10105031406E+02  0.43400722635E+02  0.00000000000E+00 0. -1.
         11    1    3    3    0    0 -0.15760338018E+02 -0.10834007767E+02  0.53053491775E+01  0.19847183904E+02  0.51100000000E-03 0. -1.
        -11    1    3    3    0    0 -0.67132924991E+00 -0.24560167989E+01 -0.67023637690E+00  0.26328536876E+01  0.51100000000E-03 0.  1.
         12    1    3    3    0    0 -0.21309413876E+01 -0.24616975123E+02  0.54699186055E+01  0.25307239774E+02  0.00000000000E+00 0. -1.
</event>
<event>
 7    1  0.5022032E-011  0.4778729E+02  0.7816164E-02  0.1312668E+00
        -11   -1    0    0    0    0  0.00000000000E+00  0.00000000000E+00  0.45593999997E+02  0.45594000000E+02  0.51100000000E-03 0. -1.
         11   -1    0    0    0    0 -0.00000000000E+00 -0.00000000000E+00 -0.45593999997E+02  0.45594000000E+02  0.51100000000E-03 0.  1.
    9900012    2    1    2    0    0 -0.33633848153E+02  0.92307317104E+01 -0.25829813715E+02  0.47787292332E+02  0.20000097060E+02 0.  0.
         12    1    1    2    0    0  0.33633848153E+02 -0.92307317104E+01  0.25829813715E+02  0.43400707668E+02  0.00000000000E+00 0. -1.
         11    1    3    3    0    0 -0.38446116545E+01  0.57440042342E+01 -0.21798487057E+01  0.72475074375E+01  0.51100000000E-03 0. -1.
        -11    1    3    3    0    0 -0.69630747776E+01 -0.38990021362E+01 -0.20072488566E+01  0.82289535332E+01  0.51100000000E-03 0.  1.
         12    1    3    3    0    0 -0.22826161721E+02  0.73857296124E+01 -0.21642716153E+02  0.32310831362E+02  0.00000000000E+00 0. -1.
</event>
<event>
 7    1  0.5022032E-011  0.4778727E+02  0.7816164E-02  0.1312668E+00
        -11   -1    0    0    0    0  0.00000000000E+00  0.00000000000E+00  0.45593999997E+02  0.45594000000E+02  0.51100000000E-03 0. -1.
         11   -1    0    0    0    0 -0.00000000000E+00 -0.00000000000E+00 -0.45593999997E+02  0.45594000000E+02  0.51100000000E-03 0.  1.
    9900012    2    1    2    0    0  0.18521902405E+02  0.43476384296E+01 -0.39008462398E+02  0.47787274577E+02  0.20000016105E+02 0.  0.
         12    1    1    2    0    0 -0.18521902405E+02 -0.43476384296E+01  0.39008462398E+02  0.43400725423E+02  0.00000000000E+00 0. -1.
         11    1    3    3    0    0  0.37888894230E+01  0.13861210734E+00 -0.12805444882E+01  0.40018359316E+01  0.51100000000E-03 0. -1.
        -11    1    3    3    0    0  0.17158460198E+02  0.65747574577E+01 -0.34588699000E+02  0.39166545556E+02  0.51100000000E-03 0.  1.
        -12    1    3    3    0    0 -0.24254472167E+01 -0.23657311354E+01 -0.31392189099E+01  0.46188930893E+01  0.00000000000E+00 0.  1.
</event>
<event>
 7    1  0.5022032E-011  0.4778726E+02  0.7816164E-02  0.1312668E+00
        -11   -1    0    0    0    0  0.00000000000E+00  0.00000000000E+00  0.45593999997E+02  0.45594000000E+02  0.51100000000E-03 0. -1.
         11   -1    0    0    0    0 -0.00000000000E+00 -0.00000000000E+00 -0.45593999997E+02  0.45594000000E+02  0.51100000000E-03 0.  1.
    9900012    2    1    2    0    0  0.11366945816E+02  0.33740975625E+01 -0.41749632651E+02  0.47787264776E+02  0.19999971418E+02 0.  0.
         12    1    1    2    0    0 -0.11366945816E+02 -0.33740975625E+01  0.41749632651E+02  0.43400735224E+02  0.00000000000E+00 0. -1.
         11    1    3    3    0    0 -0.29168177957E+00  0.96090701893E+00 -0.28391651214E+01  0.30115244325E+01  0.51100000000E-03 0. -1.
        -11    1    3    3    0    0  0.17939394236E+01  0.92576962244E+01 -0.22882481909E+02  0.24749366389E+02  0.51100000000E-03 0.  1.
         12    1    3    3    0    0  0.98646881717E+01 -0.68445056808E+01 -0.16027985620E+02  0.20026373955E+02  0.00000000000E+00 0. -1.
</event>
<event>
 7    1  0.5022032E-011  0.4778727E+02  0.7816164E-02  0.1312668E+00
        -11   -1    0    0    0    0  0.00000000000E+00  0.00000000000E+00  0.45593999997E+02  0.45594000000E+02  0.51100000000E-03 0. -1.
         11   -1    0    0    0    0 -0.00000000000E+00 -0.00000000000E+00 -0.45593999997E+02  0.45594000000E+02  0.51100000000E-03 0.  1.
    9900012    2    1    2    0    0 -0.37396062189E+02  0.57262372743E+01  0.21268945387E+02  0.47787270761E+02  0.19999998709E+02 0.  0.
        -12    1    1    2    0    0  0.37396062189E+02 -0.57262372743E+01 -0.21268945387E+02  0.43400729239E+02  0.00000000000E+00 0.  1.
         11    1    3    3    0    0 -0.81277874430E+01 -0.42730924685E+01  0.38932547801E+01  0.99738498588E+01  0.51100000000E-03 0. -1.
        -11    1    3    3    0    0 -0.38466405777E+01 -0.23923438862E+01 -0.16777706295E+00  0.45330014789E+01  0.51100000000E-03 0.  1.
         12    1    3    3    0    0 -0.25421634168E+02  0.12391673629E+02  0.17543467670E+02  0.33280419424E+02  0.00000000000E+00 0. -1.
</event>
<event>
 7    1  0.5022032E-011  0.4778727E+02  0.7816164E-02  0.1312668E+00
        -11   -1    0    0    0    0  0.00000000000E+00  0.00000000000E+00  0.45593999997E+02  0.45594000000E+02  0.51100000000E-03 0. -1.
         11   -1    0    0    0    0 -0.00000000000E+00 -0.00000000000E+00 -0.45593999997E+02  0.45594000000E+02  0.51100000000E-03 0.  1.
    9900012    2    1    2    0    0 -0.20835851571E+02 -0.32249938849E+02  0.20234428617E+02  0.47787269961E+02  0.19999995060E+02 0.  0.
        -12    1    1    2    0    0  0.20835851571E+02  0.32249938849E+02 -0.20234428617E+02  0.43400730039E+02  0.00000000000E+00 0.  1.
         11    1    3    3    0    0 -0.69030781974E+01 -0.12912716437E+02  0.31878020243E+01  0.14985086466E+02  0.51100000000E-03 0. -1.
        -11    1    3    3    0    0 -0.67141854981E+01 -0.19449945071E+01  0.10983773769E+02  0.13019469152E+02  0.51100000000E-03 0.  1.
        -12    1    3    3    0    0 -0.72185878757E+01 -0.17392227905E+02  0.60628528238E+01  0.19782714343E+02  0.00000000000E+00 0.  1.
</event>
<event>
 7    1  0.5022032E-011  0.4778727E+02  0.7816164E-02  0.1312668E+00
        -11   -1    0    0    0    0  0.00000000000E+00  0.00000000000E+00  0.45593999997E+02  0.45594000000E+02  0.51100000000E-03 0.  1.
         11   -1    0    0    0    0 -0.00000000000E+00 -0.00000000000E+00 -0.45593999997E+02  0.45594000000E+02  0.51100000000E-03 0. -1.
    9900012    2    1    2    0    0 -0.40557473211E+02  0.15425256998E+02  0.88087298519E+00  0.47787272772E+02  0.20000007878E+02 0.  0.
        -12    1    1    2    0    0  0.40557473211E+02 -0.15425256998E+02 -0.88087298519E+00  0.43400727228E+02  0.00000000000E+00 0.  1.
         11    1    3    3    0    0 -0.27403575900E+02  0.13082935873E+02  0.99178774322E+00  0.30382607300E+02  0.51100000000E-03 0. -1.
        -11    1    3    3    0    0 -0.57228304678E+01  0.59301686310E+01  0.27234796367E+01  0.86795754590E+01  0.51100000000E-03 0.  1.
        -12    1    3    3    0    0 -0.74310668431E+01 -0.35878475062E+01 -0.28343943948E+01  0.87250900132E+01  0.00000000000E+00 0.  1.
</event>
<event>
 7    1  0.5022032E-011  0.4778727E+02  0.7816164E-02  0.1312668E+00
        -11   -1    0    0    0    0  0.00000000000E+00  0.00000000000E+00  0.45593999997E+02  0.45594000000E+02  0.51100000000E-03 0. -1.
         11   -1    0    0    0    0 -0.00000000000E+00 -0.00000000000E+00 -0.45593999997E+02  0.45594000000E+02  0.51100000000E-03 0.  1.
    9900012    2    1    2    0    0  0.17796819279E+02 -0.12404563515E+02  0.37590200137E+02  0.47787272831E+02  0.20000008146E+02 0.  0.
        -12    1    1    2    0    0 -0.17796819279E+02  0.12404563515E+02 -0.37590200137E+02  0.43400727169E+02  0.00000000000E+00 0.  1.
         11    1    3    3    0    0 -0.22134742784E+00 -0.33418283814E+01  0.94971008315E+01  0.10070339422E+02  0.51100000000E-03 0. -1.
        -11    1    3    3    0    0  0.15888244148E+02 -0.74523590134E+01  0.29774499579E+02  0.34561463835E+02  0.51100000000E-03 0.  1.
        -12    1    3    3    0    0  0.21299225579E+01 -0.16103761206E+01 -0.16814002732E+01  0.31554695738E+01  0.00000000000E+00 0.  1.
</event>
<event>
 7    1  0.5022032E-011  0.4778726E+02  0.7816164E-02  0.1312668E+00
        -11   -1    0    0    0    0  0.00000000000E+00  0.00000000000E+00  0.45593999997E+02  0.45594000000E+02  0.51100000000E-03 0.  1.
         11   -1    0    0    0    0 -0.00000000000E+00 -0.00000000000E+00 -0.45593999997E+02  0.45594000000E+02  0.51100000000E-03 0. -1.
    9900012    2    1    2    0    0 -0.23056664545E+02  0.36078091103E+02 -0.70982991487E+01  0.47787259357E+02  0.19999946712E+02 0.  0.
         12    1    1    2    0    0  0.23056664545E+02 -0.36078091103E+02  0.70982991487E+01  0.43400740643E+02  0.00000000000E+00 0. -1.
         11    1    3    3    0    0 -0.40295558986E+01  0.34421918674E+01  0.24040494890E+01  0.58194037323E+01  0.51100000000E-03 0. -1.
        -11    1    3    3    0    0 -0.16658192616E+02  0.31045110615E+02 -0.36044045338E+01  0.35415900478E+02  0.51100000000E-03 0.  1.
        -12    1    3    3    0    0 -0.23689160298E+01  0.15907886202E+01 -0.58979441039E+01  0.65519551466E+01  0.00000000000E+00 0.  1.
</event>
<event>
 7    1  0.5022032E-011  0.4778727E+02  0.7816164E-02  0.1312668E+00
        -11   -1    0    0    0    0  0.00000000000E+00  0.00000000000E+00  0.45593999997E+02  0.45594000000E+02  0.51100000000E-03 0. -1.
         11   -1    0    0    0    0 -0.00000000000E+00 -0.00000000000E+00 -0.45593999997E+02  0.45594000000E+02  0.51100000000E-03 0.  1.
    9900012    2    1    2    0    0 -0.18276892788E+02 -0.51905592837E+01  0.39020979991E+02  0.47787267344E+02  0.19999983128E+02 0.  0.
        -12    1    1    2    0    0  0.18276892788E+02  0.51905592837E+01 -0.39020979991E+02  0.43400732656E+02  0.00000000000E+00 0.  1.
         11    1    3    3    0    0 -0.50335968214E+01  0.12384515554E+01  0.48681655231E+01  0.71112512990E+01  0.51100000000E-03 0. -1.
        -11    1    3    3    0    0 -0.15390074027E+02 -0.95522798115E+01  0.30078838347E+02  0.35111777863E+02  0.51100000000E-03 0.  1.
         12    1    3    3    0    0  0.21467780601E+01  0.31232689724E+01  0.40739761209E+01  0.55642381820E+01  0.00000000000E+00 0. -1.
</event>
<event>
 7    1  0.5022032E-011  0.4778727E+02  0.7816164E-02  0.1312668E+00
        -11   -1    0    0    0    0  0.00000000000E+00  0.00000000000E+00  0.45593999997E+02  0.45594000000E+02  0.51100000000E-03 0.  1.
         11   -1    0    0    0    0 -0.00000000000E+00 -0.00000000000E+00 -0.45593999997E+02  0.45594000000E+02  0.51100000000E-03 0. -1.
    9900012    2    1    2    0    0 -0.38514205249E+02 -0.13563537262E+02  0.14707463381E+02  0.47787273875E+02  0.20000012908E+02 0.  0.
        -12    1    1    2    0    0  0.38514205249E+02  0.13563537262E+02 -0.14707463381E+02  0.43400726125E+02  0.00000000000E+00 0.  1.
         11    1    3    3    0    0 -0.26176269625E+02 -0.27595746033E+01  0.13460635074E+02  0.29563508593E+02  0.51100000000E-03 0. -1.
        -11    1    3    3    0    0 -0.10422103841E+02 -0.41786872051E+01  0.14639046757E+01  0.11323634239E+02  0.51100000000E-03 0.  1.
        -12    1    3    3    0    0 -0.19158317838E+01 -0.66252754536E+01 -0.21707636965E+00  0.69001310430E+01  0.00000000000E+00 0.  1.
</event>
<event>
 7    1  0.5022032E-011  0.4778727E+02  0.7816164E-02  0.1312668E+00
        -11   -1    0    0    0    0  0.00000000000E+00  0.00000000000E+00  0.45593999997E+02  0.45594000000E+02  0.51100000000E-03 0. -1.
         11   -1    0    0    0    0 -0.00000000000E+00 -0.00000000000E+00 -0.45593999997E+02  0.45594000000E+02  0.51100000000E-03 0.  1.
    9900012    2    1    2    0    0  0.11846898974E+02  0.33926874857E+01  0.41614470724E+02  0.47787268240E+02  0.19999987213E+02 0.  0.
        -12    1    1    2    0    0 -0.11846898974E+02 -0.33926874857E+01 -0.41614470724E+02  0.43400731760E+02  0.00000000000E+00 0.  1.
         11    1    3    3    0    0  0.10191969046E+02 -0.26892677477E+01  0.13778469382E+02  0.17348043487E+02  0.51100000000E-03 0. -1.
        -11    1    3    3    0    0 -0.16985975006E+01 -0.13498073831E+01  0.99444056119E+00  0.23866557631E+01  0.51100000000E-03 0.  1.
        -12    1    3    3    0    0  0.33535274291E+01  0.74317626165E+01  0.26841560780E+02  0.28052568990E+02  0.00000000000E+00 0.  1.
</event>
<event>
 7    1  0.5022032E-011  0.4778727E+02  0.7816164E-02  0.1312668E+00
        -11   -1    0    0    0    0  0.00000000000E+00  0.00000000000E+00  0.45593999997E+02  0.45594000000E+02  0.51100000000E-03 0. -1.
         11   -1    0    0    0    0 -0.00000000000E+00 -0.00000000000E+00 -0.45593999997E+02  0.45594000000E+02  0.51100000000E-03 0.  1.
    9900012    2    1    2    0    0  0.23309672448E+02  0.22608266582E+02 -0.28794943779E+02  0.47787270343E+02  0.19999996803E+02 0.  0.
         12    1    1    2    0    0 -0.23309672448E+02 -0.22608266582E+02  0.28794943779E+02  0.43400729657E+02  0.00000000000E+00 0. -1.
         11    1    3    3    0    0  0.23403618605E+02  0.16319364485E+02 -0.18691670959E+02  0.34109083606E+02  0.51100000000E-03 0. -1.
        -11    1    3    3    0    0  0.13601298066E+01  0.48236020948E+01 -0.21361281900E+01  0.54479477021E+01  0.51100000000E-03 0.  1.
         12    1    3    3    0    0 -0.14540759629E+01  0.14653000023E+01 -0.79671446307E+01  0.82302390348E+01  0.00000000000E+00 0. -1.
</event>
<event>
 7    1  0.5022032E-011  0.4778727E+02  0.7816164E-02  0.1312668E+00
        -11   -1    0    0    0    0  0.00000000000E+00  0.00000000000E+00  0.45593999997E+02  0.45594000000E+02  0.51100000000E-03 0. -1.
         11   -1    0    0    0    0 -0.00000000000E+00 -0.00000000000E+00 -0.45593999997E+02  0.45594000000E+02  0.51100000000E-03 0.  1.
    9900012    2    1    2    0    0 -0.24746201784E+02 -0.57234471404E+01 -0.35192195862E+02  0.47787274205E+02  0.20000014411E+02 0.  0.
         12    1    1    2    0    0  0.24746201784E+02  0.57234471404E+01  0.35192195862E+02  0.43400725795E+02  0.00000000000E+00 0. -1.
         11    1    3    3    0    0 -0.11793884503E+02  0.94733703377E+00 -0.11987695737E+02  0.16843337213E+02  0.51100000000E-03 0. -1.
        -11    1    3    3    0    0 -0.12412357171E+02 -0.39132797121E+01 -0.75640327558E+01  0.15053071462E+02  0.51100000000E-03 0.  1.
        -12    1    3    3    0    0 -0.53996011033E+00 -0.27575044621E+01 -0.15640467369E+02  0.15890865530E+02  0.00000000000E+00 0.  1.
</event>
<event>
 7    1  0.5089561E-011  0.4778727E+02  0.7816164E-02  0.1312668E+00
        -11   -1    0    0    0    0  0.00000000000E+00  0.00000000000E+00  0.45593999997E+02  0.45594000000E+02  0.51100000000E-03 0. -1.
         11   -1    0    0    0    0 -0.00000000000E+00 -0.00000000000E+00 -0.45593999997E+02  0.45594000000E+02  0.51100000000E-03 0.  1.
    9900012    2    1    2    0    0 -0.82275520470E+01 -0.16452656080E+02 -0.39309550103E+02  0.47787271504E+02  0.20000002093E+02 0.  0.
         12    1    1    2    0    0  0.82275520470E+01  0.16452656080E+02  0.39309550103E+02  0.43400728496E+02  0.00000000000E+00 0. -1.
         11    1    3    3    0    0  0.43193507278E+00 -0.52332691728E+01 -0.20347444764E+01  0.56315059698E+01  0.51100000000E-03 0.  1.
        -11    1    3    3    0    0  0.74169821985E+00  0.26406709784E+01 -0.76196059153E+01  0.80982500598E+01  0.51100000000E-03 0. -1.
        -12    1    3    3    0    0 -0.94011853397E+01 -0.13860057885E+02 -0.29655199711E+02  0.34057515474E+02  0.00000000000E+00 0.  1.
</event>
<event>
 7    1  0.5022032E-011  0.4778727E+02  0.7816164E-02  0.1312668E+00
        -11   -1    0    0    0    0  0.00000000000E+00  0.00000000000E+00  0.45593999997E+02  0.45594000000E+02  0.51100000000E-03 0. -1.
         11   -1    0    0    0    0 -0.00000000000E+00 -0.00000000000E+00 -0.45593999997E+02  0.45594000000E+02  0.51100000000E-03 0.  1.
    9900012    2    1    2    0    0 -0.35389297742E+02 -0.14736253665E+02 -0.20348547947E+02  0.47787274542E+02  0.20000015947E+02 0.  0.
         12    1    1    2    0    0  0.35389297742E+02  0.14736253665E+02  0.20348547947E+02  0.43400725458E+02  0.00000000000E+00 0. -1.
         11    1    3    3    0    0 -0.11859781625E+02 -0.11005212783E+02 -0.70590315312E+01  0.17652168564E+02  0.51100000000E-03 0. -1.
        -11    1    3    3    0    0 -0.53225667029E+01 -0.67348891547E+01 -0.45874305660E+01  0.97330862368E+01  0.51100000000E-03 0.  1.
         12    1    3    3    0    0 -0.18206949414E+02  0.30038482722E+01 -0.87020858494E+01  0.20402019742E+02  0.00000000000E+00 0. -1.
</event>
<event>
 7    1  0.5022032E-011  0.4778727E+02  0.7816164E-02  0.1312668E+00
        -11   -1    0    0    0    0  0.00000000000E+00  0.00000000000E+00  0.45593999997E+02  0.45594000000E+02  0.51100000000E-03 0. -1.
         11   -1    0    0    0    0 -0.00000000000E+00 -0.00000000000E+00 -0.45593999997E+02  0.45594000000E+02  0.51100000000E-03 0.  1.
    9900012    2    1    2    0    0 -0.85278140657E+01  0.15686565484E+02 -0.39557950936E+02  0.47787269227E+02  0.19999991712E+02 0.  0.
         12    1    1    2    0    0  0.85278140657E+01 -0.15686565484E+02  0.39557950936E+02  0.43400730773E+02  0.00000000000E+00 0. -1.
         11    1    3    3    0    0  0.20749869543E+01  0.24877082690E+01 -0.12946570984E+02  0.13345709565E+02  0.51100000000E-03 0. -1.
        -11    1    3    3    0    0 -0.58515680492E+01 -0.17613711175E+01 -0.86042310275E+01  0.10553486092E+02  0.51100000000E-03 0.  1.
        -12    1    3    3    0    0 -0.47512329708E+01  0.14960228333E+02 -0.18007148924E+02  0.23888073570E+02  0.00000000000E+00 0.  1.
</event>
<event>
 7    1  0.5022032E-011  0.4778728E+02  0.7816164E-02  0.1312668E+00
        -11   -1    0    0    0    0  0.00000000000E+00  0.00000000000E+00  0.45593999997E+02  0.45594000000E+02  0.51100000000E-03 0. -1.
         11   -1    0    0    0    0 -0.00000000000E+00 -0.00000000000E+00 -0.45593999997E+02  0.45594000000E+02  0.51100000000E-03 0.  1.
    9900012    2    1    2    0    0 -0.33303746004E+02 -0.19314878616E+02 -0.20035440862E+02  0.47787275071E+02  0.20000018357E+02 0.  0.
         12    1    1    2    0    0  0.33303746004E+02  0.19314878616E+02  0.20035440862E+02  0.43400724929E+02  0.00000000000E+00 0. -1.
         11    1    3    3    0    0 -0.75417903847E+00 -0.15620652882E+01 -0.26529791856E+01  0.31697212506E+01  0.51100000000E-03 0. -1.
        -11    1    3    3    0    0 -0.33009603828E+02 -0.14030588574E+02 -0.18934359278E+02  0.40558615880E+02  0.51100000000E-03 0.  1.
        -12    1    3    3    0    0  0.46003686252E+00 -0.37222247539E+01  0.15518976010E+01  0.40589379396E+01  0.00000000000E+00 0.  1.
</event>
<event>
 7    1  0.5022032E-011  0.4778726E+02  0.7816164E-02  0.1312668E+00
        -11   -1    0    0    0    0  0.00000000000E+00  0.00000000000E+00  0.45593999997E+02  0.45594000000E+02  0.51100000000E-03 0. -1.
         11   -1    0    0    0    0 -0.00000000000E+00 -0.00000000000E+00 -0.45593999997E+02  0.45594000000E+02  0.51100000000E-03 0.  1.
    9900012    2    1    2    0    0  0.22479456358E+02 -0.16351103017E+02  0.33330760346E+02  0.47787261374E+02  0.19999955911E+02 0.  0.
        -12    1    1    2    0    0 -0.22479456358E+02  0.16351103017E+02 -0.33330760346E+02  0.43400738626E+02  0.00000000000E+00 0.  1.
         11    1    3    3    0    0  0.19715020338E+02 -0.16943067453E+02  0.33280667287E+02  0.42229757009E+02  0.51100000000E-03 0. -1.
        -11    1    3    3    0    0 -0.26865936075E+00 -0.16669779997E+01  0.46925781511E+00  0.17524829990E+01  0.51100000000E-03 0.  1.
        -12    1    3    3    0    0  0.30330953802E+01  0.22589424349E+01 -0.41916475687E+00  0.38050213670E+01  0.00000000000E+00 0.  1.
</event>
<event>
 7    1  0.5022032E-011  0.4778727E+02  0.7816164E-02  0.1312668E+00
        -11   -1    0    0    0    0  0.00000000000E+00  0.00000000000E+00  0.45593999997E+02  0.45594000000E+02  0.51100000000E-03 0. -1.
         11   -1    0    0    0    0 -0.00000000000E+00 -0.00000000000E+00 -0.45593999997E+02  0.45594000000E+02  0.51100000000E-03 0.  1.
    9900012    2    1    2    0    0  0.11098783278E+01 -0.74766940922E+00 -0.43380093038E+02  0.47787270612E+02  0.19999998027E+02 0.  0.
         12    1    1    2    0    0 -0.11098783278E+01  0.74766940922E+00  0.43380093038E+02  0.43400729388E+02  0.00000000000E+00 0. -1.
         11    1    3    3    0    0  0.30452148370E+01  0.26701446720E+01 -0.93573716792E+01  0.10196244945E+02  0.51100000000E-03 0. -1.
        -11    1    3    3    0    0 -0.23523024269E+00  0.61453454699E+01 -0.15513985812E+02  0.16688449905E+02  0.51100000000E-03 0.  1.
        -12    1    3    3    0    0 -0.17001062664E+01 -0.95631595511E+01 -0.18508735547E+02  0.20902575762E+02  0.00000000000E+00 0.  1.
</event>
<event>
 7    1  0.5022032E-011  0.4778728E+02  0.7816164E-02  0.1312668E+00
        -11   -1    0    0    0    0  0.00000000000E+00  0.00000000000E+00  0.45593999997E+02  0.45594000000E+02  0.51100000000E-03 0. -1.
         11   -1    0    0    0    0 -0.00000000000E+00 -0.00000000000E+00 -0.45593999997E+02  0.45594000000E+02  0.51100000000E-03 0.  1.
    9900012    2    1    2    0    0  0.26795958000E+02 -0.20702129254E+02 -0.27148133158E+02  0.47787278177E+02  0.20000032521E+02 0.  0.
         12    1    1    2    0    0 -0.26795958000E+02  0.20702129254E+02  0.27148133158E+02  0.43400721823E+02  0.00000000000E+00 0. -1.
         11    1    3    3    0    0  0.12183841596E+02 -0.80455025169E+00 -0.14232694003E+02  0.18752676502E+02  0.51100000000E-03 0. -1.
        -11    1    3    3    0    0  0.87120970333E+01 -0.67726417145E+01 -0.86636298170E+01  0.14029532864E+02  0.51100000000E-03 0.  1.
        -12    1    3    3    0    0  0.59000193705E+01 -0.13124937288E+02 -0.42518093377E+01  0.15005068811E+02  0.00000000000E+00 0.  1.
</event>
<event>
 7    1  0.5022032E-011  0.4778727E+02  0.7816164E-02  0.1312668E+00
        -11   -1    0    0    0    0  0.00000000000E+00  0.00000000000E+00  0.45593999997E+02  0.45594000000E+02  0.51100000000E-03 0. -1.
         11   -1    0    0    0    0 -0.00000000000E+00 -0.00000000000E+00 -0.45593999997E+02  0.45594000000E+02  0.51100000000E-03 0.  1.
    9900012    2    1    2    0    0  0.13957281680E+02  0.78121126858E+01 -0.40345861362E+02  0.47787270219E+02  0.19999996235E+02 0.  0.
         12    1    1    2    0    0 -0.13957281680E+02 -0.78121126858E+01  0.40345861362E+02  0.43400729781E+02  0.00000000000E+00 0. -1.
         11    1    3    3    0    0  0.88009178533E+01  0.88453185262E+01 -0.20284140069E+02  0.23814746555E+02  0.51100000000E-03 0. -1.
        -11    1    3    3    0    0  0.81314802450E+01 -0.59555517656E+00 -0.75759158440E+01  0.11129697124E+02  0.51100000000E-03 0.  1.
        -12    1    3    3    0    0 -0.29751164180E+01 -0.43765066386E+00 -0.12485805449E+02  0.12842826539E+02  0.00000000000E+00 0.  1.
</event>
<event>
 7    1  0.5022032E-011  0.4778727E+02  0.7816164E-02  0.1312668E+00
        -11   -1    0    0    0    0  0.00000000000E+00  0.00000000000E+00  0.45593999997E+02  0.45594000000E+02  0.51100000000E-03 0. -1.
         11   -1    0    0    0    0 -0.00000000000E+00 -0.00000000000E+00 -0.45593999997E+02  0.45594000000E+02  0.51100000000E-03 0.  1.
    9900012    2    1    2    0    0  0.45195047131E+01 -0.98266064160E+01 -0.42031363115E+02  0.47787267267E+02  0.19999982776E+02 0.  0.
         12    1    1    2    0    0 -0.45195047131E+01  0.98266064160E+01  0.42031363115E+02  0.43400732733E+02  0.00000000000E+00 0. -1.
         11    1    3    3    0    0 -0.34985999954E-01  0.29263966634E+01 -0.38623364135E+01  0.48458914849E+01  0.51100000000E-03 0. -1.
        -11    1    3    3    0    0 -0.38272415730E-01  0.31336239981E+01 -0.63815113823E+01  0.71094832388E+01  0.51100000000E-03 0.  1.
        -12    1    3    3    0    0  0.45927631287E+01 -0.15886627077E+02 -0.31787515319E+02  0.35831892543E+02  0.00000000000E+00 0.  1.
</event>
<event>
 7    1  0.5022032E-011  0.4778727E+02  0.7816164E-02  0.1312668E+00
        -11   -1    0    0    0    0  0.00000000000E+00  0.00000000000E+00  0.45593999997E+02  0.45594000000E+02  0.51100000000E-03 0. -1.
         11   -1    0    0    0    0 -0.00000000000E+00 -0.00000000000E+00 -0.45593999997E+02  0.45594000000E+02  0.51100000000E-03 0.  1.
    9900012    2    1    2    0    0 -0.90428769845E+01 -0.26464290393E+02 -0.33188717587E+02  0.47787271144E+02  0.20000000454E+02 0.  0.
         12    1    1    2    0    0  0.90428769845E+01  0.26464290393E+02  0.33188717587E+02  0.43400728856E+02  0.00000000000E+00 0. -1.
         11    1    3    3    0    0  0.39609004372E+00  0.27790169897E+01 -0.33711590570E+01  0.43868595146E+01  0.51100000000E-03 0. -1.
        -11    1    3    3    0    0  0.45667460075E+00 -0.88801528424E+01 -0.81116005957E+01  0.12035934973E+02  0.51100000000E-03 0.  1.
        -12    1    3    3    0    0 -0.98956416289E+01 -0.20363154540E+02 -0.21705957934E+02  0.31364476656E+02  0.00000000000E+00 0.  1.
</event>
<event>
 7    1  0.5022032E-011  0.4778727E+02  0.7816164E-02  0.1312668E+00
        -11   -1    0    0    0    0  0.00000000000E+00  0.00000000000E+00  0.45593999997E+02  0.45594000000E+02  0.51100000000E-03 0. -1.
         11   -1    0    0    0    0 -0.00000000000E+00 -0.00000000000E+00 -0.45593999997E+02  0.45594000000E+02  0.51100000000E-03 0.  1.
    9900012    2    1    2    0    0  0.37061082072E+02 -0.21569634132E+02  0.66970349885E+01  0.47787271911E+02  0.20000003953E+02 0.  0.
        -12    1    1    2    0    0 -0.37061082072E+02  0.21569634132E+02 -0.66970349885E+01  0.43400728089E+02  0.00000000000E+00 0.  1.
         11    1    3    3    0    0  0.11181251191E+00 -0.11664756659E+01 -0.15803107144E+01  0.19673712747E+01  0.51100000000E-03 0.  1.
        -11    1    3    3    0    0  0.10391396703E+02 -0.57458610320E+01 -0.47731260998E+01  0.12797608271E+02  0.51100000000E-03 0. -1.
        -12    1    3    3    0    0  0.26557872858E+02 -0.14657297434E+02  0.13050471803E+02  0.33022292366E+02  0.00000000000E+00 0.  1.
</event>
<event>
 7    1  0.5022032E-011  0.4778721E+02  0.7816164E-02  0.1312668E+00
        -11   -1    0    0    0    0  0.00000000000E+00  0.00000000000E+00  0.45593999997E+02  0.45594000000E+02  0.51100000000E-03 0.  1.
         11   -1    0    0    0    0 -0.00000000000E+00 -0.00000000000E+00 -0.45593999997E+02  0.45594000000E+02  0.51100000000E-03 0. -1.
    9900012    2    1    2    0    0 -0.21066545177E+02 -0.32670456522E+02  0.19299494408E+02  0.47787210382E+02  0.19999723416E+02 0.  0.
        -12    1    1    2    0    0  0.21066545177E+02  0.32670456522E+02 -0.19299494408E+02  0.43400789618E+02  0.00000000000E+00 0.  1.
         11    1    3    3    0    0 -0.17887454147E+02 -0.18576922065E+02  0.77144535934E+01  0.26917946500E+02  0.51100000000E-03 0. -1.
        -11    1    3    3    0    0 -0.65996119002E+01 -0.99777579402E+01  0.73074537740E+01  0.14018181468E+02  0.51100000000E-03 0.  1.
        -12    1    3    3    0    0  0.34205208707E+01 -0.41157765170E+01  0.42775870405E+01  0.68510824148E+01  0.00000000000E+00 0.  1.
</event>
<event>
 7    1  0.5022032E-011  0.4778728E+02  0.7816164E-02  0.1312668E+00
        -11   -1    0    0    0    0  0.00000000000E+00  0.00000000000E+00  0.45593999997E+02  0.45594000000E+02  0.51100000000E-03 0. -1.
         11   -1    0    0    0    0 -0.00000000000E+00 -0.00000000000E+00 -0.45593999997E+02  0.45594000000E+02  0.51100000000E-03 0.  1.
    9900012    2    1    2    0    0 -0.13746153552E+02  0.30677978675E+01 -0.41051852897E+02  0.47787277108E+02  0.20000027646E+02 0.  0.
         12    1    1    2    0    0  0.13746153552E+02 -0.30677978675E+01  0.41051852897E+02  0.43400722892E+02  0.00000000000E+00 0. -1.
         11    1    3    3    0    0 -0.38360818005E+01 -0.10907395756E+01  0.11700535144E+01  0.41562316935E+01  0.51100000000E-03 0. -1.
        -11    1    3    3    0    0 -0.21146914503E+01  0.18845835380E+00 -0.58955908297E+01  0.62662132084E+01  0.51100000000E-03 0.  1.
         12    1    3    3    0    0 -0.77953803014E+01  0.39700790893E+01 -0.36326315582E+02  0.37364832206E+02  0.00000000000E+00 0. -1.
</event>
<event>
 7    1  0.5022032E-011  0.4778727E+02  0.7816164E-02  0.1312668E+00
        -11   -1    0    0    0    0  0.00000000000E+00  0.00000000000E+00  0.45593999997E+02  0.45594000000E+02  0.51100000000E-03 0.  1.
         11   -1    0    0    0    0 -0.00000000000E+00 -0.00000000000E+00 -0.45593999997E+02  0.45594000000E+02  0.51100000000E-03 0. -1.
    9900012    2    1    2    0    0 -0.38408397520E+02  0.12470319353E+02 -0.15903132203E+02  0.47787268685E+02  0.19999989243E+02 0.  0.
         12    1    1    2    0    0  0.38408397520E+02 -0.12470319353E+02  0.15903132203E+02  0.43400731315E+02  0.00000000000E+00 0. -1.
         11    1    3    3    0    0 -0.14719557997E+02  0.77057846400E+01  0.34124412024E-01  0.16614622152E+02  0.51100000000E-03 0. -1.
        -11    1    3    3    0    0 -0.86747864047E+01  0.63615709352E+01 -0.26956289833E+01  0.11089991876E+02  0.51100000000E-03 0.  1.
         12    1    3    3    0    0 -0.15014053118E+02 -0.15970362217E+01 -0.13241627631E+02  0.20082654657E+02  0.00000000000E+00 0. -1.
</event>
<event>
 7    1  0.5022032E-011  0.4778727E+02  0.7816164E-02  0.1312668E+00
        -11   -1    0    0    0    0  0.00000000000E+00  0.00000000000E+00  0.45593999997E+02  0.45594000000E+02  0.51100000000E-03 0. -1.
         11   -1    0    0    0    0 -0.00000000000E+00 -0.00000000000E+00 -0.45593999997E+02  0.45594000000E+02  0.51100000000E-03 0.  1.
    9900012    2    1    2    0    0  0.29839536332E+01  0.27775155634E+02 -0.33215364732E+02  0.47787266088E+02  0.19999977402E+02 0.  0.
         12    1    1    2    0    0 -0.29839536332E+01 -0.27775155634E+02  0.33215364732E+02  0.43400733912E+02  0.00000000000E+00 0. -1.
         11    1    3    3    0    0 -0.11375833617E+01  0.14516563071E+02 -0.16651811384E+02  0.22120296606E+02  0.51100000000E-03 0. -1.
        -11    1    3    3    0    0  0.35227593113E+01  0.15847540320E+02 -0.11328755671E+02  0.19796339880E+02  0.51100000000E-03 0.  1.
         12    1    3    3    0    0  0.59877768361E+00 -0.25889477564E+01 -0.52347976776E+01  0.58706296021E+01  0.00000000000E+00 0. -1.
</event>
<event>
 7    1  0.5022032E-011  0.4778727E+02  0.7816164E-02  0.1312668E+00
        -11   -1    0    0    0    0  0.00000000000E+00  0.00000000000E+00  0.45593999997E+02  0.45594000000E+02  0.51100000000E-03 0.  1.
         11   -1    0    0    0    0 -0.00000000000E+00 -0.00000000000E+00 -0.45593999997E+02  0.45594000000E+02  0.51100000000E-03 0. -1.
    9900012    2    1    2    0    0  0.52604611269E+00 -0.41744249271E+02  0.11864413946E+02  0.47787269707E+02  0.19999993901E+02 0.  0.
         12    1    1    2    0    0 -0.52604611269E+00  0.41744249271E+02 -0.11864413946E+02  0.43400730293E+02  0.00000000000E+00 0. -1.
         11    1    3    3    0    0  0.28062815654E+01 -0.90188236402E+01 -0.92105626898E+00  0.94901391449E+01  0.51100000000E-03 0. -1.
        -11    1    3    3    0    0 -0.39430418479E+01 -0.33178533332E+02  0.97483141311E+01  0.34805061151E+02  0.51100000000E-03 0.  1.
         12    1    3    3    0    0  0.16628063952E+01  0.45310770088E+00  0.30371560835E+01  0.34920694111E+01  0.00000000000E+00 0. -1.
</event>
<event>
 7    1  0.5022032E-011  0.4778727E+02  0.7816164E-02  0.1312668E+00
        -11   -1    0    0    0    0  0.00000000000E+00  0.00000000000E+00  0.45593999997E+02  0.45594000000E+02  0.51100000000E-03 0. -1.
         11   -1    0    0    0    0 -0.00000000000E+00 -0.00000000000E+00 -0.45593999997E+02  0.45594000000E+02  0.51100000000E-03 0.  1.
    9900012    2    1    2    0    0  0.29009010296E+02  0.19823339976E+02 -0.25478143607E+02  0.47787270884E+02  0.19999999269E+02 0.  0.
         12    1    1    2    0    0 -0.29009010296E+02 -0.19823339976E+02  0.25478143607E+02  0.43400729116E+02  0.00000000000E+00 0. -1.
         11    1    3    3    0    0  0.32419614450E+01 -0.14168279280E+01 -0.50281949409E+01  0.61482078700E+01  0.51100000000E-03 0. -1.
        -11    1    3    3    0    0  0.75898478337E+01 -0.12107053915E+00 -0.77541290051E+01  0.10851127365E+02  0.51100000000E-03 0.  1.
        -12    1    3    3    0    0  0.18177201017E+02  0.21361238443E+02 -0.12695819661E+02  0.30787935649E+02  0.00000000000E+00 0.  1.
</event>
<event>
 7    1  0.5022032E-011  0.4778727E+02  0.7816164E-02  0.1312668E+00
        -11   -1    0    0    0    0  0.00000000000E+00  0.00000000000E+00  0.45593999997E+02  0.45594000000E+02  0.51100000000E-03 0. -1.
         11   -1    0    0    0    0 -0.00000000000E+00 -0.00000000000E+00 -0.45593999997E+02  0.45594000000E+02  0.51100000000E-03 0.  1.
    9900012    2    1    2    0    0  0.11019449383E+02  0.29489376286E+02 -0.29875933962E+02  0.47787274101E+02  0.20000013938E+02 0.  0.
         12    1    1    2    0    0 -0.11019449383E+02 -0.29489376286E+02  0.29875933962E+02  0.43400725899E+02  0.00000000000E+00 0. -1.
         11    1    3    3    0    0  0.44044056141E+01 -0.63582891998E-03 -0.33081878469E+01  0.55084386454E+01  0.51100000000E-03 0. -1.
        -11    1    3    3    0    0  0.45182444379E+01  0.13586248258E+02 -0.45228144663E+01  0.15015209805E+02  0.51100000000E-03 0.  1.
        -12    1    3    3    0    0  0.20967993307E+01  0.15903763857E+02 -0.22044931648E+02  0.27263625651E+02  0.00000000000E+00 0.  1.
</event>
<event>
 7    1  0.5022032E-011  0.4778725E+02  0.7816164E-02  0.1312668E+00
        -11   -1    0    0    0    0  0.00000000000E+00  0.00000000000E+00  0.45593999997E+02  0.45594000000E+02  0.51100000000E-03 0. -1.
         11   -1    0    0    0    0 -0.00000000000E+00 -0.00000000000E+00 -0.45593999997E+02  0.45594000000E+02  0.51100000000E-03 0.  1.
    9900012    2    1    2    0    0 -0.25562670689E+01 -0.14014409337E+02 -0.40996177037E+02  0.47787254591E+02  0.19999924983E+02 0.  0.
         12    1    1    2    0    0  0.25562670689E+01  0.14014409337E+02  0.40996177037E+02  0.43400745409E+02  0.00000000000E+00 0. -1.
         11    1    3    3    0    0  0.41068353238E+01 -0.26936477105E+01 -0.78679386472E+01  0.92750360205E+01  0.51100000000E-03 0. -1.
        -11    1    3    3    0    0  0.20704657081E+01 -0.95186901673E+00 -0.18218871777E+02  0.18360832551E+02  0.51100000000E-03 0.  1.
         12    1    3    3    0    0 -0.87335681008E+01 -0.10368892609E+02 -0.14909366613E+02  0.20151386020E+02  0.00000000000E+00 0. -1.
</event>
<event>
 7    1  0.5022032E-011  0.4778727E+02  0.7816164E-02  0.1312668E+00
        -11   -1    0    0    0    0  0.00000000000E+00  0.00000000000E+00  0.45593999997E+02  0.45594000000E+02  0.51100000000E-03 0. -1.
         11   -1    0    0    0    0 -0.00000000000E+00 -0.00000000000E+00 -0.45593999997E+02  0.45594000000E+02  0.51100000000E-03 0.  1.
    9900012    2    1    2    0    0  0.18631221267E+02  0.30540372658E+02  0.24572065372E+02  0.47787272303E+02  0.20000005738E+02 0.  0.
        -12    1    1    2    0    0 -0.18631221267E+02 -0.30540372658E+02 -0.24572065372E+02  0.43400727697E+02  0.00000000000E+00 0.  1.
         11    1    3    3    0    0  0.12058726152E+02  0.13360529301E+02  0.79633586596E+01  0.19680744422E+02  0.51100000000E-03 0. -1.
        -11    1    3    3    0    0  0.64605483033E+01  0.21168389648E+01  0.19141328349E+01  0.70628320348E+01  0.51100000000E-03 0.  1.
        -12    1    3    3    0    0  0.11194681190E+00  0.15063004392E+02  0.14694573877E+02  0.21043695846E+02  0.00000000000E+00 0.  1.
</event>
<event>
 7    1  0.5022032E-011  0.4778727E+02  0.7816164E-02  0.1312668E+00
        -11   -1    0    0    0    0  0.00000000000E+00  0.00000000000E+00  0.45593999997E+02  0.45594000000E+02  0.51100000000E-03 0. -1.
         11   -1    0    0    0    0 -0.00000000000E+00 -0.00000000000E+00 -0.45593999997E+02  0.45594000000E+02  0.51100000000E-03 0.  1.
    9900012    2    1    2    0    0 -0.10817354307E+01 -0.33722921136E+02 -0.27298675836E+02  0.47787271160E+02  0.20000000527E+02 0.  0.
         12    1    1    2    0    0  0.10817354307E+01  0.33722921136E+02  0.27298675836E+02  0.43400728840E+02  0.00000000000E+00 0. -1.
         11    1    3    3    0    0  0.30219433025E+00 -0.10196962839E+02 -0.55518975971E+01  0.11614341985E+02  0.51100000000E-03 0.  1.
        -11    1    3    3    0    0 -0.68433382307E+01 -0.16172490353E+02 -0.20397735838E+02  0.26915578202E+02  0.51100000000E-03 0. -1.
        -12    1    3    3    0    0  0.54594084698E+01 -0.73534679445E+01 -0.13490424004E+01  0.92573509736E+01  0.00000000000E+00 0.  1.
</event>
<event>
 7    1  0.5022032E-011  0.4778727E+02  0.7816164E-02  0.1312668E+00
        -11   -1    0    0    0    0  0.00000000000E+00  0.00000000000E+00  0.45593999997E+02  0.45594000000E+02  0.51100000000E-03 0. -1.
         11   -1    0    0    0    0 -0.00000000000E+00 -0.00000000000E+00 -0.45593999997E+02  0.45594000000E+02  0.51100000000E-03 0.  1.
    9900012    2    1    2    0    0  0.33758234592E+02 -0.12280773603E+01 -0.27248790123E+02  0.47787272587E+02  0.20000007034E+02 0.  0.
         12    1    1    2    0    0 -0.33758234592E+02  0.12280773603E+01  0.27248790123E+02  0.43400727413E+02  0.00000000000E+00 0. -1.
         11    1    3    3    0    0  0.89936562802E+01  0.39610787928E+01 -0.14379352680E+02  0.17416709857E+02  0.51100000000E-03 0. -1.
        -11    1    3    3    0    0  0.40036082151E+01 -0.44019603664E+01 -0.60953908151E+01  0.85182112710E+01  0.51100000000E-03 0.  1.
         12    1    3    3    0    0  0.20760970097E+02 -0.78719578679E+00 -0.67740466278E+01  0.21852351459E+02  0.00000000000E+00 0. -1.
</event>
<event>
 7    1  0.5022032E-011  0.4778727E+02  0.7816164E-02  0.1312668E+00
        -11   -1    0    0    0    0  0.00000000000E+00  0.00000000000E+00  0.45593999997E+02  0.45594000000E+02  0.51100000000E-03 0. -1.
         11   -1    0    0    0    0 -0.00000000000E+00 -0.00000000000E+00 -0.45593999997E+02  0.45594000000E+02  0.51100000000E-03 0.  1.
    9900012    2    1    2    0    0 -0.20659114508E+02 -0.14307708100E+02  0.35385220175E+02  0.47787270396E+02  0.19999997042E+02 0.  0.
        -12    1    1    2    0    0  0.20659114508E+02  0.14307708100E+02 -0.35385220175E+02  0.43400729604E+02  0.00000000000E+00 0.  1.
         11    1    3    3    0    0 -0.59927966590E+01 -0.53746750923E+01  0.58176274118E+01  0.99320457665E+01  0.51100000000E-03 0. -1.
        -11    1    3    3    0    0  0.92312104867E+00  0.20805278158E+01 -0.41387989590E+00  0.23134487875E+01  0.51100000000E-03 0.  1.
         12    1    3    3    0    0 -0.15589438897E+02 -0.11013560824E+02  0.29981472659E+02  0.35541775842E+02  0.00000000000E+00 0. -1.
</event>
<event>
 7    1  0.5022032E-011  0.4778727E+02  0.7816164E-02  0.1312668E+00
        -11   -1    0    0    0    0  0.00000000000E+00  0.00000000000E+00  0.45593999997E+02  0.45594000000E+02  0.51100000000E-03 0. -1.
         11   -1    0    0    0    0 -0.00000000000E+00 -0.00000000000E+00 -0.45593999997E+02  0.45594000000E+02  0.51100000000E-03 0.  1.
    9900012    2    1    2    0    0 -0.28269335541E+02 -0.30994603737E+02 -0.11126656245E+02  0.47787271067E+02  0.20000000103E+02 0.  0.
         12    1    1    2    0    0  0.28269335541E+02  0.30994603737E+02  0.11126656245E+02  0.43400728933E+02  0.00000000000E+00 0. -1.
         11    1    3    3    0    0 -0.10033194165E+01  0.17172327958E+01 -0.74047892758E+00  0.21222270448E+01  0.51100000000E-03 0. -1.
        -11    1    3    3    0    0 -0.79400301286E+01 -0.20114763809E+01 -0.18227526351E+01  0.83912182133E+01  0.51100000000E-03 0.  1.
        -12    1    3    3    0    0 -0.19325985996E+02 -0.30700360152E+02 -0.85634246827E+01  0.37273825809E+02  0.00000000000E+00 0.  1.
</event>
<event>
 7    1  0.5022032E-011  0.4778727E+02  0.7816164E-02  0.1312668E+00
        -11   -1    0    0    0    0  0.00000000000E+00  0.00000000000E+00  0.45593999997E+02  0.45594000000E+02  0.51100000000E-03 0. -1.
         11   -1    0    0    0    0 -0.00000000000E+00 -0.00000000000E+00 -0.45593999997E+02  0.45594000000E+02  0.51100000000E-03 0.  1.
    9900012    2    1    2    0    0  0.19175214014E+02  0.17790723653E+02 -0.34632712440E+02  0.47787268998E+02  0.19999990669E+02 0.  0.
         12    1    1    2    0    0 -0.19175214014E+02 -0.17790723653E+02  0.34632712440E+02  0.43400731002E+02  0.00000000000E+00 0. -1.
         11    1    3    3    0    0  0.24238317992E+01  0.16220955335E+01 -0.10991394564E+02  0.11371759285E+02  0.51100000000E-03 0. -1.
        -11    1    3    3    0    0  0.59874042500E+01  0.15302578067E+02 -0.17444081950E+02  0.23964847183E+02  0.51100000000E-03 0.  1.
        -12    1    3    3    0    0  0.10763977964E+02  0.86605005227E+00 -0.61972359253E+01  0.12450662530E+02  0.00000000000E+00 0.  1.
</event>
<event>
 7    1  0.5022032E-011  0.4778726E+02  0.7816164E-02  0.1312668E+00
        -11   -1    0    0    0    0  0.00000000000E+00  0.00000000000E+00  0.45593999997E+02  0.45594000000E+02  0.51100000000E-03 0. -1.
         11   -1    0    0    0    0 -0.00000000000E+00 -0.00000000000E+00 -0.45593999997E+02  0.45594000000E+02  0.51100000000E-03 0.  1.
    9900012    2    1    2    0    0 -0.22354399379E+02 -0.59081153800E+01  0.36728723621E+02  0.47787261092E+02  0.19999954621E+02 0.  0.
        -12    1    1    2    0    0  0.22354399379E+02  0.59081153800E+01 -0.36728723621E+02  0.43400738908E+02  0.00000000000E+00 0.  1.
         11    1    3    3    0    0 -0.19468286878E+02 -0.33814270447E+00  0.31447224179E+02  0.36987247036E+02  0.51100000000E-03 0. -1.
        -11    1    3    3    0    0 -0.50170442634E+01 -0.23906477776E+01  0.26628390770E+01  0.61625191398E+01  0.51100000000E-03 0.  1.
         12    1    3    3    0    0  0.21309317630E+01 -0.31793248979E+01  0.26186603654E+01  0.46374949158E+01  0.00000000000E+00 0. -1.
</event>
<event>
 7    1  0.5022032E-011  0.4778727E+02  0.7816164E-02  0.1312668E+00
        -11   -1    0    0    0    0  0.00000000000E+00  0.00000000000E+00  0.45593999997E+02  0.45594000000E+02  0.51100000000E-03 0. -1.
         11   -1    0    0    0    0 -0.00000000000E+00 -0.00000000000E+00 -0.45593999997E+02  0.45594000000E+02  0.51100000000E-03 0.  1.
    9900012    2    1    2    0    0  0.61795168142E+01 -0.51092919811E+01 -0.42653627834E+02  0.47787271204E+02  0.20000000729E+02 0.  0.
         12    1    1    2    0    0 -0.61795168142E+01  0.51092919811E+01  0.42653627834E+02  0.43400728796E+02  0.00000000000E+00 0. -1.
         11    1    3    3    0    0  0.12591141512E+02 -0.16470564900E+01 -0.20344666786E+02  0.23982391594E+02  0.51100000000E-03 0. -1.
        -11    1    3    3    0    0 -0.33002122053E+01 -0.38886438073E+01 -0.12324101559E+02  0.13337782078E+02  0.51100000000E-03 0.  1.
         12    1    3    3    0    0 -0.31114124922E+01  0.42640831619E+00 -0.99848594889E+01  0.10467097533E+02  0.00000000000E+00 0. -1.
</event>
<event>
 7    1  0.5022032E-011  0.4778727E+02  0.7816164E-02  0.1312668E+00
        -11   -1    0    0    0    0  0.00000000000E+00  0.00000000000E+00  0.45593999997E+02  0.45594000000E+02  0.51100000000E-03 0. -1.
         11   -1    0    0    0    0 -0.00000000000E+00 -0.00000000000E+00 -0.45593999997E+02  0.45594000000E+02  0.51100000000E-03 0.  1.
    9900012    2    1    2    0    0 -0.19583892871E+01  0.69945116513E+01  0.42788607144E+02  0.47787269785E+02  0.19999994258E+02 0.  0.
        -12    1    1    2    0    0  0.19583892871E+01 -0.69945116513E+01 -0.42788607144E+02  0.43400730215E+02  0.00000000000E+00 0.  1.
         11    1    3    3    0    0  0.38812482937E+00 -0.21509485128E+01  0.50231323510E+00  0.22426634244E+01  0.51100000000E-03 0. -1.
        -11    1    3    3    0    0  0.24326287984E+01 -0.15719616245E+01  0.21336357880E+02  0.21532043890E+02  0.51100000000E-03 0.  1.
        -12    1    3    3    0    0 -0.47791429149E+01  0.10717421789E+02  0.20949936029E+02  0.24012562471E+02  0.00000000000E+00 0.  1.
</event>
<event>
 7    1  0.5022032E-011  0.4778727E+02  0.7816164E-02  0.1312668E+00
        -11   -1    0    0    0    0  0.00000000000E+00  0.00000000000E+00  0.45593999997E+02  0.45594000000E+02  0.51100000000E-03 0. -1.
         11   -1    0    0    0    0 -0.00000000000E+00 -0.00000000000E+00 -0.45593999997E+02  0.45594000000E+02  0.51100000000E-03 0.  1.
    9900012    2    1    2    0    0 -0.21566188798E+02 -0.73900380918E+01  0.36931155098E+02  0.47787269832E+02  0.19999994472E+02 0.  0.
        -12    1    1    2    0    0  0.21566188798E+02  0.73900380918E+01 -0.36931155098E+02  0.43400730168E+02  0.00000000000E+00 0.  1.
         11    1    3    3    0    0 -0.73092249196E+01  0.96900868261E+00  0.22162937608E+02  0.23357216239E+02  0.51100000000E-03 0. -1.
        -11    1    3    3    0    0  0.13172848009E+01 -0.22877722249E+01  0.29480666391E+01  0.39573018800E+01  0.51100000000E-03 0.  1.
         12    1    3    3    0    0 -0.15574248679E+02 -0.60712745495E+01  0.11820150850E+02  0.20472751713E+02  0.00000000000E+00 0. -1.
</event>
<event>
 7    1  0.5022032E-011  0.4778728E+02  0.7816164E-02  0.1312668E+00
        -11   -1    0    0    0    0  0.00000000000E+00  0.00000000000E+00  0.45593999997E+02  0.45594000000E+02  0.51100000000E-03 0. -1.
         11   -1    0    0    0    0 -0.00000000000E+00 -0.00000000000E+00 -0.45593999997E+02  0.45594000000E+02  0.51100000000E-03 0.  1.
    9900012    2    1    2    0    0  0.61332164503E+01 -0.39028892672E+02 -0.17965282484E+02  0.47787283624E+02  0.20000057353E+02 0.  0.
         12    1    1    2    0    0 -0.61332164503E+01  0.39028892672E+02  0.17965282484E+02  0.43400716376E+02  0.00000000000E+00 0. -1.
         11    1    3    3    0    0  0.26950269592E+01 -0.20255437201E+02 -0.13502734978E+02  0.24492238743E+02  0.51100000000E-03 0. -1.
        -11    1    3    3    0    0 -0.16627276673E+01 -0.60587727253E+01 -0.69526587308E+01  0.93708512911E+01  0.51100000000E-03 0.  1.
         12    1    3    3    0    0  0.51009171584E+01 -0.12714682746E+02  0.24901112249E+01  0.13924193589E+02  0.00000000000E+00 0. -1.
</event>
<event>
 7    1  0.5022032E-011  0.4778727E+02  0.7816164E-02  0.1312668E+00
        -11   -1    0    0    0    0  0.00000000000E+00  0.00000000000E+00  0.45593999997E+02  0.45594000000E+02  0.51100000000E-03 0. -1.
         11   -1    0    0    0    0 -0.00000000000E+00 -0.00000000000E+00 -0.45593999997E+02  0.45594000000E+02  0.51100000000E-03 0.  1.
    9900012    2    1    2    0    0 -0.31409987156E+02  0.18357154793E+02 -0.23665390995E+02  0.47787272401E+02  0.20000006183E+02 0.  0.
         12    1    1    2    0    0  0.31409987156E+02 -0.18357154793E+02  0.23665390995E+02  0.43400727599E+02  0.00000000000E+00 0. -1.
         11    1    3    3    0    0  0.17047148874E-01 -0.42593878943E+00  0.17780973668E+00  0.46187771239E+00  0.51100000000E-03 0. -1.
        -11    1    3    3    0    0 -0.27991347215E+02  0.10607910539E+02 -0.24136521386E+02  0.38452762577E+02  0.51100000000E-03 0.  1.
        -12    1    3    3    0    0 -0.34356870898E+01  0.81751830437E+01  0.29332065483E+00  0.88726321113E+01  0.00000000000E+00 0.  1.
</event>
<event>
 7    1  0.5022032E-011  0.4778727E+02  0.7816164E-02  0.1312668E+00
        -11   -1    0    0    0    0  0.00000000000E+00  0.00000000000E+00  0.45593999997E+02  0.45594000000E+02  0.51100000000E-03 0. -1.
         11   -1    0    0    0    0 -0.00000000000E+00 -0.00000000000E+00 -0.45593999997E+02  0.45594000000E+02  0.51100000000E-03 0.  1.
    9900012    2    1    2    0    0 -0.13162253684E+02 -0.13333872062E+02  0.39148260945E+02  0.47787269578E+02  0.19999993312E+02 0.  0.
        -12    1    1    2    0    0  0.13162253684E+02  0.13333872062E+02 -0.39148260945E+02  0.43400730422E+02  0.00000000000E+00 0.  1.
         11    1    3    3    0    0  0.47371071009E+00 -0.85751717783E+00  0.13310653717E+02  0.13346656517E+02  0.51100000000E-03 0.  1.
        -11    1    3    3    0    0 -0.10966225113E+02 -0.94115228956E+01  0.26631073208E+02  0.30299322053E+02  0.51100000000E-03 0. -1.
         12    1    3    3    0    0 -0.26697392810E+01 -0.30648319890E+01 -0.79346597972E+00  0.41412910077E+01  0.00000000000E+00 0. -1.
</event>
<event>
 7    1  0.5022032E-011  0.4778727E+02  0.7816164E-02  0.1312668E+00
        -11   -1    0    0    0    0  0.00000000000E+00  0.00000000000E+00  0.45593999997E+02  0.45594000000E+02  0.51100000000E-03 0. -1.
         11   -1    0    0    0    0 -0.00000000000E+00 -0.00000000000E+00 -0.45593999997E+02  0.45594000000E+02  0.51100000000E-03 0.  1.
    9900012    2    1    2    0    0 -0.29257943722E+02  0.19958314123E+02 -0.25085091657E+02  0.47787269627E+02  0.19999993537E+02 0.  0.
         12    1    1    2    0    0  0.29257943722E+02 -0.19958314123E+02  0.25085091657E+02  0.43400730373E+02  0.00000000000E+00 0. -1.
         11    1    3    3    0    0 -0.27960946795E+02  0.13564588477E+02 -0.14831938587E+02  0.34435432461E+02  0.51100000000E-03 0. -1.
        -11    1    3    3    0    0 -0.26080873231E+01  0.77954931117E+00 -0.40847576972E+01  0.49086721544E+01  0.51100000000E-03 0.  1.
         12    1    3    3    0    0  0.13110903962E+01  0.56141763347E+01 -0.61683953724E+01  0.84431650116E+01  0.00000000000E+00 0. -1.
</event>
<event>
 7    1  0.5022032E-011  0.4778728E+02  0.7816164E-02  0.1312668E+00
        -11   -1    0    0    0    0  0.00000000000E+00  0.00000000000E+00  0.45593999997E+02  0.45594000000E+02  0.51100000000E-03 0. -1.
         11   -1    0    0    0    0 -0.00000000000E+00 -0.00000000000E+00 -0.45593999997E+02  0.45594000000E+02  0.51100000000E-03 0.  1.
    9900012    2    1    2    0    0  0.12104624921E+02 -0.19049735463E+02  0.37070318723E+02  0.47787275398E+02  0.20000019852E+02 0.  0.
        -12    1    1    2    0    0 -0.12104624921E+02  0.19049735463E+02 -0.37070318723E+02  0.43400724602E+02  0.00000000000E+00 0.  1.
         11    1    3    3    0    0  0.71464690578E+00  0.95224064358E+00  0.14103138229E+01  0.18456618822E+01  0.51100000000E-03 0. -1.
        -11    1    3    3    0    0  0.13846222022E+02 -0.21057798650E+02  0.27253024373E+02  0.37119753313E+02  0.51100000000E-03 0.  1.
        -12    1    3    3    0    0 -0.24562440067E+01  0.10558225433E+01  0.84069805273E+01  0.88218602034E+01  0.00000000000E+00 0.  1.
</event>
<event>
 7    1  0.5022032E-011  0.4778727E+02  0.7816164E-02  0.1312668E+00
        -11   -1    0    0    0    0  0.00000000000E+00  0.00000000000E+00  0.45593999997E+02  0.45594000000E+02  0.51100000000E-03 0. -1.
         11   -1    0    0    0    0 -0.00000000000E+00 -0.00000000000E+00 -0.45593999997E+02  0.45594000000E+02  0.51100000000E-03 0.  1.
    9900012    2    1    2    0    0 -0.17622313163E+02  0.34189299232E+01 -0.39514407675E+02  0.47787269396E+02  0.19999992486E+02 0.  0.
         12    1    1    2    0    0  0.17622313163E+02 -0.34189299232E+01  0.39514407675E+02  0.43400730604E+02  0.00000000000E+00 0. -1.
         11    1    3    3    0    0  0.54934647328E+00  0.30466548916E+01 -0.10889972770E+02  0.11321457272E+02  0.51100000000E-03 0. -1.
        -11    1    3    3    0    0 -0.44375228228E+01 -0.39690702608E+01 -0.16820559629E+02  0.17843103823E+02  0.51100000000E-03 0.  1.
         12    1    3    3    0    0 -0.13734136813E+02  0.43413452924E+01 -0.11803875276E+02  0.18622708302E+02  0.00000000000E+00 0. -1.
</event>
<event>
 7    1  0.5022032E-011  0.4778727E+02  0.7816164E-02  0.1312668E+00
        -11   -1    0    0    0    0  0.00000000000E+00  0.00000000000E+00  0.45593999997E+02  0.45594000000E+02  0.51100000000E-03 0. -1.
         11   -1    0    0    0    0 -0.00000000000E+00 -0.00000000000E+00 -0.45593999997E+02  0.45594000000E+02  0.51100000000E-03 0.  1.
    9900012    2    1    2    0    0  0.40195187554E+01  0.58279307484E+01 -0.42819411764E+02  0.47787270379E+02  0.19999996967E+02 0.  0.
         12    1    1    2    0    0 -0.40195187554E+01 -0.58279307484E+01  0.42819411764E+02  0.43400729621E+02  0.00000000000E+00 0. -1.
         11    1    3    3    0    0 -0.18598507130E+00 -0.50803423422E+00 -0.11539955328E+02  0.11552629937E+02  0.51100000000E-03 0. -1.
        -11    1    3    3    0    0  0.61749616851E+00  0.27186973898E+01 -0.31007355951E+02  0.31132438715E+02  0.51100000000E-03 0.  1.
         12    1    3    3    0    0  0.35880076582E+01  0.36172675928E+01 -0.27210048474E+00  0.51022017274E+01  0.00000000000E+00 0. -1.
</event>
<event>
 7    1  0.5022032E-011  0.4778727E+02  0.7816164E-02  0.1312668E+00
        -11   -1    0    0    0    0  0.00000000000E+00  0.00000000000E+00  0.45593999997E+02  0.45594000000E+02  0.51100000000E-03 0. -1.
         11   -1    0    0    0    0 -0.00000000000E+00 -0.00000000000E+00 -0.45593999997E+02  0.45594000000E+02  0.51100000000E-03 0.  1.
    9900012    2    1    2    0    0  0.24585685205E+02 -0.31431662504E+02 -0.17065110630E+02  0.47787270449E+02  0.19999997285E+02 0.  0.
         12    1    1    2    0    0 -0.24585685205E+02  0.31431662504E+02  0.17065110630E+02  0.43400729551E+02  0.00000000000E+00 0. -1.
         11    1    3    3    0    0  0.28863172996E+01 -0.53111579030E+00 -0.84242704108E+00  0.30532925044E+01  0.51100000000E-03 0. -1.
        -11    1    3    3    0    0 -0.85641101884E+00 -0.87985418707E+01 -0.84121981855E+01  0.12202985596E+02  0.51100000000E-03 0.  1.
        -12    1    3    3    0    0  0.22555778924E+02 -0.22102004843E+02 -0.78104854038E+01  0.32530992349E+02  0.00000000000E+00 0.  1.
</event>
<event>
 7    1  0.5022032E-011  0.4778727E+02  0.7816164E-02  0.1312668E+00
        -11   -1    0    0    0    0  0.00000000000E+00  0.00000000000E+00  0.45593999997E+02  0.45594000000E+02  0.51100000000E-03 0. -1.
         11   -1    0    0    0    0 -0.00000000000E+00 -0.00000000000E+00 -0.45593999997E+02  0.45594000000E+02  0.51100000000E-03 0.  1.
    9900012    2    1    2    0    0 -0.28617723777E+02  0.23734199233E+02  0.22390555153E+02  0.47787270888E+02  0.19999999285E+02 0.  0.
        -12    1    1    2    0    0  0.28617723777E+02 -0.23734199233E+02 -0.22390555153E+02  0.43400729112E+02  0.00000000000E+00 0.  1.
         11    1    3    3    0    0 -0.17538733850E+01  0.50811761830E+01 -0.14090427515E+01  0.55569618489E+01  0.51100000000E-03 0. -1.
        -11    1    3    3    0    0 -0.40228684182E+00 -0.12500096870E+01  0.26035648756E+01  0.29159748358E+01  0.51100000000E-03 0.  1.
         12    1    3    3    0    0 -0.26461563550E+02  0.19903032737E+02  0.21196033029E+02  0.39314334203E+02  0.00000000000E+00 0. -1.
</event>
<event>
 7    1  0.5022032E-011  0.4778727E+02  0.7816164E-02  0.1312668E+00
        -11   -1    0    0    0    0  0.00000000000E+00  0.00000000000E+00  0.45593999997E+02  0.45594000000E+02  0.51100000000E-03 0. -1.
         11   -1    0    0    0    0 -0.00000000000E+00 -0.00000000000E+00 -0.45593999997E+02  0.45594000000E+02  0.51100000000E-03 0.  1.
    9900012    2    1    2    0    0 -0.16441353324E+02 -0.12362486714E+02 -0.38216148484E+02  0.47787272105E+02  0.20000004835E+02 0.  0.
         12    1    1    2    0    0  0.16441353324E+02  0.12362486714E+02  0.38216148484E+02  0.43400727895E+02  0.00000000000E+00 0. -1.
         11    1    3    3    0    0  0.12779260277E+01 -0.18295864443E+01 -0.64680396953E+01  0.68422232681E+01  0.51100000000E-03 0. -1.
        -11    1    3    3    0    0 -0.28958644913E+01  0.37040922493E+01 -0.28999764017E+01  0.55241464440E+01  0.51100000000E-03 0.  1.
        -12    1    3    3    0    0 -0.14823414861E+02 -0.14236992519E+02 -0.28848132387E+02  0.35420902393E+02  0.00000000000E+00 0.  1.
</event>
<event>
 7    1  0.5022032E-011  0.4778725E+02  0.7816164E-02  0.1312668E+00
        -11   -1    0    0    0    0  0.00000000000E+00  0.00000000000E+00  0.45593999997E+02  0.45594000000E+02  0.51100000000E-03 0. -1.
         11   -1    0    0    0    0 -0.00000000000E+00 -0.00000000000E+00 -0.45593999997E+02  0.45594000000E+02  0.51100000000E-03 0.  1.
    9900012    2    1    2    0    0 -0.34270711278E+02  0.12276968900E+02  0.23630899532E+02  0.47787250818E+02  0.19999907778E+02 0.  0.
        -12    1    1    2    0    0  0.34270711278E+02 -0.12276968900E+02 -0.23630899532E+02  0.43400749182E+02  0.00000000000E+00 0.  1.
         11    1    3    3    0    0 -0.76777101097E+00  0.29793840479E+01  0.77709251857E+01  0.83578394416E+01  0.51100000000E-03 0. -1.
        -11    1    3    3    0    0 -0.20807149313E+02  0.72484599740E+01  0.14764012852E+02  0.26522701791E+02  0.51100000000E-03 0.  1.
        -12    1    3    3    0    0 -0.12695790954E+02  0.20491248782E+01  0.10959614940E+01  0.12906709585E+02  0.00000000000E+00 0.  1.
</event>
<event>
 7    1  0.5022032E-011  0.4778728E+02  0.7816164E-02  0.1312668E+00
        -11   -1    0    0    0    0  0.00000000000E+00  0.00000000000E+00  0.45593999997E+02  0.45594000000E+02  0.51100000000E-03 0. -1.
         11   -1    0    0    0    0 -0.00000000000E+00 -0.00000000000E+00 -0.45593999997E+02  0.45594000000E+02  0.51100000000E-03 0.  1.
    9900012    2    1    2    0    0  0.21955395603E+02  0.76792678275E+01  0.36641675188E+02  0.47787275224E+02  0.20000019057E+02 0.  0.
        -12    1    1    2    0    0 -0.21955395603E+02 -0.76792678275E+01 -0.36641675188E+02  0.43400724776E+02  0.00000000000E+00 0.  1.
         11    1    3    3    0    0  0.67788733014E+01  0.20524330286E+01  0.73283517988E+01  0.10191680182E+02  0.51100000000E-03 0. -1.
        -11    1    3    3    0    0  0.10816334540E+01  0.71860362704E+01  0.18141042342E+02  0.19542427325E+02  0.51100000000E-03 0.  1.
        -12    1    3    3    0    0  0.14094888848E+02 -0.15592014715E+01  0.11172281047E+02  0.18053167718E+02  0.00000000000E+00 0.  1.
</event>
<event>
 7    1  0.5022032E-011  0.4778727E+02  0.7816164E-02  0.1312668E+00
        -11   -1    0    0    0    0  0.00000000000E+00  0.00000000000E+00  0.45593999997E+02  0.45594000000E+02  0.51100000000E-03 0. -1.
         11   -1    0    0    0    0 -0.00000000000E+00 -0.00000000000E+00 -0.45593999997E+02  0.45594000000E+02  0.51100000000E-03 0.  1.
    9900012    2    1    2    0    0 -0.24683140486E+02 -0.17059097768E+02 -0.31358466268E+02  0.47787266739E+02  0.19999980371E+02 0.  0.
         12    1    1    2    0    0  0.24683140486E+02  0.17059097768E+02  0.31358466268E+02  0.43400733261E+02  0.00000000000E+00 0. -1.
         11    1    3    3    0    0  0.12591253156E+01 -0.10322222307E+01 -0.76339475787E+00  0.17982355550E+01  0.51100000000E-03 0. -1.
        -11    1    3    3    0    0 -0.40353255638E+01  0.28225419919E+01 -0.19453953818E+01  0.52948238077E+01  0.51100000000E-03 0.  1.
        -12    1    3    3    0    0 -0.21906940238E+02 -0.18849417529E+02 -0.28649676128E+02  0.40694207377E+02  0.00000000000E+00 0.  1.
</event>
<event>
 7    1  0.5022032E-011  0.4778727E+02  0.7816164E-02  0.1312668E+00
        -11   -1    0    0    0    0  0.00000000000E+00  0.00000000000E+00  0.45593999997E+02  0.45594000000E+02  0.51100000000E-03 0. -1.
         11   -1    0    0    0    0 -0.00000000000E+00 -0.00000000000E+00 -0.45593999997E+02  0.45594000000E+02  0.51100000000E-03 0.  1.
    9900012    2    1    2    0    0 -0.32446988241E+02  0.94429428752E+01  0.27233198705E+02  0.47787270424E+02  0.19999997169E+02 0.  0.
        -12    1    1    2    0    0  0.32446988241E+02 -0.94429428752E+01 -0.27233198705E+02  0.43400729576E+02  0.00000000000E+00 0.  1.
         11    1    3    3    0    0 -0.11625342961E+02  0.22568773229E+01  0.29536710725E+01  0.12205173791E+02  0.51100000000E-03 0.  1.
        -11    1    3    3    0    0 -0.12434424027E+02 -0.28177489164E+01  0.97582619055E+01  0.16055475251E+02  0.51100000000E-03 0. -1.
         12    1    3    3    0    0 -0.83872212529E+01  0.10003814469E+02  0.14521265727E+02  0.19526621382E+02  0.00000000000E+00 0. -1.
</event>
<event>
 7    1  0.5022032E-011  0.4778726E+02  0.7816164E-02  0.1312668E+00
        -11   -1    0    0    0    0  0.00000000000E+00  0.00000000000E+00  0.45593999997E+02  0.45594000000E+02  0.51100000000E-03 0. -1.
         11   -1    0    0    0    0 -0.00000000000E+00 -0.00000000000E+00 -0.45593999997E+02  0.45594000000E+02  0.51100000000E-03 0.  1.
    9900012    2    1    2    0    0 -0.24926836487E+01 -0.35356954253E+02  0.25045882650E+02  0.47787263559E+02  0.19999965873E+02 0.  0.
        -12    1    1    2    0    0  0.24926836487E+01  0.35356954253E+02 -0.25045882650E+02  0.43400736441E+02  0.00000000000E+00 0.  1.
         11    1    3    3    0    0  0.46991931434E+01 -0.45558931617E+01  0.70767965641E+00  0.65832658656E+01  0.51100000000E-03 0. -1.
        -11    1    3    3    0    0 -0.39812926249E+01 -0.94832283817E+01  0.26433848549E+01  0.10619312372E+02  0.51100000000E-03 0.  1.
        -12    1    3    3    0    0 -0.32105841672E+01 -0.21317832710E+02  0.21694818139E+02  0.30584685322E+02  0.00000000000E+00 0.  1.
</event>
<event>
 7    1  0.5022032E-011  0.4778727E+02  0.7816164E-02  0.1312668E+00
        -11   -1    0    0    0    0  0.00000000000E+00  0.00000000000E+00  0.45593999997E+02  0.45594000000E+02  0.51100000000E-03 0. -1.
         11   -1    0    0    0    0 -0.00000000000E+00 -0.00000000000E+00 -0.45593999997E+02  0.45594000000E+02  0.51100000000E-03 0.  1.
    9900012    2    1    2    0    0 -0.59610575120E+01 -0.10532646442E+02  0.41679159112E+02  0.47787272449E+02  0.20000006402E+02 0.  0.
        -12    1    1    2    0    0  0.59610575120E+01  0.10532646442E+02 -0.41679159112E+02  0.43400727551E+02  0.00000000000E+00 0.  1.
         11    1    3    3    0    0 -0.63342844311E+01 -0.70476199728E+00  0.91423937778E+01  0.11144649522E+02  0.51100000000E-03 0. -1.
        -11    1    3    3    0    0 -0.28806026452E+01 -0.63210455669E+01  0.30767745243E+02  0.31542156493E+02  0.51100000000E-03 0.  1.
        -12    1    3    3    0    0  0.32538295644E+01 -0.35068388782E+01  0.17690200911E+01  0.51004664330E+01  0.00000000000E+00 0.  1.
</event>
<event>
 7    1  0.5022032E-011  0.4778727E+02  0.7816164E-02  0.1312668E+00
        -11   -1    0    0    0    0  0.00000000000E+00  0.00000000000E+00  0.45593999997E+02  0.45594000000E+02  0.51100000000E-03 0. -1.
         11   -1    0    0    0    0 -0.00000000000E+00 -0.00000000000E+00 -0.45593999997E+02  0.45594000000E+02  0.51100000000E-03 0.  1.
    9900012    2    1    2    0    0  0.31010835360E+01 -0.10771721437E+02 -0.41928232250E+02  0.47787270036E+02  0.19999995400E+02 0.  0.
         12    1    1    2    0    0 -0.31010835360E+01  0.10771721437E+02  0.41928232250E+02  0.43400729964E+02  0.00000000000E+00 0. -1.
         11    1    3    3    0    0 -0.73803444080E-01 -0.12171020058E+01 -0.22533281463E+02  0.22566248203E+02  0.51100000000E-03 0. -1.
        -11    1    3    3    0    0 -0.12100935652E+01 -0.56085169296E+01 -0.18355086845E+02  0.19230938665E+02  0.51100000000E-03 0.  1.
         12    1    3    3    0    0  0.43849805453E+01 -0.39461025011E+01 -0.10398639428E+01  0.59900831673E+01  0.00000000000E+00 0. -1.
</event>
<event>
 7    1  0.5022032E-011  0.4778727E+02  0.7816164E-02  0.1312668E+00
        -11   -1    0    0    0    0  0.00000000000E+00  0.00000000000E+00  0.45593999997E+02  0.45594000000E+02  0.51100000000E-03 0. -1.
         11   -1    0    0    0    0 -0.00000000000E+00 -0.00000000000E+00 -0.45593999997E+02  0.45594000000E+02  0.51100000000E-03 0.  1.
    9900012    2    1    2    0    0 -0.27398076747E+02 -0.27160422670E+02  0.19881647526E+02  0.47787273308E+02  0.20000010321E+02 0.  0.
        -12    1    1    2    0    0  0.27398076747E+02  0.27160422670E+02 -0.19881647526E+02  0.43400726692E+02  0.00000000000E+00 0.  1.
         11    1    3    3    0    0 -0.14260108135E+02 -0.14008247838E+02  0.11947014188E+02  0.23287611294E+02  0.51100000000E-03 0. -1.
        -11    1    3    3    0    0 -0.17947881251E+01 -0.10483909418E+02  0.71586436545E+01  0.12821068611E+02  0.51100000000E-03 0.  1.
        -12    1    3    3    0    0 -0.11343180487E+02 -0.26682654137E+01  0.77598968296E+00  0.11678593403E+02  0.00000000000E+00 0.  1.
</event>
<event>
 7    1  0.5022032E-011  0.4778727E+02  0.7816164E-02  0.1312668E+00
        -11   -1    0    0    0    0  0.00000000000E+00  0.00000000000E+00  0.45593999997E+02  0.45594000000E+02  0.51100000000E-03 0. -1.
         11   -1    0    0    0    0 -0.00000000000E+00 -0.00000000000E+00 -0.45593999997E+02  0.45594000000E+02  0.51100000000E-03 0.  1.
    9900012    2    1    2    0    0 -0.18017962140E+02  0.28849242207E+02 -0.26957325398E+02  0.47787272723E+02  0.20000007651E+02 0.  0.
         12    1    1    2    0    0  0.18017962140E+02 -0.28849242207E+02  0.26957325398E+02  0.43400727277E+02  0.00000000000E+00 0. -1.
         11    1    3    3    0    0 -0.12046145913E+01  0.28423640067E+01 -0.20202370880E+01  0.36893749624E+01  0.51100000000E-03 0. -1.
        -11    1    3    3    0    0 -0.36029054587E+01  0.18475812534E+02 -0.58869478916E+01  0.19722898678E+02  0.51100000000E-03 0.  1.
        -12    1    3    3    0    0 -0.13210442090E+02  0.75310656662E+01 -0.19050140419E+02  0.24374999082E+02  0.00000000000E+00 0.  1.
</event>
<event>
 7    1  0.5022032E-011  0.4778727E+02  0.7816164E-02  0.1312668E+00
        -11   -1    0    0    0    0  0.00000000000E+00  0.00000000000E+00  0.45593999997E+02  0.45594000000E+02  0.51100000000E-03 0. -1.
         11   -1    0    0    0    0 -0.00000000000E+00 -0.00000000000E+00 -0.45593999997E+02  0.45594000000E+02  0.51100000000E-03 0.  1.
    9900012    2    1    2    0    0  0.56679269638E+00 -0.49447027521E+01  0.43114409296E+02  0.47787266962E+02  0.19999981386E+02 0.  0.
        -12    1    1    2    0    0 -0.56679269638E+00  0.49447027521E+01 -0.43114409296E+02  0.43400733038E+02  0.00000000000E+00 0.  1.
         11    1    3    3    0    0 -0.19459146651E+01 -0.11366286449E+02  0.17937614679E+02  0.21324564994E+02  0.51100000000E-03 0. -1.
        -11    1    3    3    0    0 -0.18727636374E+00  0.25175761353E+01  0.37785354209E+01  0.45442922685E+01  0.51100000000E-03 0.  1.
         12    1    3    3    0    0  0.26999837252E+01  0.39040075612E+01  0.21398259196E+02  0.21918409700E+02  0.00000000000E+00 0. -1.
</event>
<event>
 7    1  0.5022032E-011  0.4778727E+02  0.7816164E-02  0.1312668E+00
        -11   -1    0    0    0    0  0.00000000000E+00  0.00000000000E+00  0.45593999997E+02  0.45594000000E+02  0.51100000000E-03 0. -1.
         11   -1    0    0    0    0 -0.00000000000E+00 -0.00000000000E+00 -0.45593999997E+02  0.45594000000E+02  0.51100000000E-03 0.  1.
    9900012    2    1    2    0    0 -0.11653998645E+02 -0.18152836692E+01 -0.41767360640E+02  0.47787270121E+02  0.19999995791E+02 0.  0.
         12    1    1    2    0    0  0.11653998645E+02  0.18152836692E+01  0.41767360640E+02  0.43400729879E+02  0.00000000000E+00 0. -1.
         11    1    3    3    0    0  0.19202547138E+01 -0.10280275923E+01  0.82866893402E+00  0.23304315823E+01  0.51100000000E-03 0. -1.
        -11    1    3    3    0    0  0.11178394380E+00  0.18835670279E+01 -0.62125070429E+01  0.64927316607E+01  0.51100000000E-03 0.  1.
        -12    1    3    3    0    0 -0.13686037302E+02 -0.26708231048E+01 -0.36383522531E+02  0.38964106878E+02  0.00000000000E+00 0.  1.
</event>
<event>
 7    1  0.5022032E-011  0.4778727E+02  0.7816164E-02  0.1312668E+00
        -11   -1    0    0    0    0  0.00000000000E+00  0.00000000000E+00  0.45593999997E+02  0.45594000000E+02  0.51100000000E-03 0. -1.
         11   -1    0    0    0    0 -0.00000000000E+00 -0.00000000000E+00 -0.45593999997E+02  0.45594000000E+02  0.51100000000E-03 0.  1.
    9900012    2    1    2    0    0 -0.33237454382E+02 -0.16295803781E+02 -0.22657042174E+02  0.47787272417E+02  0.20000006256E+02 0.  0.
         12    1    1    2    0    0  0.33237454382E+02  0.16295803781E+02  0.22657042174E+02  0.43400727583E+02  0.00000000000E+00 0. -1.
         11    1    3    3    0    0 -0.42665224204E+01 -0.69514857718E+01 -0.88796809552E+01  0.12057159787E+02  0.51100000000E-03 0. -1.
        -11    1    3    3    0    0 -0.16124475951E+02 -0.10766762523E+02 -0.11682965524E+02  0.22636554146E+02  0.51100000000E-03 0.  1.
         12    1    3    3    0    0 -0.12846456011E+02  0.14224445137E+01 -0.20943956955E+01  0.13093558484E+02  0.00000000000E+00 0. -1.
</event>
<event>
 7    1  0.5022032E-011  0.4778727E+02  0.7816164E-02  0.1312668E+00
        -11   -1    0    0    0    0  0.00000000000E+00  0.00000000000E+00  0.45593999997E+02  0.45594000000E+02  0.51100000000E-03 0. -1.
         11   -1    0    0    0    0 -0.00000000000E+00 -0.00000000000E+00 -0.45593999997E+02  0.45594000000E+02  0.51100000000E-03 0.  1.
    9900012    2    1    2    0    0  0.23661418239E+02  0.16726707678E+02  0.32310646934E+02  0.47787269958E+02  0.19999995048E+02 0.  0.
        -12    1    1    2    0    0 -0.23661418239E+02 -0.16726707678E+02 -0.32310646934E+02  0.43400730042E+02  0.00000000000E+00 0.  1.
         11    1    3    3    0    0  0.18809306073E+02  0.25860833131E+01  0.18781854821E+02  0.26706476604E+02  0.51100000000E-03 0. -1.
        -11    1    3    3    0    0  0.64050728864E+00  0.45382287416E+01  0.80178949683E+01  0.92353889838E+01  0.51100000000E-03 0.  1.
        -12    1    3    3    0    0  0.42116048779E+01  0.96023956233E+01  0.55108971449E+01  0.11845404370E+02  0.00000000000E+00 0.  1.
</event>
<event>
 7    1  0.5022032E-011  0.4778727E+02  0.7816164E-02  0.1312668E+00
        -11   -1    0    0    0    0  0.00000000000E+00  0.00000000000E+00  0.45593999997E+02  0.45594000000E+02  0.51100000000E-03 0. -1.
         11   -1    0    0    0    0 -0.00000000000E+00 -0.00000000000E+00 -0.45593999997E+02  0.45594000000E+02  0.51100000000E-03 0.  1.
    9900012    2    1    2    0    0 -0.36033666210E+01  0.28990248265E+02 -0.32096800628E+02  0.47787270098E+02  0.19999995685E+02 0.  0.
         12    1    1    2    0    0  0.36033666210E+01 -0.28990248265E+02  0.32096800628E+02  0.43400729902E+02  0.00000000000E+00 0. -1.
         11    1    3    3    0    0 -0.47628557712E+01  0.20772083777E+02 -0.12899351271E+02  0.24910992011E+02  0.51100000000E-03 0. -1.
        -11    1    3    3    0    0  0.11899555330E+01  0.91880616390E+01 -0.10016899259E+02  0.13644586541E+02  0.51100000000E-03 0.  1.
        -12    1    3    3    0    0 -0.30466382760E-01 -0.96989715053E+00 -0.91805500988E+01  0.92316915459E+01  0.00000000000E+00 0.  1.
</event>
<event>
 7    1  0.5022032E-011  0.4778732E+02  0.7816164E-02  0.1312668E+00
        -11   -1    0    0    0    0  0.00000000000E+00  0.00000000000E+00  0.45593999997E+02  0.45594000000E+02  0.51100000000E-03 0. -1.
         11   -1    0    0    0    0 -0.00000000000E+00 -0.00000000000E+00 -0.45593999997E+02  0.45594000000E+02  0.51100000000E-03 0.  1.
    9900012    2    1    2    0    0 -0.40769906301E+02 -0.10202342074E+02 -0.10832651558E+02  0.47787315865E+02  0.20000204355E+02 0.  0.
         12    1    1    2    0    0  0.40769906301E+02  0.10202342074E+02  0.10832651558E+02  0.43400684135E+02  0.00000000000E+00 0. -1.
         11    1    3    3    0    0 -0.46472718457E+01 -0.21571026863E+01 -0.54297728927E+00  0.51521890692E+01  0.51100000000E-03 0.  1.
        -11    1    3    3    0    0  0.15628326945E+01  0.18320205687E+01 -0.80214562532E+00  0.25381456342E+01  0.51100000000E-03 0. -1.
         12    1    3    3    0    0 -0.37685467150E+02 -0.98772599565E+01 -0.94875286438E+01  0.40096981162E+02  0.00000000000E+00 0. -1.
</event>
<event>
 7    1  0.5022032E-011  0.4778727E+02  0.7816164E-02  0.1312668E+00
        -11   -1    0    0    0    0  0.00000000000E+00  0.00000000000E+00  0.45593999997E+02  0.45594000000E+02  0.51100000000E-03 0. -1.
         11   -1    0    0    0    0 -0.00000000000E+00 -0.00000000000E+00 -0.45593999997E+02  0.45594000000E+02  0.51100000000E-03 0.  1.
    9900012    2    1    2    0    0  0.31364802693E+02  0.95343852745E+01 -0.28442362258E+02  0.47787270497E+02  0.19999997506E+02 0.  0.
         12    1    1    2    0    0 -0.31364802693E+02 -0.95343852745E+01  0.28442362258E+02  0.43400729503E+02  0.00000000000E+00 0. -1.
         11    1    3    3    0    0  0.12422424775E+02  0.88896108248E+01 -0.64086579356E+01  0.16565407169E+02  0.51100000000E-03 0. -1.
        -11    1    3    3    0    0  0.50482844031E+01 -0.24187549812E+01 -0.78926195399E+00  0.56531836841E+01  0.51100000000E-03 0.  1.
        -12    1    3    3    0    0  0.13894093516E+02  0.30635294309E+01 -0.21244442368E+02  0.25568679644E+02  0.00000000000E+00 0.  1.
</event>
<event>
 7    1  0.5022032E-011  0.4778727E+02  0.7816164E-02  0.1312668E+00
        -11   -1    0    0    0    0  0.00000000000E+00  0.00000000000E+00  0.45593999997E+02  0.45594000000E+02  0.51100000000E-03 0.  1.
         11   -1    0    0    0    0 -0.00000000000E+00 -0.00000000000E+00 -0.45593999997E+02  0.45594000000E+02  0.51100000000E-03 0. -1.
    9900012    2    1    2    0    0  0.39061483356E+02 -0.17893091752E+02 -0.61368468199E+01  0.47787273009E+02  0.20000008958E+02 0.  0.
        -12    1    1    2    0    0 -0.39061483356E+02  0.17893091752E+02  0.61368468199E+01  0.43400726991E+02  0.00000000000E+00 0.  1.
         11    1    3    3    0    0  0.48046356313E+01  0.23724002549E-01 -0.10527070163E+01  0.49186663539E+01  0.51100000000E-03 0. -1.
        -11    1    3    3    0    0  0.22262763711E+02 -0.20324890213E+02 -0.17843009851E+01  0.30197939342E+02  0.51100000000E-03 0.  1.
        -12    1    3    3    0    0  0.11994084014E+02  0.24080744586E+01 -0.32998388186E+01  0.12670667314E+02  0.00000000000E+00 0.  1.
</event>
<event>
 7    1  0.5022032E-011  0.4778727E+02  0.7816164E-02  0.1312668E+00
        -11   -1    0    0    0    0  0.00000000000E+00  0.00000000000E+00  0.45593999997E+02  0.45594000000E+02  0.51100000000E-03 0. -1.
         11   -1    0    0    0    0 -0.00000000000E+00 -0.00000000000E+00 -0.45593999997E+02  0.45594000000E+02  0.51100000000E-03 0.  1.
    9900012    2    1    2    0    0  0.20497530216E+02 -0.62452274120E+00 -0.38250290642E+02  0.47787268349E+02  0.19999987713E+02 0.  0.
         12    1    1    2    0    0 -0.20497530216E+02  0.62452274120E+00  0.38250290642E+02  0.43400731651E+02  0.00000000000E+00 0. -1.
         11    1    3    3    0    0  0.11198282854E+02  0.42831591869E+01 -0.22035781868E+02  0.25086304517E+02  0.51100000000E-03 0. -1.
        -11    1    3    3    0    0  0.10498221412E+02 -0.44640219802E+01 -0.17498733028E+02  0.20888891854E+02  0.51100000000E-03 0.  1.
         12    1    3    3    0    0 -0.11989740501E+01 -0.44365994787E+00  0.12842242538E+01  0.18120719788E+01  0.00000000000E+00 0. -1.
</event>
<event>
 7    1  0.5022032E-011  0.4778724E+02  0.7816164E-02  0.1312668E+00
        -11   -1    0    0    0    0  0.00000000000E+00  0.00000000000E+00  0.45593999997E+02  0.45594000000E+02  0.51100000000E-03 0. -1.
         11   -1    0    0    0    0 -0.00000000000E+00 -0.00000000000E+00 -0.45593999997E+02  0.45594000000E+02  0.51100000000E-03 0.  1.
    9900012    2    1    2    0    0  0.39798090163E+02 -0.11468249803E+02 -0.12969860881E+02  0.47787239345E+02  0.19999855471E+02 0.  0.
         12    1    1    2    0    0 -0.39798090163E+02  0.11468249803E+02  0.12969860881E+02  0.43400760655E+02  0.00000000000E+00 0. -1.
         11    1    3    3    0    0  0.14523651563E+02 -0.66355897158E+01 -0.60506230714E+01  0.17075641874E+02  0.51100000000E-03 0. -1.
        -11    1    3    3    0    0  0.15431350056E+02 -0.10108307907E+02 -0.21648775583E+01  0.18573937342E+02  0.51100000000E-03 0.  1.
         12    1    3    3    0    0  0.98430885443E+01  0.52756478205E+01 -0.47543602514E+01  0.12137660129E+02  0.00000000000E+00 0. -1.
</event>
<event>
 7    1  0.5022032E-011  0.4778727E+02  0.7816164E-02  0.1312668E+00
        -11   -1    0    0    0    0  0.00000000000E+00  0.00000000000E+00  0.45593999997E+02  0.45594000000E+02  0.51100000000E-03 0.  1.
         11   -1    0    0    0    0 -0.00000000000E+00 -0.00000000000E+00 -0.45593999997E+02  0.45594000000E+02  0.51100000000E-03 0. -1.
    9900012    2    1    2    0    0  0.39543446939E+02  0.14964160115E+02 -0.97986177272E+01  0.47787271974E+02  0.20000004239E+02 0.  0.
         12    1    1    2    0    0 -0.39543446939E+02 -0.14964160115E+02  0.97986177272E+01  0.43400728026E+02  0.00000000000E+00 0. -1.
         11    1    3    3    0    0  0.15917053037E+02  0.12078985627E+02 -0.63879846132E+01  0.20977626626E+02  0.51100000000E-03 0. -1.
        -11    1    3    3    0    0  0.23617983399E+02  0.48354382148E+01 -0.45750952290E+01  0.24538176362E+02  0.51100000000E-03 0.  1.
         12    1    3    3    0    0  0.84105033608E-02 -0.19502637265E+01  0.11644621150E+01  0.22714689865E+01  0.00000000000E+00 0. -1.
</event>
<event>
 7    1  0.5022032E-011  0.4778727E+02  0.7816164E-02  0.1312668E+00
        -11   -1    0    0    0    0  0.00000000000E+00  0.00000000000E+00  0.45593999997E+02  0.45594000000E+02  0.51100000000E-03 0. -1.
         11   -1    0    0    0    0 -0.00000000000E+00 -0.00000000000E+00 -0.45593999997E+02  0.45594000000E+02  0.51100000000E-03 0.  1.
    9900012    2    1    2    0    0 -0.26372687602E+02  0.23246701653E+02 -0.25449868433E+02  0.47787267376E+02  0.19999983272E+02 0.  0.
         12    1    1    2    0    0  0.26372687602E+02 -0.23246701653E+02  0.25449868433E+02  0.43400732624E+02  0.00000000000E+00 0. -1.
         11    1    3    3    0    0 -0.23279582080E+01  0.67938465541E+01  0.19987717083E+00  0.71844061385E+01  0.51100000000E-03 0. -1.
        -11    1    3    3    0    0 -0.16535697098E+02  0.12843195214E+02 -0.10759656616E+02  0.23540330341E+02  0.51100000000E-03 0.  1.
         12    1    3    3    0    0 -0.75090322959E+01  0.36096598850E+01 -0.14890088988E+02  0.17062530896E+02  0.00000000000E+00 0. -1.
</event>
<event>
 7    1  0.5022032E-011  0.4778727E+02  0.7816164E-02  0.1312668E+00
        -11   -1    0    0    0    0  0.00000000000E+00  0.00000000000E+00  0.45593999997E+02  0.45594000000E+02  0.51100000000E-03 0.  1.
         11   -1    0    0    0    0 -0.00000000000E+00 -0.00000000000E+00 -0.45593999997E+02  0.45594000000E+02  0.51100000000E-03 0. -1.
    9900012    2    1    2    0    0 -0.43148884168E+02 -0.55652486857E+00  0.46354224472E+01  0.47787273438E+02  0.20000010913E+02 0.  0.
        -12    1    1    2    0    0  0.43148884168E+02  0.55652486857E+00 -0.46354224472E+01  0.43400726562E+02  0.00000000000E+00 0.  1.
         11    1    3    3    0    0 -0.36293419318E+02  0.66431934838E+01  0.45928114283E+01  0.37181154131E+02  0.51100000000E-03 0. -1.
        -11    1    3    3    0    0 -0.45392396167E+01 -0.22331063066E+01  0.61546194321E+00  0.50961018180E+01  0.51100000000E-03 0.  1.
         12    1    3    3    0    0 -0.23162252331E+01 -0.49666120458E+01 -0.57285092423E+00  0.55100174886E+01  0.00000000000E+00 0. -1.
</event>
<event>
 7    1  0.5022032E-011  0.4778727E+02  0.7816164E-02  0.1312668E+00
        -11   -1    0    0    0    0  0.00000000000E+00  0.00000000000E+00  0.45593999997E+02  0.45594000000E+02  0.51100000000E-03 0. -1.
         11   -1    0    0    0    0 -0.00000000000E+00 -0.00000000000E+00 -0.45593999997E+02  0.45594000000E+02  0.51100000000E-03 0.  1.
    9900012    2    1    2    0    0  0.12398662085E+02  0.12905355749E+02  0.39539198530E+02  0.47787271332E+02  0.20000001312E+02 0.  0.
        -12    1    1    2    0    0 -0.12398662085E+02 -0.12905355749E+02 -0.39539198530E+02  0.43400728668E+02  0.00000000000E+00 0.  1.
         11    1    3    3    0    0  0.10746265430E+02  0.79103259566E+01  0.20958198954E+02  0.24845554554E+02  0.51100000000E-03 0. -1.
        -11    1    3    3    0    0  0.65206754677E+00  0.70377860018E+01  0.19302227122E+02  0.20555573357E+02  0.51100000000E-03 0.  1.
        -12    1    3    3    0    0  0.10003291086E+01 -0.20427562091E+01 -0.72122754624E+00  0.23861434217E+01  0.00000000000E+00 0.  1.
</event>
<event>
 7    1  0.5022032E-011  0.4778727E+02  0.7816164E-02  0.1312668E+00
        -11   -1    0    0    0    0  0.00000000000E+00  0.00000000000E+00  0.45593999997E+02  0.45594000000E+02  0.51100000000E-03 0. -1.
         11   -1    0    0    0    0 -0.00000000000E+00 -0.00000000000E+00 -0.45593999997E+02  0.45594000000E+02  0.51100000000E-03 0.  1.
    9900012    2    1    2    0    0  0.52813278474E+01  0.33946495750E+02  0.26521054207E+02  0.47787270585E+02  0.19999997906E+02 0.  0.
        -12    1    1    2    0    0 -0.52813278474E+01 -0.33946495750E+02 -0.26521054207E+02  0.43400729415E+02  0.00000000000E+00 0.  1.
         11    1    3    3    0    0 -0.25504493935E+01  0.57331281782E+01  0.85864879848E+01  0.10634910766E+02  0.51100000000E-03 0. -1.
        -11    1    3    3    0    0  0.16674835789E+01 -0.14655222365E+01  0.10679360084E+01  0.24634821880E+01  0.51100000000E-03 0.  1.
         12    1    3    3    0    0  0.61642936619E+01  0.29678889808E+02  0.16866630213E+02  0.34688877632E+02  0.00000000000E+00 0. -1.
</event>
<event>
 7    1  0.5022032E-011  0.4778727E+02  0.7816164E-02  0.1312668E+00
        -11   -1    0    0    0    0  0.00000000000E+00  0.00000000000E+00  0.45593999997E+02  0.45594000000E+02  0.51100000000E-03 0. -1.
         11   -1    0    0    0    0 -0.00000000000E+00 -0.00000000000E+00 -0.45593999997E+02  0.45594000000E+02  0.51100000000E-03 0.  1.
    9900012    2    1    2    0    0 -0.31144206829E+02  0.50326259534E+01  0.29804935995E+02  0.47787272441E+02  0.20000006368E+02 0.  0.
        -12    1    1    2    0    0  0.31144206829E+02 -0.50326259534E+01 -0.29804935995E+02  0.43400727559E+02  0.00000000000E+00 0.  1.
         11    1    3    3    0    0 -0.12226372435E+02 -0.52636602013E+00  0.11618191559E+02  0.16874347972E+02  0.51100000000E-03 0. -1.
        -11    1    3    3    0    0 -0.33154006793E+01 -0.31280284233E+01  0.10546585678E+02  0.11489426148E+02  0.51100000000E-03 0.  1.
        -12    1    3    3    0    0 -0.15602433715E+02  0.86870203968E+01  0.76401587575E+01  0.19423498321E+02  0.00000000000E+00 0.  1.
</event>
<event>
 7    1  0.5022032E-011  0.4778727E+02  0.7816164E-02  0.1312668E+00
        -11   -1    0    0    0    0  0.00000000000E+00  0.00000000000E+00  0.45593999997E+02  0.45594000000E+02  0.51100000000E-03 0. -1.
         11   -1    0    0    0    0 -0.00000000000E+00 -0.00000000000E+00 -0.45593999997E+02  0.45594000000E+02  0.51100000000E-03 0.  1.
    9900012    2    1    2    0    0 -0.11807858021E+02 -0.22455080134E+02 -0.35213167395E+02  0.47787270826E+02  0.19999999004E+02 0.  0.
         12    1    1    2    0    0  0.11807858021E+02  0.22455080134E+02  0.35213167395E+02  0.43400729174E+02  0.00000000000E+00 0. -1.
         11    1    3    3    0    0  0.37068110270E+00 -0.11373049111E+02 -0.10873010954E+02  0.15738679043E+02  0.51100000000E-03 0. -1.
        -11    1    3    3    0    0  0.46598274455E+00 -0.35218405739E+01  0.51715512152E-01  0.35529108772E+01  0.51100000000E-03 0.  1.
        -12    1    3    3    0    0 -0.12644521868E+02 -0.75601904495E+01 -0.24391871953E+02  0.28495680905E+02  0.00000000000E+00 0.  1.
</event>
<event>
 7    1  0.5022032E-011  0.4778727E+02  0.7816164E-02  0.1312668E+00
        -11   -1    0    0    0    0  0.00000000000E+00  0.00000000000E+00  0.45593999997E+02  0.45594000000E+02  0.51100000000E-03 0. -1.
         11   -1    0    0    0    0 -0.00000000000E+00 -0.00000000000E+00 -0.45593999997E+02  0.45594000000E+02  0.51100000000E-03 0.  1.
    9900012    2    1    2    0    0 -0.13514276197E+02 -0.29492056552E+02  0.28830654560E+02  0.47787266099E+02  0.19999977451E+02 0.  0.
        -12    1    1    2    0    0  0.13514276197E+02  0.29492056552E+02 -0.28830654560E+02  0.43400733901E+02  0.00000000000E+00 0.  1.
         11    1    3    3    0    0 -0.58890658922E+01 -0.33351468139E+01  0.12381765809E+02  0.14110720257E+02  0.51100000000E-03 0. -1.
        -11    1    3    3    0    0 -0.14538739090E+01  0.82836226954E+00  0.59377884924E+00  0.17755300549E+01  0.51100000000E-03 0.  1.
        -12    1    3    3    0    0 -0.61713363963E+01 -0.26985272008E+02  0.15855109901E+02  0.31901015787E+02  0.00000000000E+00 0.  1.
</event>
<event>
 7    1  0.5022032E-011  0.4778727E+02  0.7816164E-02  0.1312668E+00
        -11   -1    0    0    0    0  0.00000000000E+00  0.00000000000E+00  0.45593999997E+02  0.45594000000E+02  0.51100000000E-03 0. -1.
         11   -1    0    0    0    0 -0.00000000000E+00 -0.00000000000E+00 -0.45593999997E+02  0.45594000000E+02  0.51100000000E-03 0.  1.
    9900012    2    1    2    0    0  0.12519712598E+02 -0.77260651456E+01  0.40831212826E+02  0.47787271584E+02  0.20000002461E+02 0.  0.
        -12    1    1    2    0    0 -0.12519712598E+02  0.77260651456E+01 -0.40831212826E+02  0.43400728416E+02  0.00000000000E+00 0.  1.
         11    1    3    3    0    0  0.50009817221E+01 -0.20814931875E+01  0.19964931600E+02  0.20686733094E+02  0.51100000000E-03 0. -1.
        -11    1    3    3    0    0  0.75474603578E+01 -0.95639319047E+01  0.19414899881E+02  0.22920979233E+02  0.51100000000E-03 0.  1.
        -12    1    3    3    0    0 -0.28729481864E-01  0.39193599466E+01  0.14513813452E+01  0.41795592571E+01  0.00000000000E+00 0.  1.
</event>
<event>
 7    1  0.5022032E-011  0.4778726E+02  0.7816164E-02  0.1312668E+00
        -11   -1    0    0    0    0  0.00000000000E+00  0.00000000000E+00  0.45593999997E+02  0.45594000000E+02  0.51100000000E-03 0.  1.
         11   -1    0    0    0    0 -0.00000000000E+00 -0.00000000000E+00 -0.45593999997E+02  0.45594000000E+02  0.51100000000E-03 0. -1.
    9900012    2    1    2    0    0  0.67143686198E+01  0.41105245367E+02  0.12202477739E+02  0.47787258006E+02  0.19999940553E+02 0.  0.
        -12    1    1    2    0    0 -0.67143686198E+01 -0.41105245367E+02 -0.12202477739E+02  0.43400741994E+02  0.00000000000E+00 0.  1.
         11    1    3    3    0    0  0.69723810038E+00  0.70965928871E+01  0.94709603457E+01  0.11855246168E+02  0.51100000000E-03 0. -1.
        -11    1    3    3    0    0  0.48723662406E+00  0.16909294469E+02  0.54141103299E+01  0.17761594239E+02  0.51100000000E-03 0.  1.
        -12    1    3    3    0    0  0.55298938953E+01  0.17099358010E+02 -0.26825929362E+01  0.18170417599E+02  0.00000000000E+00 0.  1.
</event>
<event>
 7    1  0.5022032E-011  0.4778728E+02  0.7816164E-02  0.1312668E+00
        -11   -1    0    0    0    0  0.00000000000E+00  0.00000000000E+00  0.45593999997E+02  0.45594000000E+02  0.51100000000E-03 0. -1.
         11   -1    0    0    0    0 -0.00000000000E+00 -0.00000000000E+00 -0.45593999997E+02  0.45594000000E+02  0.51100000000E-03 0.  1.
    9900012    2    1    2    0    0  0.22978701424E+02 -0.15227855746E+02 -0.33521850415E+02  0.47787276906E+02  0.20000026727E+02 0.  0.
         12    1    1    2    0    0 -0.22978701424E+02  0.15227855746E+02  0.33521850415E+02  0.43400723094E+02  0.00000000000E+00 0. -1.
         11    1    3    3    0    0  0.11171831461E+02 -0.27452552333E+01 -0.19024669051E+02  0.22232504970E+02  0.51100000000E-03 0. -1.
        -11    1    3    3    0    0  0.12069116075E+02 -0.92361081508E+01 -0.15912025988E+02  0.22003677600E+02  0.51100000000E-03 0.  1.
         12    1    3    3    0    0 -0.26224611067E+00 -0.32464923623E+01  0.14148446239E+01  0.35510943371E+01  0.00000000000E+00 0. -1.
</event>
<event>
 7    1  0.5022032E-011  0.4778727E+02  0.7816164E-02  0.1312668E+00
        -11   -1    0    0    0    0  0.00000000000E+00  0.00000000000E+00  0.45593999997E+02  0.45594000000E+02  0.51100000000E-03 0. -1.
         11   -1    0    0    0    0 -0.00000000000E+00 -0.00000000000E+00 -0.45593999997E+02  0.45594000000E+02  0.51100000000E-03 0.  1.
    9900012    2    1    2    0    0 -0.17715995982E+02 -0.90743531555E+00 -0.39609887834E+02  0.47787272279E+02  0.20000005631E+02 0.  0.
         12    1    1    2    0    0  0.17715995982E+02  0.90743531555E+00  0.39609887834E+02  0.43400727721E+02  0.00000000000E+00 0. -1.
         11    1    3    3    0    0 -0.15488563946E+02  0.38752406871E+01 -0.13817250682E+02  0.21114675469E+02  0.51100000000E-03 0. -1.
        -11    1    3    3    0    0 -0.49903813090E-01  0.13156501430E-01  0.17176723438E+00  0.17935363954E+00  0.51100000000E-03 0.  1.
        -12    1    3    3    0    0 -0.21775282225E+01 -0.47958325041E+01 -0.25964404387E+02  0.26493243171E+02  0.00000000000E+00 0.  1.
</event>
<event>
 7    1  0.5022032E-011  0.4778727E+02  0.7816164E-02  0.1312668E+00
        -11   -1    0    0    0    0  0.00000000000E+00  0.00000000000E+00  0.45593999997E+02  0.45594000000E+02  0.51100000000E-03 0. -1.
         11   -1    0    0    0    0 -0.00000000000E+00 -0.00000000000E+00 -0.45593999997E+02  0.45594000000E+02  0.51100000000E-03 0.  1.
    9900012    2    1    2    0    0  0.21083375559E+02 -0.29867704135E+02  0.23388776386E+02  0.47787270327E+02  0.19999996731E+02 0.  0.
        -12    1    1    2    0    0 -0.21083375559E+02  0.29867704135E+02 -0.23388776386E+02  0.43400729673E+02  0.00000000000E+00 0.  1.
         11    1    3    3    0    0  0.54429900599E+01 -0.13375341066E+02  0.48042231178E+01  0.15218621799E+02  0.51100000000E-03 0.  1.
        -11    1    3    3    0    0  0.14927818433E+02 -0.10867094914E+02  0.71406555864E+01  0.19797032037E+02  0.51100000000E-03 0. -1.
        -12    1    3    3    0    0  0.71256706618E+00 -0.56252681553E+01  0.11443897682E+02  0.12771616491E+02  0.00000000000E+00 0.  1.
</event>
<event>
 7    1  0.5022032E-011  0.4778727E+02  0.7816164E-02  0.1312668E+00
        -11   -1    0    0    0    0  0.00000000000E+00  0.00000000000E+00  0.45593999997E+02  0.45594000000E+02  0.51100000000E-03 0. -1.
         11   -1    0    0    0    0 -0.00000000000E+00 -0.00000000000E+00 -0.45593999997E+02  0.45594000000E+02  0.51100000000E-03 0.  1.
    9900012    2    1    2    0    0 -0.25565050253E+02  0.14339435394E+01  0.35042763805E+02  0.47787270932E+02  0.19999999488E+02 0.  0.
        -12    1    1    2    0    0  0.25565050253E+02 -0.14339435394E+01 -0.35042763805E+02  0.43400729068E+02  0.00000000000E+00 0.  1.
         11    1    3    3    0    0 -0.38934062199E+01  0.14532821310E+01  0.70804711881E+00  0.42156816684E+01  0.51100000000E-03 0. -1.
        -11    1    3    3    0    0  0.10880794262E+00  0.40365772923E+01  0.93154390262E+01  0.10152989703E+02  0.51100000000E-03 0.  1.
         12    1    3    3    0    0 -0.21780451976E+02 -0.40559158839E+01  0.25019277660E+02  0.33418599560E+02  0.00000000000E+00 0. -1.
</event>
<event>
 7    1  0.5022032E-011  0.4778727E+02  0.7816164E-02  0.1312668E+00
        -11   -1    0    0    0    0  0.00000000000E+00  0.00000000000E+00  0.45593999997E+02  0.45594000000E+02  0.51100000000E-03 0. -1.
         11   -1    0    0    0    0 -0.00000000000E+00 -0.00000000000E+00 -0.45593999997E+02  0.45594000000E+02  0.51100000000E-03 0.  1.
    9900012    2    1    2    0    0 -0.10089186751E+02  0.29779546885E+02 -0.29916723375E+02  0.47787269137E+02  0.19999991303E+02 0.  0.
         12    1    1    2    0    0  0.10089186751E+02 -0.29779546885E+02  0.29916723375E+02  0.43400730863E+02  0.00000000000E+00 0. -1.
         11    1    3    3    0    0  0.92847477442E+00  0.58674429048E+01 -0.97704713255E+01  0.11434643057E+02  0.51100000000E-03 0. -1.
        -11    1    3    3    0    0 -0.76468902808E+01  0.25363312019E+02 -0.18608505523E+02  0.32373584998E+02  0.51100000000E-03 0.  1.
         12    1    3    3    0    0 -0.33707712444E+01 -0.14512080396E+01 -0.15377465266E+01  0.39790410825E+01  0.00000000000E+00 0. -1.
</event>
<event>
 7    1  0.5022032E-011  0.4778727E+02  0.7816164E-02  0.1312668E+00
        -11   -1    0    0    0    0  0.00000000000E+00  0.00000000000E+00  0.45593999997E+02  0.45594000000E+02  0.51100000000E-03 0. -1.
         11   -1    0    0    0    0 -0.00000000000E+00 -0.00000000000E+00 -0.45593999997E+02  0.45594000000E+02  0.51100000000E-03 0.  1.
    9900012    2    1    2    0    0 -0.21957449373E+02  0.14146562982E+02  0.34660761407E+02  0.47787271798E+02  0.20000003436E+02 0.  0.
        -12    1    1    2    0    0  0.21957449373E+02 -0.14146562982E+02 -0.34660761407E+02  0.43400728202E+02  0.00000000000E+00 0.  1.
         11    1    3    3    0    0 -0.27513700120E+00  0.12820877176E+01  0.89450925968E+00  0.15873236474E+01  0.51100000000E-03 0.  1.
        -11    1    3    3    0    0 -0.18110633525E+02  0.17129162026E+02  0.22262794472E+02  0.33422077379E+02  0.51100000000E-03 0. -1.
         12    1    3    3    0    0 -0.35716788464E+01 -0.42646867618E+01  0.11503457675E+02  0.12777870771E+02  0.00000000000E+00 0. -1.
</event>
<event>
 7    1  0.5022032E-011  0.4778727E+02  0.7816164E-02  0.1312668E+00
        -11   -1    0    0    0    0  0.00000000000E+00  0.00000000000E+00  0.45593999997E+02  0.45594000000E+02  0.51100000000E-03 0. -1.
         11   -1    0    0    0    0 -0.00000000000E+00 -0.00000000000E+00 -0.45593999997E+02  0.45594000000E+02  0.51100000000E-03 0.  1.
    9900012    2    1    2    0    0 -0.18023445950E+02 -0.26347540623E+02 -0.29403835022E+02  0.47787274030E+02  0.20000013611E+02 0.  0.
         12    1    1    2    0    0  0.18023445950E+02  0.26347540623E+02  0.29403835022E+02  0.43400725970E+02  0.00000000000E+00 0. -1.
         11    1    3    3    0    0 -0.68019909308E+01 -0.14180874867E+02 -0.15197001570E+02  0.21870371501E+02  0.51100000000E-03 0. -1.
        -11    1    3    3    0    0 -0.29167542768E+01 -0.51112602598E+01 -0.13811092441E+02  0.15012618413E+02  0.51100000000E-03 0.  1.
         12    1    3    3    0    0 -0.83047007424E+01 -0.70554054961E+01 -0.39574101147E+00  0.10904284116E+02  0.00000000000E+00 0. -1.
</event>
<event>
 7    1  0.5138628E-011  0.4778727E+02  0.7816164E-02  0.1312668E+00
        -11   -1    0    0    0    0  0.00000000000E+00  0.00000000000E+00  0.45593999997E+02  0.45594000000E+02  0.51100000000E-03 0. -1.
         11   -1    0    0    0    0 -0.00000000000E+00 -0.00000000000E+00 -0.45593999997E+02  0.45594000000E+02  0.51100000000E-03 0.  1.
    9900012    2    1    2    0    0  0.18192139153E+02 -0.23298482323E+02 -0.31778137101E+02  0.47787271859E+02  0.20000003716E+02 0.  0.
         12    1    1    2    0    0 -0.18192139153E+02  0.23298482323E+02  0.31778137101E+02  0.43400728141E+02  0.00000000000E+00 0. -1.
         11    1    3    3    0    0  0.62206818479E+00 -0.13829515052E+00 -0.91528181951E+01  0.91749755068E+01  0.51100000000E-03 0.  1.
        -11    1    3    3    0    0  0.13184254336E+01 -0.32865156273E+01  0.10458745840E+01  0.36923277887E+01  0.51100000000E-03 0. -1.
        -12    1    3    3    0    0  0.16251645535E+02 -0.19873671545E+02 -0.23671193490E+02  0.34919968564E+02  0.00000000000E+00 0.  1.
</event>
<event>
 7    1  0.5022032E-011  0.4778727E+02  0.7816164E-02  0.1312668E+00
        -11   -1    0    0    0    0  0.00000000000E+00  0.00000000000E+00  0.45593999997E+02  0.45594000000E+02  0.51100000000E-03 0. -1.
         11   -1    0    0    0    0 -0.00000000000E+00 -0.00000000000E+00 -0.45593999997E+02  0.45594000000E+02  0.51100000000E-03 0.  1.
    9900012    2    1    2    0    0 -0.44499942045E+01 -0.31685696810E+02  0.29322989980E+02  0.47787267609E+02  0.19999984336E+02 0.  0.
        -12    1    1    2    0    0  0.44499942045E+01  0.31685696810E+02 -0.29322989980E+02  0.43400732391E+02  0.00000000000E+00 0.  1.
         11    1    3    3    0    0  0.47723709560E+01 -0.17565139538E+02  0.15156830762E+02  0.23686265441E+02  0.51100000000E-03 0. -1.
        -11    1    3    3    0    0  0.12194626338E+01 -0.26672379807E+01 -0.23784799255E+00  0.29424172868E+01  0.51100000000E-03 0.  1.
        -12    1    3    3    0    0 -0.10441827794E+02 -0.11453319291E+02  0.14404007210E+02  0.21158584881E+02  0.00000000000E+00 0.  1.
</event>
<event>
 7    1  0.5022032E-011  0.4778722E+02  0.7816164E-02  0.1312668E+00
        -11   -1    0    0    0    0  0.00000000000E+00  0.00000000000E+00  0.45593999997E+02  0.45594000000E+02  0.51100000000E-03 0. -1.
         11   -1    0    0    0    0 -0.00000000000E+00 -0.00000000000E+00 -0.45593999997E+02  0.45594000000E+02  0.51100000000E-03 0.  1.
    9900012    2    1    2    0    0 -0.38271086898E+02 -0.46642262545E+01  0.19929781075E+02  0.47787224977E+02  0.19999789958E+02 0.  0.
        -12    1    1    2    0    0  0.38271086898E+02  0.46642262545E+01 -0.19929781075E+02  0.43400775023E+02  0.00000000000E+00 0.  1.
         11    1    3    3    0    0 -0.86630037424E+01 -0.38695361054E+01 -0.15641960665E+00  0.94892260415E+01  0.51100000000E-03 0. -1.
        -11    1    3    3    0    0 -0.64244777204E+00  0.32826583325E+01  0.17534093452E+01  0.37766426176E+01  0.51100000000E-03 0.  1.
         12    1    3    3    0    0 -0.28965635384E+02 -0.40773484816E+01  0.18332791336E+02  0.34521356318E+02  0.00000000000E+00 0. -1.
</event>
<event>
 7    1  0.5022032E-011  0.4778727E+02  0.7816164E-02  0.1312668E+00
        -11   -1    0    0    0    0  0.00000000000E+00  0.00000000000E+00  0.45593999997E+02  0.45594000000E+02  0.51100000000E-03 0. -1.
         11   -1    0    0    0    0 -0.00000000000E+00 -0.00000000000E+00 -0.45593999997E+02  0.45594000000E+02  0.51100000000E-03 0.  1.
    9900012    2    1    2    0    0 -0.34760612891E+02 -0.90648287869E+01  0.24354712462E+02  0.47787270183E+02  0.19999996074E+02 0.  0.
        -12    1    1    2    0    0  0.34760612891E+02  0.90648287869E+01 -0.24354712462E+02  0.43400729817E+02  0.00000000000E+00 0.  1.
         11    1    3    3    0    0 -0.15692124768E+02 -0.34736323911E+00  0.57731975778E+01  0.16724032154E+02  0.51100000000E-03 0. -1.
        -11    1    3    3    0    0 -0.10485669841E+02  0.93558617584E+00  0.13647708668E+02  0.17236140683E+02  0.51100000000E-03 0.  1.
        -12    1    3    3    0    0 -0.85828182823E+01 -0.96530517236E+01  0.49338062159E+01  0.13827097346E+02  0.00000000000E+00 0.  1.
</event>
<event>
 7    1  0.5022032E-011  0.4778727E+02  0.7816164E-02  0.1312668E+00
        -11   -1    0    0    0    0  0.00000000000E+00  0.00000000000E+00  0.45593999997E+02  0.45594000000E+02  0.51100000000E-03 0. -1.
         11   -1    0    0    0    0 -0.00000000000E+00 -0.00000000000E+00 -0.45593999997E+02  0.45594000000E+02  0.51100000000E-03 0.  1.
    9900012    2    1    2    0    0 -0.33580335345E+00  0.28370873806E+02  0.32842105871E+02  0.47787272329E+02  0.20000005855E+02 0.  0.
        -12    1    1    2    0    0  0.33580335345E+00 -0.28370873806E+02 -0.32842105871E+02  0.43400727671E+02  0.00000000000E+00 0.  1.
         11    1    3    3    0    0 -0.15416447633E+01  0.13836976288E+02  0.20649465687E+02  0.24904598266E+02  0.51100000000E-03 0. -1.
        -11    1    3    3    0    0 -0.14891625732E+01  0.15120594478E+02  0.13013457922E+02  0.20005001122E+02  0.51100000000E-03 0.  1.
        -12    1    3    3    0    0  0.26950039831E+01 -0.58669696054E+00 -0.82081773847E+00  0.28776729405E+01  0.00000000000E+00 0.  1.
</event>
<event>
 7    1  0.5022032E-011  0.4778727E+02  0.7816164E-02  0.1312668E+00
        -11   -1    0    0    0    0  0.00000000000E+00  0.00000000000E+00  0.45593999997E+02  0.45594000000E+02  0.51100000000E-03 0. -1.
         11   -1    0    0    0    0 -0.00000000000E+00 -0.00000000000E+00 -0.45593999997E+02  0.45594000000E+02  0.51100000000E-03 0.  1.
    9900012    2    1    2    0    0  0.14532370392E+02 -0.81812706426E+00 -0.40887214152E+02  0.47787269566E+02  0.19999993259E+02 0.  0.
         12    1    1    2    0    0 -0.14532370392E+02  0.81812706426E+00  0.40887214152E+02  0.43400730434E+02  0.00000000000E+00 0. -1.
         11    1    3    3    0    0  0.31649970975E+00 -0.53708817964E+00 -0.83805352523E+01  0.84036900916E+01  0.51100000000E-03 0. -1.
        -11    1    3    3    0    0  0.13020557104E+02  0.10511428049E+01 -0.34388820217E+02  0.36786285008E+02  0.51100000000E-03 0.  1.
         12    1    3    3    0    0  0.11953135786E+01 -0.13321816895E+01  0.18821413177E+01  0.25972944663E+01  0.00000000000E+00 0. -1.
</event>
<event>
 7    1  0.5022032E-011  0.4778727E+02  0.7816164E-02  0.1312668E+00
        -11   -1    0    0    0    0  0.00000000000E+00  0.00000000000E+00  0.45593999997E+02  0.45594000000E+02  0.51100000000E-03 0. -1.
         11   -1    0    0    0    0 -0.00000000000E+00 -0.00000000000E+00 -0.45593999997E+02  0.45594000000E+02  0.51100000000E-03 0.  1.
    9900012    2    1    2    0    0 -0.18083554871E+01  0.19857847411E+01 -0.43317542891E+02  0.47787274053E+02  0.20000013718E+02 0.  0.
         12    1    1    2    0    0  0.18083554871E+01 -0.19857847411E+01  0.43317542891E+02  0.43400725947E+02  0.00000000000E+00 0. -1.
         11    1    3    3    0    0 -0.18693138940E+01 -0.94825174757E+00 -0.64425038237E+01  0.67749074969E+01  0.51100000000E-03 0. -1.
        -11    1    3    3    0    0 -0.52768275250E+01 -0.52427774566E+00 -0.33293382813E+02  0.33713040730E+02  0.51100000000E-03 0.  1.
         12    1    3    3    0    0  0.53377859318E+01  0.34583142343E+01 -0.35816562545E+01  0.72993258266E+01  0.00000000000E+00 0. -1.
</event>
<event>
 7    1  0.5022032E-011  0.4778726E+02  0.7816164E-02  0.1312668E+00
        -11   -1    0    0    0    0  0.00000000000E+00  0.00000000000E+00  0.45593999997E+02  0.45594000000E+02  0.51100000000E-03 0. -1.
         11   -1    0    0    0    0 -0.00000000000E+00 -0.00000000000E+00 -0.45593999997E+02  0.45594000000E+02  0.51100000000E-03 0.  1.
    9900012    2    1    2    0    0  0.28248366792E+02  0.11944289832E+01 -0.32927608581E+02  0.47787259294E+02  0.19999946425E+02 0.  0.
         12    1    1    2    0    0 -0.28248366792E+02 -0.11944289832E+01  0.32927608581E+02  0.43400740706E+02  0.00000000000E+00 0. -1.
         11    1    3    3    0    0  0.87049713157E+01 -0.64811778856E+01 -0.62613846023E+01  0.12529450498E+02  0.51100000000E-03 0. -1.
        -11    1    3    3    0    0  0.57190652547E+01 -0.56340647284E+00 -0.12737797432E+02  0.13974141044E+02  0.51100000000E-03 0.  1.
        -12    1    3    3    0    0  0.13824330221E+02  0.82390133416E+01 -0.13928426546E+02  0.21283667752E+02  0.00000000000E+00 0.  1.
</event>
<event>
 7    1  0.5022032E-011  0.4778725E+02  0.7816164E-02  0.1312668E+00
        -11   -1    0    0    0    0  0.00000000000E+00  0.00000000000E+00  0.45593999997E+02  0.45594000000E+02  0.51100000000E-03 0.  1.
         11   -1    0    0    0    0 -0.00000000000E+00 -0.00000000000E+00 -0.45593999997E+02  0.45594000000E+02  0.51100000000E-03 0. -1.
    9900012    2    1    2    0    0 -0.25624891910E+02 -0.32229566765E+02  0.13720231858E+02  0.47787253215E+02  0.19999918708E+02 0.  0.
        -12    1    1    2    0    0  0.25624891910E+02  0.32229566765E+02 -0.13720231858E+02  0.43400746785E+02  0.00000000000E+00 0.  1.
         11    1    3    3    0    0 -0.23869135282E+01 -0.90844108338E+01  0.28573674728E+01  0.98177607185E+01  0.51100000000E-03 0. -1.
        -11    1    3    3    0    0 -0.18631925172E+02 -0.16036994596E+02  0.14729947928E+02  0.28658422802E+02  0.51100000000E-03 0.  1.
         12    1    3    3    0    0 -0.46060532101E+01 -0.71081613349E+01 -0.38670835421E+01  0.93110696946E+01  0.00000000000E+00 0. -1.
</event>
<event>
 7    1  0.5022032E-011  0.4778727E+02  0.7816164E-02  0.1312668E+00
        -11   -1    0    0    0    0  0.00000000000E+00  0.00000000000E+00  0.45593999997E+02  0.45594000000E+02  0.51100000000E-03 0. -1.
         11   -1    0    0    0    0 -0.00000000000E+00 -0.00000000000E+00 -0.45593999997E+02  0.45594000000E+02  0.51100000000E-03 0.  1.
    9900012    2    1    2    0    0 -0.34248433725E+02  0.26468892224E+02  0.31726509050E+01  0.47787272104E+02  0.20000004830E+02 0.  0.
        -12    1    1    2    0    0  0.34248433725E+02 -0.26468892224E+02 -0.31726509050E+01  0.43400727896E+02  0.00000000000E+00 0.  1.
         11    1    3    3    0    0 -0.16703243053E+02  0.99024186293E+01  0.36194868557E+00  0.19421308666E+02  0.51100000000E-03 0. -1.
        -11    1    3    3    0    0 -0.87158758877E+01  0.24515689808E+01 -0.45843575769E+01  0.10148547562E+02  0.51100000000E-03 0.  1.
        -12    1    3    3    0    0 -0.88293147845E+01  0.14114904614E+02  0.73950597963E+01  0.18217415876E+02  0.00000000000E+00 0.  1.
</event>
<event>
 7    1  0.5022032E-011  0.4778727E+02  0.7816164E-02  0.1312668E+00
        -11   -1    0    0    0    0  0.00000000000E+00  0.00000000000E+00  0.45593999997E+02  0.45594000000E+02  0.51100000000E-03 0.  1.
         11   -1    0    0    0    0 -0.00000000000E+00 -0.00000000000E+00 -0.45593999997E+02  0.45594000000E+02  0.51100000000E-03 0. -1.
    9900012    2    1    2    0    0  0.16986286297E+02  0.31695919549E+02  0.24299342990E+02  0.47787270652E+02  0.19999998209E+02 0.  0.
        -12    1    1    2    0    0 -0.16986286297E+02 -0.31695919549E+02 -0.24299342990E+02  0.43400729348E+02  0.00000000000E+00 0.  1.
         11    1    3    3    0    0 -0.28078786937E+01  0.45327451999E+01  0.15443912289E+01  0.55511355897E+01  0.51100000000E-03 0. -1.
        -11    1    3    3    0    0  0.28853500307E+01  0.13446336688E+02  0.99812176259E+01  0.16992760832E+02  0.51100000000E-03 0.  1.
        -12    1    3    3    0    0  0.16908814960E+02  0.13716837661E+02  0.12773734135E+02  0.25243374230E+02  0.00000000000E+00 0.  1.
</event>
<event>
 7    1  0.5022032E-011  0.4778728E+02  0.7816164E-02  0.1312668E+00
        -11   -1    0    0    0    0  0.00000000000E+00  0.00000000000E+00  0.45593999997E+02  0.45594000000E+02  0.51100000000E-03 0. -1.
         11   -1    0    0    0    0 -0.00000000000E+00 -0.00000000000E+00 -0.45593999997E+02  0.45594000000E+02  0.51100000000E-03 0.  1.
    9900012    2    1    2    0    0 -0.23948888721E+02  0.30720028863E+02  0.19140358881E+02  0.47787276706E+02  0.20000025813E+02 0.  0.
        -12    1    1    2    0    0  0.23948888721E+02 -0.30720028863E+02 -0.19140358881E+02  0.43400723294E+02  0.00000000000E+00 0.  1.
         11    1    3    3    0    0 -0.34466696311E+01  0.62593262031E+01  0.72952861527E+01  0.10211752855E+02  0.51100000000E-03 0. -1.
        -11    1    3    3    0    0 -0.99628232272E+01  0.13714170761E+01  0.15034340270E+01  0.10168527208E+02  0.51100000000E-03 0.  1.
        -12    1    3    3    0    0 -0.10539395863E+02  0.23089285584E+02  0.10341638702E+02  0.27406996643E+02  0.00000000000E+00 0.  1.
</event>
<event>
 7    1  0.5022032E-011  0.4778727E+02  0.7816164E-02  0.1312668E+00
        -11   -1    0    0    0    0  0.00000000000E+00  0.00000000000E+00  0.45593999997E+02  0.45594000000E+02  0.51100000000E-03 0. -1.
         11   -1    0    0    0    0 -0.00000000000E+00 -0.00000000000E+00 -0.45593999997E+02  0.45594000000E+02  0.51100000000E-03 0.  1.
    9900012    2    1    2    0    0 -0.26219022522E+02  0.78348658651E+00  0.34577049780E+02  0.47787269997E+02  0.19999995227E+02 0.  0.
        -12    1    1    2    0    0  0.26219022522E+02 -0.78348658651E+00 -0.34577049780E+02  0.43400730003E+02  0.00000000000E+00 0.  1.
         11    1    3    3    0    0 -0.29465789050E+01  0.36602781521E+01  0.49684562096E+01  0.68385320619E+01  0.51100000000E-03 0. -1.
        -11    1    3    3    0    0 -0.19947161971E+02  0.41140516617E+01  0.19317363769E+02  0.28070896583E+02  0.51100000000E-03 0.  1.
         12    1    3    3    0    0 -0.33252816463E+01 -0.69908432273E+01  0.10291229802E+02  0.12877841352E+02  0.00000000000E+00 0. -1.
</event>
<event>
 7    1  0.5022032E-011  0.4778727E+02  0.7816164E-02  0.1312668E+00
        -11   -1    0    0    0    0  0.00000000000E+00  0.00000000000E+00  0.45593999997E+02  0.45594000000E+02  0.51100000000E-03 0. -1.
         11   -1    0    0    0    0 -0.00000000000E+00 -0.00000000000E+00 -0.45593999997E+02  0.45594000000E+02  0.51100000000E-03 0.  1.
    9900012    2    1    2    0    0 -0.39058916610E+02  0.14980210746E+02 -0.11559323585E+02  0.47787266798E+02  0.19999980637E+02 0.  0.
         12    1    1    2    0    0  0.39058916610E+02 -0.14980210746E+02  0.11559323585E+02  0.43400733202E+02  0.00000000000E+00 0. -1.
         11    1    3    3    0    0 -0.23624905135E+02  0.15686292782E+02 -0.11138566583E+02  0.30467418494E+02  0.51100000000E-03 0. -1.
        -11    1    3    3    0    0 -0.47745533611E+01  0.16669742959E+01 -0.32845045178E+01  0.60301851787E+01  0.51100000000E-03 0.  1.
        -12    1    3    3    0    0 -0.10659458114E+02 -0.23730563319E+01  0.28637475164E+01  0.11289663125E+02  0.00000000000E+00 0.  1.
</event>
<event>
 7    1  0.5022032E-011  0.4778729E+02  0.7816164E-02  0.1312668E+00
        -11   -1    0    0    0    0  0.00000000000E+00  0.00000000000E+00  0.45593999997E+02  0.45594000000E+02  0.51100000000E-03 0. -1.
         11   -1    0    0    0    0 -0.00000000000E+00 -0.00000000000E+00 -0.45593999997E+02  0.45594000000E+02  0.51100000000E-03 0.  1.
    9900012    2    1    2    0    0  0.12955746501E+02  0.19282235846E+02 -0.36660141045E+02  0.47787286549E+02  0.20000070693E+02 0.  0.
         12    1    1    2    0    0 -0.12955746501E+02 -0.19282235846E+02  0.36660141045E+02  0.43400713451E+02  0.00000000000E+00 0. -1.
         11    1    3    3    0    0  0.45714674550E+01  0.89646861423E+01 -0.85775747808E+01  0.13222658647E+02  0.51100000000E-03 0. -1.
        -11    1    3    3    0    0 -0.67630386996E+00  0.94660904798E+01 -0.76240969952E+01  0.12173377146E+02  0.51100000000E-03 0.  1.
         12    1    3    3    0    0  0.90605829157E+01  0.85145922401E+00 -0.20458469269E+02  0.22391250756E+02  0.00000000000E+00 0. -1.
</event>
<event>
 7    1  0.5420438E-011  0.4778727E+02  0.7816164E-02  0.1312668E+00
        -11   -1    0    0    0    0  0.00000000000E+00  0.00000000000E+00  0.45593999997E+02  0.45594000000E+02  0.51100000000E-03 0. -1.
         11   -1    0    0    0    0 -0.00000000000E+00 -0.00000000000E+00 -0.45593999997E+02  0.45594000000E+02  0.51100000000E-03 0.  1.
    9900012    2    1    2    0    0  0.21168519549E+01  0.12939723093E+02 -0.41372768571E+02  0.47787268725E+02  0.19999989426E+02 0.  0.
         12    1    1    2    0    0 -0.21168519549E+01 -0.12939723093E+02  0.41372768571E+02  0.43400731275E+02  0.00000000000E+00 0. -1.
         11    1    3    3    0    0 -0.48388810284E+01  0.10929455538E+02 -0.16656579617E+02  0.20501449041E+02  0.51100000000E-03 0. -1.
        -11    1    3    3    0    0  0.17169690698E+00 -0.42966619371E+00  0.71545364157E+00  0.85203699464E+00  0.51100000000E-03 0.  1.
        -12    1    3    3    0    0  0.67840360762E+01  0.24399337487E+01 -0.25431642596E+02  0.26433782690E+02  0.00000000000E+00 0.  1.
</event>
<event>
 7    1  0.5022032E-011  0.4778727E+02  0.7816164E-02  0.1312668E+00
        -11   -1    0    0    0    0  0.00000000000E+00  0.00000000000E+00  0.45593999997E+02  0.45594000000E+02  0.51100000000E-03 0. -1.
         11   -1    0    0    0    0 -0.00000000000E+00 -0.00000000000E+00 -0.45593999997E+02  0.45594000000E+02  0.51100000000E-03 0.  1.
    9900012    2    1    2    0    0 -0.10742611598E+02  0.41559557758E+02  0.64048968658E+01  0.47787271333E+02  0.20000001313E+02 0.  0.
        -12    1    1    2    0    0  0.10742611598E+02 -0.41559557758E+02 -0.64048968658E+01  0.43400728667E+02  0.00000000000E+00 0.  1.
         11    1    3    3    0    0  0.29871936694E+01  0.13501087532E+01  0.27063901466E+01  0.42509607797E+01  0.51100000000E-03 0. -1.
        -11    1    3    3    0    0  0.43681164872E+00  0.10029134834E+02  0.93984343986E+00  0.10082542135E+02  0.51100000000E-03 0.  1.
        -12    1    3    3    0    0 -0.14166616916E+02  0.30180314171E+02  0.27586632793E+01  0.33453768418E+02  0.00000000000E+00 0.  1.
</event>
<event>
 7    1  0.5022032E-011  0.4778727E+02  0.7816164E-02  0.1312668E+00
        -11   -1    0    0    0    0  0.00000000000E+00  0.00000000000E+00  0.45593999997E+02  0.45594000000E+02  0.51100000000E-03 0. -1.
         11   -1    0    0    0    0 -0.00000000000E+00 -0.00000000000E+00 -0.45593999997E+02  0.45594000000E+02  0.51100000000E-03 0.  1.
    9900012    2    1    2    0    0  0.74578426284E+01  0.12956933464E+02  0.40744592799E+02  0.47787269778E+02  0.19999994224E+02 0.  0.
        -12    1    1    2    0    0 -0.74578426284E+01 -0.12956933464E+02 -0.40744592799E+02  0.43400730222E+02  0.00000000000E+00 0.  1.
         11    1    3    3    0    0  0.19645585167E+00 -0.11748142428E+00 -0.16722830030E+01  0.16878766217E+01  0.51100000000E-03 0. -1.
        -11    1    3    3    0    0  0.10893902539E+00 -0.16081169205E+01  0.54978625345E+01  0.57292582810E+01  0.51100000000E-03 0.  1.
         12    1    3    3    0    0  0.71524477513E+01  0.14682531809E+02  0.36919013268E+02  0.40370134875E+02  0.00000000000E+00 0. -1.
</event>
<event>
 7    1  0.5022032E-011  0.4778729E+02  0.7816164E-02  0.1312668E+00
        -11   -1    0    0    0    0  0.00000000000E+00  0.00000000000E+00  0.45593999997E+02  0.45594000000E+02  0.51100000000E-03 0. -1.
         11   -1    0    0    0    0 -0.00000000000E+00 -0.00000000000E+00 -0.45593999997E+02  0.45594000000E+02  0.51100000000E-03 0.  1.
    9900012    2    1    2    0    0 -0.70998114287E+01  0.18496850389E+02  0.38614511337E+02  0.47787293987E+02  0.20000104605E+02 0.  0.
        -12    1    1    2    0    0  0.70998114287E+01 -0.18496850389E+02 -0.38614511337E+02  0.43400706013E+02  0.00000000000E+00 0.  1.
         11    1    3    3    0    0 -0.61398387154E+01  0.14286038081E+02  0.15771196340E+02  0.22147666643E+02  0.51100000000E-03 0. -1.
        -11    1    3    3    0    0 -0.39309172542E+01  0.31474960291E+01  0.37277791373E+01  0.62653953801E+01  0.51100000000E-03 0.  1.
        -12    1    3    3    0    0  0.29709445408E+01  0.10633162788E+01  0.19115535860E+02  0.19374231964E+02  0.00000000000E+00 0.  1.
</event>
<event>
 7    1  0.5956266E-011  0.4778728E+02  0.7816164E-02  0.1312668E+00
        -11   -1    0    0    0    0  0.00000000000E+00  0.00000000000E+00  0.45593999997E+02  0.45594000000E+02  0.51100000000E-03 0. -1.
         11   -1    0    0    0    0 -0.00000000000E+00 -0.00000000000E+00 -0.45593999997E+02  0.45594000000E+02  0.51100000000E-03 0.  1.
    9900012    2    1    2    0    0 -0.30233686520E+02  0.19956109324E+02 -0.23901899707E+02  0.47787275242E+02  0.20000019138E+02 0.  0.
         12    1    1    2    0    0  0.30233686520E+02 -0.19956109324E+02  0.23901899707E+02  0.43400724758E+02  0.00000000000E+00 0. -1.
         11    1    3    3    0    0 -0.16831207665E+01  0.41691342243E+01 -0.89039610687E+01  0.99747229870E+01  0.51100000000E-03 0. -1.
        -11    1    3    3    0    0 -0.50479056791E+01  0.87711014208E+01 -0.33519436858E+01  0.10660633124E+02  0.51100000000E-03 0.  1.
        -12    1    3    3    0    0 -0.23502660074E+02  0.70158736786E+01 -0.11645994953E+02  0.27151919131E+02  0.00000000000E+00 0.  1.
</event>
<event>
 7    1  0.5022032E-011  0.4778726E+02  0.7816164E-02  0.1312668E+00
        -11   -1    0    0    0    0  0.00000000000E+00  0.00000000000E+00  0.45593999997E+02  0.45594000000E+02  0.51100000000E-03 0. -1.
         11   -1    0    0    0    0 -0.00000000000E+00 -0.00000000000E+00 -0.45593999997E+02  0.45594000000E+02  0.51100000000E-03 0.  1.
    9900012    2    1    2    0    0  0.74088947325E+01 -0.34756477010E+02 -0.24914246168E+02  0.47787261787E+02  0.19999957791E+02 0.  0.
         12    1    1    2    0    0 -0.74088947325E+01  0.34756477010E+02  0.24914246168E+02  0.43400738213E+02  0.00000000000E+00 0. -1.
         11    1    3    3    0    0 -0.12698172285E+01 -0.15881018170E+02 -0.15022163144E+02  0.21897135879E+02  0.51100000000E-03 0. -1.
        -11    1    3    3    0    0  0.22147060434E+01 -0.11163889470E+02 -0.10923135032E+02  0.15775050876E+02  0.51100000000E-03 0.  1.
         12    1    3    3    0    0  0.64640059176E+01 -0.77115693699E+01  0.10310520082E+01  0.10115075031E+02  0.00000000000E+00 0. -1.
</event>
<event>
 7    1  0.5022032E-011  0.4778727E+02  0.7816164E-02  0.1312668E+00
        -11   -1    0    0    0    0  0.00000000000E+00  0.00000000000E+00  0.45593999997E+02  0.45594000000E+02  0.51100000000E-03 0. -1.
         11   -1    0    0    0    0 -0.00000000000E+00 -0.00000000000E+00 -0.45593999997E+02  0.45594000000E+02  0.51100000000E-03 0.  1.
    9900012    2    1    2    0    0 -0.19388174899E+02  0.35813289970E+01 -0.38663887076E+02  0.47787269509E+02  0.19999993000E+02 0.  0.
         12    1    1    2    0    0  0.19388174899E+02 -0.35813289970E+01  0.38663887076E+02  0.43400730491E+02  0.00000000000E+00 0. -1.
         11    1    3    3    0    0 -0.28681194977E+01  0.86571599801E+00  0.92923230694E+00  0.31367254556E+01  0.51100000000E-03 0. -1.
        -11    1    3    3    0    0  0.19367239981E+01  0.90212099645E-01 -0.28255985066E+01  0.34268126954E+01  0.51100000000E-03 0.  1.
        -12    1    3    3    0    0 -0.18456779400E+02  0.26254008994E+01 -0.36767520876E+02  0.41223731358E+02  0.00000000000E+00 0.  1.
</event>
<event>
 7    1  0.5566334E-011  0.4778728E+02  0.7816164E-02  0.1312668E+00
        -11   -1    0    0    0    0  0.00000000000E+00  0.00000000000E+00  0.45593999997E+02  0.45594000000E+02  0.51100000000E-03 0. -1.
         11   -1    0    0    0    0 -0.00000000000E+00 -0.00000000000E+00 -0.45593999997E+02  0.45594000000E+02  0.51100000000E-03 0.  1.
    9900012    2    1    2    0    0 -0.39876034331E+02  0.56802015314E+01 -0.16163542817E+02  0.47787275123E+02  0.20000018596E+02 0.  0.
         12    1    1    2    0    0  0.39876034331E+02 -0.56802015314E+01  0.16163542817E+02  0.43400724877E+02  0.00000000000E+00 0. -1.
         11    1    3    3    0    0 -0.54305966120E+01 -0.15291041196E+01  0.25482919046E+01  0.61905840486E+01  0.51100000000E-03 0. -1.
        -11    1    3    3    0    0 -0.77820311900E+01 -0.29041817897E+01 -0.20001690230E+01  0.85437086614E+01  0.51100000000E-03 0.  1.
        -12    1    3    3    0    0 -0.26663406529E+02  0.10113487441E+02 -0.16711665699E+02  0.33052982413E+02  0.00000000000E+00 0.  1.
</event>
<event>
 7    1  0.5022032E-011  0.4778727E+02  0.7816164E-02  0.1312668E+00
        -11   -1    0    0    0    0  0.00000000000E+00  0.00000000000E+00  0.45593999997E+02  0.45594000000E+02  0.51100000000E-03 0. -1.
         11   -1    0    0    0    0 -0.00000000000E+00 -0.00000000000E+00 -0.45593999997E+02  0.45594000000E+02  0.51100000000E-03 0.  1.
    9900012    2    1    2    0    0 -0.50701054939E+01  0.32104410139E+02 -0.28761507569E+02  0.47787269157E+02  0.19999991396E+02 0.  0.
         12    1    1    2    0    0  0.50701054939E+01 -0.32104410139E+02  0.28761507569E+02  0.43400730843E+02  0.00000000000E+00 0. -1.
         11    1    3    3    0    0 -0.50633035580E+01  0.77029745680E+01 -0.83299582088E+01  0.12424212818E+02  0.51100000000E-03 0. -1.
        -11    1    3    3    0    0 -0.63863586265E+01  0.56565368839E+01 -0.31912427753E+01  0.91085683143E+01  0.51100000000E-03 0.  1.
         12    1    3    3    0    0  0.63795566905E+01  0.18744898687E+02 -0.17240306585E+02  0.26254488025E+02  0.00000000000E+00 0. -1.
</event>
<event>
 7    1  0.5022032E-011  0.4778727E+02  0.7816164E-02  0.1312668E+00
        -11   -1    0    0    0    0  0.00000000000E+00  0.00000000000E+00  0.45593999997E+02  0.45594000000E+02  0.51100000000E-03 0.  1.
         11   -1    0    0    0    0 -0.00000000000E+00 -0.00000000000E+00 -0.45593999997E+02  0.45594000000E+02  0.51100000000E-03 0. -1.
    9900012    2    1    2    0    0 -0.22296572968E+02  0.35440664869E+02 -0.11421274757E+02  0.47787269482E+02  0.19999992874E+02 0.  0.
         12    1    1    2    0    0  0.22296572968E+02 -0.35440664869E+02  0.11421274757E+02  0.43400730518E+02  0.00000000000E+00 0. -1.
         11    1    3    3    0    0 -0.84978927195E+01  0.19970859753E+02  0.10990012293E+01  0.21731480021E+02  0.51100000000E-03 0. -1.
        -11    1    3    3    0    0 -0.73477324961E+01  0.92398639894E+01 -0.15815498140E+01  0.11910732952E+02  0.51100000000E-03 0.  1.
         12    1    3    3    0    0 -0.64509477525E+01  0.62299411260E+01 -0.10938726173E+02  0.14145056508E+02  0.00000000000E+00 0. -1.
</event>
<event>
 7    1  0.5022032E-011  0.4778728E+02  0.7816164E-02  0.1312668E+00
        -11   -1    0    0    0    0  0.00000000000E+00  0.00000000000E+00  0.45593999997E+02  0.45594000000E+02  0.51100000000E-03 0. -1.
         11   -1    0    0    0    0 -0.00000000000E+00 -0.00000000000E+00 -0.45593999997E+02  0.45594000000E+02  0.51100000000E-03 0.  1.
    9900012    2    1    2    0    0 -0.19360496963E+02 -0.18053627300E+02  0.34392738248E+02  0.47787277131E+02  0.20000027753E+02 0.  0.
        -12    1    1    2    0    0  0.19360496963E+02  0.18053627300E+02 -0.34392738248E+02  0.43400722869E+02  0.00000000000E+00 0.  1.
         11    1    3    3    0    0 -0.72865691017E+01 -0.44167432075E+01  0.71367129982E+01  0.11114602220E+02  0.51100000000E-03 0. -1.
        -11    1    3    3    0    0 -0.10429133969E+02 -0.10264901281E+01  0.18402324810E+02  0.21177017637E+02  0.51100000000E-03 0.  1.
         12    1    3    3    0    0 -0.16447938924E+01 -0.12610393964E+02  0.88537004391E+01  0.15495657274E+02  0.00000000000E+00 0. -1.
</event>
<event>
 7    1  0.5022032E-011  0.4778727E+02  0.7816164E-02  0.1312668E+00
        -11   -1    0    0    0    0  0.00000000000E+00  0.00000000000E+00  0.45593999997E+02  0.45594000000E+02  0.51100000000E-03 0. -1.
         11   -1    0    0    0    0 -0.00000000000E+00 -0.00000000000E+00 -0.45593999997E+02  0.45594000000E+02  0.51100000000E-03 0.  1.
    9900012    2    1    2    0    0  0.10991171609E+02  0.35975373599E+01 -0.41831507491E+02  0.47787272502E+02  0.20000006645E+02 0.  0.
         12    1    1    2    0    0 -0.10991171609E+02 -0.35975373599E+01  0.41831507491E+02  0.43400727498E+02  0.00000000000E+00 0. -1.
         11    1    3    3    0    0  0.26469610236E+01 -0.32026326993E+01 -0.15987488567E+02  0.16518566821E+02  0.51100000000E-03 0. -1.
        -11    1    3    3    0    0  0.38676608263E+01 -0.40750922187E+01 -0.61459487247E+01  0.83269359818E+01  0.51100000000E-03 0.  1.
        -12    1    3    3    0    0  0.44765497589E+01  0.10875262278E+02 -0.19698070199E+02  0.22941769699E+02  0.00000000000E+00 0.  1.
</event>
<event>
 7    1  0.5022032E-011  0.4778727E+02  0.7816164E-02  0.1312668E+00
        -11   -1    0    0    0    0  0.00000000000E+00  0.00000000000E+00  0.45593999997E+02  0.45594000000E+02  0.51100000000E-03 0. -1.
         11   -1    0    0    0    0 -0.00000000000E+00 -0.00000000000E+00 -0.45593999997E+02  0.45594000000E+02  0.51100000000E-03 0.  1.
    9900012    2    1    2    0    0  0.19973296118E+02 -0.37198626252E+02 -0.10047524617E+02  0.47787273004E+02  0.20000008933E+02 0.  0.
         12    1    1    2    0    0 -0.19973296118E+02  0.37198626252E+02  0.10047524617E+02  0.43400726996E+02  0.00000000000E+00 0. -1.
         11    1    3    3    0    0  0.56319731151E+01 -0.57776049959E+01 -0.28615428323E+01  0.85608567503E+01  0.51100000000E-03 0.  1.
        -11    1    3    3    0    0  0.34512355808E+01 -0.22391241678E+02 -0.10063158649E+02  0.24790036167E+02  0.51100000000E-03 0. -1.
         12    1    3    3    0    0  0.10890087422E+02 -0.90297795786E+01  0.28771768639E+01  0.14436380086E+02  0.00000000000E+00 0. -1.
</event>
<event>
 7    1  0.5022032E-011  0.4778727E+02  0.7816164E-02  0.1312668E+00
        -11   -1    0    0    0    0  0.00000000000E+00  0.00000000000E+00  0.45593999997E+02  0.45594000000E+02  0.51100000000E-03 0.  1.
         11   -1    0    0    0    0 -0.00000000000E+00 -0.00000000000E+00 -0.45593999997E+02  0.45594000000E+02  0.51100000000E-03 0. -1.
    9900012    2    1    2    0    0 -0.38456103494E+02  0.18676692691E+02 -0.74788034121E+01  0.47787271363E+02  0.20000001451E+02 0.  0.
         12    1    1    2    0    0  0.38456103494E+02 -0.18676692691E+02  0.74788034121E+01  0.43400728637E+02  0.00000000000E+00 0. -1.
         11    1    3    3    0    0 -0.19521197422E+01 -0.18530532006E+01  0.63225255314E+00  0.27648365601E+01  0.51100000000E-03 0. -1.
        -11    1    3    3    0    0 -0.10178867283E+02 -0.68911226380E+00 -0.40127720204E+01  0.10962962849E+02  0.51100000000E-03 0.  1.
         12    1    3    3    0    0 -0.26325116469E+02  0.21218858155E+02 -0.40982839449E+01  0.34059471954E+02  0.00000000000E+00 0. -1.
</event>
<event>
 7    1  0.5022032E-011  0.4778731E+02  0.7816164E-02  0.1312668E+00
        -11   -1    0    0    0    0  0.00000000000E+00  0.00000000000E+00  0.45593999997E+02  0.45594000000E+02  0.51100000000E-03 0. -1.
         11   -1    0    0    0    0 -0.00000000000E+00 -0.00000000000E+00 -0.45593999997E+02  0.45594000000E+02  0.51100000000E-03 0.  1.
    9900012    2    1    2    0    0  0.33038736960E+02  0.83226429482E+01 -0.26884857074E+02  0.47787308007E+02  0.20000168526E+02 0.  0.
         12    1    1    2    0    0 -0.33038736960E+02 -0.83226429482E+01  0.26884857074E+02  0.43400691993E+02  0.00000000000E+00 0. -1.
         11    1    3    3    0    0  0.77307991960E+01 -0.94478915408E+00  0.10570968489E+01  0.78597287971E+01  0.51100000000E-03 0. -1.
        -11    1    3    3    0    0  0.32753557728E+01  0.41335632075E+01 -0.23611052423E+01  0.57783318056E+01  0.51100000000E-03 0.  1.
        -12    1    3    3    0    0  0.22032581992E+02  0.51338688947E+01 -0.25580848681E+02  0.34149247404E+02  0.00000000000E+00 0.  1.
</event>
<event>
 7    1  0.5022032E-011  0.4778727E+02  0.7816164E-02  0.1312668E+00
        -11   -1    0    0    0    0  0.00000000000E+00  0.00000000000E+00  0.45593999997E+02  0.45594000000E+02  0.51100000000E-03 0.  1.
         11   -1    0    0    0    0 -0.00000000000E+00 -0.00000000000E+00 -0.45593999997E+02  0.45594000000E+02  0.51100000000E-03 0. -1.
    9900012    2    1    2    0    0  0.83467597875E+01  0.30865391684E+02  0.29347615832E+02  0.47787270078E+02  0.19999995592E+02 0.  0.
        -12    1    1    2    0    0 -0.83467597875E+01 -0.30865391684E+02 -0.29347615832E+02  0.43400729922E+02  0.00000000000E+00 0.  1.
         11    1    3    3    0    0  0.28032587842E+01  0.20722158901E+02  0.12305120440E+02  0.24262772278E+02  0.51100000000E-03 0. -1.
        -11    1    3    3    0    0 -0.23488518067E+01 -0.93129847283E+00  0.18306030197E+01  0.31201809774E+01  0.51100000000E-03 0.  1.
        -12    1    3    3    0    0  0.78923528100E+01  0.11074531256E+02  0.15211892373E+02  0.20404316822E+02  0.00000000000E+00 0.  1.
</event>
<event>
 7    1  0.5022032E-011  0.4778728E+02  0.7816164E-02  0.1312668E+00
        -11   -1    0    0    0    0  0.00000000000E+00  0.00000000000E+00  0.45593999997E+02  0.45594000000E+02  0.51100000000E-03 0. -1.
         11   -1    0    0    0    0 -0.00000000000E+00 -0.00000000000E+00 -0.45593999997E+02  0.45594000000E+02  0.51100000000E-03 0.  1.
    9900012    2    1    2    0    0  0.70119967590E+01 -0.10375926001E+02  0.41554721285E+02  0.47787276504E+02  0.20000024893E+02 0.  0.
        -12    1    1    2    0    0 -0.70119967590E+01  0.10375926001E+02 -0.41554721285E+02  0.43400723496E+02  0.00000000000E+00 0.  1.
         11    1    3    3    0    0  0.90107100021E+00  0.32604752099E+01  0.19877119479E+02  0.20162899261E+02  0.51100000000E-03 0. -1.
        -11    1    3    3    0    0 -0.20005752750E+01 -0.41753131609E+01  0.51558730426E+01  0.69295431679E+01  0.51100000000E-03 0.  1.
        -12    1    3    3    0    0  0.81115010338E+01 -0.94610880495E+01  0.16521728763E+02  0.20694834076E+02  0.00000000000E+00 0.  1.
</event>
<event>
 7    1  0.5022032E-011  0.4778727E+02  0.7816164E-02  0.1312668E+00
        -11   -1    0    0    0    0  0.00000000000E+00  0.00000000000E+00  0.45593999997E+02  0.45594000000E+02  0.51100000000E-03 0. -1.
         11   -1    0    0    0    0 -0.00000000000E+00 -0.00000000000E+00 -0.45593999997E+02  0.45594000000E+02  0.51100000000E-03 0.  1.
    9900012    2    1    2    0    0  0.13242755083E+02  0.53552942680E+01 -0.40982600482E+02  0.47787270961E+02  0.19999999619E+02 0.  0.
         12    1    1    2    0    0 -0.13242755083E+02 -0.53552942680E+01  0.40982600482E+02  0.43400729039E+02  0.00000000000E+00 0. -1.
         11    1    3    3    0    0  0.54141272584E+01  0.90609094449E+00 -0.21457566341E+01  0.58938990969E+01  0.51100000000E-03 0. -1.
        -11    1    3    3    0    0  0.44923605484E+01  0.90064940958E+00 -0.24764190536E+01  0.52081785920E+01  0.51100000000E-03 0.  1.
        -12    1    3    3    0    0  0.33362672766E+01  0.35485539139E+01 -0.36360424794E+02  0.36685193272E+02  0.00000000000E+00 0.  1.
</event>
<event>
 7    1  0.5022032E-011  0.4778728E+02  0.7816164E-02  0.1312668E+00
        -11   -1    0    0    0    0  0.00000000000E+00  0.00000000000E+00  0.45593999997E+02  0.45594000000E+02  0.51100000000E-03 0. -1.
         11   -1    0    0    0    0 -0.00000000000E+00 -0.00000000000E+00 -0.45593999997E+02  0.45594000000E+02  0.51100000000E-03 0.  1.
    9900012    2    1    2    0    0  0.16623222159E+01 -0.11554590046E+02  0.41801322238E+02  0.47787281030E+02  0.20000045529E+02 0.  0.
        -12    1    1    2    0    0 -0.16623222159E+01  0.11554590046E+02 -0.41801322238E+02  0.43400718970E+02  0.00000000000E+00 0.  1.
         11    1    3    3    0    0  0.53197305812E-01  0.15417595222E+01  0.78656912826E+00  0.17316303394E+01  0.51100000000E-03 0. -1.
        -11    1    3    3    0    0  0.50489112244E+01  0.18387018747E+01  0.77550543717E+01  0.94346805831E+01  0.51100000000E-03 0.  1.
         12    1    3    3    0    0 -0.34397863143E+01 -0.14935051443E+02  0.33259698738E+02  0.36620970108E+02  0.00000000000E+00 0. -1.
</event>
<event>
 7    1  0.5022032E-011  0.4778727E+02  0.7816164E-02  0.1312668E+00
        -11   -1    0    0    0    0  0.00000000000E+00  0.00000000000E+00  0.45593999997E+02  0.45594000000E+02  0.51100000000E-03 0. -1.
         11   -1    0    0    0    0 -0.00000000000E+00 -0.00000000000E+00 -0.45593999997E+02  0.45594000000E+02  0.51100000000E-03 0.  1.
    9900012    2    1    2    0    0  0.33726725436E+02  0.25751535554E+02  0.91098740576E+01  0.47787269622E+02  0.19999993515E+02 0.  0.
        -12    1    1    2    0    0 -0.33726725436E+02 -0.25751535554E+02 -0.91098740576E+01  0.43400730378E+02  0.00000000000E+00 0.  1.
         11    1    3    3    0    0  0.14171770765E+02  0.10048370340E+02  0.66521904035E+00  0.17385377469E+02  0.51100000000E-03 0. -1.
        -11    1    3    3    0    0  0.78799370531E+01  0.11336371089E+02 -0.22372132567E+01  0.13986130303E+02  0.51100000000E-03 0.  1.
        -12    1    3    3    0    0  0.11675017617E+02  0.43667941245E+01  0.10681868274E+02  0.16415761850E+02  0.00000000000E+00 0.  1.
</event>
<event>
 7    1  0.5022032E-011  0.4778727E+02  0.7816164E-02  0.1312668E+00
        -11   -1    0    0    0    0  0.00000000000E+00  0.00000000000E+00  0.45593999997E+02  0.45594000000E+02  0.51100000000E-03 0. -1.
         11   -1    0    0    0    0 -0.00000000000E+00 -0.00000000000E+00 -0.45593999997E+02  0.45594000000E+02  0.51100000000E-03 0.  1.
    9900012    2    1    2    0    0  0.28405657977E+02  0.45989531670E+01 -0.32489863345E+02  0.47787274251E+02  0.20000014621E+02 0.  0.
         12    1    1    2    0    0 -0.28405657977E+02 -0.45989531670E+01  0.32489863345E+02  0.43400725749E+02  0.00000000000E+00 0. -1.
         11    1    3    3    0    0 -0.93667368518E+00  0.14346377309E+01 -0.11343612362E+01  0.20548281404E+01  0.51100000000E-03 0. -1.
        -11    1    3    3    0    0  0.27649032684E+01 -0.36527498584E+01 -0.98768496082E+01  0.10887581460E+02  0.51100000000E-03 0.  1.
        -12    1    3    3    0    0  0.26577428394E+02  0.68170652945E+01 -0.21478652501E+02  0.34844864650E+02  0.00000000000E+00 0.  1.
</event>
<event>
 7    1  0.5022032E-011  0.4778727E+02  0.7816164E-02  0.1312668E+00
        -11   -1    0    0    0    0  0.00000000000E+00  0.00000000000E+00  0.45593999997E+02  0.45594000000E+02  0.51100000000E-03 0. -1.
         11   -1    0    0    0    0 -0.00000000000E+00 -0.00000000000E+00 -0.45593999997E+02  0.45594000000E+02  0.51100000000E-03 0.  1.
    9900012    2    1    2    0    0 -0.26364223719E+01  0.13558043718E+02 -0.41144280610E+02  0.47787273055E+02  0.20000009169E+02 0.  0.
         12    1    1    2    0    0  0.26364223719E+01 -0.13558043718E+02  0.41144280610E+02  0.43400726945E+02  0.00000000000E+00 0. -1.
         11    1    3    3    0    0 -0.32560683894E+01  0.30137827042E+00 -0.42494794673E+01  0.53619852874E+01  0.51100000000E-03 0. -1.
        -11    1    3    3    0    0 -0.25111314018E+01  0.10593877733E+02 -0.36732531894E+02  0.38312072849E+02  0.51100000000E-03 0.  1.
         12    1    3    3    0    0  0.31307774193E+01  0.26627877148E+01 -0.16226924846E+00  0.41132149193E+01  0.00000000000E+00 0. -1.
</event>
<event>
 7    1  0.5022032E-011  0.4778727E+02  0.7816164E-02  0.1312668E+00
        -11   -1    0    0    0    0  0.00000000000E+00  0.00000000000E+00  0.45593999997E+02  0.45594000000E+02  0.51100000000E-03 0. -1.
         11   -1    0    0    0    0 -0.00000000000E+00 -0.00000000000E+00 -0.45593999997E+02  0.45594000000E+02  0.51100000000E-03 0.  1.
    9900012    2    1    2    0    0  0.12453722836E+02  0.17687089983E+02  0.37625724801E+02  0.47787268078E+02  0.19999986474E+02 0.  0.
        -12    1    1    2    0    0 -0.12453722836E+02 -0.17687089983E+02 -0.37625724801E+02  0.43400731922E+02  0.00000000000E+00 0.  1.
         11    1    3    3    0    0 -0.11723611975E+01  0.56263926381E+01  0.14312307434E+02  0.15423127739E+02  0.51100000000E-03 0.  1.
        -11    1    3    3    0    0 -0.96890041787E+00  0.67607993041E+01  0.84994461348E+01  0.10903566394E+02  0.51100000000E-03 0. -1.
        -12    1    3    3    0    0  0.14594984451E+02  0.52998980407E+01  0.14813971233E+02  0.21460573945E+02  0.00000000000E+00 0.  1.
</event>
<event>
 7    1  0.6948279E-011  0.4778727E+02  0.7816164E-02  0.1312668E+00
        -11   -1    0    0    0    0  0.00000000000E+00  0.00000000000E+00  0.45593999997E+02  0.45594000000E+02  0.51100000000E-03 0. -1.
         11   -1    0    0    0    0 -0.00000000000E+00 -0.00000000000E+00 -0.45593999997E+02  0.45594000000E+02  0.51100000000E-03 0.  1.
    9900012    2    1    2    0    0 -0.31767142023E+02  0.22429177556E+02 -0.19271842484E+02  0.47787271540E+02  0.20000002259E+02 0.  0.
         12    1    1    2    0    0  0.31767142023E+02 -0.22429177556E+02  0.19271842484E+02  0.43400728460E+02  0.00000000000E+00 0. -1.
         11    1    3    3    0    0 -0.54877521635E+01  0.14918114359E+01  0.27088281839E+00  0.56933560340E+01  0.51100000000E-03 0. -1.
        -11    1    3    3    0    0 -0.16825077192E+01  0.11636358502E+01  0.27698960158E+01  0.34434292234E+01  0.51100000000E-03 0.  1.
        -12    1    3    3    0    0 -0.24596882140E+02  0.19773730270E+02 -0.22312621318E+02  0.38650486283E+02  0.00000000000E+00 0.  1.
</event>
<event>
 7    1  0.5022032E-011  0.4778726E+02  0.7816164E-02  0.1312668E+00
        -11   -1    0    0    0    0  0.00000000000E+00  0.00000000000E+00  0.45593999997E+02  0.45594000000E+02  0.51100000000E-03 0. -1.
         11   -1    0    0    0    0 -0.00000000000E+00 -0.00000000000E+00 -0.45593999997E+02  0.45594000000E+02  0.51100000000E-03 0.  1.
    9900012    2    1    2    0    0 -0.31397525562E+02 -0.20260718117E+02  0.22075384366E+02  0.47787263774E+02  0.19999966853E+02 0.  0.
        -12    1    1    2    0    0  0.31397525562E+02  0.20260718117E+02 -0.22075384366E+02  0.43400736226E+02  0.00000000000E+00 0.  1.
         11    1    3    3    0    0 -0.15740583113E+02 -0.45446577435E+01  0.75314256851E+01  0.18031701080E+02  0.51100000000E-03 0. -1.
        -11    1    3    3    0    0 -0.12449067904E+01  0.20927056363E+01 -0.30564420895E+00  0.24541044071E+01  0.51100000000E-03 0.  1.
        -12    1    3    3    0    0 -0.14412035658E+02 -0.17808766010E+02  0.14849602890E+02  0.27301458287E+02  0.00000000000E+00 0.  1.
</event>
<event>
 7    1  0.5022032E-011  0.4778727E+02  0.7816164E-02  0.1312668E+00
        -11   -1    0    0    0    0  0.00000000000E+00  0.00000000000E+00  0.45593999997E+02  0.45594000000E+02  0.51100000000E-03 0.  1.
         11   -1    0    0    0    0 -0.00000000000E+00 -0.00000000000E+00 -0.45593999997E+02  0.45594000000E+02  0.51100000000E-03 0. -1.
    9900012    2    1    2    0    0  0.13369056544E+02 -0.41282185788E+02  0.82022259651E+00  0.47787270727E+02  0.19999998555E+02 0.  0.
        -12    1    1    2    0    0 -0.13369056544E+02  0.41282185788E+02 -0.82022259651E+00  0.43400729273E+02  0.00000000000E+00 0.  1.
         11    1    3    3    0    0  0.13288880022E+02 -0.17311578178E+02 -0.12629195991E+01  0.21860467457E+02  0.51100000000E-03 0. -1.
        -11    1    3    3    0    0  0.15789504682E+01 -0.55690125761E+01  0.44660537638E+01  0.73111300177E+01  0.51100000000E-03 0.  1.
        -12    1    3    3    0    0 -0.14987739464E+01 -0.18401595033E+02 -0.23829115681E+01  0.18615673253E+02  0.00000000000E+00 0.  1.
</event>
<event>
 7    1  0.5022032E-011  0.4778727E+02  0.7816164E-02  0.1312668E+00
        -11   -1    0    0    0    0  0.00000000000E+00  0.00000000000E+00  0.45593999997E+02  0.45594000000E+02  0.51100000000E-03 0. -1.
         11   -1    0    0    0    0 -0.00000000000E+00 -0.00000000000E+00 -0.45593999997E+02  0.45594000000E+02  0.51100000000E-03 0.  1.
    9900012    2    1    2    0    0 -0.57825254557E+01  0.15475250906E+02  0.40133556866E+02  0.47787269845E+02  0.19999994531E+02 0.  0.
        -12    1    1    2    0    0  0.57825254557E+01 -0.15475250906E+02 -0.40133556866E+02  0.43400730155E+02  0.00000000000E+00 0.  1.
         11    1    3    3    0    0 -0.11294113618E+00  0.50228089259E+01  0.18961959027E+02  0.19616249784E+02  0.51100000000E-03 0. -1.
        -11    1    3    3    0    0 -0.70749123402E+01  0.94141276753E+01  0.22876576873E+02  0.25729709563E+02  0.51100000000E-03 0.  1.
        -12    1    3    3    0    0  0.14053280207E+01  0.10383143050E+01 -0.17049790334E+01  0.24413104976E+01  0.00000000000E+00 0.  1.
</event>
<event>
 7    1  0.5022032E-011  0.4778727E+02  0.7816164E-02  0.1312668E+00
        -11   -1    0    0    0    0  0.00000000000E+00  0.00000000000E+00  0.45593999997E+02  0.45594000000E+02  0.51100000000E-03 0.  1.
         11   -1    0    0    0    0 -0.00000000000E+00 -0.00000000000E+00 -0.45593999997E+02  0.45594000000E+02  0.51100000000E-03 0. -1.
    9900012    2    1    2    0    0 -0.40527240709E+02 -0.13986979830E+02 -0.67476174490E+01  0.47787272062E+02  0.20000004640E+02 0.  0.
         12    1    1    2    0    0  0.40527240709E+02  0.13986979830E+02  0.67476174490E+01  0.43400727938E+02  0.00000000000E+00 0. -1.
         11    1    3    3    0    0  0.11172713153E+01 -0.21170796243E+01 -0.27735357659E+01  0.36637169969E+01  0.51100000000E-03 0. -1.
        -11    1    3    3    0    0 -0.99138833423E+01 -0.57697444364E+01 -0.27139856367E+01  0.11787313183E+02  0.51100000000E-03 0.  1.
        -12    1    3    3    0    0 -0.31730628682E+02 -0.61001557696E+01 -0.12600960464E+01  0.32336241882E+02  0.00000000000E+00 0.  1.
</event>
<event>
 7    1  0.5022032E-011  0.4778727E+02  0.7816164E-02  0.1312668E+00
        -11   -1    0    0    0    0  0.00000000000E+00  0.00000000000E+00  0.45593999997E+02  0.45594000000E+02  0.51100000000E-03 0.  1.
         11   -1    0    0    0    0 -0.00000000000E+00 -0.00000000000E+00 -0.45593999997E+02  0.45594000000E+02  0.51100000000E-03 0. -1.
    9900012    2    1    2    0    0  0.32478695707E+02  0.68178765890E+01  0.27969163760E+02  0.47787271464E+02  0.20000001913E+02 0.  0.
        -12    1    1    2    0    0 -0.32478695707E+02 -0.68178765890E+01 -0.27969163760E+02  0.43400728536E+02  0.00000000000E+00 0.  1.
         11    1    3    3    0    0 -0.23815773565E-01  0.44569318065E+00  0.11763707902E+00  0.46157160423E+00  0.51100000000E-03 0. -1.
        -11    1    3    3    0    0 -0.23002113275E+01 -0.29136262909E+00  0.39600643107E+01  0.45888968106E+01  0.51100000000E-03 0.  1.
         12    1    3    3    0    0  0.34802722808E+02  0.66635460375E+01  0.23891462370E+02  0.42736803049E+02  0.00000000000E+00 0. -1.
</event>
<event>
 7    1  0.5022032E-011  0.4778727E+02  0.7816164E-02  0.1312668E+00
        -11   -1    0    0    0    0  0.00000000000E+00  0.00000000000E+00  0.45593999997E+02  0.45594000000E+02  0.51100000000E-03 0. -1.
         11   -1    0    0    0    0 -0.00000000000E+00 -0.00000000000E+00 -0.45593999997E+02  0.45594000000E+02  0.51100000000E-03 0.  1.
    9900012    2    1    2    0    0 -0.12291453647E+02 -0.36475336175E+02  0.20052263995E+02  0.47787271053E+02  0.20000000039E+02 0.  0.
        -12    1    1    2    0    0  0.12291453647E+02  0.36475336175E+02 -0.20052263995E+02  0.43400728947E+02  0.00000000000E+00 0.  1.
         11    1    3    3    0    0 -0.85296760239E+01 -0.14954338748E+02  0.10035393936E+02  0.19927286623E+02  0.51100000000E-03 0. -1.
        -11    1    3    3    0    0 -0.66976459609E+01 -0.53990839385E+01  0.72303056149E+01  0.11237699424E+02  0.51100000000E-03 0.  1.
        -12    1    3    3    0    0  0.29358683379E+01 -0.16121913489E+02  0.27865644442E+01  0.16622285006E+02  0.00000000000E+00 0.  1.
</event>
<event>
 7    1  0.5022032E-011  0.4778727E+02  0.7816164E-02  0.1312668E+00
        -11   -1    0    0    0    0  0.00000000000E+00  0.00000000000E+00  0.45593999997E+02  0.45594000000E+02  0.51100000000E-03 0. -1.
         11   -1    0    0    0    0 -0.00000000000E+00 -0.00000000000E+00 -0.45593999997E+02  0.45594000000E+02  0.51100000000E-03 0.  1.
    9900012    2    1    2    0    0 -0.37772377522E+01  0.35887311897E+02  0.24113409266E+02  0.47787272050E+02  0.20000004584E+02 0.  0.
        -12    1    1    2    0    0  0.37772377522E+01 -0.35887311897E+02 -0.24113409266E+02  0.43400727950E+02  0.00000000000E+00 0.  1.
         11    1    3    3    0    0  0.13749137997E+01  0.32281558571E+02  0.16126610598E+02  0.36111729139E+02  0.51100000000E-03 0. -1.
        -11    1    3    3    0    0 -0.16063808484E+01  0.20958636380E+01 -0.17826243529E+00  0.26466736815E+01  0.51100000000E-03 0.  1.
         12    1    3    3    0    0 -0.35457707035E+01  0.15098896871E+01  0.81650611028E+01  0.90288692294E+01  0.00000000000E+00 0. -1.
</event>
<event>
 7    1  0.5022032E-011  0.4778728E+02  0.7816164E-02  0.1312668E+00
        -11   -1    0    0    0    0  0.00000000000E+00  0.00000000000E+00  0.45593999997E+02  0.45594000000E+02  0.51100000000E-03 0. -1.
         11   -1    0    0    0    0 -0.00000000000E+00 -0.00000000000E+00 -0.45593999997E+02  0.45594000000E+02  0.51100000000E-03 0.  1.
    9900012    2    1    2    0    0 -0.47908773626E+01  0.28668100029E+02  0.32230581301E+02  0.47787276087E+02  0.20000022993E+02 0.  0.
        -12    1    1    2    0    0  0.47908773626E+01 -0.28668100029E+02 -0.32230581301E+02  0.43400723913E+02  0.00000000000E+00 0.  1.
         11    1    3    3    0    0 -0.63282020981E+00  0.14759512010E+02  0.16022947980E+02  0.21794001891E+02  0.51100000000E-03 0.  1.
        -11    1    3    3    0    0  0.45333944183E+01  0.35923664855E+01  0.90014146342E+01  0.10699636797E+02  0.51100000000E-03 0. -1.
        -12    1    3    3    0    0 -0.86914515711E+01  0.10316221534E+02  0.72062186865E+01  0.15293637399E+02  0.00000000000E+00 0.  1.
</event>
<event>
 7    1  0.5022032E-011  0.4778727E+02  0.7816164E-02  0.1312668E+00
        -11   -1    0    0    0    0  0.00000000000E+00  0.00000000000E+00  0.45593999997E+02  0.45594000000E+02  0.51100000000E-03 0. -1.
         11   -1    0    0    0    0 -0.00000000000E+00 -0.00000000000E+00 -0.45593999997E+02  0.45594000000E+02  0.51100000000E-03 0.  1.
    9900012    2    1    2    0    0 -0.26372234018E+01  0.21726826671E+02 -0.37478170541E+02  0.47787271762E+02  0.20000003273E+02 0.  0.
         12    1    1    2    0    0  0.26372234018E+01 -0.21726826671E+02  0.37478170541E+02  0.43400728238E+02  0.00000000000E+00 0. -1.
         11    1    3    3    0    0 -0.13908586819E+01 -0.55029864621E+00 -0.12853741466E+02  0.12940478600E+02  0.51100000000E-03 0. -1.
        -11    1    3    3    0    0 -0.30853217968E+01  0.11670878222E+02 -0.19477528273E+02  0.22915119833E+02  0.51100000000E-03 0.  1.
        -12    1    3    3    0    0  0.18389570768E+01  0.10606247095E+02 -0.51469008024E+01  0.11931673329E+02  0.00000000000E+00 0.  1.
</event>
<event>
 7    1  0.5022032E-011  0.4778728E+02  0.7816164E-02  0.1312668E+00
        -11   -1    0    0    0    0  0.00000000000E+00  0.00000000000E+00  0.45593999997E+02  0.45594000000E+02  0.51100000000E-03 0.  1.
         11   -1    0    0    0    0 -0.00000000000E+00 -0.00000000000E+00 -0.45593999997E+02  0.45594000000E+02  0.51100000000E-03 0. -1.
    9900012    2    1    2    0    0 -0.26884554679E+02  0.24834413643E+01 -0.33980518935E+02  0.47787280785E+02  0.20000044409E+02 0.  0.
         12    1    1    2    0    0  0.26884554679E+02 -0.24834413643E+01  0.33980518935E+02  0.43400719215E+02  0.00000000000E+00 0. -1.
         11    1    3    3    0    0 -0.93376489644E+01 -0.56914255125E+01 -0.14511078414E+02  0.18170179128E+02  0.51100000000E-03 0. -1.
        -11    1    3    3    0    0  0.14032801553E+01  0.16559824178E+01 -0.28489856657E+01  0.35816466250E+01  0.51100000000E-03 0.  1.
        -12    1    3    3    0    0 -0.18950185870E+02  0.65188844590E+01 -0.16620454855E+02  0.26035455031E+02  0.00000000000E+00 0.  1.
</event>
<event>
 7    1  0.5022032E-011  0.4778727E+02  0.7816164E-02  0.1312668E+00
        -11   -1    0    0    0    0  0.00000000000E+00  0.00000000000E+00  0.45593999997E+02  0.45594000000E+02  0.51100000000E-03 0. -1.
         11   -1    0    0    0    0 -0.00000000000E+00 -0.00000000000E+00 -0.45593999997E+02  0.45594000000E+02  0.51100000000E-03 0.  1.
    9900012    2    1    2    0    0  0.18710666060E+02  0.31440838536E+02  0.23345407564E+02  0.47787269515E+02  0.19999993028E+02 0.  0.
        -12    1    1    2    0    0 -0.18710666060E+02 -0.31440838536E+02 -0.23345407564E+02  0.43400730485E+02  0.00000000000E+00 0.  1.
         11    1    3    3    0    0  0.15333292717E+02  0.19414524861E+02  0.57486528824E+01  0.25398437971E+02  0.51100000000E-03 0. -1.
        -11    1    3    3    0    0  0.49790762374E+01  0.88245325870E+01  0.11575086024E+02  0.15383308886E+02  0.51100000000E-03 0.  1.
        -12    1    3    3    0    0 -0.16017028942E+01  0.32017810878E+01  0.60216686574E+01  0.70055226582E+01  0.00000000000E+00 0.  1.
</event>
<event>
 7    1  0.5022032E-011  0.4778725E+02  0.7816164E-02  0.1312668E+00
        -11   -1    0    0    0    0  0.00000000000E+00  0.00000000000E+00  0.45593999997E+02  0.45594000000E+02  0.51100000000E-03 0.  1.
         11   -1    0    0    0    0 -0.00000000000E+00 -0.00000000000E+00 -0.45593999997E+02  0.45594000000E+02  0.51100000000E-03 0. -1.
    9900012    2    1    2    0    0  0.23240600117E+02  0.35266865247E+02 -0.99873641676E+01  0.47787254371E+02  0.19999923978E+02 0.  0.
        -12    1    1    2    0    0 -0.23240600117E+02 -0.35266865247E+02  0.99873641676E+01  0.43400745629E+02  0.00000000000E+00 0.  1.
         11    1    3    3    0    0  0.19932127428E+02  0.20844405635E+02 -0.74554035000E+01  0.29788621849E+02  0.51100000000E-03 0. -1.
        -11    1    3    3    0    0  0.22232238637E+01 -0.31745363366E+00  0.14730799270E+01  0.26857896213E+01  0.51100000000E-03 0.  1.
        -12    1    3    3    0    0  0.10852488246E+01  0.14739913246E+02 -0.40050405946E+01  0.15312842900E+02  0.00000000000E+00 0.  1.
</event>
<event>
 7    1  0.5022032E-011  0.4778727E+02  0.7816164E-02  0.1312668E+00
        -11   -1    0    0    0    0  0.00000000000E+00  0.00000000000E+00  0.45593999997E+02  0.45594000000E+02  0.51100000000E-03 0. -1.
         11   -1    0    0    0    0 -0.00000000000E+00 -0.00000000000E+00 -0.45593999997E+02  0.45594000000E+02  0.51100000000E-03 0.  1.
    9900012    2    1    2    0    0  0.28274901857E+02 -0.14118630359E+02  0.29745883388E+02  0.47787269859E+02  0.19999994596E+02 0.  0.
        -12    1    1    2    0    0 -0.28274901857E+02  0.14118630359E+02 -0.29745883388E+02  0.43400730141E+02  0.00000000000E+00 0.  1.
         11    1    3    3    0    0  0.19512005122E+02 -0.58254318816E+01  0.17727601180E+02  0.26998552634E+02  0.51100000000E-03 0. -1.
        -11    1    3    3    0    0  0.55914450210E+01 -0.10772875195E+02  0.59780145938E+01  0.13529809907E+02  0.51100000000E-03 0.  1.
         12    1    3    3    0    0  0.31714517141E+01  0.24796767177E+01  0.60402676138E+01  0.72589073176E+01  0.00000000000E+00 0. -1.
</event>
<event>
 7    1  0.5022032E-011  0.4778729E+02  0.7816164E-02  0.1312668E+00
        -11   -1    0    0    0    0  0.00000000000E+00  0.00000000000E+00  0.45593999997E+02  0.45594000000E+02  0.51100000000E-03 0. -1.
         11   -1    0    0    0    0 -0.00000000000E+00 -0.00000000000E+00 -0.45593999997E+02  0.45594000000E+02  0.51100000000E-03 0.  1.
    9900012    2    1    2    0    0  0.12689821902E+02 -0.16384836661E+02 -0.38133023711E+02  0.47787286300E+02  0.20000069558E+02 0.  0.
         12    1    1    2    0    0 -0.12689821902E+02  0.16384836661E+02  0.38133023711E+02  0.43400713700E+02  0.00000000000E+00 0. -1.
         11    1    3    3    0    0  0.58720790648E+00  0.45087180890E+01 -0.50114083356E+01  0.67666509957E+01  0.51100000000E-03 0. -1.
        -11    1    3    3    0    0  0.33512086937E+01 -0.45331549592E+01 -0.81946536459E+01  0.99464788860E+01  0.51100000000E-03 0.  1.
         12    1    3    3    0    0  0.87514053020E+01 -0.16360399790E+02 -0.24926961730E+02  0.31074156419E+02  0.00000000000E+00 0. -1.
</event>
<event>
 7    1  0.5022032E-011  0.4778727E+02  0.7816164E-02  0.1312668E+00
        -11   -1    0    0    0    0  0.00000000000E+00  0.00000000000E+00  0.45593999997E+02  0.45594000000E+02  0.51100000000E-03 0. -1.
         11   -1    0    0    0    0 -0.00000000000E+00 -0.00000000000E+00 -0.45593999997E+02  0.45594000000E+02  0.51100000000E-03 0.  1.
    9900012    2    1    2    0    0 -0.19747392121E+02 -0.14811973796E+02  0.35696913849E+02  0.47787265886E+02  0.19999976479E+02 0.  0.
        -12    1    1    2    0    0  0.19747392121E+02  0.14811973796E+02 -0.35696913849E+02  0.43400734114E+02  0.00000000000E+00 0.  1.
         11    1    3    3    0    0 -0.30330907478E+01 -0.10517951853E+02  0.17145799789E+02  0.20342207386E+02  0.51100000000E-03 0. -1.
        -11    1    3    3    0    0 -0.95410402095E+00 -0.15725652969E+01 -0.10727446329E+01  0.21293326194E+01  0.51100000000E-03 0.  1.
        -12    1    3    3    0    0 -0.15760197352E+02 -0.27214566463E+01  0.19623858693E+02  0.25315725881E+02  0.00000000000E+00 0.  1.
</event>
<event>
 7    1  0.5022032E-011  0.4778727E+02  0.7816164E-02  0.1312668E+00
        -11   -1    0    0    0    0  0.00000000000E+00  0.00000000000E+00  0.45593999997E+02  0.45594000000E+02  0.51100000000E-03 0. -1.
         11   -1    0    0    0    0 -0.00000000000E+00 -0.00000000000E+00 -0.45593999997E+02  0.45594000000E+02  0.51100000000E-03 0.  1.
    9900012    2    1    2    0    0 -0.76814295875E+01 -0.34707505721E+02 -0.24899959027E+02  0.47787271050E+02  0.20000000024E+02 0.  0.
         12    1    1    2    0    0  0.76814295875E+01  0.34707505721E+02  0.24899959027E+02  0.43400728950E+02  0.00000000000E+00 0. -1.
         11    1    3    3    0    0  0.84233635239E+00 -0.26700870142E+01  0.21161546581E+01  0.35095592305E+01  0.51100000000E-03 0. -1.
        -11    1    3    3    0    0  0.26752952868E+01 -0.93471560492E+01 -0.86238499796E+01  0.12996050162E+02  0.51100000000E-03 0.  1.
        -12    1    3    3    0    0 -0.11199061227E+02 -0.22690262658E+02 -0.18392263705E+02  0.31281661657E+02  0.00000000000E+00 0.  1.
</event>
<event>
 7    1  0.5022032E-011  0.4778727E+02  0.7816164E-02  0.1312668E+00
        -11   -1    0    0    0    0  0.00000000000E+00  0.00000000000E+00  0.45593999997E+02  0.45594000000E+02  0.51100000000E-03 0. -1.
         11   -1    0    0    0    0 -0.00000000000E+00 -0.00000000000E+00 -0.45593999997E+02  0.45594000000E+02  0.51100000000E-03 0.  1.
    9900012    2    1    2    0    0  0.41039131164E+01 -0.12622600280E+02  0.41321318834E+02  0.47787268084E+02  0.19999986502E+02 0.  0.
        -12    1    1    2    0    0 -0.41039131164E+01  0.12622600280E+02 -0.41321318834E+02  0.43400731916E+02  0.00000000000E+00 0.  1.
         11    1    3    3    0    0  0.51988964679E+01  0.17382356086E+01  0.14426041611E+02  0.15432454903E+02  0.51100000000E-03 0. -1.
        -11    1    3    3    0    0  0.32270429428E+01 -0.70329213045E+01  0.19863325571E+02  0.21317304971E+02  0.51100000000E-03 0.  1.
        -12    1    3    3    0    0 -0.43220262943E+01 -0.73279145846E+01  0.70319516515E+01  0.11037508210E+02  0.00000000000E+00 0.  1.
</event>
<event>
 7    1  0.5022032E-011  0.4778727E+02  0.7816164E-02  0.1312668E+00
        -11   -1    0    0    0    0  0.00000000000E+00  0.00000000000E+00  0.45593999997E+02  0.45594000000E+02  0.51100000000E-03 0. -1.
         11   -1    0    0    0    0 -0.00000000000E+00 -0.00000000000E+00 -0.45593999997E+02  0.45594000000E+02  0.51100000000E-03 0.  1.
    9900012    2    1    2    0    0  0.19609477194E+02 -0.37674400013E+02  0.89292277754E+01  0.47787272807E+02  0.20000008038E+02 0.  0.
        -12    1    1    2    0    0 -0.19609477194E+02  0.37674400013E+02 -0.89292277754E+01  0.43400727193E+02  0.00000000000E+00 0.  1.
         11    1    3    3    0    0  0.26340233636E+01 -0.16036347456E+02 -0.88647799478E+00  0.16275391310E+02  0.51100000000E-03 0. -1.
        -11    1    3    3    0    0 -0.20152262481E-01 -0.38716325766E+01  0.52207179963E+01  0.64996801137E+01  0.51100000000E-03 0.  1.
         12    1    3    3    0    0  0.16995606093E+02 -0.17766419981E+02  0.45949877739E+01  0.25012201384E+02  0.00000000000E+00 0. -1.
</event>
<event>
 7    1  0.5022032E-011  0.4778727E+02  0.7816164E-02  0.1312668E+00
        -11   -1    0    0    0    0  0.00000000000E+00  0.00000000000E+00  0.45593999997E+02  0.45594000000E+02  0.51100000000E-03 0. -1.
         11   -1    0    0    0    0 -0.00000000000E+00 -0.00000000000E+00 -0.45593999997E+02  0.45594000000E+02  0.51100000000E-03 0.  1.
    9900012    2    1    2    0    0  0.28110185786E+02 -0.24097590809E+02  0.22643914674E+02  0.47787270750E+02  0.19999998656E+02 0.  0.
        -12    1    1    2    0    0 -0.28110185786E+02  0.24097590809E+02 -0.22643914674E+02  0.43400729250E+02  0.00000000000E+00 0.  1.
         11    1    3    3    0    0  0.45133168306E+01 -0.13112372861E+02  0.71370735445E+01  0.15596222937E+02  0.51100000000E-03 0. -1.
        -11    1    3    3    0    0  0.62006803346E+01 -0.81567336858E+01  0.33475730221E+01  0.10779006746E+02  0.51100000000E-03 0.  1.
         12    1    3    3    0    0  0.17396188621E+02 -0.28284842623E+01  0.12159268108E+02  0.21412041067E+02  0.00000000000E+00 0. -1.
</event>
<event>
 7    1  0.5022032E-011  0.4778727E+02  0.7816164E-02  0.1312668E+00
        -11   -1    0    0    0    0  0.00000000000E+00  0.00000000000E+00  0.45593999997E+02  0.45594000000E+02  0.51100000000E-03 0. -1.
         11   -1    0    0    0    0 -0.00000000000E+00 -0.00000000000E+00 -0.45593999997E+02  0.45594000000E+02  0.51100000000E-03 0.  1.
    9900012    2    1    2    0    0  0.32010062735E+02 -0.12059096899E+02  0.26712497113E+02  0.47787269173E+02  0.19999991468E+02 0.  0.
        -12    1    1    2    0    0 -0.32010062735E+02  0.12059096899E+02 -0.26712497113E+02  0.43400730827E+02  0.00000000000E+00 0.  1.
         11    1    3    3    0    0  0.93371001191E+01  0.13934041805E+01  0.79152597255E+01  0.12319673317E+02  0.51100000000E-03 0. -1.
        -11    1    3    3    0    0  0.52728150784E+01  0.12131215625E+01 -0.75796769005E+00  0.54634016928E+01  0.51100000000E-03 0.  1.
         12    1    3    3    0    0  0.17400147537E+02 -0.14665622643E+02  0.19555205077E+02  0.30004194164E+02  0.00000000000E+00 0. -1.
</event>
<event>
 7    1  0.5080158E-011  0.4778727E+02  0.7816164E-02  0.1312668E+00
        -11   -1    0    0    0    0  0.00000000000E+00  0.00000000000E+00  0.45593999997E+02  0.45594000000E+02  0.51100000000E-03 0. -1.
         11   -1    0    0    0    0 -0.00000000000E+00 -0.00000000000E+00 -0.45593999997E+02  0.45594000000E+02  0.51100000000E-03 0.  1.
    9900012    2    1    2    0    0  0.62132732217E+01  0.29418183335E+02 -0.31298388164E+02  0.47787269862E+02  0.19999994608E+02 0.  0.
         12    1    1    2    0    0 -0.62132732217E+01 -0.29418183335E+02  0.31298388164E+02  0.43400730138E+02  0.00000000000E+00 0. -1.
         11    1    3    3    0    0  0.28597760784E+01 -0.81888461293E+00 -0.82780796263E+00  0.30877431098E+01  0.51100000000E-03 0. -1.
        -11    1    3    3    0    0 -0.43647894313E+01  0.80075836080E+01 -0.73867335827E+01  0.11736124373E+02  0.51100000000E-03 0.  1.
        -12    1    3    3    0    0  0.77182865747E+01  0.22229484340E+02 -0.23083846619E+02  0.32963402379E+02  0.00000000000E+00 0.  1.
</event>
<event>
 7    1  0.5022032E-011  0.4778727E+02  0.7816164E-02  0.1312668E+00
        -11   -1    0    0    0    0  0.00000000000E+00  0.00000000000E+00  0.45593999997E+02  0.45594000000E+02  0.51100000000E-03 0. -1.
         11   -1    0    0    0    0 -0.00000000000E+00 -0.00000000000E+00 -0.45593999997E+02  0.45594000000E+02  0.51100000000E-03 0.  1.
    9900012    2    1    2    0    0 -0.75811027734E+01 -0.15833519924E+02  0.39691934189E+02  0.47787272908E+02  0.20000008496E+02 0.  0.
        -12    1    1    2    0    0  0.75811027734E+01  0.15833519924E+02 -0.39691934189E+02  0.43400727092E+02  0.00000000000E+00 0.  1.
         11    1    3    3    0    0 -0.31400681782E+01 -0.75694070855E+01  0.17540796568E+02  0.19360668797E+02  0.51100000000E-03 0. -1.
        -11    1    3    3    0    0 -0.95276857503E+01 -0.46304170372E+01  0.91386273431E+01  0.13990427716E+02  0.51100000000E-03 0.  1.
        -12    1    3    3    0    0  0.50866511551E+01 -0.36336958014E+01  0.13012510278E+02  0.14436176395E+02  0.00000000000E+00 0.  1.
</event>
<event>
 7    1  0.5022032E-011  0.4778727E+02  0.7816164E-02  0.1312668E+00
        -11   -1    0    0    0    0  0.00000000000E+00  0.00000000000E+00  0.45593999997E+02  0.45594000000E+02  0.51100000000E-03 0. -1.
         11   -1    0    0    0    0 -0.00000000000E+00 -0.00000000000E+00 -0.45593999997E+02  0.45594000000E+02  0.51100000000E-03 0.  1.
    9900012    2    1    2    0    0  0.78520776592E+01 -0.16534851953E+02 -0.39351835819E+02  0.47787269188E+02  0.19999991536E+02 0.  0.
         12    1    1    2    0    0 -0.78520776592E+01  0.16534851953E+02  0.39351835819E+02  0.43400730812E+02  0.00000000000E+00 0. -1.
         11    1    3    3    0    0  0.11434487968E+01  0.37031400286E+01 -0.27974635979E+01  0.47798037685E+01  0.51100000000E-03 0. -1.
        -11    1    3    3    0    0  0.37697425414E+01 -0.27744820549E+01 -0.10595959725E+02  0.11583741721E+02  0.51100000000E-03 0.  1.
        -12    1    3    3    0    0  0.29388863211E+01 -0.17463509927E+02 -0.25958412497E+02  0.31423723699E+02  0.00000000000E+00 0.  1.
</event>
<event>
 7    1  0.5022032E-011  0.4778726E+02  0.7816164E-02  0.1312668E+00
        -11   -1    0    0    0    0  0.00000000000E+00  0.00000000000E+00  0.45593999997E+02  0.45594000000E+02  0.51100000000E-03 0. -1.
         11   -1    0    0    0    0 -0.00000000000E+00 -0.00000000000E+00 -0.45593999997E+02  0.45594000000E+02  0.51100000000E-03 0.  1.
    9900012    2    1    2    0    0 -0.27517493624E+02  0.24816293423E+02  0.22595641809E+02  0.47787263792E+02  0.19999966935E+02 0.  0.
        -12    1    1    2    0    0  0.27517493624E+02 -0.24816293423E+02 -0.22595641809E+02  0.43400736208E+02  0.00000000000E+00 0.  1.
         11    1    3    3    0    0 -0.18435930160E+02  0.12145171599E+02  0.10055257801E+02  0.24258955537E+02  0.51100000000E-03 0. -1.
        -11    1    3    3    0    0 -0.59060981631E+01 -0.64332844282E+00  0.20568807387E+01  0.62870204097E+01  0.51100000000E-03 0.  1.
        -12    1    3    3    0    0 -0.31754653012E+01  0.13314450267E+02  0.10483503269E+02  0.17241287846E+02  0.00000000000E+00 0.  1.
</event>
<event>
 7    1  0.5022032E-011  0.4778727E+02  0.7816164E-02  0.1312668E+00
        -11   -1    0    0    0    0  0.00000000000E+00  0.00000000000E+00  0.45593999997E+02  0.45594000000E+02  0.51100000000E-03 0. -1.
         11   -1    0    0    0    0 -0.00000000000E+00 -0.00000000000E+00 -0.45593999997E+02  0.45594000000E+02  0.51100000000E-03 0.  1.
    9900012    2    1    2    0    0  0.43023678935E+02  0.21991411715E+00 -0.57042185629E+01  0.47787269353E+02  0.19999992287E+02 0.  0.
         12    1    1    2    0    0 -0.43023678935E+02 -0.21991411715E+00  0.57042185629E+01  0.43400730647E+02  0.00000000000E+00 0. -1.
         11    1    3    3    0    0  0.13505259089E+02  0.53485248880E+01  0.37138827604E+00  0.14530542696E+02  0.51100000000E-03 0. -1.
        -11    1    3    3    0    0 -0.12591988260E+01 -0.17822688138E-01  0.52954528355E+00  0.13661324240E+01  0.51100000000E-03 0.  1.
         12    1    3    3    0    0  0.30777618672E+02 -0.51107880827E+01 -0.66051521225E+01  0.31890594232E+02  0.00000000000E+00 0. -1.
</event>
<event>
 7    1  0.5022032E-011  0.4778728E+02  0.7816164E-02  0.1312668E+00
        -11   -1    0    0    0    0  0.00000000000E+00  0.00000000000E+00  0.45593999997E+02  0.45594000000E+02  0.51100000000E-03 0. -1.
         11   -1    0    0    0    0 -0.00000000000E+00 -0.00000000000E+00 -0.45593999997E+02  0.45594000000E+02  0.51100000000E-03 0.  1.
    9900012    2    1    2    0    0 -0.19264053459E+02  0.30214251664E+02  0.24487099706E+02  0.47787276374E+02  0.20000024299E+02 0.  0.
        -12    1    1    2    0    0  0.19264053459E+02 -0.30214251664E+02 -0.24487099706E+02  0.43400723626E+02  0.00000000000E+00 0.  1.
         11    1    3    3    0    0 -0.52072100899E+01  0.44143222318E+01  0.70959294107E+00  0.68632936764E+01  0.51100000000E-03 0. -1.
        -11    1    3    3    0    0 -0.33411448267E+01  0.44169308024E+01 -0.18787972119E+01  0.58482822854E+01  0.51100000000E-03 0.  1.
         12    1    3    3    0    0 -0.10715698542E+02  0.21382998630E+02  0.25656303976E+02  0.35075700412E+02  0.00000000000E+00 0. -1.
</event>
<event>
 7    1  0.5022032E-011  0.4778727E+02  0.7816164E-02  0.1312668E+00
        -11   -1    0    0    0    0  0.00000000000E+00  0.00000000000E+00  0.45593999997E+02  0.45594000000E+02  0.51100000000E-03 0. -1.
         11   -1    0    0    0    0 -0.00000000000E+00 -0.00000000000E+00 -0.45593999997E+02  0.45594000000E+02  0.51100000000E-03 0.  1.
    9900012    2    1    2    0    0 -0.22216126816E+01 -0.36675397093E+01  0.43188386033E+02  0.47787273064E+02  0.20000009208E+02 0.  0.
        -12    1    1    2    0    0  0.22216126816E+01  0.36675397093E+01 -0.43188386033E+02  0.43400726936E+02  0.00000000000E+00 0.  1.
         11    1    3    3    0    0 -0.62852870320E+01  0.19873402612E+01  0.17873628318E+02  0.19050484086E+02  0.51100000000E-03 0. -1.
        -11    1    3    3    0    0 -0.36367596525E+01  0.30799207115E+00  0.93335866988E+01  0.10021812252E+02  0.51100000000E-03 0.  1.
        -12    1    3    3    0    0  0.77004340029E+01 -0.59628720416E+01  0.15981171016E+02  0.18714976726E+02  0.00000000000E+00 0.  1.
</event>
<event>
 7    1  0.5022032E-011  0.4778726E+02  0.7816164E-02  0.1312668E+00
        -11   -1    0    0    0    0  0.00000000000E+00  0.00000000000E+00  0.45593999997E+02  0.45594000000E+02  0.51100000000E-03 0. -1.
         11   -1    0    0    0    0 -0.00000000000E+00 -0.00000000000E+00 -0.45593999997E+02  0.45594000000E+02  0.51100000000E-03 0.  1.
    9900012    2    1    2    0    0 -0.29053192318E+01 -0.81385377761E+01 -0.42531722998E+02  0.47787261087E+02  0.19999954602E+02 0.  0.
         12    1    1    2    0    0  0.29053192318E+01  0.81385377761E+01  0.42531722998E+02  0.43400738913E+02  0.00000000000E+00 0. -1.
         11    1    3    3    0    0  0.14030513797E+01  0.20562969638E+01 -0.11623974090E+02  0.11887543240E+02  0.51100000000E-03 0. -1.
        -11    1    3    3    0    0 -0.84491356111E+00  0.20325242277E+01  0.28309102446E+00  0.22192734061E+01  0.51100000000E-03 0.  1.
        -12    1    3    3    0    0 -0.34634570504E+01 -0.12227358968E+02 -0.31190839932E+02  0.33680444441E+02  0.00000000000E+00 0.  1.
</event>
<event>
 7    1  0.5022032E-011  0.4778727E+02  0.7816164E-02  0.1312668E+00
        -11   -1    0    0    0    0  0.00000000000E+00  0.00000000000E+00  0.45593999997E+02  0.45594000000E+02  0.51100000000E-03 0. -1.
         11   -1    0    0    0    0 -0.00000000000E+00 -0.00000000000E+00 -0.45593999997E+02  0.45594000000E+02  0.51100000000E-03 0.  1.
    9900012    2    1    2    0    0 -0.27598728455E+01 -0.38248753269E+02  0.20323362952E+02  0.47787272973E+02  0.20000008795E+02 0.  0.
        -12    1    1    2    0    0  0.27598728455E+01  0.38248753269E+02 -0.20323362952E+02  0.43400727027E+02  0.00000000000E+00 0.  1.
         11    1    3    3    0    0 -0.81874868578E+00  0.13359453238E+01  0.33917138573E+01  0.37361507557E+01  0.51100000000E-03 0. -1.
        -11    1    3    3    0    0 -0.48432675296E+01 -0.13281426539E+02  0.71116083388E+01  0.15824933008E+02  0.51100000000E-03 0.  1.
        -12    1    3    3    0    0  0.29021433699E+01 -0.26303272054E+02  0.98200407561E+01  0.28226189210E+02  0.00000000000E+00 0.  1.
</event>
<event>
 7    1  0.5022032E-011  0.4778728E+02  0.7816164E-02  0.1312668E+00
        -11   -1    0    0    0    0  0.00000000000E+00  0.00000000000E+00  0.45593999997E+02  0.45594000000E+02  0.51100000000E-03 0. -1.
         11   -1    0    0    0    0 -0.00000000000E+00 -0.00000000000E+00 -0.45593999997E+02  0.45594000000E+02  0.51100000000E-03 0.  1.
    9900012    2    1    2    0    0 -0.61412547695E+01  0.14962384643E+02  0.40274491947E+02  0.47787278049E+02  0.20000031935E+02 0.  0.
        -12    1    1    2    0    0  0.61412547695E+01 -0.14962384643E+02 -0.40274491947E+02  0.43400721951E+02  0.00000000000E+00 0.  1.
         11    1    3    3    0    0  0.15287167906E+01 -0.24948571885E+00  0.70751594055E+01  0.72427273195E+01  0.51100000000E-03 0. -1.
        -11    1    3    3    0    0 -0.24101354204E+01  0.16848819244E+02  0.28968757734E+02  0.33598815271E+02  0.51100000000E-03 0.  1.
        -12    1    3    3    0    0 -0.52598361398E+01 -0.16369488825E+01  0.42305748068E+01  0.69457354583E+01  0.00000000000E+00 0.  1.
</event>
<event>
 7    1  0.5022032E-011  0.4778727E+02  0.7816164E-02  0.1312668E+00
        -11   -1    0    0    0    0  0.00000000000E+00  0.00000000000E+00  0.45593999997E+02  0.45594000000E+02  0.51100000000E-03 0. -1.
         11   -1    0    0    0    0 -0.00000000000E+00 -0.00000000000E+00 -0.45593999997E+02  0.45594000000E+02  0.51100000000E-03 0.  1.
    9900012    2    1    2    0    0 -0.21251351808E+02 -0.41336954835E+01 -0.37615366724E+02  0.47787271829E+02  0.20000003576E+02 0.  0.
         12    1    1    2    0    0  0.21251351808E+02  0.41336954835E+01  0.37615366724E+02  0.43400728171E+02  0.00000000000E+00 0. -1.
         11    1    3    3    0    0 -0.47919321665E+01  0.59034796379E+01 -0.80650166479E+01  0.11084140901E+02  0.51100000000E-03 0. -1.
        -11    1    3    3    0    0 -0.29641982567E+01 -0.13514042505E+01 -0.13936361264E+02  0.14312055419E+02  0.51100000000E-03 0.  1.
         12    1    3    3    0    0 -0.13495221384E+02 -0.86857708709E+01 -0.15613988812E+02  0.22391075509E+02  0.00000000000E+00 0. -1.
</event>
<event>
 7    1  0.5022032E-011  0.4778726E+02  0.7816164E-02  0.1312668E+00
        -11   -1    0    0    0    0  0.00000000000E+00  0.00000000000E+00  0.45593999997E+02  0.45594000000E+02  0.51100000000E-03 0.  1.
         11   -1    0    0    0    0 -0.00000000000E+00 -0.00000000000E+00 -0.45593999997E+02  0.45594000000E+02  0.51100000000E-03 0. -1.
    9900012    2    1    2    0    0  0.33609647432E+02  0.34997358876E+01  0.27235406049E+02  0.47787263896E+02  0.19999967405E+02 0.  0.
        -12    1    1    2    0    0 -0.33609647432E+02 -0.34997358876E+01 -0.27235406049E+02  0.43400736104E+02  0.00000000000E+00 0.  1.
         11    1    3    3    0    0  0.71503280670E+01  0.46542073165E+01 -0.16763008504E-01  0.85316539118E+01  0.51100000000E-03 0. -1.
        -11    1    3    3    0    0  0.74806358239E+01  0.39543392168E+01  0.10039195173E+02  0.13129438333E+02  0.51100000000E-03 0.  1.
         12    1    3    3    0    0  0.18978683541E+02 -0.51088106458E+01  0.17212973885E+02  0.26126171651E+02  0.00000000000E+00 0. -1.
</event>
<event>
 7    1  0.5022032E-011  0.4778727E+02  0.7816164E-02  0.1312668E+00
        -11   -1    0    0    0    0  0.00000000000E+00  0.00000000000E+00  0.45593999997E+02  0.45594000000E+02  0.51100000000E-03 0. -1.
         11   -1    0    0    0    0 -0.00000000000E+00 -0.00000000000E+00 -0.45593999997E+02  0.45594000000E+02  0.51100000000E-03 0.  1.
    9900012    2    1    2    0    0  0.27915603374E+02 -0.21352419260E+02  0.25464023051E+02  0.47787272012E+02  0.20000004411E+02 0.  0.
        -12    1    1    2    0    0 -0.27915603374E+02  0.21352419260E+02 -0.25464023051E+02  0.43400727988E+02  0.00000000000E+00 0.  1.
         11    1    3    3    0    0  0.31023134687E+01 -0.49412917070E+01  0.21732342022E+01  0.62260468799E+01  0.51100000000E-03 0. -1.
        -11    1    3    3    0    0  0.20856137580E+01 -0.72187999395E+01  0.12910622406E+02  0.14938039647E+02  0.51100000000E-03 0.  1.
        -12    1    3    3    0    0  0.22727676147E+02 -0.91923276131E+01  0.10380166442E+02  0.26623185485E+02  0.00000000000E+00 0.  1.
</event>
<event>
 7    1  0.5022032E-011  0.4778727E+02  0.7816164E-02  0.1312668E+00
        -11   -1    0    0    0    0  0.00000000000E+00  0.00000000000E+00  0.45593999997E+02  0.45594000000E+02  0.51100000000E-03 0. -1.
         11   -1    0    0    0    0 -0.00000000000E+00 -0.00000000000E+00 -0.45593999997E+02  0.45594000000E+02  0.51100000000E-03 0.  1.
    9900012    2    1    2    0    0  0.32709169825E+02 -0.27942630275E+02  0.57396092201E+01  0.47787268539E+02  0.19999988578E+02 0.  0.
        -12    1    1    2    0    0 -0.32709169825E+02  0.27942630275E+02 -0.57396092201E+01  0.43400731461E+02  0.00000000000E+00 0.  1.
         11    1    3    3    0    0  0.15425549042E+00 -0.84428237304E+01  0.27962140108E+01  0.88951605019E+01  0.51100000000E-03 0. -1.
        -11    1    3    3    0    0  0.62984397008E+01 -0.88058187736E+00 -0.10892837006E+01  0.64523101560E+01  0.51100000000E-03 0.  1.
        -12    1    3    3    0    0  0.26256474634E+02 -0.18619224667E+02  0.40326789098E+01  0.32439797881E+02  0.00000000000E+00 0.  1.
</event>
<event>
 7    1  0.5022032E-011  0.4778726E+02  0.7816164E-02  0.1312668E+00
        -11   -1    0    0    0    0  0.00000000000E+00  0.00000000000E+00  0.45593999997E+02  0.45594000000E+02  0.51100000000E-03 0. -1.
         11   -1    0    0    0    0 -0.00000000000E+00 -0.00000000000E+00 -0.45593999997E+02  0.45594000000E+02  0.51100000000E-03 0.  1.
    9900012    2    1    2    0    0  0.21973716324E+02  0.37377208642E+02  0.19297709150E+01  0.47787263246E+02  0.19999964446E+02 0.  0.
         12    1    1    2    0    0 -0.21973716324E+02 -0.37377208642E+02 -0.19297709150E+01  0.43400736754E+02  0.00000000000E+00 0. -1.
         11    1    3    3    0    0  0.19899855246E+01 -0.19973385129E+01 -0.17075396024E+01  0.32962243974E+01  0.51100000000E-03 0. -1.
        -11    1    3    3    0    0  0.31087555680E+01  0.81873176223E+01 -0.60336909326E+00  0.87784158909E+01  0.51100000000E-03 0.  1.
        -12    1    3    3    0    0  0.16874975231E+02  0.31187229533E+02  0.42406796107E+01  0.35712622958E+02  0.00000000000E+00 0.  1.
</event>
<event>
 7    1  0.5022032E-011  0.4778727E+02  0.7816164E-02  0.1312668E+00
        -11   -1    0    0    0    0  0.00000000000E+00  0.00000000000E+00  0.45593999997E+02  0.45594000000E+02  0.51100000000E-03 0. -1.
         11   -1    0    0    0    0 -0.00000000000E+00 -0.00000000000E+00 -0.45593999997E+02  0.45594000000E+02  0.51100000000E-03 0.  1.
    9900012    2    1    2    0    0  0.85965375033E+01  0.19693525987E+02 -0.37707929480E+02  0.47787269954E+02  0.19999995027E+02 0.  0.
         12    1    1    2    0    0 -0.85965375033E+01 -0.19693525987E+02  0.37707929480E+02  0.43400730046E+02  0.00000000000E+00 0. -1.
         11    1    3    3    0    0 -0.82558857116E+00  0.16271745262E+02 -0.26876533459E+02  0.31429275228E+02  0.51100000000E-03 0. -1.
        -11    1    3    3    0    0  0.19452249535E+01 -0.26191881175E+00 -0.68408884556E+01  0.71168993745E+01  0.51100000000E-03 0.  1.
        -12    1    3    3    0    0  0.74769011209E+01  0.36836995377E+01 -0.39905075660E+01  0.92410953512E+01  0.00000000000E+00 0.  1.
</event>
<event>
 7    1  0.5022032E-011  0.4778727E+02  0.7816164E-02  0.1312668E+00
        -11   -1    0    0    0    0  0.00000000000E+00  0.00000000000E+00  0.45593999997E+02  0.45594000000E+02  0.51100000000E-03 0. -1.
         11   -1    0    0    0    0 -0.00000000000E+00 -0.00000000000E+00 -0.45593999997E+02  0.45594000000E+02  0.51100000000E-03 0.  1.
    9900012    2    1    2    0    0 -0.34516185119E+02 -0.93534991040E+01 -0.24592034619E+02  0.47787272502E+02  0.20000006646E+02 0.  0.
         12    1    1    2    0    0  0.34516185119E+02  0.93534991040E+01  0.24592034619E+02  0.43400727498E+02  0.00000000000E+00 0. -1.
         11    1    3    3    0    0 -0.25922515097E+02 -0.62538625318E+01 -0.18521092579E+02  0.32467190456E+02  0.51100000000E-03 0. -1.
        -11    1    3    3    0    0 -0.71649452678E+01  0.30134121743E+01 -0.37121595856E+01  0.86137809742E+01  0.51100000000E-03 0.  1.
         12    1    3    3    0    0 -0.14287247539E+01 -0.61130487464E+01 -0.23587824544E+01  0.67063010718E+01  0.00000000000E+00 0. -1.
</event>
<event>
 7    1  0.9131149E-011  0.4778727E+02  0.7816164E-02  0.1312668E+00
        -11   -1    0    0    0    0  0.00000000000E+00  0.00000000000E+00  0.45593999997E+02  0.45594000000E+02  0.51100000000E-03 0. -1.
         11   -1    0    0    0    0 -0.00000000000E+00 -0.00000000000E+00 -0.45593999997E+02  0.45594000000E+02  0.51100000000E-03 0.  1.
    9900012    2    1    2    0    0 -0.30958869196E+02  0.15842569635E+02 -0.25965063960E+02  0.47787272575E+02  0.20000006978E+02 0.  0.
         12    1    1    2    0    0  0.30958869196E+02 -0.15842569635E+02  0.25965063960E+02  0.43400727425E+02  0.00000000000E+00 0. -1.
         11    1    3    3    0    0 -0.75742033522E+01 -0.89081780569E+00 -0.10703711775E+01  0.77011562445E+01  0.51100000000E-03 0.  1.
        -11    1    3    3    0    0 -0.24738535937E+01 -0.65384972777E+00 -0.71997801039E+01  0.76409623003E+01  0.51100000000E-03 0. -1.
        -12    1    3    3    0    0 -0.20910812250E+02  0.17387237168E+02 -0.17694912679E+02  0.32445154030E+02  0.00000000000E+00 0.  1.
</event>
<event>
 7    1  0.5022032E-011  0.4778727E+02  0.7816164E-02  0.1312668E+00
        -11   -1    0    0    0    0  0.00000000000E+00  0.00000000000E+00  0.45593999997E+02  0.45594000000E+02  0.51100000000E-03 0.  1.
         11   -1    0    0    0    0 -0.00000000000E+00 -0.00000000000E+00 -0.45593999997E+02  0.45594000000E+02  0.51100000000E-03 0. -1.
    9900012    2    1    2    0    0  0.31627864927E+02  0.24634869672E+02 -0.16626014685E+02  0.47787274108E+02  0.20000013970E+02 0.  0.
        -12    1    1    2    0    0 -0.31627864927E+02 -0.24634869672E+02  0.16626014685E+02  0.43400725892E+02  0.00000000000E+00 0.  1.
         11    1    3    3    0    0  0.18472642513E+02  0.22841639717E+02 -0.75741467212E+01  0.30337216833E+02  0.51100000000E-03 0. -1.
        -11    1    3    3    0    0  0.43001332566E+00 -0.71208567081E+00  0.80686981828E+00  0.11588859424E+01  0.51100000000E-03 0.  1.
         12    1    3    3    0    0  0.12725209088E+02  0.25053156256E+01 -0.98587377822E+01  0.16291171333E+02  0.00000000000E+00 0. -1.
</event>
<event>
 7    1  0.5022032E-011  0.4778728E+02  0.7816164E-02  0.1312668E+00
        -11   -1    0    0    0    0  0.00000000000E+00  0.00000000000E+00  0.45593999997E+02  0.45594000000E+02  0.51100000000E-03 0. -1.
         11   -1    0    0    0    0 -0.00000000000E+00 -0.00000000000E+00 -0.45593999997E+02  0.45594000000E+02  0.51100000000E-03 0.  1.
    9900012    2    1    2    0    0  0.34443089718E+01 -0.31555560712E+02  0.29597401425E+02  0.47787275959E+02  0.20000022409E+02 0.  0.
        -12    1    1    2    0    0 -0.34443089718E+01  0.31555560712E+02 -0.29597401425E+02  0.43400724041E+02  0.00000000000E+00 0.  1.
         11    1    3    3    0    0 -0.36012594892E+00 -0.68025544080E+01  0.43190623239E+01  0.80658996269E+01  0.51100000000E-03 0. -1.
        -11    1    3    3    0    0 -0.42943705242E+01 -0.78936887843E+01  0.95285529425E+00  0.90365853227E+01  0.51100000000E-03 0.  1.
         12    1    3    3    0    0  0.80988054449E+01 -0.16859317520E+02  0.24325483807E+02  0.30684791010E+02  0.00000000000E+00 0. -1.
</event>
<event>
 7    1  0.5022032E-011  0.4778727E+02  0.7816164E-02  0.1312668E+00
        -11   -1    0    0    0    0  0.00000000000E+00  0.00000000000E+00  0.45593999997E+02  0.45594000000E+02  0.51100000000E-03 0. -1.
         11   -1    0    0    0    0 -0.00000000000E+00 -0.00000000000E+00 -0.45593999997E+02  0.45594000000E+02  0.51100000000E-03 0.  1.
    9900012    2    1    2    0    0  0.10948118415E+02  0.34501876904E+01 -0.41855207720E+02  0.47787268380E+02  0.19999987850E+02 0.  0.
         12    1    1    2    0    0 -0.10948118415E+02 -0.34501876904E+01  0.41855207720E+02  0.43400731620E+02  0.00000000000E+00 0. -1.
         11    1    3    3    0    0 -0.14821800905E+01  0.31427928861E+01 -0.14931426022E+02  0.15330410570E+02  0.51100000000E-03 0. -1.
        -11    1    3    3    0    0  0.68374143349E+01  0.63644326438E+01 -0.18179426403E+02  0.20438879183E+02  0.51100000000E-03 0.  1.
        -12    1    3    3    0    0  0.55928841705E+01 -0.60570378396E+01 -0.87443552951E+01  0.12017978626E+02  0.00000000000E+00 0.  1.
</event>
<event>
 7    1  0.5022032E-011  0.4778727E+02  0.7816164E-02  0.1312668E+00
        -11   -1    0    0    0    0  0.00000000000E+00  0.00000000000E+00  0.45593999997E+02  0.45594000000E+02  0.51100000000E-03 0. -1.
         11   -1    0    0    0    0 -0.00000000000E+00 -0.00000000000E+00 -0.45593999997E+02  0.45594000000E+02  0.51100000000E-03 0.  1.
    9900012    2    1    2    0    0 -0.28009208800E+02  0.12391875429E+02  0.30749778853E+02  0.47787271277E+02  0.20000001058E+02 0.  0.
        -12    1    1    2    0    0  0.28009208800E+02 -0.12391875429E+02 -0.30749778853E+02  0.43400728723E+02  0.00000000000E+00 0.  1.
         11    1    3    3    0    0 -0.11437906206E+00  0.11108239524E+00 -0.13353024189E+01  0.13447879682E+01  0.51100000000E-03 0.  1.
        -11    1    3    3    0    0 -0.16278594562E+02 -0.44810766511E+00  0.14201085668E+02  0.21607042273E+02  0.51100000000E-03 0. -1.
        -12    1    3    3    0    0 -0.11616235176E+02  0.12728900699E+02  0.17883995604E+02  0.24835441035E+02  0.00000000000E+00 0.  1.
</event>
<event>
 7    1  0.5022032E-011  0.4778727E+02  0.7816164E-02  0.1312668E+00
        -11   -1    0    0    0    0  0.00000000000E+00  0.00000000000E+00  0.45593999997E+02  0.45594000000E+02  0.51100000000E-03 0. -1.
         11   -1    0    0    0    0 -0.00000000000E+00 -0.00000000000E+00 -0.45593999997E+02  0.45594000000E+02  0.51100000000E-03 0.  1.
    9900012    2    1    2    0    0 -0.52554704247E+01  0.24442523470E+02  0.35476278398E+02  0.47787271297E+02  0.20000001153E+02 0.  0.
        -12    1    1    2    0    0  0.52554704247E+01 -0.24442523470E+02 -0.35476278398E+02  0.43400728703E+02  0.00000000000E+00 0.  1.
         11    1    3    3    0    0 -0.31754062268E+01  0.68493069998E+01  0.20407748126E+01  0.78205481380E+01  0.51100000000E-03 0. -1.
        -11    1    3    3    0    0  0.26230613049E+01  0.94941378046E+01  0.74647925211E+01  0.12358892786E+02  0.51100000000E-03 0.  1.
        -12    1    3    3    0    0 -0.47031255028E+01  0.80990786660E+01  0.25970711064E+02  0.27607830373E+02  0.00000000000E+00 0.  1.
</event>
<event>
 7    1  0.5022032E-011  0.4778727E+02  0.7816164E-02  0.1312668E+00
        -11   -1    0    0    0    0  0.00000000000E+00  0.00000000000E+00  0.45593999997E+02  0.45594000000E+02  0.51100000000E-03 0. -1.
         11   -1    0    0    0    0 -0.00000000000E+00 -0.00000000000E+00 -0.45593999997E+02  0.45594000000E+02  0.51100000000E-03 0.  1.
    9900012    2    1    2    0    0 -0.13738687468E+02  0.19943726191E+02 -0.36015544056E+02  0.47787272340E+02  0.20000005908E+02 0.  0.
         12    1    1    2    0    0  0.13738687468E+02 -0.19943726191E+02  0.36015544056E+02  0.43400727660E+02  0.00000000000E+00 0. -1.
         11    1    3    3    0    0 -0.58879543708E+01  0.13587558570E+02 -0.18922053753E+02  0.24027772953E+02  0.51100000000E-03 0.  1.
        -11    1    3    3    0    0 -0.22989568590E+01 -0.22202163008E+01 -0.11855048891E+02  0.12278303936E+02  0.51100000000E-03 0. -1.
         12    1    3    3    0    0 -0.55517762385E+01  0.85763839218E+01 -0.52384414117E+01  0.11481195452E+02  0.00000000000E+00 0. -1.
</event>
<event>
 7    1  0.5022032E-011  0.4778727E+02  0.7816164E-02  0.1312668E+00
        -11   -1    0    0    0    0  0.00000000000E+00  0.00000000000E+00  0.45593999997E+02  0.45594000000E+02  0.51100000000E-03 0. -1.
         11   -1    0    0    0    0 -0.00000000000E+00 -0.00000000000E+00 -0.45593999997E+02  0.45594000000E+02  0.51100000000E-03 0.  1.
    9900012    2    1    2    0    0  0.68834821210E+01  0.16264111667E+02 -0.39644920125E+02  0.47787270212E+02  0.19999996205E+02 0.  0.
         12    1    1    2    0    0 -0.68834821210E+01 -0.16264111667E+02  0.39644920125E+02  0.43400729788E+02  0.00000000000E+00 0. -1.
         11    1    3    3    0    0  0.65647623794E+01  0.98616671006E+00 -0.38091580747E+01  0.76536471945E+01  0.51100000000E-03 0. -1.
        -11    1    3    3    0    0  0.22497896006E+01  0.81077850814E+01 -0.91352149241E+01  0.12419737684E+02  0.51100000000E-03 0.  1.
        -12    1    3    3    0    0 -0.19310698591E+01  0.71701598755E+01 -0.26700547126E+02  0.27713885333E+02  0.00000000000E+00 0.  1.
</event>
<event>
 7    1  0.5022032E-011  0.4778727E+02  0.7816164E-02  0.1312668E+00
        -11   -1    0    0    0    0  0.00000000000E+00  0.00000000000E+00  0.45593999997E+02  0.45594000000E+02  0.51100000000E-03 0. -1.
         11   -1    0    0    0    0 -0.00000000000E+00 -0.00000000000E+00 -0.45593999997E+02  0.45594000000E+02  0.51100000000E-03 0.  1.
    9900012    2    1    2    0    0  0.36664242172E+02 -0.11595079023E+01  0.23195084714E+02  0.47787273422E+02  0.20000010838E+02 0.  0.
        -12    1    1    2    0    0 -0.36664242172E+02  0.11595079023E+01 -0.23195084714E+02  0.43400726578E+02  0.00000000000E+00 0.  1.
         11    1    3    3    0    0  0.34972222652E+01 -0.70845278041E+00  0.75043663341E+00  0.36463165409E+01  0.51100000000E-03 0. -1.
        -11    1    3    3    0    0  0.78112323171E+01 -0.74154500757E+01  0.22920096898E+01  0.11011700996E+02  0.51100000000E-03 0.  1.
         12    1    3    3    0    0  0.25355787590E+02  0.69643949537E+01  0.20152638391E+02  0.33129255885E+02  0.00000000000E+00 0. -1.
</event>
<event>
 7    1  0.6127058E-011  0.4778726E+02  0.7816164E-02  0.1312668E+00
        -11   -1    0    0    0    0  0.00000000000E+00  0.00000000000E+00  0.45593999997E+02  0.45594000000E+02  0.51100000000E-03 0. -1.
         11   -1    0    0    0    0 -0.00000000000E+00 -0.00000000000E+00 -0.45593999997E+02  0.45594000000E+02  0.51100000000E-03 0.  1.
    9900012    2    1    2    0    0  0.27722902100E+02 -0.13055876021E+02 -0.30734489664E+02  0.47787262052E+02  0.19999959000E+02 0.  0.
         12    1    1    2    0    0 -0.27722902100E+02  0.13055876021E+02  0.30734489664E+02  0.43400737948E+02  0.00000000000E+00 0. -1.
         11    1    3    3    0    0  0.23878144199E+01 -0.72592183899E+01 -0.43295795847E+01  0.87831184085E+01  0.51100000000E-03 0. -1.
        -11    1    3    3    0    0 -0.10720059786E+01 -0.73097282015E+00  0.29345033996E-01  0.12978364589E+01  0.51100000000E-03 0.  1.
        -12    1    3    3    0    0  0.26407093659E+02 -0.50656848109E+01 -0.26434255113E+02  0.37706307185E+02  0.00000000000E+00 0.  1.
</event>
<event>
 7    1  0.5022032E-011  0.4778727E+02  0.7816164E-02  0.1312668E+00
        -11   -1    0    0    0    0  0.00000000000E+00  0.00000000000E+00  0.45593999997E+02  0.45594000000E+02  0.51100000000E-03 0. -1.
         11   -1    0    0    0    0 -0.00000000000E+00 -0.00000000000E+00 -0.45593999997E+02  0.45594000000E+02  0.51100000000E-03 0.  1.
    9900012    2    1    2    0    0  0.13323172774E+02  0.28224379390E+02  0.30157934865E+02  0.47787267748E+02  0.19999984969E+02 0.  0.
        -12    1    1    2    0    0 -0.13323172774E+02 -0.28224379390E+02 -0.30157934865E+02  0.43400732252E+02  0.00000000000E+00 0.  1.
         11    1    3    3    0    0  0.66127741928E+01  0.58916086140E+01  0.11562966373E+02  0.14565096161E+02  0.51100000000E-03 0.  1.
        -11    1    3    3    0    0  0.45647187590E+01  0.15059846044E+02  0.20063319695E+02  0.25498478732E+02  0.51100000000E-03 0. -1.
        -12    1    3    3    0    0  0.21456798219E+01  0.72729247319E+01 -0.14683512026E+01  0.77236928544E+01  0.00000000000E+00 0.  1.
</event>
<event>
 7    1  0.5022032E-011  0.4778726E+02  0.7816164E-02  0.1312668E+00
        -11   -1    0    0    0    0  0.00000000000E+00  0.00000000000E+00  0.45593999997E+02  0.45594000000E+02  0.51100000000E-03 0. -1.
         11   -1    0    0    0    0 -0.00000000000E+00 -0.00000000000E+00 -0.45593999997E+02  0.45594000000E+02  0.51100000000E-03 0.  1.
    9900012    2    1    2    0    0 -0.33706687849E+01  0.24022798135E+02  0.35988438229E+02  0.47787263549E+02  0.19999965827E+02 0.  0.
        -12    1    1    2    0    0  0.33706687849E+01 -0.24022798135E+02 -0.35988438229E+02  0.43400736451E+02  0.00000000000E+00 0.  1.
         11    1    3    3    0    0  0.28865671153E+01  0.88534682298E+01  0.19606542264E+02  0.21705590737E+02  0.51100000000E-03 0. -1.
        -11    1    3    3    0    0  0.21230474546E+01  0.83517888112E+01  0.35821070573E+01  0.93322665025E+01  0.51100000000E-03 0.  1.
        -12    1    3    3    0    0 -0.83802833547E+01  0.68175410937E+01  0.12799788907E+02  0.16749406310E+02  0.00000000000E+00 0.  1.
</event>
<event>
 7    1  0.5022032E-011  0.4778727E+02  0.7816164E-02  0.1312668E+00
        -11   -1    0    0    0    0  0.00000000000E+00  0.00000000000E+00  0.45593999997E+02  0.45594000000E+02  0.51100000000E-03 0. -1.
         11   -1    0    0    0    0 -0.00000000000E+00 -0.00000000000E+00 -0.45593999997E+02  0.45594000000E+02  0.51100000000E-03 0.  1.
    9900012    2    1    2    0    0 -0.12757563986E+02 -0.18980458379E+02  0.36886452708E+02  0.47787266913E+02  0.19999981161E+02 0.  0.
        -12    1    1    2    0    0  0.12757563986E+02  0.18980458379E+02 -0.36886452708E+02  0.43400733087E+02  0.00000000000E+00 0.  1.
         11    1    3    3    0    0  0.39361078373E+01 -0.18559612318E+01  0.60006523115E+01  0.74125141096E+01  0.51100000000E-03 0. -1.
        -11    1    3    3    0    0  0.52779316512E+00 -0.12728281466E+01 -0.27222250367E+00  0.14045506287E+01  0.51100000000E-03 0.  1.
        -12    1    3    3    0    0 -0.17221464988E+02 -0.15851669001E+02  0.31158022900E+02  0.38970202174E+02  0.00000000000E+00 0.  1.
</event>
<event>
 7    1  0.5022032E-011  0.4778727E+02  0.7816164E-02  0.1312668E+00
        -11   -1    0    0    0    0  0.00000000000E+00  0.00000000000E+00  0.45593999997E+02  0.45594000000E+02  0.51100000000E-03 0. -1.
         11   -1    0    0    0    0 -0.00000000000E+00 -0.00000000000E+00 -0.45593999997E+02  0.45594000000E+02  0.51100000000E-03 0.  1.
    9900012    2    1    2    0    0  0.92224497583E+01 -0.23869478940E+02  0.35054494683E+02  0.47787271874E+02  0.20000003781E+02 0.  0.
        -12    1    1    2    0    0 -0.92224497583E+01  0.23869478940E+02 -0.35054494683E+02  0.43400728126E+02  0.00000000000E+00 0.  1.
         11    1    3    3    0    0  0.34667483002E+01 -0.19300681341E+02  0.22622908582E+02  0.29938781488E+02  0.51100000000E-03 0. -1.
        -11    1    3    3    0    0  0.18232703341E+01 -0.70858663330E+01  0.43415605002E+01  0.85078178306E+01  0.51100000000E-03 0.  1.
         12    1    3    3    0    0  0.39324311240E+01  0.25170687343E+01  0.80900256011E+01  0.93406725553E+01  0.00000000000E+00 0. -1.
</event>
<event>
 7    1  0.5022032E-011  0.4778727E+02  0.7816164E-02  0.1312668E+00
        -11   -1    0    0    0    0  0.00000000000E+00  0.00000000000E+00  0.45593999997E+02  0.45594000000E+02  0.51100000000E-03 0. -1.
         11   -1    0    0    0    0 -0.00000000000E+00 -0.00000000000E+00 -0.45593999997E+02  0.45594000000E+02  0.51100000000E-03 0.  1.
    9900012    2    1    2    0    0 -0.18294736197E+02 -0.21464896775E+02  0.32987630718E+02  0.47787274817E+02  0.20000017200E+02 0.  0.
        -12    1    1    2    0    0  0.18294736197E+02  0.21464896775E+02 -0.32987630718E+02  0.43400725183E+02  0.00000000000E+00 0.  1.
         11    1    3    3    0    0 -0.53697415157E+01 -0.15872867511E+02  0.19221038171E+02  0.25499614813E+02  0.51100000000E-03 0. -1.
        -11    1    3    3    0    0  0.14759892556E+01  0.66378334591E+00  0.24383410596E+01  0.29265440364E+01  0.51100000000E-03 0.  1.
         12    1    3    3    0    0 -0.14400983937E+02 -0.62558126096E+01  0.11328251487E+02  0.19361115968E+02  0.00000000000E+00 0. -1.
</event>
<event>
 7    1  0.5022032E-011  0.4778728E+02  0.7816164E-02  0.1312668E+00
        -11   -1    0    0    0    0  0.00000000000E+00  0.00000000000E+00  0.45593999997E+02  0.45594000000E+02  0.51100000000E-03 0. -1.
         11   -1    0    0    0    0 -0.00000000000E+00 -0.00000000000E+00 -0.45593999997E+02  0.45594000000E+02  0.51100000000E-03 0.  1.
    9900012    2    1    2    0    0  0.27406741131E+02  0.59178944727E+01  0.33128114718E+02  0.47787275130E+02  0.20000018630E+02 0.  0.
        -12    1    1    2    0    0 -0.27406741131E+02 -0.59178944727E+01 -0.33128114718E+02  0.43400724870E+02  0.00000000000E+00 0.  1.
         11    1    3    3    0    0  0.20198382818E+02  0.13948453948E+01  0.21668530885E+02  0.29655446264E+02  0.51100000000E-03 0. -1.
        -11    1    3    3    0    0  0.78759353186E+01  0.89127693325E+00  0.22957419050E+01  0.82519793304E+01  0.51100000000E-03 0.  1.
        -12    1    3    3    0    0 -0.66757700553E+00  0.36317721446E+01  0.91638419284E+01  0.98798495362E+01  0.00000000000E+00 0.  1.
</event>
<event>
 7    1  0.5022032E-011  0.4778725E+02  0.7816164E-02  0.1312668E+00
        -11   -1    0    0    0    0  0.00000000000E+00  0.00000000000E+00  0.45593999997E+02  0.45594000000E+02  0.51100000000E-03 0.  1.
         11   -1    0    0    0    0 -0.00000000000E+00 -0.00000000000E+00 -0.45593999997E+02  0.45594000000E+02  0.51100000000E-03 0. -1.
    9900012    2    1    2    0    0  0.41657457390E+02 -0.92528246715E+01 -0.79162460637E+01  0.47787245716E+02  0.19999884519E+02 0.  0.
        -12    1    1    2    0    0 -0.41657457390E+02  0.92528246715E+01  0.79162460637E+01  0.43400754284E+02  0.00000000000E+00 0.  1.
         11    1    3    3    0    0  0.22490011956E+02 -0.10003845443E+02 -0.56270323007E+01  0.25249575327E+02  0.51100000000E-03 0. -1.
        -11    1    3    3    0    0  0.87932359773E+01 -0.39711850748E+01  0.28120499561E+01  0.10049822639E+02  0.51100000000E-03 0.  1.
        -12    1    3    3    0    0  0.10374209457E+02  0.47222058461E+01 -0.51012637192E+01  0.12487847751E+02  0.00000000000E+00 0.  1.
</event>
<event>
 7    1  0.5022032E-011  0.4778727E+02  0.7816164E-02  0.1312668E+00
        -11   -1    0    0    0    0  0.00000000000E+00  0.00000000000E+00  0.45593999997E+02  0.45594000000E+02  0.51100000000E-03 0. -1.
         11   -1    0    0    0    0 -0.00000000000E+00 -0.00000000000E+00 -0.45593999997E+02  0.45594000000E+02  0.51100000000E-03 0.  1.
    9900012    2    1    2    0    0 -0.16147062925E+02 -0.60835029590E+01  0.39823190750E+02  0.47787272231E+02  0.20000005409E+02 0.  0.
        -12    1    1    2    0    0  0.16147062925E+02  0.60835029590E+01 -0.39823190750E+02  0.43400727769E+02  0.00000000000E+00 0.  1.
         11    1    3    3    0    0 -0.49941049497E+01 -0.25330018400E+01  0.30136971713E+01  0.63592101296E+01  0.51100000000E-03 0. -1.
        -11    1    3    3    0    0 -0.13344771402E+02 -0.22982421871E+01  0.18396591655E+02  0.22842929446E+02  0.51100000000E-03 0.  1.
         12    1    3    3    0    0  0.21918134260E+01 -0.12522589319E+01  0.18412901924E+02  0.18585132655E+02  0.00000000000E+00 0. -1.
</event>
<event>
 7    1  0.5022032E-011  0.4778728E+02  0.7816164E-02  0.1312668E+00
        -11   -1    0    0    0    0  0.00000000000E+00  0.00000000000E+00  0.45593999997E+02  0.45594000000E+02  0.51100000000E-03 0. -1.
         11   -1    0    0    0    0 -0.00000000000E+00 -0.00000000000E+00 -0.45593999997E+02  0.45594000000E+02  0.51100000000E-03 0.  1.
    9900012    2    1    2    0    0  0.23103952842E+02 -0.88857919495E+01 -0.35649305168E+02  0.47787275416E+02  0.20000019931E+02 0.  0.
         12    1    1    2    0    0 -0.23103952842E+02  0.88857919495E+01  0.35649305168E+02  0.43400724584E+02  0.00000000000E+00 0. -1.
         11    1    3    3    0    0  0.98976053052E+00  0.59530761239E-01 -0.87965082780E-01  0.99544358766E+00  0.51100000000E-03 0. -1.
        -11    1    3    3    0    0  0.25160140258E+01 -0.56617083859E+01 -0.16346557172E+00  0.61977406915E+01  0.51100000000E-03 0.  1.
        -12    1    3    3    0    0  0.19598178285E+02 -0.32836143249E+01 -0.35397874513E+02  0.40594091137E+02  0.00000000000E+00 0.  1.
</event>
<event>
 7    1  0.5022032E-011  0.4778727E+02  0.7816164E-02  0.1312668E+00
        -11   -1    0    0    0    0  0.00000000000E+00  0.00000000000E+00  0.45593999997E+02  0.45594000000E+02  0.51100000000E-03 0. -1.
         11   -1    0    0    0    0 -0.00000000000E+00 -0.00000000000E+00 -0.45593999997E+02  0.45594000000E+02  0.51100000000E-03 0.  1.
    9900012    2    1    2    0    0 -0.40431936061E+02 -0.15702169602E+02  0.15243046261E+01  0.47787273180E+02  0.20000009739E+02 0.  0.
         12    1    1    2    0    0  0.40431936061E+02  0.15702169602E+02 -0.15243046261E+01  0.43400726820E+02  0.00000000000E+00 0. -1.
         11    1    3    3    0    0 -0.19457146447E+00 -0.27373011855E+01  0.25041972635E+01  0.37150612418E+01  0.51100000000E-03 0. -1.
        -11    1    3    3    0    0 -0.15572309145E+02 -0.43203806572E+01  0.56302907393E+01  0.17113230999E+02  0.51100000000E-03 0.  1.
        -12    1    3    3    0    0 -0.24665055452E+02 -0.86444877591E+01 -0.66101833767E+01  0.26958980940E+02  0.00000000000E+00 0.  1.
</event>
<event>
 7    1  0.5022032E-011  0.4778727E+02  0.7816164E-02  0.1312668E+00
        -11   -1    0    0    0    0  0.00000000000E+00  0.00000000000E+00  0.45593999997E+02  0.45594000000E+02  0.51100000000E-03 0.  1.
         11   -1    0    0    0    0 -0.00000000000E+00 -0.00000000000E+00 -0.45593999997E+02  0.45594000000E+02  0.51100000000E-03 0. -1.
    9900012    2    1    2    0    0  0.32577503151E+02 -0.20734861112E+02  0.19808968998E+02  0.47787269250E+02  0.19999991818E+02 0.  0.
        -12    1    1    2    0    0 -0.32577503151E+02  0.20734861112E+02 -0.19808968998E+02  0.43400730750E+02  0.00000000000E+00 0.  1.
         11    1    3    3    0    0  0.17300836440E+01  0.29410260419E+00 -0.87564269241E+00  0.19612333219E+01  0.51100000000E-03 0. -1.
        -11    1    3    3    0    0  0.80981905542E+01 -0.14302737229E+02  0.12782915473E+02  0.20821909392E+02  0.51100000000E-03 0.  1.
        -12    1    3    3    0    0  0.22749228953E+02 -0.67262264870E+01  0.79016962173E+01  0.25004126536E+02  0.00000000000E+00 0.  1.
</event>
<event>
 7    1  0.5022032E-011  0.4778727E+02  0.7816164E-02  0.1312668E+00
        -11   -1    0    0    0    0  0.00000000000E+00  0.00000000000E+00  0.45593999997E+02  0.45594000000E+02  0.51100000000E-03 0. -1.
         11   -1    0    0    0    0 -0.00000000000E+00 -0.00000000000E+00 -0.45593999997E+02  0.45594000000E+02  0.51100000000E-03 0.  1.
    9900012    2    1    2    0    0  0.81556469839E+01  0.40730881936E+02 -0.12573937037E+02  0.47787271738E+02  0.20000003164E+02 0.  0.
         12    1    1    2    0    0 -0.81556469839E+01 -0.40730881936E+02  0.12573937037E+02  0.43400728262E+02  0.00000000000E+00 0. -1.
         11    1    3    3    0    0 -0.85741006974E+00  0.65817302146E+01 -0.80192167281E+01  0.10409714782E+02  0.51100000000E-03 0. -1.
        -11    1    3    3    0    0  0.76073331278E+01  0.23577946146E+02 -0.82170888991E+01  0.26101946518E+02  0.51100000000E-03 0.  1.
        -12    1    3    3    0    0  0.14057239258E+01  0.10571205576E+02  0.36623685900E+01  0.11275610439E+02  0.00000000000E+00 0.  1.
</event>
<event>
 7    1  0.5022032E-011  0.4778726E+02  0.7816164E-02  0.1312668E+00
        -11   -1    0    0    0    0  0.00000000000E+00  0.00000000000E+00  0.45593999997E+02  0.45594000000E+02  0.51100000000E-03 0.  1.
         11   -1    0    0    0    0 -0.00000000000E+00 -0.00000000000E+00 -0.45593999997E+02  0.45594000000E+02  0.51100000000E-03 0. -1.
    9900012    2    1    2    0    0 -0.40208643965E+02  0.39698097240E+01  0.15847063765E+02  0.47787264192E+02  0.19999968756E+02 0.  0.
        -12    1    1    2    0    0  0.40208643965E+02 -0.39698097240E+01 -0.15847063765E+02  0.43400735808E+02  0.00000000000E+00 0.  1.
         11    1    3    3    0    0 -0.11362686291E+02  0.56554802583E+01 -0.10852389297E+01  0.12738635739E+02  0.51100000000E-03 0. -1.
        -11    1    3    3    0    0 -0.67100516090E+01 -0.33814215162E+01  0.69968438178E+00  0.75464138875E+01  0.51100000000E-03 0.  1.
        -12    1    3    3    0    0 -0.22135906065E+02  0.16957509819E+01  0.16232618313E+02  0.27502214565E+02  0.00000000000E+00 0.  1.
</event>
<event>
 7    1  0.5022032E-011  0.4778728E+02  0.7816164E-02  0.1312668E+00
        -11   -1    0    0    0    0  0.00000000000E+00  0.00000000000E+00  0.45593999997E+02  0.45594000000E+02  0.51100000000E-03 0. -1.
         11   -1    0    0    0    0 -0.00000000000E+00 -0.00000000000E+00 -0.45593999997E+02  0.45594000000E+02  0.51100000000E-03 0.  1.
    9900012    2    1    2    0    0 -0.85671565741E+01  0.35994030349E+02  0.22686042432E+02  0.47787275193E+02  0.20000018915E+02 0.  0.
        -12    1    1    2    0    0  0.85671565741E+01 -0.35994030349E+02 -0.22686042432E+02  0.43400724807E+02  0.00000000000E+00 0.  1.
         11    1    3    3    0    0  0.30986380860E+01  0.30805686140E+01  0.17698584915E+01  0.47142189507E+01  0.51100000000E-03 0. -1.
        -11    1    3    3    0    0 -0.23722869635E+01 -0.92820839443E+00  0.16914628823E+01  0.30578363599E+01  0.51100000000E-03 0.  1.
        -12    1    3    3    0    0 -0.92935076966E+01  0.33841670130E+02  0.19224721058E+02  0.40015219882E+02  0.00000000000E+00 0.  1.
</event>
<event>
 7    1  0.5022032E-011  0.4778727E+02  0.7816164E-02  0.1312668E+00
        -11   -1    0    0    0    0  0.00000000000E+00  0.00000000000E+00  0.45593999997E+02  0.45594000000E+02  0.51100000000E-03 0. -1.
         11   -1    0    0    0    0 -0.00000000000E+00 -0.00000000000E+00 -0.45593999997E+02  0.45594000000E+02  0.51100000000E-03 0.  1.
    9900012    2    1    2    0    0  0.58191626831E+01  0.96349563401E+00  0.42998052210E+02  0.47787268762E+02  0.19999989593E+02 0.  0.
        -12    1    1    2    0    0 -0.58191626831E+01 -0.96349563401E+00 -0.42998052210E+02  0.43400731238E+02  0.00000000000E+00 0.  1.
         11    1    3    3    0    0  0.28023901435E+01  0.72427410280E+00  0.16334075508E+02  0.16588549860E+02  0.51100000000E-03 0. -1.
        -11    1    3    3    0    0 -0.20501140440E+00  0.78182145311E+01  0.10931571074E+02  0.13441196172E+02  0.51100000000E-03 0.  1.
         12    1    3    3    0    0  0.32217839440E+01 -0.75789929999E+01  0.15732405628E+02  0.17757522730E+02  0.00000000000E+00 0. -1.
</event>
<event>
 7    1  0.5022032E-011  0.4778728E+02  0.7816164E-02  0.1312668E+00
        -11   -1    0    0    0    0  0.00000000000E+00  0.00000000000E+00  0.45593999997E+02  0.45594000000E+02  0.51100000000E-03 0. -1.
         11   -1    0    0    0    0 -0.00000000000E+00 -0.00000000000E+00 -0.45593999997E+02  0.45594000000E+02  0.51100000000E-03 0.  1.
    9900012    2    1    2    0    0  0.97303361294E+01  0.72206939235E+01  0.41674990654E+02  0.47787277564E+02  0.20000029726E+02 0.  0.
        -12    1    1    2    0    0 -0.97303361294E+01 -0.72206939235E+01 -0.41674990654E+02  0.43400722436E+02  0.00000000000E+00 0.  1.
         11    1    3    3    0    0 -0.29227891152E+01  0.48509900213E+00  0.15484433121E+02  0.15765331794E+02  0.51100000000E-03 0. -1.
        -11    1    3    3    0    0 -0.96141021692E+00 -0.18779259287E+01  0.17091589384E+01  0.27151684914E+01  0.51100000000E-03 0.  1.
        -12    1    3    3    0    0  0.13614535461E+02  0.86135208501E+01  0.24481398595E+02  0.29306777278E+02  0.00000000000E+00 0.  1.
</event>
<event>
 7    1  0.5022032E-011  0.4778727E+02  0.7816164E-02  0.1312668E+00
        -11   -1    0    0    0    0  0.00000000000E+00  0.00000000000E+00  0.45593999997E+02  0.45594000000E+02  0.51100000000E-03 0. -1.
         11   -1    0    0    0    0 -0.00000000000E+00 -0.00000000000E+00 -0.45593999997E+02  0.45594000000E+02  0.51100000000E-03 0.  1.
    9900012    2    1    2    0    0 -0.38200090274E+02  0.97297443074E+01  0.18157871901E+02  0.47787272665E+02  0.20000007388E+02 0.  0.
        -12    1    1    2    0    0  0.38200090274E+02 -0.97297443074E+01 -0.18157871901E+02  0.43400727335E+02  0.00000000000E+00 0.  1.
         11    1    3    3    0    0 -0.16297865958E+02  0.10002301472E+02  0.64461528591E+01  0.20179676818E+02  0.51100000000E-03 0. -1.
        -11    1    3    3    0    0 -0.22293634331E+02  0.21664260697E+01  0.11352808149E+02  0.25111467235E+02  0.51100000000E-03 0.  1.
        -12    1    3    3    0    0  0.39141001439E+00 -0.24389832344E+01  0.35891089286E+00  0.24961286117E+01  0.00000000000E+00 0.  1.
</event>
<event>
 7    1  0.5022032E-011  0.4778727E+02  0.7816164E-02  0.1312668E+00
        -11   -1    0    0    0    0  0.00000000000E+00  0.00000000000E+00  0.45593999997E+02  0.45594000000E+02  0.51100000000E-03 0. -1.
         11   -1    0    0    0    0 -0.00000000000E+00 -0.00000000000E+00 -0.45593999997E+02  0.45594000000E+02  0.51100000000E-03 0.  1.
    9900012    2    1    2    0    0 -0.69989014117E+01  0.26805662635E+01 -0.42748724400E+02  0.47787268505E+02  0.19999988422E+02 0.  0.
         12    1    1    2    0    0  0.69989014117E+01 -0.26805662635E+01  0.42748724400E+02  0.43400731495E+02  0.00000000000E+00 0. -1.
         11    1    3    3    0    0  0.26204007520E+01  0.24190573552E+01 -0.11653677366E+02  0.12187146302E+02  0.51100000000E-03 0. -1.
        -11    1    3    3    0    0 -0.92942032519E+01  0.59977987062E+01 -0.24316641911E+02  0.26714319709E+02  0.51100000000E-03 0.  1.
         12    1    3    3    0    0 -0.32509891175E+00 -0.57362897978E+01 -0.67784051233E+01  0.88858024940E+01  0.00000000000E+00 0. -1.
</event>
<event>
 7    1  0.5022032E-011  0.4778729E+02  0.7816164E-02  0.1312668E+00
        -11   -1    0    0    0    0  0.00000000000E+00  0.00000000000E+00  0.45593999997E+02  0.45594000000E+02  0.51100000000E-03 0. -1.
         11   -1    0    0    0    0 -0.00000000000E+00 -0.00000000000E+00 -0.45593999997E+02  0.45594000000E+02  0.51100000000E-03 0.  1.
    9900012    2    1    2    0    0  0.69751980306E+01 -0.38702042379E+02  0.18360821374E+02  0.47787294552E+02  0.20000107179E+02 0.  0.
        -12    1    1    2    0    0 -0.69751980306E+01  0.38702042379E+02 -0.18360821374E+02  0.43400705448E+02  0.00000000000E+00 0.  1.
         11    1    3    3    0    0 -0.93653571100E+00 -0.14830776745E+02  0.63180242702E+01  0.16147645925E+02  0.51100000000E-03 0. -1.
        -11    1    3    3    0    0 -0.44954466893E+01 -0.63123067178E+01  0.35297774859E+01  0.85154909663E+01  0.51100000000E-03 0.  1.
         12    1    3    3    0    0  0.12407180431E+02 -0.17558958916E+02  0.85130196182E+01  0.23124157660E+02  0.00000000000E+00 0. -1.
</event>
<event>
 7    1  0.5022032E-011  0.4778727E+02  0.7816164E-02  0.1312668E+00
        -11   -1    0    0    0    0  0.00000000000E+00  0.00000000000E+00  0.45593999997E+02  0.45594000000E+02  0.51100000000E-03 0. -1.
         11   -1    0    0    0    0 -0.00000000000E+00 -0.00000000000E+00 -0.45593999997E+02  0.45594000000E+02  0.51100000000E-03 0.  1.
    9900012    2    1    2    0    0 -0.30123835881E+02 -0.14785961638E+02  0.27523678976E+02  0.47787273576E+02  0.20000011541E+02 0.  0.
        -12    1    1    2    0    0  0.30123835881E+02  0.14785961638E+02 -0.27523678976E+02  0.43400726424E+02  0.00000000000E+00 0.  1.
         11    1    3    3    0    0 -0.55567675343E+01 -0.14828117334E+01  0.11413035222E+02  0.12780210065E+02  0.51100000000E-03 0. -1.
        -11    1    3    3    0    0 -0.51522619109E+00 -0.58871466035E+01  0.31598158653E+01  0.67013722268E+01  0.51100000000E-03 0.  1.
        -12    1    3    3    0    0 -0.24051842156E+02 -0.74160033014E+01  0.12950827889E+02  0.28305691284E+02  0.00000000000E+00 0.  1.
</event>
<event>
 7    1  0.5022032E-011  0.4778728E+02  0.7816164E-02  0.1312668E+00
        -11   -1    0    0    0    0  0.00000000000E+00  0.00000000000E+00  0.45593999997E+02  0.45594000000E+02  0.51100000000E-03 0. -1.
         11   -1    0    0    0    0 -0.00000000000E+00 -0.00000000000E+00 -0.45593999997E+02  0.45594000000E+02  0.51100000000E-03 0.  1.
    9900012    2    1    2    0    0 -0.10209251460E+02  0.14349883533E+02  0.39667051206E+02  0.47787275073E+02  0.20000018369E+02 0.  0.
        -12    1    1    2    0    0  0.10209251460E+02 -0.14349883533E+02 -0.39667051206E+02  0.43400724927E+02  0.00000000000E+00 0.  1.
         11    1    3    3    0    0 -0.10074438146E+02  0.11880414551E+02  0.31710866215E+02  0.35330122987E+02  0.51100000000E-03 0. -1.
        -11    1    3    3    0    0 -0.57208891502E+00  0.32721645399E+01  0.98279332794E+01  0.10374132219E+02  0.51100000000E-03 0.  1.
        -12    1    3    3    0    0  0.43727560069E+00 -0.80269555850E+00 -0.18717482887E+01  0.20830198671E+01  0.00000000000E+00 0.  1.
</event>
<event>
 7    1  0.5022032E-011  0.4778727E+02  0.7816164E-02  0.1312668E+00
        -11   -1    0    0    0    0  0.00000000000E+00  0.00000000000E+00  0.45593999997E+02  0.45594000000E+02  0.51100000000E-03 0.  1.
         11   -1    0    0    0    0 -0.00000000000E+00 -0.00000000000E+00 -0.45593999997E+02  0.45594000000E+02  0.51100000000E-03 0. -1.
    9900012    2    1    2    0    0 -0.18155892871E+02 -0.33723521969E+02  0.20413497791E+02  0.47787271066E+02  0.20000000099E+02 0.  0.
        -12    1    1    2    0    0  0.18155892871E+02  0.33723521969E+02 -0.20413497791E+02  0.43400728934E+02  0.00000000000E+00 0.  1.
         11    1    3    3    0    0 -0.27526984500E+01 -0.94983591189E+01  0.60008071368E+00  0.99073847121E+01  0.51100000000E-03 0. -1.
        -11    1    3    3    0    0 -0.25941453738E+01 -0.12745810175E+01 -0.21707043135E+01  0.36147066919E+01  0.51100000000E-03 0.  1.
        -12    1    3    3    0    0 -0.12809049047E+02 -0.22950581832E+02  0.21984121391E+02  0.34265179662E+02  0.00000000000E+00 0.  1.
</event>
<event>
 7    1  0.5022032E-011  0.4778727E+02  0.7816164E-02  0.1312668E+00
        -11   -1    0    0    0    0  0.00000000000E+00  0.00000000000E+00  0.45593999997E+02  0.45594000000E+02  0.51100000000E-03 0. -1.
         11   -1    0    0    0    0 -0.00000000000E+00 -0.00000000000E+00 -0.45593999997E+02  0.45594000000E+02  0.51100000000E-03 0.  1.
    9900012    2    1    2    0    0  0.26996491632E+02  0.38547629423E+01 -0.33763195700E+02  0.47787272568E+02  0.20000006945E+02 0.  0.
         12    1    1    2    0    0 -0.26996491632E+02 -0.38547629423E+01  0.33763195700E+02  0.43400727432E+02  0.00000000000E+00 0. -1.
         11    1    3    3    0    0  0.19716711927E+02  0.49582471813E+01 -0.11859018881E+02  0.23536551858E+02  0.51100000000E-03 0. -1.
        -11    1    3    3    0    0  0.20812141424E+00  0.14659389890E+01 -0.50023232632E+00  0.15628577299E+01  0.51100000000E-03 0.  1.
        -12    1    3    3    0    0  0.70716582908E+01 -0.25694232279E+01 -0.21403944493E+02  0.22687862979E+02  0.00000000000E+00 0.  1.
</event>
<event>
 7    1  0.5022032E-011  0.4778727E+02  0.7816164E-02  0.1312668E+00
        -11   -1    0    0    0    0  0.00000000000E+00  0.00000000000E+00  0.45593999997E+02  0.45594000000E+02  0.51100000000E-03 0. -1.
         11   -1    0    0    0    0 -0.00000000000E+00 -0.00000000000E+00 -0.45593999997E+02  0.45594000000E+02  0.51100000000E-03 0.  1.
    9900012    2    1    2    0    0 -0.25526357457E+02 -0.12821893571E+02  0.32674570547E+02  0.47787269128E+02  0.19999991264E+02 0.  0.
        -12    1    1    2    0    0  0.25526357457E+02  0.12821893571E+02 -0.32674570547E+02  0.43400730872E+02  0.00000000000E+00 0.  1.
         11    1    3    3    0    0 -0.11749232666E+02  0.93387837033E+00  0.85429533508E+01  0.14556738964E+02  0.51100000000E-03 0. -1.
        -11    1    3    3    0    0  0.81154764550E+00  0.15185254485E+01  0.19426916785E+01  0.25958775660E+01  0.51100000000E-03 0.  1.
        -12    1    3    3    0    0 -0.14588672437E+02 -0.15274297390E+02  0.22188925518E+02  0.30634652599E+02  0.00000000000E+00 0.  1.
</event>
<event>
 7    1  0.5022032E-011  0.4778727E+02  0.7816164E-02  0.1312668E+00
        -11   -1    0    0    0    0  0.00000000000E+00  0.00000000000E+00  0.45593999997E+02  0.45594000000E+02  0.51100000000E-03 0. -1.
         11   -1    0    0    0    0 -0.00000000000E+00 -0.00000000000E+00 -0.45593999997E+02  0.45594000000E+02  0.51100000000E-03 0.  1.
    9900012    2    1    2    0    0 -0.30624833056E+02  0.13667942892E+02 -0.27548690027E+02  0.47787269767E+02  0.19999994174E+02 0.  0.
         12    1    1    2    0    0  0.30624833056E+02 -0.13667942892E+02  0.27548690027E+02  0.43400730233E+02  0.00000000000E+00 0. -1.
         11    1    3    3    0    0 -0.12670377461E+02  0.25599452042E+01 -0.12393641494E+01  0.12985677041E+02  0.51100000000E-03 0. -1.
        -11    1    3    3    0    0 -0.79986714986E+01  0.94224810276E+01 -0.11533569753E+02  0.16905180447E+02  0.51100000000E-03 0.  1.
        -12    1    3    3    0    0 -0.99557840960E+01  0.16855166602E+01 -0.14775756125E+02  0.17896412278E+02  0.00000000000E+00 0.  1.
</event>
<event>
 7    1  0.5022032E-011  0.4778727E+02  0.7816164E-02  0.1312668E+00
        -11   -1    0    0    0    0  0.00000000000E+00  0.00000000000E+00  0.45593999997E+02  0.45594000000E+02  0.51100000000E-03 0. -1.
         11   -1    0    0    0    0 -0.00000000000E+00 -0.00000000000E+00 -0.45593999997E+02  0.45594000000E+02  0.51100000000E-03 0.  1.
    9900012    2    1    2    0    0 -0.43990819205E+01 -0.54197959782E+01 -0.42835702863E+02  0.47787267864E+02  0.19999985498E+02 0.  0.
         12    1    1    2    0    0  0.43990819205E+01  0.54197959782E+01  0.42835702863E+02  0.43400732136E+02  0.00000000000E+00 0. -1.
         11    1    3    3    0    0  0.36850187949E+01  0.26235650398E+01 -0.25841781207E+01  0.52096481510E+01  0.51100000000E-03 0. -1.
        -11    1    3    3    0    0 -0.45371212685E+01  0.37218169294E+00 -0.10216176455E+02  0.11184554092E+02  0.51100000000E-03 0.  1.
        -12    1    3    3    0    0 -0.35469794469E+01 -0.84155427109E+01 -0.30035348287E+02  0.31393065621E+02  0.00000000000E+00 0.  1.
</event>
<event>
 7    1  0.5022032E-011  0.4778727E+02  0.7816164E-02  0.1312668E+00
        -11   -1    0    0    0    0  0.00000000000E+00  0.00000000000E+00  0.45593999997E+02  0.45594000000E+02  0.51100000000E-03 0. -1.
         11   -1    0    0    0    0 -0.00000000000E+00 -0.00000000000E+00 -0.45593999997E+02  0.45594000000E+02  0.51100000000E-03 0.  1.
    9900012    2    1    2    0    0 -0.25963895523E+02 -0.26320337843E+02  0.22731900422E+02  0.47787270148E+02  0.19999995912E+02 0.  0.
        -12    1    1    2    0    0  0.25963895523E+02  0.26320337843E+02 -0.22731900422E+02  0.43400729852E+02  0.00000000000E+00 0.  1.
         11    1    3    3    0    0 -0.67418566174E+01 -0.63720194196E+01  0.18486912808E+01  0.94590127310E+01  0.51100000000E-03 0.  1.
        -11    1    3    3    0    0 -0.19183680704E+02 -0.90001590631E+01  0.13608279340E+02  0.25183362273E+02  0.51100000000E-03 0. -1.
         12    1    3    3    0    0 -0.38358201603E-01 -0.10948159361E+02  0.72749298014E+01  0.13144895144E+02  0.00000000000E+00 0. -1.
</event>
<event>
 7    1  0.5022032E-011  0.4778727E+02  0.7816164E-02  0.1312668E+00
        -11   -1    0    0    0    0  0.00000000000E+00  0.00000000000E+00  0.45593999997E+02  0.45594000000E+02  0.51100000000E-03 0. -1.
         11   -1    0    0    0    0 -0.00000000000E+00 -0.00000000000E+00 -0.45593999997E+02  0.45594000000E+02  0.51100000000E-03 0.  1.
    9900012    2    1    2    0    0 -0.27044462213E+01  0.20266911295E+02  0.38282654374E+02  0.47787270182E+02  0.19999996070E+02 0.  0.
        -12    1    1    2    0    0  0.27044462213E+01 -0.20266911295E+02 -0.38282654374E+02  0.43400729818E+02  0.00000000000E+00 0.  1.
         11    1    3    3    0    0 -0.16798238140E+01  0.65500831009E+01  0.49175390217E+01  0.83610757062E+01  0.51100000000E-03 0.  1.
        -11    1    3    3    0    0 -0.23773751383E+00  0.15603720204E+01 -0.16913751098E+01  0.23134454804E+01  0.51100000000E-03 0. -1.
         12    1    3    3    0    0 -0.78688489346E+00  0.12156456174E+02  0.35056490462E+02  0.37112748996E+02  0.00000000000E+00 0. -1.
</event>
<event>
 7    1  0.5756001E-011  0.4778727E+02  0.7816164E-02  0.1312668E+00
        -11   -1    0    0    0    0  0.00000000000E+00  0.00000000000E+00  0.45593999997E+02  0.45594000000E+02  0.51100000000E-03 0. -1.
         11   -1    0    0    0    0 -0.00000000000E+00 -0.00000000000E+00 -0.45593999997E+02  0.45594000000E+02  0.51100000000E-03 0.  1.
    9900012    2    1    2    0    0 -0.25522670167E+02  0.11150899062E+02 -0.33284741555E+02  0.47787271173E+02  0.20000000585E+02 0.  0.
         12    1    1    2    0    0  0.25522670167E+02 -0.11150899062E+02  0.33284741555E+02  0.43400728827E+02  0.00000000000E+00 0. -1.
         11    1    3    3    0    0 -0.83122318594E+01  0.24624858470E+01 -0.31880773571E+01  0.92369298215E+01  0.51100000000E-03 0. -1.
        -11    1    3    3    0    0  0.10966834722E+01 -0.24244551354E+01 -0.29439585572E+01  0.39683232718E+01  0.51100000000E-03 0.  1.
        -12    1    3    3    0    0 -0.18307121780E+02  0.11112868350E+02 -0.27152705641E+02  0.34582018079E+02  0.00000000000E+00 0.  1.
</event>
<event>
 7    1  0.5022032E-011  0.4778727E+02  0.7816164E-02  0.1312668E+00
        -11   -1    0    0    0    0  0.00000000000E+00  0.00000000000E+00  0.45593999997E+02  0.45594000000E+02  0.51100000000E-03 0. -1.
         11   -1    0    0    0    0 -0.00000000000E+00 -0.00000000000E+00 -0.45593999997E+02  0.45594000000E+02  0.51100000000E-03 0.  1.
    9900012    2    1    2    0    0  0.26097665836E+02 -0.48652326489E+01 -0.34334597475E+02  0.47787271497E+02  0.20000002062E+02 0.  0.
         12    1    1    2    0    0 -0.26097665836E+02  0.48652326489E+01  0.34334597475E+02  0.43400728503E+02  0.00000000000E+00 0. -1.
         11    1    3    3    0    0 -0.10705617062E+01  0.14391779387E+01  0.17222649266E+00  0.18019427660E+01  0.51100000000E-03 0. -1.
        -11    1    3    3    0    0 -0.34091175029E+00  0.15991969342E+01 -0.30161797053E+01  0.34308879218E+01  0.51100000000E-03 0.  1.
        -12    1    3    3    0    0  0.27509139293E+02 -0.79036075218E+01 -0.31490644262E+02  0.42554440809E+02  0.00000000000E+00 0.  1.
</event>
<event>
 7    1  0.5022032E-011  0.4778727E+02  0.7816164E-02  0.1312668E+00
        -11   -1    0    0    0    0  0.00000000000E+00  0.00000000000E+00  0.45593999997E+02  0.45594000000E+02  0.51100000000E-03 0. -1.
         11   -1    0    0    0    0 -0.00000000000E+00 -0.00000000000E+00 -0.45593999997E+02  0.45594000000E+02  0.51100000000E-03 0.  1.
    9900012    2    1    2    0    0 -0.19244654344E+02  0.25592907069E+02 -0.29296239735E+02  0.47787271024E+02  0.19999999906E+02 0.  0.
         12    1    1    2    0    0  0.19244654344E+02 -0.25592907069E+02  0.29296239735E+02  0.43400728976E+02  0.00000000000E+00 0. -1.
         11    1    3    3    0    0 -0.18161716532E+02  0.18829159958E+02 -0.30955999749E+02  0.40529731468E+02  0.51100000000E-03 0. -1.
        -11    1    3    3    0    0  0.48648436714E-01  0.10269927979E+01 -0.33185516855E+00  0.10803744681E+01  0.51100000000E-03 0.  1.
         12    1    3    3    0    0 -0.11315862492E+01  0.57367543125E+01  0.19916151831E+01  0.61771650876E+01  0.00000000000E+00 0. -1.
</event>
<event>
 7    1  0.5022032E-011  0.4778727E+02  0.7816164E-02  0.1312668E+00
        -11   -1    0    0    0    0  0.00000000000E+00  0.00000000000E+00  0.45593999997E+02  0.45594000000E+02  0.51100000000E-03 0. -1.
         11   -1    0    0    0    0 -0.00000000000E+00 -0.00000000000E+00 -0.45593999997E+02  0.45594000000E+02  0.51100000000E-03 0.  1.
    9900012    2    1    2    0    0  0.13129516923E+02 -0.87254058500E+01 -0.40436450576E+02  0.47787268934E+02  0.19999990376E+02 0.  0.
         12    1    1    2    0    0 -0.13129516923E+02  0.87254058500E+01  0.40436450576E+02  0.43400731066E+02  0.00000000000E+00 0. -1.
         11    1    3    3    0    0 -0.20828785786E+01 -0.34175728026E+01 -0.81994192376E+01  0.91240705351E+01  0.51100000000E-03 0. -1.
        -11    1    3    3    0    0  0.13229781379E+01  0.39050846029E+01 -0.10435656835E+02  0.11220645737E+02  0.51100000000E-03 0.  1.
        -12    1    3    3    0    0  0.13889417364E+02 -0.92129176503E+01 -0.21801374504E+02  0.27442552662E+02  0.00000000000E+00 0.  1.
</event>
<event>
 7    1  0.5022032E-011  0.4778727E+02  0.7816164E-02  0.1312668E+00
        -11   -1    0    0    0    0  0.00000000000E+00  0.00000000000E+00  0.45593999997E+02  0.45594000000E+02  0.51100000000E-03 0. -1.
         11   -1    0    0    0    0 -0.00000000000E+00 -0.00000000000E+00 -0.45593999997E+02  0.45594000000E+02  0.51100000000E-03 0.  1.
    9900012    2    1    2    0    0  0.75806789193E+01  0.14707844272E+02  0.40122761877E+02  0.47787269630E+02  0.19999993552E+02 0.  0.
        -12    1    1    2    0    0 -0.75806789193E+01 -0.14707844272E+02 -0.40122761877E+02  0.43400730370E+02  0.00000000000E+00 0.  1.
         11    1    3    3    0    0 -0.48345942549E+00  0.29617862475E+00 -0.11065287998E+01  0.12433266022E+01  0.51100000000E-03 0. -1.
        -11    1    3    3    0    0  0.90279052342E+01  0.40316521803E+01  0.12223258552E+02  0.15721492999E+02  0.51100000000E-03 0.  1.
         12    1    3    3    0    0 -0.96376688943E+00  0.10380013467E+02  0.29006032124E+02  0.30822450029E+02  0.00000000000E+00 0. -1.
</event>
<event>
 7    1  0.5022032E-011  0.4778727E+02  0.7816164E-02  0.1312668E+00
        -11   -1    0    0    0    0  0.00000000000E+00  0.00000000000E+00  0.45593999997E+02  0.45594000000E+02  0.51100000000E-03 0. -1.
         11   -1    0    0    0    0 -0.00000000000E+00 -0.00000000000E+00 -0.45593999997E+02  0.45594000000E+02  0.51100000000E-03 0.  1.
    9900012    2    1    2    0    0 -0.10195922250E+02  0.14229695652E+02  0.39713752392E+02  0.47787271919E+02  0.20000003988E+02 0.  0.
        -12    1    1    2    0    0  0.10195922250E+02 -0.14229695652E+02 -0.39713752392E+02  0.43400728081E+02  0.00000000000E+00 0.  1.
         11    1    3    3    0    0 -0.65817104360E+01  0.32456179437E+01  0.67441091396E+01  0.99667425193E+01  0.51100000000E-03 0. -1.
        -11    1    3    3    0    0 -0.10760816365E+01 -0.16266245929E+01 -0.45784733596E+00  0.20033680887E+01  0.51100000000E-03 0.  1.
         12    1    3    3    0    0 -0.25381301772E+01  0.12610702301E+02  0.33427490589E+02  0.35817161311E+02  0.00000000000E+00 0. -1.
</event>
<event>
 7    1  0.5022032E-011  0.4778727E+02  0.7816164E-02  0.1312668E+00
        -11   -1    0    0    0    0  0.00000000000E+00  0.00000000000E+00  0.45593999997E+02  0.45594000000E+02  0.51100000000E-03 0. -1.
         11   -1    0    0    0    0 -0.00000000000E+00 -0.00000000000E+00 -0.45593999997E+02  0.45594000000E+02  0.51100000000E-03 0.  1.
    9900012    2    1    2    0    0 -0.15803087172E+02  0.35186455755E+02 -0.19894694285E+02  0.47787273123E+02  0.20000009477E+02 0.  0.
         12    1    1    2    0    0  0.15803087172E+02 -0.35186455755E+02  0.19894694285E+02  0.43400726877E+02  0.00000000000E+00 0. -1.
         11    1    3    3    0    0 -0.33483744381E+01 -0.17631690164E+01 -0.39310675662E-03  0.37842273681E+01  0.51100000000E-03 0. -1.
        -11    1    3    3    0    0 -0.55465699626E+01  0.10081047761E+02 -0.59229515685E+01  0.12941148243E+02  0.51100000000E-03 0.  1.
         12    1    3    3    0    0 -0.69081427709E+01  0.26868577010E+02 -0.13971349610E+02  0.31061897512E+02  0.00000000000E+00 0. -1.
</event>
<event>
 7    1  0.5022032E-011  0.4778727E+02  0.7816164E-02  0.1312668E+00
        -11   -1    0    0    0    0  0.00000000000E+00  0.00000000000E+00  0.45593999997E+02  0.45594000000E+02  0.51100000000E-03 0. -1.
         11   -1    0    0    0    0 -0.00000000000E+00 -0.00000000000E+00 -0.45593999997E+02  0.45594000000E+02  0.51100000000E-03 0.  1.
    9900012    2    1    2    0    0  0.11307043544E+02  0.35586023268E+02  0.22122585872E+02  0.47787273146E+02  0.20000009584E+02 0.  0.
        -12    1    1    2    0    0 -0.11307043544E+02 -0.35586023268E+02 -0.22122585872E+02  0.43400726854E+02  0.00000000000E+00 0.  1.
         11    1    3    3    0    0  0.81665342039E+01  0.11199627075E+02  0.44083488034E+01  0.14545015193E+02  0.51100000000E-03 0. -1.
        -11    1    3    3    0    0  0.73601480519E+01  0.13963663478E+02  0.56883792988E+01  0.16778359169E+02  0.51100000000E-03 0.  1.
         12    1    3    3    0    0 -0.42196387119E+01  0.10422732714E+02  0.12025857770E+02  0.16463898785E+02  0.00000000000E+00 0. -1.
</event>
<event>
 7    1  0.5022032E-011  0.4778727E+02  0.7816164E-02  0.1312668E+00
        -11   -1    0    0    0    0  0.00000000000E+00  0.00000000000E+00  0.45593999997E+02  0.45594000000E+02  0.51100000000E-03 0.  1.
         11   -1    0    0    0    0 -0.00000000000E+00 -0.00000000000E+00 -0.45593999997E+02  0.45594000000E+02  0.51100000000E-03 0. -1.
    9900012    2    1    2    0    0  0.30161558169E+02 -0.30440425707E+02 -0.68763501377E+01  0.47787270748E+02  0.19999998646E+02 0.  0.
         12    1    1    2    0    0 -0.30161558169E+02  0.30440425707E+02  0.68763501377E+01  0.43400729252E+02  0.00000000000E+00 0. -1.
         11    1    3    3    0    0  0.19655018947E+02 -0.12273708344E+02 -0.20460904481E+01  0.23262634690E+02  0.51100000000E-03 0. -1.
        -11    1    3    3    0    0  0.12386872279E+02 -0.14235635655E+02 -0.12974543537E+01  0.18914843785E+02  0.51100000000E-03 0.  1.
         12    1    3    3    0    0 -0.18803330568E+01 -0.39310817079E+01 -0.35328053359E+01  0.56097922725E+01  0.00000000000E+00 0. -1.
</event>
<event>
 7    1  0.5022032E-011  0.4778727E+02  0.7816164E-02  0.1312668E+00
        -11   -1    0    0    0    0  0.00000000000E+00  0.00000000000E+00  0.45593999997E+02  0.45594000000E+02  0.51100000000E-03 0. -1.
         11   -1    0    0    0    0 -0.00000000000E+00 -0.00000000000E+00 -0.45593999997E+02  0.45594000000E+02  0.51100000000E-03 0.  1.
    9900012    2    1    2    0    0  0.10341551039E+01  0.38261753910E+02 -0.20459531809E+02  0.47787265780E+02  0.19999975996E+02 0.  0.
         12    1    1    2    0    0 -0.10341551039E+01 -0.38261753910E+02  0.20459531809E+02  0.43400734220E+02  0.00000000000E+00 0. -1.
         11    1    3    3    0    0 -0.18832824356E+01  0.80176705087E+01  0.25465276689E+01  0.86205914268E+01  0.51100000000E-03 0. -1.
        -11    1    3    3    0    0  0.19247375857E+00  0.23119100745E+02 -0.12805855171E+02  0.26429525011E+02  0.51100000000E-03 0.  1.
        -12    1    3    3    0    0  0.27249637809E+01  0.71249826565E+01 -0.10200204307E+02  0.12737149342E+02  0.00000000000E+00 0.  1.
</event>
<event>
 7    1  0.5022032E-011  0.4778726E+02  0.7816164E-02  0.1312668E+00
        -11   -1    0    0    0    0  0.00000000000E+00  0.00000000000E+00  0.45593999997E+02  0.45594000000E+02  0.51100000000E-03 0.  1.
         11   -1    0    0    0    0 -0.00000000000E+00 -0.00000000000E+00 -0.45593999997E+02  0.45594000000E+02  0.51100000000E-03 0. -1.
    9900012    2    1    2    0    0 -0.41337012922E+02  0.95415199929E+01  0.91561389563E+01  0.47787261277E+02  0.19999955466E+02 0.  0.
        -12    1    1    2    0    0  0.41337012922E+02 -0.95415199929E+01 -0.91561389563E+01  0.43400738723E+02  0.00000000000E+00 0.  1.
         11    1    3    3    0    0 -0.16634491096E+02  0.13723872678E+01  0.36739088171E+01  0.17090563100E+02  0.51100000000E-03 0. -1.
        -11    1    3    3    0    0 -0.19158891918E+02  0.12021094974E+02  0.71905286527E+01  0.23733385061E+02  0.51100000000E-03 0.  1.
        -12    1    3    3    0    0 -0.55436299085E+01 -0.38519622488E+01 -0.17082985136E+01  0.69633131151E+01  0.00000000000E+00 0.  1.
</event>
<event>
 7    1  0.5022032E-011  0.4778727E+02  0.7816164E-02  0.1312668E+00
        -11   -1    0    0    0    0  0.00000000000E+00  0.00000000000E+00  0.45593999997E+02  0.45594000000E+02  0.51100000000E-03 0. -1.
         11   -1    0    0    0    0 -0.00000000000E+00 -0.00000000000E+00 -0.45593999997E+02  0.45594000000E+02  0.51100000000E-03 0.  1.
    9900012    2    1    2    0    0 -0.20219188553E+02  0.15131966009E+01  0.38373400039E+02  0.47787272123E+02  0.20000004919E+02 0.  0.
        -12    1    1    2    0    0  0.20219188553E+02 -0.15131966009E+01 -0.38373400039E+02  0.43400727877E+02  0.00000000000E+00 0.  1.
         11    1    3    3    0    0 -0.16562982835E+02 -0.17907095477E+01  0.34093317245E+02  0.37945926291E+02  0.51100000000E-03 0. -1.
        -11    1    3    3    0    0 -0.22212852436E+01 -0.21991218442E+01  0.10296857864E+01  0.32909722118E+01  0.51100000000E-03 0.  1.
         12    1    3    3    0    0 -0.14349204750E+01  0.55030279928E+01  0.32503970072E+01  0.65503736201E+01  0.00000000000E+00 0. -1.
</event>
<event>
 7    1  0.5022032E-011  0.4778728E+02  0.7816164E-02  0.1312668E+00
        -11   -1    0    0    0    0  0.00000000000E+00  0.00000000000E+00  0.45593999997E+02  0.45594000000E+02  0.51100000000E-03 0. -1.
         11   -1    0    0    0    0 -0.00000000000E+00 -0.00000000000E+00 -0.45593999997E+02  0.45594000000E+02  0.51100000000E-03 0.  1.
    9900012    2    1    2    0    0 -0.36603324438E+02  0.95229769341E+01  0.21286904313E+02  0.47787277140E+02  0.20000027791E+02 0.  0.
        -12    1    1    2    0    0  0.36603324438E+02 -0.95229769341E+01 -0.21286904313E+02  0.43400722860E+02  0.00000000000E+00 0.  1.
         11    1    3    3    0    0 -0.56415014998E+01  0.21383288879E+01  0.92093414211E+01  0.11009584882E+02  0.51100000000E-03 0. -1.
        -11    1    3    3    0    0  0.21314336634E+00  0.17803655009E+01 -0.14785255663E+01  0.23240416353E+01  0.51100000000E-03 0.  1.
         12    1    3    3    0    0 -0.31174966304E+02  0.56042825453E+01  0.13556088458E+02  0.34453650622E+02  0.00000000000E+00 0. -1.
</event>
<event>
 7    1  0.5022032E-011  0.4778727E+02  0.7816164E-02  0.1312668E+00
        -11   -1    0    0    0    0  0.00000000000E+00  0.00000000000E+00  0.45593999997E+02  0.45594000000E+02  0.51100000000E-03 0. -1.
         11   -1    0    0    0    0 -0.00000000000E+00 -0.00000000000E+00 -0.45593999997E+02  0.45594000000E+02  0.51100000000E-03 0.  1.
    9900012    2    1    2    0    0  0.12497862887E+02 -0.13524588677E+02  0.39300284717E+02  0.47787268964E+02  0.19999990516E+02 0.  0.
        -12    1    1    2    0    0 -0.12497862887E+02  0.13524588677E+02 -0.39300284717E+02  0.43400731036E+02  0.00000000000E+00 0.  1.
         11    1    3    3    0    0  0.78988884311E+01 -0.11028864526E+02  0.22785393815E+02  0.26517964906E+02  0.51100000000E-03 0. -1.
        -11    1    3    3    0    0  0.30994757408E+01 -0.29024378260E+00  0.17965603690E+02  0.18233318610E+02  0.51100000000E-03 0.  1.
        -12    1    3    3    0    0  0.14994987156E+01 -0.22054803682E+01 -0.14507127881E+01  0.30359854489E+01  0.00000000000E+00 0.  1.
</event>
<event>
 7    1  0.5022032E-011  0.4778728E+02  0.7816164E-02  0.1312668E+00
        -11   -1    0    0    0    0  0.00000000000E+00  0.00000000000E+00  0.45593999997E+02  0.45594000000E+02  0.51100000000E-03 0. -1.
         11   -1    0    0    0    0 -0.00000000000E+00 -0.00000000000E+00 -0.45593999997E+02  0.45594000000E+02  0.51100000000E-03 0.  1.
    9900012    2    1    2    0    0  0.59631500268E+01 -0.31527005316E+02 -0.29225178318E+02  0.47787282608E+02  0.20000052723E+02 0.  0.
         12    1    1    2    0    0 -0.59631500268E+01  0.31527005316E+02  0.29225178318E+02  0.43400717392E+02  0.00000000000E+00 0. -1.
         11    1    3    3    0    0 -0.49716289526E+01 -0.14235509323E+02 -0.16314439813E+02  0.22215484842E+02  0.51100000000E-03 0. -1.
        -11    1    3    3    0    0  0.95688993481E+00  0.57534604244E+00 -0.22163519070E+01  0.24817085753E+01  0.51100000000E-03 0.  1.
        -12    1    3    3    0    0  0.99778890447E+01 -0.17866842035E+02 -0.10694386598E+02  0.23090089190E+02  0.00000000000E+00 0.  1.
</event>
<event>
 7    1  0.5022032E-011  0.4778727E+02  0.7816164E-02  0.1312668E+00
        -11   -1    0    0    0    0  0.00000000000E+00  0.00000000000E+00  0.45593999997E+02  0.45594000000E+02  0.51100000000E-03 0. -1.
         11   -1    0    0    0    0 -0.00000000000E+00 -0.00000000000E+00 -0.45593999997E+02  0.45594000000E+02  0.51100000000E-03 0.  1.
    9900012    2    1    2    0    0  0.23795444488E+02  0.23465880475E+02  0.27690299010E+02  0.47787269774E+02  0.19999994209E+02 0.  0.
        -12    1    1    2    0    0 -0.23795444488E+02 -0.23465880475E+02 -0.27690299010E+02  0.43400730226E+02  0.00000000000E+00 0.  1.
         11    1    3    3    0    0  0.23193704896E+02  0.19689664568E+02  0.19919148648E+02  0.36364863821E+02  0.51100000000E-03 0. -1.
        -11    1    3    3    0    0  0.28573829020E+01 -0.10191351326E+01  0.23130825490E+01  0.38149213107E+01  0.51100000000E-03 0.  1.
         12    1    3    3    0    0 -0.22556433097E+01  0.47953510390E+01  0.54580678138E+01  0.76074846427E+01  0.00000000000E+00 0. -1.
</event>
<event>
 7    1  0.5022032E-011  0.4778727E+02  0.7816164E-02  0.1312668E+00
        -11   -1    0    0    0    0  0.00000000000E+00  0.00000000000E+00  0.45593999997E+02  0.45594000000E+02  0.51100000000E-03 0. -1.
         11   -1    0    0    0    0 -0.00000000000E+00 -0.00000000000E+00 -0.45593999997E+02  0.45594000000E+02  0.51100000000E-03 0.  1.
    9900012    2    1    2    0    0  0.38610863876E+02 -0.16411450610E+02  0.11112553454E+02  0.47787269999E+02  0.19999995234E+02 0.  0.
        -12    1    1    2    0    0 -0.38610863876E+02  0.16411450610E+02 -0.11112553454E+02  0.43400730001E+02  0.00000000000E+00 0.  1.
         11    1    3    3    0    0  0.12679746878E+02 -0.50784905115E+01 -0.31046593012E+01  0.14007353655E+02  0.51100000000E-03 0. -1.
        -11    1    3    3    0    0 -0.74000051542E+00  0.55106208507E+00  0.18550861108E+01  0.20718626701E+01  0.51100000000E-03 0.  1.
         12    1    3    3    0    0  0.26671117513E+02 -0.11884022183E+02  0.12362126644E+02  0.31708053674E+02  0.00000000000E+00 0. -1.
</event>
<event>
 7    1  0.5022032E-011  0.4778727E+02  0.7816164E-02  0.1312668E+00
        -11   -1    0    0    0    0  0.00000000000E+00  0.00000000000E+00  0.45593999997E+02  0.45594000000E+02  0.51100000000E-03 0. -1.
         11   -1    0    0    0    0 -0.00000000000E+00 -0.00000000000E+00 -0.45593999997E+02  0.45594000000E+02  0.51100000000E-03 0.  1.
    9900012    2    1    2    0    0 -0.12814417118E+02  0.38515725074E+01  0.41286558360E+02  0.47787265005E+02  0.19999972465E+02 0.  0.
        -12    1    1    2    0    0  0.12814417118E+02 -0.38515725074E+01 -0.41286558360E+02  0.43400734995E+02  0.00000000000E+00 0.  1.
         11    1    3    3    0    0 -0.92681715431E+01  0.49443001584E+01  0.22362443693E+02  0.24706760127E+02  0.51100000000E-03 0. -1.
        -11    1    3    3    0    0  0.47057927648E+01 -0.70677135155E+00  0.88881353873E+01  0.10081813439E+02  0.51100000000E-03 0.  1.
         12    1    3    3    0    0 -0.82520383394E+01 -0.38595629952E+00  0.10035979280E+02  0.12998691439E+02  0.00000000000E+00 0. -1.
</event>
<event>
 7    1  0.5022032E-011  0.4778728E+02  0.7816164E-02  0.1312668E+00
        -11   -1    0    0    0    0  0.00000000000E+00  0.00000000000E+00  0.45593999997E+02  0.45594000000E+02  0.51100000000E-03 0. -1.
         11   -1    0    0    0    0 -0.00000000000E+00 -0.00000000000E+00 -0.45593999997E+02  0.45594000000E+02  0.51100000000E-03 0.  1.
    9900012    2    1    2    0    0  0.14527296503E+02 -0.23859618661E+02 -0.33215944533E+02  0.47787277454E+02  0.20000029222E+02 0.  0.
         12    1    1    2    0    0 -0.14527296503E+02  0.23859618661E+02  0.33215944533E+02  0.43400722546E+02  0.00000000000E+00 0. -1.
         11    1    3    3    0    0  0.21735373254E+01  0.38312831475E+00  0.11579456310E+00  0.22100815488E+01  0.51100000000E-03 0. -1.
        -11    1    3    3    0    0  0.26998693664E+01 -0.11647384938E+02 -0.47102132439E+01  0.12850563395E+02  0.51100000000E-03 0.  1.
         12    1    3    3    0    0  0.96538898114E+01 -0.12595362037E+02 -0.28621525852E+02  0.32726632510E+02  0.00000000000E+00 0. -1.
</event>
<event>
 7    1  0.5022032E-011  0.4778727E+02  0.7816164E-02  0.1312668E+00
        -11   -1    0    0    0    0  0.00000000000E+00  0.00000000000E+00  0.45593999997E+02  0.45594000000E+02  0.51100000000E-03 0. -1.
         11   -1    0    0    0    0 -0.00000000000E+00 -0.00000000000E+00 -0.45593999997E+02  0.45594000000E+02  0.51100000000E-03 0.  1.
    9900012    2    1    2    0    0 -0.35774409537E+02 -0.21974221312E+02  0.10997670213E+02  0.47787268093E+02  0.19999986543E+02 0.  0.
        -12    1    1    2    0    0  0.35774409537E+02  0.21974221312E+02 -0.10997670213E+02  0.43400731907E+02  0.00000000000E+00 0.  1.
         11    1    3    3    0    0 -0.14795220578E+02 -0.46349775346E+01  0.67701542910E+01  0.16917935988E+02  0.51100000000E-03 0. -1.
        -11    1    3    3    0    0 -0.19620609382E+02 -0.15379276825E+02  0.81934309839E+01  0.26241623039E+02  0.51100000000E-03 0.  1.
        -12    1    3    3    0    0 -0.13585795766E+01 -0.19599669527E+01 -0.39659150620E+01  0.46277090662E+01  0.00000000000E+00 0.  1.
</event>
<event>
 7    1  0.5022032E-011  0.4778727E+02  0.7816164E-02  0.1312668E+00
        -11   -1    0    0    0    0  0.00000000000E+00  0.00000000000E+00  0.45593999997E+02  0.45594000000E+02  0.51100000000E-03 0. -1.
         11   -1    0    0    0    0 -0.00000000000E+00 -0.00000000000E+00 -0.45593999997E+02  0.45594000000E+02  0.51100000000E-03 0.  1.
    9900012    2    1    2    0    0  0.91497010965E+00  0.27071485628E+02 -0.33910483825E+02  0.47787269388E+02  0.19999992448E+02 0.  0.
         12    1    1    2    0    0 -0.91497010965E+00 -0.27071485628E+02  0.33910483825E+02  0.43400730612E+02  0.00000000000E+00 0. -1.
         11    1    3    3    0    0 -0.12338690101E+01  0.49191431048E+00 -0.53409076907E+01  0.55036086020E+01  0.51100000000E-03 0. -1.
        -11    1    3    3    0    0 -0.19104290531E+01  0.24715677851E+02 -0.28558783570E+02  0.37816908786E+02  0.51100000000E-03 0.  1.
         12    1    3    3    0    0  0.40592681729E+01  0.18638934666E+01 -0.10792563797E-01  0.44667520004E+01  0.00000000000E+00 0. -1.
</event>
<event>
 7    1  0.5022032E-011  0.4778726E+02  0.7816164E-02  0.1312668E+00
        -11   -1    0    0    0    0  0.00000000000E+00  0.00000000000E+00  0.45593999997E+02  0.45594000000E+02  0.51100000000E-03 0.  1.
         11   -1    0    0    0    0 -0.00000000000E+00 -0.00000000000E+00 -0.45593999997E+02  0.45594000000E+02  0.51100000000E-03 0. -1.
    9900012    2    1    2    0    0 -0.35143953079E+02  0.15521386668E+02  0.20189434980E+02  0.47787260756E+02  0.19999953090E+02 0.  0.
        -12    1    1    2    0    0  0.35143953079E+02 -0.15521386668E+02 -0.20189434980E+02  0.43400739244E+02  0.00000000000E+00 0.  1.
         11    1    3    3    0    0 -0.18330902010E+02  0.43163781604E+01  0.92285239791E+01  0.20971855998E+02  0.51100000000E-03 0. -1.
        -11    1    3    3    0    0 -0.16169976498E+02  0.12798297883E+02  0.58681376990E+01  0.21440606543E+02  0.51100000000E-03 0.  1.
        -12    1    3    3    0    0 -0.64307457132E+00 -0.15932893752E+01  0.50927733020E+01  0.53747982142E+01  0.00000000000E+00 0.  1.
</event>
<event>
 7    1  0.5022032E-011  0.4778727E+02  0.7816164E-02  0.1312668E+00
        -11   -1    0    0    0    0  0.00000000000E+00  0.00000000000E+00  0.45593999997E+02  0.45594000000E+02  0.51100000000E-03 0.  1.
         11   -1    0    0    0    0 -0.00000000000E+00 -0.00000000000E+00 -0.45593999997E+02  0.45594000000E+02  0.51100000000E-03 0. -1.
    9900012    2    1    2    0    0 -0.30551796422E+02 -0.29741028638E+02 -0.81044588790E+01  0.47787270711E+02  0.19999998481E+02 0.  0.
         12    1    1    2    0    0  0.30551796422E+02  0.29741028638E+02  0.81044588790E+01  0.43400729289E+02  0.00000000000E+00 0. -1.
         11    1    3    3    0    0 -0.12621344592E+02 -0.16223408660E+02 -0.46329839290E+01  0.21070402659E+02  0.51100000000E-03 0. -1.
        -11    1    3    3    0    0 -0.19622306179E+02 -0.11796939270E+02 -0.55199994644E+01  0.23551498259E+02  0.51100000000E-03 0.  1.
        -12    1    3    3    0    0  0.16918543493E+01 -0.17206807087E+01  0.20485245144E+01  0.31653697930E+01  0.00000000000E+00 0.  1.
</event>
<event>
 7    1  0.5022032E-011  0.4778730E+02  0.7816164E-02  0.1312668E+00
        -11   -1    0    0    0    0  0.00000000000E+00  0.00000000000E+00  0.45593999997E+02  0.45594000000E+02  0.51100000000E-03 0. -1.
         11   -1    0    0    0    0 -0.00000000000E+00 -0.00000000000E+00 -0.45593999997E+02  0.45594000000E+02  0.51100000000E-03 0.  1.
    9900012    2    1    2    0    0  0.31684647865E+02  0.13142769777E+02  0.26588928018E+02  0.47787304143E+02  0.20000150910E+02 0.  0.
        -12    1    1    2    0    0 -0.31684647865E+02 -0.13142769777E+02 -0.26588928018E+02  0.43400695857E+02  0.00000000000E+00 0.  1.
         11    1    3    3    0    0  0.50522309320E-01 -0.45520132416E+00  0.13433061516E+01  0.14192365650E+01  0.51100000000E-03 0. -1.
        -11    1    3    3    0    0  0.14312335199E+02  0.61619141196E+01  0.22425573360E+02  0.27307846222E+02  0.51100000000E-03 0.  1.
         12    1    3    3    0    0  0.17321790356E+02  0.74360569815E+01  0.28200485061E+01  0.19060221357E+02  0.00000000000E+00 0. -1.
</event>
<event>
 7    1  0.5022032E-011  0.4778727E+02  0.7816164E-02  0.1312668E+00
        -11   -1    0    0    0    0  0.00000000000E+00  0.00000000000E+00  0.45593999997E+02  0.45594000000E+02  0.51100000000E-03 0. -1.
         11   -1    0    0    0    0 -0.00000000000E+00 -0.00000000000E+00 -0.45593999997E+02  0.45594000000E+02  0.51100000000E-03 0.  1.
    9900012    2    1    2    0    0  0.14316850638E+02 -0.56031769586E+01 -0.40586394397E+02  0.47787271730E+02  0.20000003126E+02 0.  0.
         12    1    1    2    0    0 -0.14316850638E+02  0.56031769586E+01  0.40586394397E+02  0.43400728270E+02  0.00000000000E+00 0. -1.
         11    1    3    3    0    0  0.18274142400E+01 -0.61392732947E+00 -0.16268441717E+02  0.16382263145E+02  0.51100000000E-03 0. -1.
        -11    1    3    3    0    0  0.80627631139E+01  0.33879324237E+01 -0.18013739870E+02  0.20024511467E+02  0.51100000000E-03 0.  1.
        -12    1    3    3    0    0  0.44266732836E+01 -0.83771820528E+01 -0.63042128094E+01  0.11380497118E+02  0.00000000000E+00 0.  1.
</event>
<event>
 7    1  0.5022032E-011  0.4778727E+02  0.7816164E-02  0.1312668E+00
        -11   -1    0    0    0    0  0.00000000000E+00  0.00000000000E+00  0.45593999997E+02  0.45594000000E+02  0.51100000000E-03 0. -1.
         11   -1    0    0    0    0 -0.00000000000E+00 -0.00000000000E+00 -0.45593999997E+02  0.45594000000E+02  0.51100000000E-03 0.  1.
    9900012    2    1    2    0    0 -0.19515804189E+02  0.36076273551E+02  0.14186587110E+02  0.47787269818E+02  0.19999994410E+02 0.  0.
        -12    1    1    2    0    0  0.19515804189E+02 -0.36076273551E+02 -0.14186587110E+02  0.43400730182E+02  0.00000000000E+00 0.  1.
         11    1    3    3    0    0 -0.91824216685E+00  0.12329549954E+02  0.22577785131E+01  0.12568155585E+02  0.51100000000E-03 0. -1.
        -11    1    3    3    0    0 -0.38110465720E+01  0.92260030709E+01  0.10435763956E+02  0.14441204183E+02  0.51100000000E-03 0.  1.
         12    1    3    3    0    0 -0.14786515450E+02  0.14520720526E+02  0.14930446408E+01  0.20777910050E+02  0.00000000000E+00 0. -1.
</event>
<event>
 7    1  0.5022032E-011  0.4778727E+02  0.7816164E-02  0.1312668E+00
        -11   -1    0    0    0    0  0.00000000000E+00  0.00000000000E+00  0.45593999997E+02  0.45594000000E+02  0.51100000000E-03 0. -1.
         11   -1    0    0    0    0 -0.00000000000E+00 -0.00000000000E+00 -0.45593999997E+02  0.45594000000E+02  0.51100000000E-03 0.  1.
    9900012    2    1    2    0    0  0.21271332473E+01  0.38757037671E+01 -0.43174962757E+02  0.47787272073E+02  0.20000004687E+02 0.  0.
         12    1    1    2    0    0 -0.21271332473E+01 -0.38757037671E+01  0.43174962757E+02  0.43400727927E+02  0.00000000000E+00 0. -1.
         11    1    3    3    0    0 -0.11760676028E+01  0.38524723966E+00 -0.16465289332E+02  0.16511732298E+02  0.51100000000E-03 0. -1.
        -11    1    3    3    0    0 -0.36107400864E+00  0.93287399695E+01 -0.16472183632E+02  0.18933795122E+02  0.51100000000E-03 0.  1.
         12    1    3    3    0    0  0.36642748587E+01 -0.58382834421E+01 -0.10237489793E+02  0.12341744652E+02  0.00000000000E+00 0. -1.
</event>
<event>
 7    1  0.5022032E-011  0.4778728E+02  0.7816164E-02  0.1312668E+00
        -11   -1    0    0    0    0  0.00000000000E+00  0.00000000000E+00  0.45593999997E+02  0.45594000000E+02  0.51100000000E-03 0. -1.
         11   -1    0    0    0    0 -0.00000000000E+00 -0.00000000000E+00 -0.45593999997E+02  0.45594000000E+02  0.51100000000E-03 0.  1.
    9900012    2    1    2    0    0  0.18950125918E+02 -0.14578609488E+02 -0.36221260004E+02  0.47787276468E+02  0.20000024726E+02 0.  0.
         12    1    1    2    0    0 -0.18950125918E+02  0.14578609488E+02  0.36221260004E+02  0.43400723532E+02  0.00000000000E+00 0. -1.
         11    1    3    3    0    0  0.16726288452E+01 -0.41064649891E+00  0.14153573216E+00  0.17281060226E+01  0.51100000000E-03 0. -1.
        -11    1    3    3    0    0  0.11866628481E+02 -0.15291108668E+02 -0.35544394207E+02  0.40472692468E+02  0.51100000000E-03 0.  1.
        -12    1    3    3    0    0  0.54108685911E+01  0.11231456793E+01 -0.81840152921E+00  0.55864779773E+01  0.00000000000E+00 0.  1.
</event>
<event>
 7    1  0.5022032E-011  0.4778727E+02  0.7816164E-02  0.1312668E+00
        -11   -1    0    0    0    0  0.00000000000E+00  0.00000000000E+00  0.45593999997E+02  0.45594000000E+02  0.51100000000E-03 0. -1.
         11   -1    0    0    0    0 -0.00000000000E+00 -0.00000000000E+00 -0.45593999997E+02  0.45594000000E+02  0.51100000000E-03 0.  1.
    9900012    2    1    2    0    0  0.17219381328E+02 -0.35760955717E+02  0.17557626995E+02  0.47787270596E+02  0.19999997956E+02 0.  0.
        -12    1    1    2    0    0 -0.17219381328E+02  0.35760955717E+02 -0.17557626995E+02  0.43400729404E+02  0.00000000000E+00 0.  1.
         11    1    3    3    0    0 -0.11382687563E+00 -0.89854317118E+01  0.81551378145E+01  0.12134958287E+02  0.51100000000E-03 0. -1.
        -11    1    3    3    0    0 -0.12489870294E+01 -0.59165597039E+01 -0.36619028791E+00  0.60580312741E+01  0.51100000000E-03 0.  1.
         12    1    3    3    0    0  0.18582195233E+02 -0.20858964301E+02  0.97686794681E+01  0.29594281035E+02  0.00000000000E+00 0. -1.
</event>
<event>
 7    1  0.5022032E-011  0.4778726E+02  0.7816164E-02  0.1312668E+00
        -11   -1    0    0    0    0  0.00000000000E+00  0.00000000000E+00  0.45593999997E+02  0.45594000000E+02  0.51100000000E-03 0. -1.
         11   -1    0    0    0    0 -0.00000000000E+00 -0.00000000000E+00 -0.45593999997E+02  0.45594000000E+02  0.51100000000E-03 0.  1.
    9900012    2    1    2    0    0 -0.21446607888E+02  0.42466009283E+01  0.37491779145E+02  0.47787261380E+02  0.19999955934E+02 0.  0.
        -12    1    1    2    0    0  0.21446607888E+02 -0.42466009283E+01 -0.37491779145E+02  0.43400738620E+02  0.00000000000E+00 0.  1.
         11    1    3    3    0    0 -0.12262560001E+02  0.10673061135E+01  0.25254859885E+02  0.28094794325E+02  0.51100000000E-03 0. -1.
        -11    1    3    3    0    0 -0.59807462233E+01  0.66107205729E+00  0.14010962485E+02  0.15248390461E+02  0.51100000000E-03 0.  1.
        -12    1    3    3    0    0 -0.32033016635E+01  0.25182227576E+01 -0.17740432244E+01  0.44440765932E+01  0.00000000000E+00 0.  1.
</event>
<event>
 7    1  0.5022032E-011  0.4778727E+02  0.7816164E-02  0.1312668E+00
        -11   -1    0    0    0    0  0.00000000000E+00  0.00000000000E+00  0.45593999997E+02  0.45594000000E+02  0.51100000000E-03 0. -1.
         11   -1    0    0    0    0 -0.00000000000E+00 -0.00000000000E+00 -0.45593999997E+02  0.45594000000E+02  0.51100000000E-03 0.  1.
    9900012    2    1    2    0    0 -0.16219493516E+02  0.33191839198E+02 -0.22778352973E+02  0.47787268170E+02  0.19999986894E+02 0.  0.
         12    1    1    2    0    0  0.16219493516E+02 -0.33191839198E+02  0.22778352973E+02  0.43400731830E+02  0.00000000000E+00 0. -1.
         11    1    3    3    0    0 -0.22301783324E+01  0.13362107698E+02 -0.12317983205E+02  0.18309896997E+02  0.51100000000E-03 0. -1.
        -11    1    3    3    0    0 -0.12718636418E+01  0.98226499412E+01  0.52473892686E+00  0.99185402249E+01  0.51100000000E-03 0.  1.
        -12    1    3    3    0    0 -0.12717451541E+02  0.10007081559E+02 -0.10985108695E+02  0.19558830948E+02  0.00000000000E+00 0.  1.
</event>
<event>
 7    1  0.5022032E-011  0.4778728E+02  0.7816164E-02  0.1312668E+00
        -11   -1    0    0    0    0  0.00000000000E+00  0.00000000000E+00  0.45593999997E+02  0.45594000000E+02  0.51100000000E-03 0. -1.
         11   -1    0    0    0    0 -0.00000000000E+00 -0.00000000000E+00 -0.45593999997E+02  0.45594000000E+02  0.51100000000E-03 0.  1.
    9900012    2    1    2    0    0  0.18404052195E+02  0.19195791038E+02  0.34299203938E+02  0.47787275103E+02  0.20000018505E+02 0.  0.
        -12    1    1    2    0    0 -0.18404052195E+02 -0.19195791038E+02 -0.34299203938E+02  0.43400724897E+02  0.00000000000E+00 0.  1.
         11    1    3    3    0    0 -0.16789458791E+01  0.31661799483E+01  0.52403857243E+01  0.63486374547E+01  0.51100000000E-03 0. -1.
        -11    1    3    3    0    0  0.88664764823E+01  0.14444975495E+02  0.23064751197E+02  0.28622621653E+02  0.51100000000E-03 0.  1.
        -12    1    3    3    0    0  0.11216521592E+02  0.15846355947E+01  0.59940670169E+01  0.12816015995E+02  0.00000000000E+00 0.  1.
</event>
<event>
 7    1  0.5022032E-011  0.4778727E+02  0.7816164E-02  0.1312668E+00
        -11   -1    0    0    0    0  0.00000000000E+00  0.00000000000E+00  0.45593999997E+02  0.45594000000E+02  0.51100000000E-03 0.  1.
         11   -1    0    0    0    0 -0.00000000000E+00 -0.00000000000E+00 -0.45593999997E+02  0.45594000000E+02  0.51100000000E-03 0. -1.
    9900012    2    1    2    0    0  0.39089674644E+02  0.12229864093E+02 -0.14354473935E+02  0.47787272339E+02  0.20000005905E+02 0.  0.
        -12    1    1    2    0    0 -0.39089674644E+02 -0.12229864093E+02  0.14354473935E+02  0.43400727661E+02  0.00000000000E+00 0.  1.
         11    1    3    3    0    0  0.76884928325E+01  0.27553756810E+01 -0.35500982574E+00  0.81750259582E+01  0.51100000000E-03 0. -1.
        -11    1    3    3    0    0  0.22889248378E+01 -0.41264999303E+01 -0.45195944660E+00  0.47404056989E+01  0.51100000000E-03 0.  1.
         12    1    3    3    0    0  0.29112256974E+02  0.13600988342E+02 -0.13547504663E+02  0.34871840682E+02  0.00000000000E+00 0. -1.
</event>
<event>
 7    1  0.5022032E-011  0.4778727E+02  0.7816164E-02  0.1312668E+00
        -11   -1    0    0    0    0  0.00000000000E+00  0.00000000000E+00  0.45593999997E+02  0.45594000000E+02  0.51100000000E-03 0. -1.
         11   -1    0    0    0    0 -0.00000000000E+00 -0.00000000000E+00 -0.45593999997E+02  0.45594000000E+02  0.51100000000E-03 0.  1.
    9900012    2    1    2    0    0  0.14205438184E+02  0.39620882178E+02  0.10583703727E+02  0.47787267712E+02  0.19999984804E+02 0.  0.
        -12    1    1    2    0    0 -0.14205438184E+02 -0.39620882178E+02 -0.10583703727E+02  0.43400732288E+02  0.00000000000E+00 0.  1.
         11    1    3    3    0    0  0.56835444501E+01  0.85679674541E+01 -0.12099078149E+01  0.10352614211E+02  0.51100000000E-03 0. -1.
        -11    1    3    3    0    0  0.12720678546E+02  0.25541291695E+02  0.10380415761E+02  0.30363238888E+02  0.51100000000E-03 0.  1.
        -12    1    3    3    0    0 -0.41987848122E+01  0.55116230295E+01  0.14131957805E+01  0.70714146133E+01  0.00000000000E+00 0.  1.
</event>
<event>
 7    1  0.5022032E-011  0.4778727E+02  0.7816164E-02  0.1312668E+00
        -11   -1    0    0    0    0  0.00000000000E+00  0.00000000000E+00  0.45593999997E+02  0.45594000000E+02  0.51100000000E-03 0. -1.
         11   -1    0    0    0    0 -0.00000000000E+00 -0.00000000000E+00 -0.45593999997E+02  0.45594000000E+02  0.51100000000E-03 0.  1.
    9900012    2    1    2    0    0  0.29839797672E+02 -0.48833429200E+01  0.31134594506E+02  0.47787267999E+02  0.19999986115E+02 0.  0.
        -12    1    1    2    0    0 -0.29839797672E+02  0.48833429200E+01 -0.31134594506E+02  0.43400732001E+02  0.00000000000E+00 0.  1.
         11    1    3    3    0    0  0.51887956463E+01  0.66240612257E+01  0.71110647264E+01  0.11016761284E+02  0.51100000000E-03 0. -1.
        -11    1    3    3    0    0  0.31843163715E+01  0.28716521907E+00  0.40864707693E+01  0.51886007965E+01  0.51100000000E-03 0.  1.
         12    1    3    3    0    0  0.21466685654E+02 -0.11794569365E+02  0.19937059010E+02  0.31581905919E+02  0.00000000000E+00 0. -1.
</event>
<event>
 7    1  0.5022032E-011  0.4778727E+02  0.7816164E-02  0.1312668E+00
        -11   -1    0    0    0    0  0.00000000000E+00  0.00000000000E+00  0.45593999997E+02  0.45594000000E+02  0.51100000000E-03 0. -1.
         11   -1    0    0    0    0 -0.00000000000E+00 -0.00000000000E+00 -0.45593999997E+02  0.45594000000E+02  0.51100000000E-03 0.  1.
    9900012    2    1    2    0    0  0.23795194779E+02  0.22533681531E+02  0.28454262389E+02  0.47787272517E+02  0.20000006715E+02 0.  0.
        -12    1    1    2    0    0 -0.23795194779E+02 -0.22533681531E+02 -0.28454262389E+02  0.43400727483E+02  0.00000000000E+00 0.  1.
         11    1    3    3    0    0  0.23119673891E+02  0.18452440082E+02  0.19840013371E+02  0.35617944868E+02  0.51100000000E-03 0. -1.
        -11    1    3    3    0    0  0.20470839031E+01  0.55779094124E+01  0.40981426065E+01  0.72179220696E+01  0.51100000000E-03 0.  1.
        -12    1    3    3    0    0 -0.13715630144E+01 -0.14966679630E+01  0.45161064117E+01  0.49514055798E+01  0.00000000000E+00 0.  1.
</event>
<event>
 7    1  0.5022032E-011  0.4778727E+02  0.7816164E-02  0.1312668E+00
        -11   -1    0    0    0    0  0.00000000000E+00  0.00000000000E+00  0.45593999997E+02  0.45594000000E+02  0.51100000000E-03 0. -1.
         11   -1    0    0    0    0 -0.00000000000E+00 -0.00000000000E+00 -0.45593999997E+02  0.45594000000E+02  0.51100000000E-03 0.  1.
    9900012    2    1    2    0    0 -0.11162876339E+02  0.31390109333E+02  0.27815006533E+02  0.47787270046E+02  0.19999995448E+02 0.  0.
        -12    1    1    2    0    0  0.11162876339E+02 -0.31390109333E+02 -0.27815006533E+02  0.43400729954E+02  0.00000000000E+00 0.  1.
         11    1    3    3    0    0  0.38402074362E+00  0.20252776066E+00  0.29527072654E+01  0.29844547042E+01  0.51100000000E-03 0. -1.
        -11    1    3    3    0    0 -0.12485612141E+02  0.15211157176E+02  0.71664904720E+01  0.20943457191E+02  0.51100000000E-03 0.  1.
        -12    1    3    3    0    0  0.93871505791E+00  0.15976424396E+02  0.17695808795E+02  0.23859358151E+02  0.00000000000E+00 0.  1.
</event>
<event>
 7    1  0.5022032E-011  0.4778727E+02  0.7816164E-02  0.1312668E+00
        -11   -1    0    0    0    0  0.00000000000E+00  0.00000000000E+00  0.45593999997E+02  0.45594000000E+02  0.51100000000E-03 0. -1.
         11   -1    0    0    0    0 -0.00000000000E+00 -0.00000000000E+00 -0.45593999997E+02  0.45594000000E+02  0.51100000000E-03 0.  1.
    9900012    2    1    2    0    0 -0.30780187949E+02 -0.21759441855E+02  0.21511171292E+02  0.47787265325E+02  0.19999973923E+02 0.  0.
        -12    1    1    2    0    0  0.30780187949E+02  0.21759441855E+02 -0.21511171292E+02  0.43400734675E+02  0.00000000000E+00 0.  1.
         11    1    3    3    0    0 -0.27152119389E+02 -0.10110840502E+02  0.10023419164E+02  0.30658369412E+02  0.51100000000E-03 0. -1.
        -11    1    3    3    0    0 -0.20167269417E+01 -0.41064701378E+01  0.64840771729E+01  0.79355870353E+01  0.51100000000E-03 0.  1.
         12    1    3    3    0    0 -0.16113416178E+01 -0.75421312150E+01  0.50036749546E+01  0.91933088779E+01  0.00000000000E+00 0. -1.
</event>
<event>
 7    1  0.5022032E-011  0.4778727E+02  0.7816164E-02  0.1312668E+00
        -11   -1    0    0    0    0  0.00000000000E+00  0.00000000000E+00  0.45593999997E+02  0.45594000000E+02  0.51100000000E-03 0.  1.
         11   -1    0    0    0    0 -0.00000000000E+00 -0.00000000000E+00 -0.45593999997E+02  0.45594000000E+02  0.51100000000E-03 0. -1.
    9900012    2    1    2    0    0 -0.40428523935E+02  0.11975324723E+02 -0.10283465253E+02  0.47787267202E+02  0.19999982480E+02 0.  0.
         12    1    1    2    0    0  0.40428523935E+02 -0.11975324723E+02  0.10283465253E+02  0.43400732798E+02  0.00000000000E+00 0. -1.
         11    1    3    3    0    0 -0.75740496784E+01 -0.47956114690E+01 -0.55883146324E+00  0.89820048295E+01  0.51100000000E-03 0. -1.
        -11    1    3    3    0    0 -0.10273385785E+01 -0.71125791755E+00 -0.43874824926E+00  0.13243159243E+01  0.51100000000E-03 0.  1.
        -12    1    3    3    0    0 -0.31827135678E+02  0.17482194109E+02 -0.92858855410E+01  0.37480946448E+02  0.00000000000E+00 0.  1.
</event>
<event>
 7    1  0.5022032E-011  0.4778726E+02  0.7816164E-02  0.1312668E+00
        -11   -1    0    0    0    0  0.00000000000E+00  0.00000000000E+00  0.45593999997E+02  0.45594000000E+02  0.51100000000E-03 0. -1.
         11   -1    0    0    0    0 -0.00000000000E+00 -0.00000000000E+00 -0.45593999997E+02  0.45594000000E+02  0.51100000000E-03 0.  1.
    9900012    2    1    2    0    0  0.14156171353E+02  0.21010300160E+02  0.35239096672E+02  0.47787264586E+02  0.19999970553E+02 0.  0.
        -12    1    1    2    0    0 -0.14156171353E+02 -0.21010300160E+02 -0.35239096672E+02  0.43400735414E+02  0.00000000000E+00 0.  1.
         11    1    3    3    0    0  0.91953734276E+01  0.59186826116E+01  0.16164895719E+02  0.19516391834E+02  0.51100000000E-03 0. -1.
        -11    1    3    3    0    0  0.71291007427E+01  0.73176966837E+01  0.36245005650E+01  0.10840192192E+02  0.51100000000E-03 0.  1.
        -12    1    3    3    0    0 -0.21683028168E+01  0.77739208650E+01  0.15449700388E+02  0.17430680560E+02  0.00000000000E+00 0.  1.
</event>
<event>
 7    1  0.5022032E-011  0.4778727E+02  0.7816164E-02  0.1312668E+00
        -11   -1    0    0    0    0  0.00000000000E+00  0.00000000000E+00  0.45593999997E+02  0.45594000000E+02  0.51100000000E-03 0. -1.
         11   -1    0    0    0    0 -0.00000000000E+00 -0.00000000000E+00 -0.45593999997E+02  0.45594000000E+02  0.51100000000E-03 0.  1.
    9900012    2    1    2    0    0  0.10806345953E+02 -0.21979861194E+02 -0.35829210154E+02  0.47787266006E+02  0.19999977027E+02 0.  0.
         12    1    1    2    0    0 -0.10806345953E+02  0.21979861194E+02  0.35829210154E+02  0.43400733994E+02  0.00000000000E+00 0. -1.
         11    1    3    3    0    0  0.19778545265E+01 -0.68707693062E-01 -0.91024799160E+01  0.93151366150E+01  0.51100000000E-03 0.  1.
        -11    1    3    3    0    0  0.12140818449E+02 -0.12132974612E+02 -0.18794509477E+02  0.25452743119E+02  0.51100000000E-03 0. -1.
         12    1    3    3    0    0 -0.33123270223E+01 -0.97781788891E+01 -0.79322207615E+01  0.13019386272E+02  0.00000000000E+00 0. -1.
</event>
<event>
 7    1  0.5022032E-011  0.4778727E+02  0.7816164E-02  0.1312668E+00
        -11   -1    0    0    0    0  0.00000000000E+00  0.00000000000E+00  0.45593999997E+02  0.45594000000E+02  0.51100000000E-03 0. -1.
         11   -1    0    0    0    0 -0.00000000000E+00 -0.00000000000E+00 -0.45593999997E+02  0.45594000000E+02  0.51100000000E-03 0.  1.
    9900012    2    1    2    0    0  0.75035335924E+01  0.36553217383E+02  0.22162641698E+02  0.47787269540E+02  0.19999993142E+02 0.  0.
        -12    1    1    2    0    0 -0.75035335924E+01 -0.36553217383E+02 -0.22162641698E+02  0.43400730460E+02  0.00000000000E+00 0.  1.
         11    1    3    3    0    0  0.83087069199E+00  0.34156777416E+01  0.36510336240E+01  0.50682588062E+01  0.51100000000E-03 0. -1.
        -11    1    3    3    0    0  0.63787872778E+01  0.74986839120E+01  0.13311577820E+02  0.16556487908E+02  0.51100000000E-03 0.  1.
         12    1    3    3    0    0  0.29387562262E+00  0.25638855729E+02  0.52000302546E+01  0.26162522826E+02  0.00000000000E+00 0. -1.
</event>
<event>
 7    1  0.5022032E-011  0.4778727E+02  0.7816164E-02  0.1312668E+00
        -11   -1    0    0    0    0  0.00000000000E+00  0.00000000000E+00  0.45593999997E+02  0.45594000000E+02  0.51100000000E-03 0. -1.
         11   -1    0    0    0    0 -0.00000000000E+00 -0.00000000000E+00 -0.45593999997E+02  0.45594000000E+02  0.51100000000E-03 0.  1.
    9900012    2    1    2    0    0 -0.95055163567E+01  0.73106180022E+01 -0.41711190446E+02  0.47787269762E+02  0.19999994153E+02 0.  0.
         12    1    1    2    0    0  0.95055163567E+01 -0.73106180022E+01  0.41711190446E+02  0.43400730238E+02  0.00000000000E+00 0. -1.
         11    1    3    3    0    0 -0.49810989554E+01 -0.55625964196E+01 -0.90703533398E+01  0.11748409922E+02  0.51100000000E-03 0. -1.
        -11    1    3    3    0    0 -0.14054581624E+01  0.67849966028E+00 -0.10115473323E+02  0.10235158779E+02  0.51100000000E-03 0.  1.
        -12    1    3    3    0    0 -0.31189592389E+01  0.12194714762E+02 -0.22525363783E+02  0.25803701060E+02  0.00000000000E+00 0.  1.
</event>
<event>
 7    1  0.5022032E-011  0.4778727E+02  0.7816164E-02  0.1312668E+00
        -11   -1    0    0    0    0  0.00000000000E+00  0.00000000000E+00  0.45593999997E+02  0.45594000000E+02  0.51100000000E-03 0. -1.
         11   -1    0    0    0    0 -0.00000000000E+00 -0.00000000000E+00 -0.45593999997E+02  0.45594000000E+02  0.51100000000E-03 0.  1.
    9900012    2    1    2    0    0 -0.23416024896E+02  0.10670570081E+02  0.34949279791E+02  0.47787269065E+02  0.19999990977E+02 0.  0.
        -12    1    1    2    0    0  0.23416024896E+02 -0.10670570081E+02 -0.34949279791E+02  0.43400730935E+02  0.00000000000E+00 0.  1.
         11    1    3    3    0    0 -0.53771427618E+01  0.98856048646E+01  0.10585980194E+02  0.15449978147E+02  0.51100000000E-03 0. -1.
        -11    1    3    3    0    0 -0.25114247978E+01  0.43796878533E+01  0.82568331714E+01  0.96780274069E+01  0.51100000000E-03 0.  1.
         12    1    3    3    0    0 -0.15527457336E+02 -0.35947226372E+01  0.16106466425E+02  0.22659263511E+02  0.00000000000E+00 0. -1.
</event>
<event>
 7    1  0.5022032E-011  0.4778727E+02  0.7816164E-02  0.1312668E+00
        -11   -1    0    0    0    0  0.00000000000E+00  0.00000000000E+00  0.45593999997E+02  0.45594000000E+02  0.51100000000E-03 0. -1.
         11   -1    0    0    0    0 -0.00000000000E+00 -0.00000000000E+00 -0.45593999997E+02  0.45594000000E+02  0.51100000000E-03 0.  1.
    9900012    2    1    2    0    0  0.95565518683E+01 -0.13858088317E+02  0.40003109562E+02  0.47787273393E+02  0.20000010707E+02 0.  0.
        -12    1    1    2    0    0 -0.95565518683E+01  0.13858088317E+02 -0.40003109562E+02  0.43400726607E+02  0.00000000000E+00 0.  1.
         11    1    3    3    0    0  0.29593459534E+01 -0.14936037682E+02  0.15341870548E+02  0.21615178516E+02  0.51100000000E-03 0. -1.
        -11    1    3    3    0    0 -0.66540569378E+00 -0.46418557070E+00  0.65210396031E+01  0.65713157547E+01  0.51100000000E-03 0.  1.
        -12    1    3    3    0    0  0.72626116086E+01  0.15421349356E+01  0.18140199410E+02  0.19600779122E+02  0.00000000000E+00 0.  1.
</event>
<event>
 7    1  0.5022032E-011  0.4778727E+02  0.7816164E-02  0.1312668E+00
        -11   -1    0    0    0    0  0.00000000000E+00  0.00000000000E+00  0.45593999997E+02  0.45594000000E+02  0.51100000000E-03 0. -1.
         11   -1    0    0    0    0 -0.00000000000E+00 -0.00000000000E+00 -0.45593999997E+02  0.45594000000E+02  0.51100000000E-03 0.  1.
    9900012    2    1    2    0    0  0.73773539510E+01  0.27208449303E+02  0.32998454067E+02  0.47787273789E+02  0.20000012515E+02 0.  0.
        -12    1    1    2    0    0 -0.73773539510E+01 -0.27208449303E+02 -0.32998454067E+02  0.43400726211E+02  0.00000000000E+00 0.  1.
         11    1    3    3    0    0 -0.22643052845E+01  0.21257999129E+01  0.10076796235E+02  0.10544568569E+02  0.51100000000E-03 0. -1.
        -11    1    3    3    0    0  0.30967096572E+01 -0.31842744397E+00  0.21450250177E+01  0.37804945875E+01  0.51100000000E-03 0.  1.
         12    1    3    3    0    0  0.65449495783E+01  0.25401076834E+02  0.20776632815E+02  0.33462210633E+02  0.00000000000E+00 0. -1.
</event>
<event>
 7    1  0.5022032E-011  0.4778727E+02  0.7816164E-02  0.1312668E+00
        -11   -1    0    0    0    0  0.00000000000E+00  0.00000000000E+00  0.45593999997E+02  0.45594000000E+02  0.51100000000E-03 0.  1.
         11   -1    0    0    0    0 -0.00000000000E+00 -0.00000000000E+00 -0.45593999997E+02  0.45594000000E+02  0.51100000000E-03 0. -1.
    9900012    2    1    2    0    0  0.21741896112E+02  0.35879790625E+02 -0.11115488945E+02  0.47787268251E+02  0.19999987264E+02 0.  0.
         12    1    1    2    0    0 -0.21741896112E+02 -0.35879790625E+02  0.11115488945E+02  0.43400731749E+02  0.00000000000E+00 0. -1.
         11    1    3    3    0    0  0.79128195912E+01  0.26621246607E+01 -0.47742279663E+01  0.96173215880E+01  0.51100000000E-03 0. -1.
        -11    1    3    3    0    0  0.27763931395E+01  0.11318686192E+02 -0.70662295977E+01  0.13629109177E+02  0.51100000000E-03 0.  1.
        -12    1    3    3    0    0  0.11052683381E+02  0.21898979773E+02  0.72496861930E+00  0.24540837486E+02  0.00000000000E+00 0.  1.
</event>
<event>
 7    1  0.5022032E-011  0.4778728E+02  0.7816164E-02  0.1312668E+00
        -11   -1    0    0    0    0  0.00000000000E+00  0.00000000000E+00  0.45593999997E+02  0.45594000000E+02  0.51100000000E-03 0. -1.
         11   -1    0    0    0    0 -0.00000000000E+00 -0.00000000000E+00 -0.45593999997E+02  0.45594000000E+02  0.51100000000E-03 0.  1.
    9900012    2    1    2    0    0  0.23966375087E+02 -0.23824264634E+02  0.27233069954E+02  0.47787276281E+02  0.20000023878E+02 0.  0.
        -12    1    1    2    0    0 -0.23966375087E+02  0.23824264634E+02 -0.27233069954E+02  0.43400723719E+02  0.00000000000E+00 0.  1.
         11    1    3    3    0    0  0.97801994150E+01 -0.14884241926E+01  0.38444018328E+01  0.10613535362E+02  0.51100000000E-03 0. -1.
        -11    1    3    3    0    0 -0.16362435651E+01 -0.14929153909E+01  0.41166483604E+01  0.46747067665E+01  0.51100000000E-03 0.  1.
         12    1    3    3    0    0  0.15822419237E+02 -0.20842925051E+02  0.19272019761E+02  0.32499034153E+02  0.00000000000E+00 0. -1.
</event>
<event>
 7    1  0.5022032E-011  0.4778727E+02  0.7816164E-02  0.1312668E+00
        -11   -1    0    0    0    0  0.00000000000E+00  0.00000000000E+00  0.45593999997E+02  0.45594000000E+02  0.51100000000E-03 0. -1.
         11   -1    0    0    0    0 -0.00000000000E+00 -0.00000000000E+00 -0.45593999997E+02  0.45594000000E+02  0.51100000000E-03 0.  1.
    9900012    2    1    2    0    0  0.22585701483E+02 -0.86124485276E+01 -0.36046290852E+02  0.47787271143E+02  0.20000000450E+02 0.  0.
         12    1    1    2    0    0 -0.22585701483E+02  0.86124485276E+01  0.36046290852E+02  0.43400728857E+02  0.00000000000E+00 0. -1.
         11    1    3    3    0    0  0.17551465854E+01 -0.32965436601E+01 -0.93552109558E+00  0.38500570932E+01  0.51100000000E-03 0. -1.
        -11    1    3    3    0    0  0.18017705253E+02 -0.85219192734E+01 -0.19998977146E+02  0.28235082749E+02  0.51100000000E-03 0.  1.
        -12    1    3    3    0    0  0.28128496443E+01  0.32060144059E+01 -0.15111792611E+02  0.15702131301E+02  0.00000000000E+00 0.  1.
</event>
<event>
 7    1  0.5022032E-011  0.4778727E+02  0.7816164E-02  0.1312668E+00
        -11   -1    0    0    0    0  0.00000000000E+00  0.00000000000E+00  0.45593999997E+02  0.45594000000E+02  0.51100000000E-03 0. -1.
         11   -1    0    0    0    0 -0.00000000000E+00 -0.00000000000E+00 -0.45593999997E+02  0.45594000000E+02  0.51100000000E-03 0.  1.
    9900012    2    1    2    0    0 -0.13929179085E+02  0.18612859514E+02  0.36649188707E+02  0.47787267262E+02  0.19999982754E+02 0.  0.
        -12    1    1    2    0    0  0.13929179085E+02 -0.18612859514E+02 -0.36649188707E+02  0.43400732738E+02  0.00000000000E+00 0.  1.
         11    1    3    3    0    0 -0.74421686617E+01  0.63416120011E+01  0.10772738632E+02  0.14548326882E+02  0.51100000000E-03 0. -1.
        -11    1    3    3    0    0 -0.77150716616E+01  0.88479402610E+00  0.17197080718E+02  0.18869148807E+02  0.51100000000E-03 0.  1.
         12    1    3    3    0    0  0.12280612381E+01  0.11386453487E+02  0.86793693574E+01  0.14369791573E+02  0.00000000000E+00 0. -1.
</event>
<event>
 7    1  0.5022032E-011  0.4778727E+02  0.7816164E-02  0.1312668E+00
        -11   -1    0    0    0    0  0.00000000000E+00  0.00000000000E+00  0.45593999997E+02  0.45594000000E+02  0.51100000000E-03 0. -1.
         11   -1    0    0    0    0 -0.00000000000E+00 -0.00000000000E+00 -0.45593999997E+02  0.45594000000E+02  0.51100000000E-03 0.  1.
    9900012    2    1    2    0    0 -0.23019970901E+01 -0.33613682825E+02 -0.27357711722E+02  0.47787271270E+02  0.20000001027E+02 0.  0.
         12    1    1    2    0    0  0.23019970901E+01  0.33613682825E+02  0.27357711722E+02  0.43400728730E+02  0.00000000000E+00 0. -1.
         11    1    3    3    0    0  0.20494515307E+01 -0.43795935233E+01 -0.10880154010E+02  0.11906252246E+02  0.51100000000E-03 0.  1.
        -11    1    3    3    0    0  0.27933086214E+01 -0.19003508309E+02 -0.11867708838E+02  0.22578273061E+02  0.51100000000E-03 0. -1.
         12    1    3    3    0    0 -0.71447572422E+01 -0.10230580993E+02 -0.46098488739E+01  0.13302745962E+02  0.00000000000E+00 0. -1.
</event>
<event>
 7    1  0.5022032E-011  0.4778728E+02  0.7816164E-02  0.1312668E+00
        -11   -1    0    0    0    0  0.00000000000E+00  0.00000000000E+00  0.45593999997E+02  0.45594000000E+02  0.51100000000E-03 0. -1.
         11   -1    0    0    0    0 -0.00000000000E+00 -0.00000000000E+00 -0.45593999997E+02  0.45594000000E+02  0.51100000000E-03 0.  1.
    9900012    2    1    2    0    0  0.21844435416E+02 -0.53513693365E+01  0.37118811242E+02  0.47787278111E+02  0.20000032219E+02 0.  0.
        -12    1    1    2    0    0 -0.21844435416E+02  0.53513693365E+01 -0.37118811242E+02  0.43400721889E+02  0.00000000000E+00 0.  1.
         11    1    3    3    0    0  0.33803973844E+01 -0.35332687728E+01  0.59046520228E+01  0.76665501021E+01  0.51100000000E-03 0. -1.
        -11    1    3    3    0    0  0.96165895984E+01  0.41310967971E+01  0.45661438527E+01  0.11419037884E+02  0.51100000000E-03 0.  1.
        -12    1    3    3    0    0  0.88474484336E+01 -0.59491973608E+01  0.26648015367E+02  0.28701690125E+02  0.00000000000E+00 0.  1.
</event>
<event>
 7    1  0.5022032E-011  0.4778727E+02  0.7816164E-02  0.1312668E+00
        -11   -1    0    0    0    0  0.00000000000E+00  0.00000000000E+00  0.45593999997E+02  0.45594000000E+02  0.51100000000E-03 0. -1.
         11   -1    0    0    0    0 -0.00000000000E+00 -0.00000000000E+00 -0.45593999997E+02  0.45594000000E+02  0.51100000000E-03 0.  1.
    9900012    2    1    2    0    0 -0.79398713658E+01  0.13805497857E+01 -0.42645934573E+02  0.47787271774E+02  0.20000003325E+02 0.  0.
         12    1    1    2    0    0  0.79398713658E+01 -0.13805497857E+01  0.42645934573E+02  0.43400728226E+02  0.00000000000E+00 0. -1.
         11    1    3    3    0    0 -0.91295889363E+01 -0.58092712330E+01 -0.12392707582E+02  0.16452240816E+02  0.51100000000E-03 0.  1.
        -11    1    3    3    0    0 -0.26139775814E+00  0.36855545807E+00 -0.21965514577E+00  0.50240477487E+00  0.51100000000E-03 0. -1.
         12    1    3    3    0    0  0.14511153287E+01  0.68212655606E+01 -0.30033571845E+02  0.30832626183E+02  0.00000000000E+00 0. -1.
</event>
<event>
 7    1  0.5022032E-011  0.4778727E+02  0.7816164E-02  0.1312668E+00
        -11   -1    0    0    0    0  0.00000000000E+00  0.00000000000E+00  0.45593999997E+02  0.45594000000E+02  0.51100000000E-03 0.  1.
         11   -1    0    0    0    0 -0.00000000000E+00 -0.00000000000E+00 -0.45593999997E+02  0.45594000000E+02  0.51100000000E-03 0. -1.
    9900012    2    1    2    0    0  0.14338124551E+02  0.38812806008E+02 -0.13099897337E+02  0.47787273784E+02  0.20000012491E+02 0.  0.
         12    1    1    2    0    0 -0.14338124551E+02 -0.38812806008E+02  0.13099897337E+02  0.43400726216E+02  0.00000000000E+00 0. -1.
         11    1    3    3    0    0  0.92334538423E+01  0.20446594709E+02 -0.16782562502E+02  0.28017392981E+02  0.51100000000E-03 0. -1.
        -11    1    3    3    0    0 -0.54355182982E+00  0.29723390883E+01  0.41339433080E+00  0.30497775954E+01  0.51100000000E-03 0.  1.
         12    1    3    3    0    0  0.56482225390E+01  0.15393872210E+02  0.32692708345E+01  0.16720103208E+02  0.00000000000E+00 0. -1.
</event>
<event>
 7    1  0.5022032E-011  0.4778727E+02  0.7816164E-02  0.1312668E+00
        -11   -1    0    0    0    0  0.00000000000E+00  0.00000000000E+00  0.45593999997E+02  0.45594000000E+02  0.51100000000E-03 0.  1.
         11   -1    0    0    0    0 -0.00000000000E+00 -0.00000000000E+00 -0.45593999997E+02  0.45594000000E+02  0.51100000000E-03 0. -1.
    9900012    2    1    2    0    0  0.41471591901E+02  0.48249915927E+01  0.11851161951E+02  0.47787268229E+02  0.19999987164E+02 0.  0.
         12    1    1    2    0    0 -0.41471591901E+02 -0.48249915927E+01 -0.11851161951E+02  0.43400731771E+02  0.00000000000E+00 0. -1.
         11    1    3    3    0    0  0.91070945833E+01 -0.27706921551E+01 -0.15837561313E+01  0.96500875909E+01  0.51100000000E-03 0. -1.
        -11    1    3    3    0    0  0.14980427638E+01  0.12334060026E+01  0.52196538879E+01  0.55686811239E+01  0.51100000000E-03 0.  1.
        -12    1    3    3    0    0  0.30866454554E+02  0.63622777452E+01  0.82152641944E+01  0.32568499514E+02  0.00000000000E+00 0.  1.
</event>
<event>
 7    1  0.5022032E-011  0.4778729E+02  0.7816164E-02  0.1312668E+00
        -11   -1    0    0    0    0  0.00000000000E+00  0.00000000000E+00  0.45593999997E+02  0.45594000000E+02  0.51100000000E-03 0. -1.
         11   -1    0    0    0    0 -0.00000000000E+00 -0.00000000000E+00 -0.45593999997E+02  0.45594000000E+02  0.51100000000E-03 0.  1.
    9900012    2    1    2    0    0  0.18591589800E+02  0.10445889170E+02 -0.37800240763E+02  0.47787285564E+02  0.20000066200E+02 0.  0.
         12    1    1    2    0    0 -0.18591589800E+02 -0.10445889170E+02  0.37800240763E+02  0.43400714436E+02  0.00000000000E+00 0. -1.
         11    1    3    3    0    0  0.34198225969E+01  0.63485304357E+01 -0.10478752366E+02  0.12720191693E+02  0.51100000000E-03 0. -1.
        -11    1    3    3    0    0  0.63420221286E+01 -0.45739067419E+01 -0.42839925086E+01  0.89159665566E+01  0.51100000000E-03 0.  1.
        -12    1    3    3    0    0  0.88297450747E+01  0.86712654760E+01 -0.23037495888E+02  0.26151127315E+02  0.00000000000E+00 0.  1.
</event>
<event>
 7    1  0.5022032E-011  0.4778727E+02  0.7816164E-02  0.1312668E+00
        -11   -1    0    0    0    0  0.00000000000E+00  0.00000000000E+00  0.45593999997E+02  0.45594000000E+02  0.51100000000E-03 0. -1.
         11   -1    0    0    0    0 -0.00000000000E+00 -0.00000000000E+00 -0.45593999997E+02  0.45594000000E+02  0.51100000000E-03 0.  1.
    9900012    2    1    2    0    0 -0.17236219443E+02  0.22748257895E+01  0.39766333193E+02  0.47787270182E+02  0.19999996070E+02 0.  0.
        -12    1    1    2    0    0  0.17236219443E+02 -0.22748257895E+01 -0.39766333193E+02  0.43400729818E+02  0.00000000000E+00 0.  1.
         11    1    3    3    0    0 -0.48289213722E+01  0.47434658968E+01  0.16704898902E+02  0.18024222533E+02  0.51100000000E-03 0. -1.
        -11    1    3    3    0    0 -0.11893751113E+02 -0.26952453539E+01  0.24961756136E+02  0.27781557421E+02  0.51100000000E-03 0.  1.
        -12    1    3    3    0    0 -0.51354695755E+00  0.22660524665E+00 -0.19003218444E+01  0.19814902291E+01  0.00000000000E+00 0.  1.
</event>
<event>
 7    1  0.5022032E-011  0.4778727E+02  0.7816164E-02  0.1312668E+00
        -11   -1    0    0    0    0  0.00000000000E+00  0.00000000000E+00  0.45593999997E+02  0.45594000000E+02  0.51100000000E-03 0. -1.
         11   -1    0    0    0    0 -0.00000000000E+00 -0.00000000000E+00 -0.45593999997E+02  0.45594000000E+02  0.51100000000E-03 0.  1.
    9900012    2    1    2    0    0 -0.12100464850E+02 -0.33135942111E+01  0.41547829091E+02  0.47787271224E+02  0.20000000817E+02 0.  0.
        -12    1    1    2    0    0  0.12100464850E+02  0.33135942111E+01 -0.41547829091E+02  0.43400728776E+02  0.00000000000E+00 0.  1.
         11    1    3    3    0    0 -0.43992008669E+01  0.41497331798E+01  0.17975357819E+02  0.18965409110E+02  0.51100000000E-03 0. -1.
        -11    1    3    3    0    0 -0.64159448611E+01 -0.44757261679E+01  0.24266515328E+02  0.25496278937E+02  0.51100000000E-03 0.  1.
        -12    1    3    3    0    0 -0.12853191217E+01 -0.29876012230E+01 -0.69404405666E+00  0.33255831766E+01  0.00000000000E+00 0.  1.
</event>
<event>
 7    1  0.5022032E-011  0.4778727E+02  0.7816164E-02  0.1312668E+00
        -11   -1    0    0    0    0  0.00000000000E+00  0.00000000000E+00  0.45593999997E+02  0.45594000000E+02  0.51100000000E-03 0. -1.
         11   -1    0    0    0    0 -0.00000000000E+00 -0.00000000000E+00 -0.45593999997E+02  0.45594000000E+02  0.51100000000E-03 0.  1.
    9900012    2    1    2    0    0  0.31748733978E+01 -0.11843823134E+02  0.41632525001E+02  0.47787272984E+02  0.20000008844E+02 0.  0.
        -12    1    1    2    0    0 -0.31748733978E+01  0.11843823134E+02 -0.41632525001E+02  0.43400727016E+02  0.00000000000E+00 0.  1.
         11    1    3    3    0    0  0.42115079585E+01 -0.48644886681E+01  0.31520542350E+01  0.71648793045E+01  0.51100000000E-03 0. -1.
        -11    1    3    3    0    0 -0.36066118994E+01  0.99929879307E+00  0.59485245988E+01  0.70278867830E+01  0.51100000000E-03 0.  1.
         12    1    3    3    0    0  0.25699773386E+01 -0.79786332595E+01  0.32531946167E+02  0.33594506897E+02  0.00000000000E+00 0. -1.
</event>
<event>
 7    1  0.5022032E-011  0.4778727E+02  0.7816164E-02  0.1312668E+00
        -11   -1    0    0    0    0  0.00000000000E+00  0.00000000000E+00  0.45593999997E+02  0.45594000000E+02  0.51100000000E-03 0. -1.
         11   -1    0    0    0    0 -0.00000000000E+00 -0.00000000000E+00 -0.45593999997E+02  0.45594000000E+02  0.51100000000E-03 0.  1.
    9900012    2    1    2    0    0  0.13408892116E+02  0.85736533649E+01 -0.40377187611E+02  0.47787271905E+02  0.20000003923E+02 0.  0.
         12    1    1    2    0    0 -0.13408892116E+02 -0.85736533649E+01  0.40377187611E+02  0.43400728095E+02  0.00000000000E+00 0. -1.
         11    1    3    3    0    0  0.61568951794E+00  0.65899253886E+01 -0.16031900406E+01  0.68100226708E+01  0.51100000000E-03 0. -1.
        -11    1    3    3    0    0  0.14113202713E+01 -0.26734942057E+00 -0.71307963125E+01  0.72740330582E+01  0.51100000000E-03 0.  1.
         12    1    3    3    0    0  0.11381882326E+02  0.22510773969E+01 -0.31643201258E+02  0.33703216176E+02  0.00000000000E+00 0. -1.
</event>
<event>
 7    1  0.5022032E-011  0.4778727E+02  0.7816164E-02  0.1312668E+00
        -11   -1    0    0    0    0  0.00000000000E+00  0.00000000000E+00  0.45593999997E+02  0.45594000000E+02  0.51100000000E-03 0. -1.
         11   -1    0    0    0    0 -0.00000000000E+00 -0.00000000000E+00 -0.45593999997E+02  0.45594000000E+02  0.51100000000E-03 0.  1.
    9900012    2    1    2    0    0 -0.20814565961E+02 -0.23682984813E+02  0.29824375469E+02  0.47787270768E+02  0.19999998738E+02 0.  0.
        -12    1    1    2    0    0  0.20814565961E+02  0.23682984813E+02 -0.29824375469E+02  0.43400729232E+02  0.00000000000E+00 0.  1.
         11    1    3    3    0    0 -0.20065111781E+02 -0.20466688934E+02  0.16915028716E+02  0.33280809236E+02  0.51100000000E-03 0. -1.
        -11    1    3    3    0    0 -0.24263274901E+01  0.31900161692E+00  0.31282092657E+01  0.39717150693E+01  0.51100000000E-03 0.  1.
         12    1    3    3    0    0  0.16768733097E+01 -0.35352974953E+01  0.97811374871E+01  0.10534746462E+02  0.00000000000E+00 0. -1.
</event>
<event>
 7    1  0.5022032E-011  0.4778727E+02  0.7816164E-02  0.1312668E+00
        -11   -1    0    0    0    0  0.00000000000E+00  0.00000000000E+00  0.45593999997E+02  0.45594000000E+02  0.51100000000E-03 0. -1.
         11   -1    0    0    0    0 -0.00000000000E+00 -0.00000000000E+00 -0.45593999997E+02  0.45594000000E+02  0.51100000000E-03 0.  1.
    9900012    2    1    2    0    0  0.89463566273E+01 -0.19465887046E+02  0.37744736440E+02  0.47787272076E+02  0.20000004704E+02 0.  0.
        -12    1    1    2    0    0 -0.89463566273E+01  0.19465887046E+02 -0.37744736440E+02  0.43400727924E+02  0.00000000000E+00 0.  1.
         11    1    3    3    0    0  0.76213244952E+01 -0.10331637069E+02  0.16885849450E+02  0.21212242302E+02  0.51100000000E-03 0. -1.
        -11    1    3    3    0    0  0.41620984358E+01  0.58981075229E-01  0.14393761879E+02  0.14983555101E+02  0.51100000000E-03 0.  1.
        -12    1    3    3    0    0 -0.28370663036E+01 -0.91932310529E+01  0.64651251104E+01  0.11591474673E+02  0.00000000000E+00 0.  1.
</event>
<event>
 7    1  0.5022032E-011  0.4778727E+02  0.7816164E-02  0.1312668E+00
        -11   -1    0    0    0    0  0.00000000000E+00  0.00000000000E+00  0.45593999997E+02  0.45594000000E+02  0.51100000000E-03 0. -1.
         11   -1    0    0    0    0 -0.00000000000E+00 -0.00000000000E+00 -0.45593999997E+02  0.45594000000E+02  0.51100000000E-03 0.  1.
    9900012    2    1    2    0    0 -0.98866216466E+01 -0.14590736030E+02  0.39660917752E+02  0.47787271177E+02  0.20000000603E+02 0.  0.
        -12    1    1    2    0    0  0.98866216466E+01  0.14590736030E+02 -0.39660917752E+02  0.43400728823E+02  0.00000000000E+00 0.  1.
         11    1    3    3    0    0 -0.22838104729E+01 -0.16980124946E+02  0.25335978047E+02  0.30585163352E+02  0.51100000000E-03 0. -1.
        -11    1    3    3    0    0  0.78574945142E-02  0.76276689401E+00  0.49925846360E+01  0.50505224169E+01  0.51100000000E-03 0.  1.
         12    1    3    3    0    0 -0.76106686682E+01  0.16266220215E+01  0.93323550690E+01  0.12151585407E+02  0.00000000000E+00 0. -1.
</event>
<event>
 7    1  0.5022032E-011  0.4778727E+02  0.7816164E-02  0.1312668E+00
        -11   -1    0    0    0    0  0.00000000000E+00  0.00000000000E+00  0.45593999997E+02  0.45594000000E+02  0.51100000000E-03 0.  1.
         11   -1    0    0    0    0 -0.00000000000E+00 -0.00000000000E+00 -0.45593999997E+02  0.45594000000E+02  0.51100000000E-03 0. -1.
    9900012    2    1    2    0    0 -0.43195463058E+02 -0.36092515216E+01 -0.21790931822E+01  0.47787272213E+02  0.20000005330E+02 0.  0.
        -12    1    1    2    0    0  0.43195463058E+02  0.36092515216E+01  0.21790931822E+01  0.43400727787E+02  0.00000000000E+00 0.  1.
         11    1    3    3    0    0 -0.20520392009E+02 -0.10712557199E+02 -0.67450478972E+00  0.23158158971E+02  0.51100000000E-03 0. -1.
        -11    1    3    3    0    0 -0.25281117775E+01  0.15578482729E+01  0.18010511652E+01  0.34730427527E+01  0.51100000000E-03 0.  1.
        -12    1    3    3    0    0 -0.20146959271E+02  0.55454574041E+01 -0.33056395578E+01  0.21156070490E+02  0.00000000000E+00 0.  1.
</event>
<event>
 7    1  0.5022032E-011  0.4778727E+02  0.7816164E-02  0.1312668E+00
        -11   -1    0    0    0    0  0.00000000000E+00  0.00000000000E+00  0.45593999997E+02  0.45594000000E+02  0.51100000000E-03 0. -1.
         11   -1    0    0    0    0 -0.00000000000E+00 -0.00000000000E+00 -0.45593999997E+02  0.45594000000E+02  0.51100000000E-03 0.  1.
    9900012    2    1    2    0    0 -0.16265570587E+02 -0.38024223384E+02 -0.13161054808E+02  0.47787265973E+02  0.19999976875E+02 0.  0.
         12    1    1    2    0    0  0.16265570587E+02  0.38024223384E+02  0.13161054808E+02  0.43400734027E+02  0.00000000000E+00 0. -1.
         11    1    3    3    0    0 -0.10971227755E+02 -0.29779447459E+02 -0.75078985649E+01  0.32612142992E+02  0.51100000000E-03 0.  1.
        -11    1    3    3    0    0 -0.32691844573E+01 -0.10445988391E+02 -0.53062528661E+01  0.12163986198E+02  0.51100000000E-03 0. -1.
        -12    1    3    3    0    0 -0.20251583748E+01  0.22012124669E+01 -0.34690337695E+00  0.30111367821E+01  0.00000000000E+00 0.  1.
</event>
<event>
 7    1  0.5022032E-011  0.4778727E+02  0.7816164E-02  0.1312668E+00
        -11   -1    0    0    0    0  0.00000000000E+00  0.00000000000E+00  0.45593999997E+02  0.45594000000E+02  0.51100000000E-03 0. -1.
         11   -1    0    0    0    0 -0.00000000000E+00 -0.00000000000E+00 -0.45593999997E+02  0.45594000000E+02  0.51100000000E-03 0.  1.
    9900012    2    1    2    0    0 -0.74615298755E+01 -0.44084898235E+01  0.42526626830E+02  0.47787271894E+02  0.20000003874E+02 0.  0.
        -12    1    1    2    0    0  0.74615298755E+01  0.44084898235E+01 -0.42526626830E+02  0.43400728106E+02  0.00000000000E+00 0.  1.
         11    1    3    3    0    0 -0.15788810073E+01  0.29474406872E+00  0.15915892274E+02  0.15996729867E+02  0.51100000000E-03 0. -1.
        -11    1    3    3    0    0  0.30375825319E+01  0.26412113611E+01  0.17765619271E+01  0.43998951844E+01  0.51100000000E-03 0.  1.
        -12    1    3    3    0    0 -0.89202314001E+01 -0.73444452533E+01  0.24834172629E+02  0.27390646843E+02  0.00000000000E+00 0.  1.
</event>
<event>
 7    1  0.5022032E-011  0.4778727E+02  0.7816164E-02  0.1312668E+00
        -11   -1    0    0    0    0  0.00000000000E+00  0.00000000000E+00  0.45593999997E+02  0.45594000000E+02  0.51100000000E-03 0. -1.
         11   -1    0    0    0    0 -0.00000000000E+00 -0.00000000000E+00 -0.45593999997E+02  0.45594000000E+02  0.51100000000E-03 0.  1.
    9900012    2    1    2    0    0  0.33597783467E+02  0.12485934140E+02  0.24472709380E+02  0.47787272937E+02  0.20000008627E+02 0.  0.
        -12    1    1    2    0    0 -0.33597783467E+02 -0.12485934140E+02 -0.24472709380E+02  0.43400727063E+02  0.00000000000E+00 0.  1.
         11    1    3    3    0    0  0.14349253609E+01  0.25886605622E+01  0.55724453061E+00  0.30117596228E+01  0.51100000000E-03 0. -1.
        -11    1    3    3    0    0 -0.20079004071E+01  0.97423069162E+00  0.29694396639E+01  0.37146146051E+01  0.51100000000E-03 0.  1.
         12    1    3    3    0    0  0.34170758513E+02  0.89230428862E+01  0.20946025185E+02  0.41060898709E+02  0.00000000000E+00 0. -1.
</event>
<event>
 7    1  0.5022032E-011  0.4778727E+02  0.7816164E-02  0.1312668E+00
        -11   -1    0    0    0    0  0.00000000000E+00  0.00000000000E+00  0.45593999997E+02  0.45594000000E+02  0.51100000000E-03 0. -1.
         11   -1    0    0    0    0 -0.00000000000E+00 -0.00000000000E+00 -0.45593999997E+02  0.45594000000E+02  0.51100000000E-03 0.  1.
    9900012    2    1    2    0    0 -0.20049075128E+02  0.18377200217E+02  0.33822132119E+02  0.47787268181E+02  0.19999986946E+02 0.  0.
        -12    1    1    2    0    0  0.20049075128E+02 -0.18377200217E+02 -0.33822132119E+02  0.43400731819E+02  0.00000000000E+00 0.  1.
         11    1    3    3    0    0  0.15836754729E+00  0.58069687679E+01  0.30304507583E+01  0.65520682697E+01  0.51100000000E-03 0. -1.
        -11    1    3    3    0    0  0.14913873393E+01 -0.10346777881E+01  0.20751742802E+01  0.27570170249E+01  0.51100000000E-03 0.  1.
         12    1    3    3    0    0 -0.21698830015E+02  0.13604909237E+02  0.28716507081E+02  0.38478182887E+02  0.00000000000E+00 0. -1.
</event>
<event>
 7    1  0.5022032E-011  0.4778727E+02  0.7816164E-02  0.1312668E+00
        -11   -1    0    0    0    0  0.00000000000E+00  0.00000000000E+00  0.45593999997E+02  0.45594000000E+02  0.51100000000E-03 0.  1.
         11   -1    0    0    0    0 -0.00000000000E+00 -0.00000000000E+00 -0.45593999997E+02  0.45594000000E+02  0.51100000000E-03 0. -1.
    9900012    2    1    2    0    0  0.23978296354E+02 -0.34941001465E+02 -0.93696952047E+01  0.47787268812E+02  0.19999989822E+02 0.  0.
         12    1    1    2    0    0 -0.23978296354E+02  0.34941001465E+02  0.93696952047E+01  0.43400731188E+02  0.00000000000E+00 0. -1.
         11    1    3    3    0    0  0.12313738450E+02 -0.17084674175E+02  0.19451719242E+01  0.21149419386E+02  0.51100000000E-03 0. -1.
        -11    1    3    3    0    0  0.72533129733E+01 -0.16927519316E+02 -0.53815266480E+01  0.19186252594E+02  0.51100000000E-03 0.  1.
         12    1    3    3    0    0  0.44112449308E+01 -0.92880797404E+00 -0.59333404809E+01  0.74515968325E+01  0.00000000000E+00 0. -1.
</event>
<event>
 7    1  0.5022032E-011  0.4778727E+02  0.7816164E-02  0.1312668E+00
        -11   -1    0    0    0    0  0.00000000000E+00  0.00000000000E+00  0.45593999997E+02  0.45594000000E+02  0.51100000000E-03 0. -1.
         11   -1    0    0    0    0 -0.00000000000E+00 -0.00000000000E+00 -0.45593999997E+02  0.45594000000E+02  0.51100000000E-03 0.  1.
    9900012    2    1    2    0    0 -0.25410272013E+02  0.26612826740E+00 -0.35183385568E+02  0.47787269959E+02  0.19999995050E+02 0.  0.
         12    1    1    2    0    0  0.25410272013E+02 -0.26612826740E+00  0.35183385568E+02  0.43400730041E+02  0.00000000000E+00 0. -1.
         11    1    3    3    0    0 -0.93688206204E+01 -0.76290329419E+01 -0.10974711836E+02  0.16322415373E+02  0.51100000000E-03 0. -1.
        -11    1    3    3    0    0 -0.92223119637E+01  0.11568708995E+01 -0.65464911498E+01  0.11368638215E+02  0.51100000000E-03 0.  1.
        -12    1    3    3    0    0 -0.68191394293E+01  0.67382903098E+01 -0.17662182582E+02  0.20096216371E+02  0.00000000000E+00 0.  1.
</event>
<event>
 7    1  0.5022032E-011  0.4778727E+02  0.7816164E-02  0.1312668E+00
        -11   -1    0    0    0    0  0.00000000000E+00  0.00000000000E+00  0.45593999997E+02  0.45594000000E+02  0.51100000000E-03 0. -1.
         11   -1    0    0    0    0 -0.00000000000E+00 -0.00000000000E+00 -0.45593999997E+02  0.45594000000E+02  0.51100000000E-03 0.  1.
    9900012    2    1    2    0    0  0.27151061191E+02  0.40656613636E+01 -0.33614192447E+02  0.47787266596E+02  0.19999979717E+02 0.  0.
         12    1    1    2    0    0 -0.27151061191E+02 -0.40656613636E+01  0.33614192447E+02  0.43400733404E+02  0.00000000000E+00 0. -1.
         11    1    3    3    0    0  0.40344274402E+01 -0.27991119368E+01 -0.30972264980E+01  0.58055529147E+01  0.51100000000E-03 0. -1.
        -11    1    3    3    0    0  0.24041315544E+02  0.33888504819E+01 -0.22110674934E+02  0.32838256759E+02  0.51100000000E-03 0.  1.
         12    1    3    3    0    0 -0.92468179260E+00  0.34759228185E+01 -0.84062910154E+01  0.91434569225E+01  0.00000000000E+00 0. -1.
</event>
<event>
 7    1  0.5022032E-011  0.4778727E+02  0.7816164E-02  0.1312668E+00
        -11   -1    0    0    0    0  0.00000000000E+00  0.00000000000E+00  0.45593999997E+02  0.45594000000E+02  0.51100000000E-03 0.  1.
         11   -1    0    0    0    0 -0.00000000000E+00 -0.00000000000E+00 -0.45593999997E+02  0.45594000000E+02  0.51100000000E-03 0. -1.
    9900012    2    1    2    0    0 -0.26201367135E+02 -0.31945907254E+02 -0.13287997093E+02  0.47787268476E+02  0.19999988291E+02 0.  0.
         12    1    1    2    0    0  0.26201367135E+02  0.31945907254E+02  0.13287997093E+02  0.43400731524E+02  0.00000000000E+00 0. -1.
         11    1    3    3    0    0  0.10710653867E+01 -0.19673799219E+01 -0.35743008936E+01  0.42182214213E+01  0.51100000000E-03 0. -1.
        -11    1    3    3    0    0 -0.15094034152E+02 -0.18891829922E+02 -0.11908434226E+02  0.26954441392E+02  0.51100000000E-03 0.  1.
         12    1    3    3    0    0 -0.12178398370E+02 -0.11086697411E+02  0.21947380275E+01  0.16614605663E+02  0.00000000000E+00 0. -1.
</event>
<event>
 7    1  0.5022032E-011  0.4778727E+02  0.7816164E-02  0.1312668E+00
        -11   -1    0    0    0    0  0.00000000000E+00  0.00000000000E+00  0.45593999997E+02  0.45594000000E+02  0.51100000000E-03 0.  1.
         11   -1    0    0    0    0 -0.00000000000E+00 -0.00000000000E+00 -0.45593999997E+02  0.45594000000E+02  0.51100000000E-03 0. -1.
    9900012    2    1    2    0    0  0.33290801083E+02 -0.22283444795E+02  0.16697117006E+02  0.47787273451E+02  0.20000010971E+02 0.  0.
         12    1    1    2    0    0 -0.33290801083E+02  0.22283444795E+02 -0.16697117006E+02  0.43400726549E+02  0.00000000000E+00 0. -1.
         11    1    3    3    0    0  0.54846236568E+01 -0.79296935074E+01  0.87821397359E+01  0.13041745067E+02  0.51100000000E-03 0. -1.
        -11    1    3    3    0    0  0.78979864020E+01 -0.11095486308E+02  0.40156599992E+01  0.14199067966E+02  0.51100000000E-03 0.  1.
        -12    1    3    3    0    0  0.19908191025E+02 -0.32582649800E+01  0.38993172709E+01  0.20546460418E+02  0.00000000000E+00 0.  1.
</event>
<event>
 7    1  0.5022032E-011  0.4778727E+02  0.7816164E-02  0.1312668E+00
        -11   -1    0    0    0    0  0.00000000000E+00  0.00000000000E+00  0.45593999997E+02  0.45594000000E+02  0.51100000000E-03 0. -1.
         11   -1    0    0    0    0 -0.00000000000E+00 -0.00000000000E+00 -0.45593999997E+02  0.45594000000E+02  0.51100000000E-03 0.  1.
    9900012    2    1    2    0    0  0.45112807705E+01 -0.20497807776E+02 -0.37988306657E+02  0.47787271660E+02  0.20000002806E+02 0.  0.
         12    1    1    2    0    0 -0.45112807705E+01  0.20497807776E+02  0.37988306657E+02  0.43400728340E+02  0.00000000000E+00 0. -1.
         11    1    3    3    0    0 -0.19220305947E+01 -0.32858254737E+01 -0.67277098277E+01  0.77300019688E+01  0.51100000000E-03 0. -1.
        -11    1    3    3    0    0  0.52478922625E+01  0.36386941691E+00 -0.15683200064E+02  0.16541932737E+02  0.51100000000E-03 0.  1.
        -12    1    3    3    0    0  0.11854191027E+01 -0.17575851720E+02 -0.15577396765E+02  0.23515336954E+02  0.00000000000E+00 0.  1.
</event>
<event>
 7    1  0.5022032E-011  0.4778727E+02  0.7816164E-02  0.1312668E+00
        -11   -1    0    0    0    0  0.00000000000E+00  0.00000000000E+00  0.45593999997E+02  0.45594000000E+02  0.51100000000E-03 0. -1.
         11   -1    0    0    0    0 -0.00000000000E+00 -0.00000000000E+00 -0.45593999997E+02  0.45594000000E+02  0.51100000000E-03 0.  1.
    9900012    2    1    2    0    0  0.17936069669E+02 -0.21639697894E+02 -0.33070289690E+02  0.47787272123E+02  0.20000004919E+02 0.  0.
         12    1    1    2    0    0 -0.17936069669E+02  0.21639697894E+02  0.33070289690E+02  0.43400727877E+02  0.00000000000E+00 0. -1.
         11    1    3    3    0    0  0.19834364382E+01 -0.11721652961E+02 -0.94137296846E+01  0.15164085039E+02  0.51100000000E-03 0. -1.
        -11    1    3    3    0    0  0.31054214585E+01 -0.41535016661E+00  0.95819765402E+00  0.32763243431E+01  0.51100000000E-03 0.  1.
        -12    1    3    3    0    0  0.12847211772E+02 -0.95026947663E+01 -0.24614757659E+02  0.29346862741E+02  0.00000000000E+00 0.  1.
</event>
<event>
 7    1  0.5022032E-011  0.4778728E+02  0.7816164E-02  0.1312668E+00
        -11   -1    0    0    0    0  0.00000000000E+00  0.00000000000E+00  0.45593999997E+02  0.45594000000E+02  0.51100000000E-03 0.  1.
         11   -1    0    0    0    0 -0.00000000000E+00 -0.00000000000E+00 -0.45593999997E+02  0.45594000000E+02  0.51100000000E-03 0. -1.
    9900012    2    1    2    0    0  0.38458623233E+02 -0.20076574413E+02 -0.12198656055E+01  0.47787278655E+02  0.20000034701E+02 0.  0.
        -12    1    1    2    0    0 -0.38458623233E+02  0.20076574413E+02  0.12198656055E+01  0.43400721345E+02  0.00000000000E+00 0.  1.
         11    1    3    3    0    0  0.38021194820E+01 -0.28420797928E+01  0.18401729505E+01  0.50911459273E+01  0.51100000000E-03 0. -1.
        -11    1    3    3    0    0  0.16107977068E+02 -0.17229260533E+02 -0.47876608920E+01  0.24067323092E+02  0.51100000000E-03 0.  1.
         12    1    3    3    0    0  0.18548526683E+02 -0.52340866450E-02  0.17276223361E+01  0.18628809636E+02  0.00000000000E+00 0. -1.
</event>
<event>
 7    1  0.5022032E-011  0.4778727E+02  0.7816164E-02  0.1312668E+00
        -11   -1    0    0    0    0  0.00000000000E+00  0.00000000000E+00  0.45593999997E+02  0.45594000000E+02  0.51100000000E-03 0.  1.
         11   -1    0    0    0    0 -0.00000000000E+00 -0.00000000000E+00 -0.45593999997E+02  0.45594000000E+02  0.51100000000E-03 0. -1.
    9900012    2    1    2    0    0  0.31087559900E+02  0.74873598369E+01  0.29344957520E+02  0.47787268788E+02  0.19999989713E+02 0.  0.
        -12    1    1    2    0    0 -0.31087559900E+02 -0.74873598369E+01 -0.29344957520E+02  0.43400731212E+02  0.00000000000E+00 0.  1.
         11    1    3    3    0    0 -0.12581038633E+01 -0.79999068466E+00  0.53430873476E+00  0.15837602444E+01  0.51100000000E-03 0.  1.
        -11    1    3    3    0    0  0.10572467633E+02 -0.30532852747E+01  0.53095905878E+01  0.12218484984E+02  0.51100000000E-03 0. -1.
        -12    1    3    3    0    0  0.21773196130E+02  0.11340635796E+02  0.23501058197E+02  0.33985023560E+02  0.00000000000E+00 0.  1.
</event>
<event>
 7    1  0.5022032E-011  0.4778727E+02  0.7816164E-02  0.1312668E+00
        -11   -1    0    0    0    0  0.00000000000E+00  0.00000000000E+00  0.45593999997E+02  0.45594000000E+02  0.51100000000E-03 0. -1.
         11   -1    0    0    0    0 -0.00000000000E+00 -0.00000000000E+00 -0.45593999997E+02  0.45594000000E+02  0.51100000000E-03 0.  1.
    9900012    2    1    2    0    0 -0.91111263906E+01 -0.33331208573E+01 -0.42302492488E+02  0.47787272017E+02  0.20000004437E+02 0.  0.
         12    1    1    2    0    0  0.91111263906E+01  0.33331208573E+01  0.42302492488E+02  0.43400727983E+02  0.00000000000E+00 0. -1.
         11    1    3    3    0    0 -0.21625280692E+01  0.17881374381E+01 -0.36081899908E+02  0.36190847799E+02  0.51100000000E-03 0. -1.
        -11    1    3    3    0    0 -0.14684904849E+01 -0.26481737094E+01 -0.43493914112E+01  0.52996692547E+01  0.51100000000E-03 0.  1.
        -12    1    3    3    0    0 -0.54801078364E+01 -0.24730845859E+01 -0.18712011683E+01  0.62967549643E+01  0.00000000000E+00 0.  1.
</event>
<event>
 7    1  0.5022032E-011  0.4778727E+02  0.7816164E-02  0.1312668E+00
        -11   -1    0    0    0    0  0.00000000000E+00  0.00000000000E+00  0.45593999997E+02  0.45594000000E+02  0.51100000000E-03 0.  1.
         11   -1    0    0    0    0 -0.00000000000E+00 -0.00000000000E+00 -0.45593999997E+02  0.45594000000E+02  0.51100000000E-03 0. -1.
    9900012    2    1    2    0    0  0.44350480543E+01 -0.43134805584E+02 -0.18281816143E+01  0.47787270144E+02  0.19999995895E+02 0.  0.
         12    1    1    2    0    0 -0.44350480543E+01  0.43134805584E+02  0.18281816143E+01  0.43400729856E+02  0.00000000000E+00 0. -1.
         11    1    3    3    0    0 -0.29541387291E+01 -0.30995890504E+02  0.40393382902E+01  0.31397267681E+02  0.51100000000E-03 0. -1.
        -11    1    3    3    0    0  0.37846789243E+01 -0.96109597148E+01 -0.19814113901E+01  0.10517620100E+02  0.51100000000E-03 0.  1.
         12    1    3    3    0    0  0.36045078591E+01 -0.25279553649E+01 -0.38861085144E+01  0.58723823632E+01  0.00000000000E+00 0. -1.
</event>
<event>
 7    1  0.5022032E-011  0.4778727E+02  0.7816164E-02  0.1312668E+00
        -11   -1    0    0    0    0  0.00000000000E+00  0.00000000000E+00  0.45593999997E+02  0.45594000000E+02  0.51100000000E-03 0. -1.
         11   -1    0    0    0    0 -0.00000000000E+00 -0.00000000000E+00 -0.45593999997E+02  0.45594000000E+02  0.51100000000E-03 0.  1.
    9900012    2    1    2    0    0 -0.30060492016E+01  0.77692461091E+01  0.42593732356E+02  0.47787267829E+02  0.19999985341E+02 0.  0.
        -12    1    1    2    0    0  0.30060492016E+01 -0.77692461091E+01 -0.42593732356E+02  0.43400732171E+02  0.00000000000E+00 0.  1.
         11    1    3    3    0    0 -0.18322218319E+01  0.95820242558E+01  0.20680087100E+02  0.22865656089E+02  0.51100000000E-03 0. -1.
        -11    1    3    3    0    0  0.62372144799E+00  0.14775177754E+01 -0.87476729773E+00  0.18268293044E+01  0.51100000000E-03 0.  1.
        -12    1    3    3    0    0 -0.17975488177E+01 -0.32902959221E+01  0.22788412554E+02  0.23094782436E+02  0.00000000000E+00 0.  1.
</event>
<event>
 7    1  0.5022032E-011  0.4778732E+02  0.7816164E-02  0.1312668E+00
        -11   -1    0    0    0    0  0.00000000000E+00  0.00000000000E+00  0.45593999997E+02  0.45594000000E+02  0.51100000000E-03 0. -1.
         11   -1    0    0    0    0 -0.00000000000E+00 -0.00000000000E+00 -0.45593999997E+02  0.45594000000E+02  0.51100000000E-03 0.  1.
    9900012    2    1    2    0    0  0.15221984729E+02  0.77141784149E+01 -0.39904903843E+02  0.47787323526E+02  0.20000239282E+02 0.  0.
         12    1    1    2    0    0 -0.15221984729E+02 -0.77141784149E+01  0.39904903843E+02  0.43400676474E+02  0.00000000000E+00 0. -1.
         11    1    3    3    0    0  0.13752940653E+02  0.31193672517E+01 -0.12621729670E+02  0.18925693879E+02  0.51100000000E-03 0. -1.
        -11    1    3    3    0    0  0.16417208318E+01  0.50100319845E+01 -0.80475197977E+01  0.96207194602E+01  0.51100000000E-03 0.  1.
         12    1    3    3    0    0 -0.17267675589E+00 -0.41522082125E+00 -0.19235654375E+02  0.19240910187E+02  0.00000000000E+00 0. -1.
</event>
<event>
 7    1  0.5022032E-011  0.4778725E+02  0.7816164E-02  0.1312668E+00
        -11   -1    0    0    0    0  0.00000000000E+00  0.00000000000E+00  0.45593999997E+02  0.45594000000E+02  0.51100000000E-03 0. -1.
         11   -1    0    0    0    0 -0.00000000000E+00 -0.00000000000E+00 -0.45593999997E+02  0.45594000000E+02  0.51100000000E-03 0.  1.
    9900012    2    1    2    0    0 -0.56158715490E+01 -0.15244013001E+02 -0.40245586247E+02  0.47787249339E+02  0.19999901034E+02 0.  0.
         12    1    1    2    0    0  0.56158715490E+01  0.15244013001E+02  0.40245586247E+02  0.43400750661E+02  0.00000000000E+00 0. -1.
         11    1    3    3    0    0 -0.98876689725E-01  0.19316816105E+01 -0.12494471766E+01  0.23026699617E+01  0.51100000000E-03 0. -1.
        -11    1    3    3    0    0  0.50552781458E+01 -0.36273651317E+01 -0.99399364577E+01  0.11726719574E+02  0.51100000000E-03 0.  1.
         12    1    3    3    0    0 -0.10572273005E+02 -0.13548329480E+02 -0.29056202612E+02  0.33757859803E+02  0.00000000000E+00 0. -1.
</event>
<event>
 7    1  0.5022032E-011  0.4778727E+02  0.7816164E-02  0.1312668E+00
        -11   -1    0    0    0    0  0.00000000000E+00  0.00000000000E+00  0.45593999997E+02  0.45594000000E+02  0.51100000000E-03 0. -1.
         11   -1    0    0    0    0 -0.00000000000E+00 -0.00000000000E+00 -0.45593999997E+02  0.45594000000E+02  0.51100000000E-03 0.  1.
    9900012    2    1    2    0    0  0.21410389637E+02 -0.17163630250E+02 -0.33624814766E+02  0.47787272404E+02  0.20000006200E+02 0.  0.
         12    1    1    2    0    0 -0.21410389637E+02  0.17163630250E+02  0.33624814766E+02  0.43400727596E+02  0.00000000000E+00 0. -1.
         11    1    3    3    0    0  0.48584816465E+00  0.25361016527E+01 -0.59279117630E+01  0.64659104667E+01  0.51100000000E-03 0.  1.
        -11    1    3    3    0    0  0.20812879560E+01  0.76702559974E+00 -0.23543273384E+00  0.22305866178E+01  0.51100000000E-03 0. -1.
         12    1    3    3    0    0  0.18843253516E+02 -0.20466757502E+02 -0.27461470270E+02  0.39090775320E+02  0.00000000000E+00 0. -1.
</event>
<event>
 7    1  0.5022032E-011  0.4778727E+02  0.7816164E-02  0.1312668E+00
        -11   -1    0    0    0    0  0.00000000000E+00  0.00000000000E+00  0.45593999997E+02  0.45594000000E+02  0.51100000000E-03 0. -1.
         11   -1    0    0    0    0 -0.00000000000E+00 -0.00000000000E+00 -0.45593999997E+02  0.45594000000E+02  0.51100000000E-03 0.  1.
    9900012    2    1    2    0    0  0.13609728819E+02  0.38155146444E+00 -0.41209865572E+02  0.47787270507E+02  0.19999997551E+02 0.  0.
         12    1    1    2    0    0 -0.13609728819E+02 -0.38155146444E+00  0.41209865572E+02  0.43400729493E+02  0.00000000000E+00 0. -1.
         11    1    3    3    0    0  0.36009365463E+01  0.16951474084E+01 -0.36983122361E+01  0.54330270019E+01  0.51100000000E-03 0. -1.
        -11    1    3    3    0    0  0.14180907197E+02 -0.39292311789E+01 -0.27120008821E+02  0.30855013617E+02  0.51100000000E-03 0.  1.
         12    1    3    3    0    0 -0.41721149242E+01  0.26156352350E+01 -0.10391544515E+02  0.11499229888E+02  0.00000000000E+00 0. -1.
</event>
<event>
 7    1  0.5022032E-011  0.4778727E+02  0.7816164E-02  0.1312668E+00
        -11   -1    0    0    0    0  0.00000000000E+00  0.00000000000E+00  0.45593999997E+02  0.45594000000E+02  0.51100000000E-03 0. -1.
         11   -1    0    0    0    0 -0.00000000000E+00 -0.00000000000E+00 -0.45593999997E+02  0.45594000000E+02  0.51100000000E-03 0.  1.
    9900012    2    1    2    0    0 -0.12542655946E+02 -0.15781399182E+02  0.38435045050E+02  0.47787268827E+02  0.19999989889E+02 0.  0.
        -12    1    1    2    0    0  0.12542655946E+02  0.15781399182E+02 -0.38435045050E+02  0.43400731173E+02  0.00000000000E+00 0.  1.
         11    1    3    3    0    0  0.19048510544E+01  0.19524241503E+01  0.30992736775E+01  0.41286699058E+01  0.51100000000E-03 0. -1.
        -11    1    3    3    0    0 -0.75442499215E+01 -0.18758621035E+01  0.15509117832E+02  0.17348409198E+02  0.51100000000E-03 0.  1.
         12    1    3    3    0    0 -0.69032570789E+01 -0.15857961229E+02  0.19826653541E+02  0.26310189724E+02  0.00000000000E+00 0. -1.
</event>
<event>
 7    1  0.5022032E-011  0.4778728E+02  0.7816164E-02  0.1312668E+00
        -11   -1    0    0    0    0  0.00000000000E+00  0.00000000000E+00  0.45593999997E+02  0.45594000000E+02  0.51100000000E-03 0. -1.
         11   -1    0    0    0    0 -0.00000000000E+00 -0.00000000000E+00 -0.45593999997E+02  0.45594000000E+02  0.51100000000E-03 0.  1.
    9900012    2    1    2    0    0 -0.28440516375E+02  0.13098875365E+02  0.30052934750E+02  0.47787281174E+02  0.20000046187E+02 0.  0.
        -12    1    1    2    0    0  0.28440516375E+02 -0.13098875365E+02 -0.30052934750E+02  0.43400718826E+02  0.00000000000E+00 0.  1.
         11    1    3    3    0    0 -0.91366035831E+00  0.27524857310E+01  0.44843459121E+00  0.29346289022E+01  0.51100000000E-03 0. -1.
        -11    1    3    3    0    0 -0.11220301491E+02 -0.81455381738E+00  0.28737780658E+01  0.11611083675E+02  0.51100000000E-03 0.  1.
         12    1    3    3    0    0 -0.16306554526E+02  0.11160943452E+02  0.26730722093E+02  0.33241568598E+02  0.00000000000E+00 0. -1.
</event>
<event>
 7    1  0.5022032E-011  0.4778727E+02  0.7816164E-02  0.1312668E+00
        -11   -1    0    0    0    0  0.00000000000E+00  0.00000000000E+00  0.45593999997E+02  0.45594000000E+02  0.51100000000E-03 0.  1.
         11   -1    0    0    0    0 -0.00000000000E+00 -0.00000000000E+00 -0.45593999997E+02  0.45594000000E+02  0.51100000000E-03 0. -1.
    9900012    2    1    2    0    0 -0.38656109684E+02 -0.15862661783E+02 -0.11734765442E+02  0.47787267579E+02  0.19999984200E+02 0.  0.
         12    1    1    2    0    0  0.38656109684E+02  0.15862661783E+02  0.11734765442E+02  0.43400732421E+02  0.00000000000E+00 0. -1.
         11    1    3    3    0    0 -0.11023671109E+02  0.15349784364E+01  0.89860901824E-01  0.11130388976E+02  0.51100000000E-03 0. -1.
        -11    1    3    3    0    0 -0.82040235411E+01  0.73568597431E-01 -0.62190745090E+00  0.82278906009E+01  0.51100000000E-03 0.  1.
         12    1    3    3    0    0 -0.19428415034E+02 -0.17471208816E+02 -0.11202718893E+02  0.28428988002E+02  0.00000000000E+00 0. -1.
</event>
<event>
 7    1  0.5022032E-011  0.4778727E+02  0.7816164E-02  0.1312668E+00
        -11   -1    0    0    0    0  0.00000000000E+00  0.00000000000E+00  0.45593999997E+02  0.45594000000E+02  0.51100000000E-03 0. -1.
         11   -1    0    0    0    0 -0.00000000000E+00 -0.00000000000E+00 -0.45593999997E+02  0.45594000000E+02  0.51100000000E-03 0.  1.
    9900012    2    1    2    0    0  0.27028885736E+02  0.63747011029E+01 -0.33353050632E+02  0.47787268845E+02  0.19999989973E+02 0.  0.
         12    1    1    2    0    0 -0.27028885736E+02 -0.63747011029E+01  0.33353050632E+02  0.43400731155E+02  0.00000000000E+00 0. -1.
         11    1    3    3    0    0  0.13486634277E+02  0.31300859572E+01 -0.54658862155E+01  0.14884980840E+02  0.51100000000E-03 0.  1.
        -11    1    3    3    0    0  0.73485989098E+00 -0.26509348649E+01 -0.19210633471E+01  0.33552882681E+01  0.51100000000E-03 0. -1.
         12    1    3    3    0    0  0.12807391567E+02  0.58955500107E+01 -0.25966101070E+02  0.29546999737E+02  0.00000000000E+00 0. -1.
</event>
<event>
 7    1  0.5022032E-011  0.4778728E+02  0.7816164E-02  0.1312668E+00
        -11   -1    0    0    0    0  0.00000000000E+00  0.00000000000E+00  0.45593999997E+02  0.45594000000E+02  0.51100000000E-03 0. -1.
         11   -1    0    0    0    0 -0.00000000000E+00 -0.00000000000E+00 -0.45593999997E+02  0.45594000000E+02  0.51100000000E-03 0.  1.
    9900012    2    1    2    0    0  0.18142571469E+02  0.36365352277E+02 -0.15232563260E+02  0.47787277319E+02  0.20000028609E+02 0.  0.
         12    1    1    2    0    0 -0.18142571469E+02 -0.36365352277E+02  0.15232563260E+02  0.43400722681E+02  0.00000000000E+00 0. -1.
         11    1    3    3    0    0  0.60933506409E+01  0.11903695949E+02  0.25880157428E+01  0.13620746126E+02  0.51100000000E-03 0. -1.
        -11    1    3    3    0    0  0.37944758986E+01  0.13846114537E+01 -0.32224508483E+00  0.40520412607E+01  0.51100000000E-03 0.  1.
        -12    1    3    3    0    0  0.82547449295E+01  0.23077044875E+02 -0.17498333918E+02  0.30114489933E+02  0.00000000000E+00 0.  1.
</event>
<event>
 7    1  0.5022032E-011  0.4778727E+02  0.7816164E-02  0.1312668E+00
        -11   -1    0    0    0    0  0.00000000000E+00  0.00000000000E+00  0.45593999997E+02  0.45594000000E+02  0.51100000000E-03 0. -1.
         11   -1    0    0    0    0 -0.00000000000E+00 -0.00000000000E+00 -0.45593999997E+02  0.45594000000E+02  0.51100000000E-03 0.  1.
    9900012    2    1    2    0    0  0.11149377121E+01 -0.15974713868E+02 -0.40338426901E+02  0.47787271272E+02  0.20000001038E+02 0.  0.
         12    1    1    2    0    0 -0.11149377121E+01  0.15974713868E+02  0.40338426901E+02  0.43400728728E+02  0.00000000000E+00 0. -1.
         11    1    3    3    0    0 -0.40475552493E+01 -0.46713216801E+01 -0.79232717747E+01  0.10048989283E+02  0.51100000000E-03 0. -1.
        -11    1    3    3    0    0  0.34414695074E+01 -0.14371594056E+02 -0.30085230866E+02  0.33518764067E+02  0.51100000000E-03 0.  1.
         12    1    3    3    0    0  0.17210234540E+01  0.30682018681E+01 -0.23299242603E+01  0.42195179217E+01  0.00000000000E+00 0. -1.
</event>
<event>
 7    1  0.5022032E-011  0.4778727E+02  0.7816164E-02  0.1312668E+00
        -11   -1    0    0    0    0  0.00000000000E+00  0.00000000000E+00  0.45593999997E+02  0.45594000000E+02  0.51100000000E-03 0. -1.
         11   -1    0    0    0    0 -0.00000000000E+00 -0.00000000000E+00 -0.45593999997E+02  0.45594000000E+02  0.51100000000E-03 0.  1.
    9900012    2    1    2    0    0  0.24060323830E+02 -0.32946407007E+02 -0.14807377440E+02  0.47787270235E+02  0.19999996312E+02 0.  0.
         12    1    1    2    0    0 -0.24060323830E+02  0.32946407007E+02  0.14807377440E+02  0.43400729765E+02  0.00000000000E+00 0. -1.
         11    1    3    3    0    0  0.76948085991E-01 -0.11613312853E+01 -0.54184090205E+01  0.55420003552E+01  0.51100000000E-03 0. -1.
        -11    1    3    3    0    0  0.37150734061E+01 -0.12954345580E+02 -0.21389897685E+01  0.13645223241E+02  0.51100000000E-03 0.  1.
         12    1    3    3    0    0  0.20268302337E+02 -0.18830730142E+02 -0.72499786513E+01  0.28600046639E+02  0.00000000000E+00 0. -1.
</event>
<event>
 7    1  0.5022032E-011  0.4778727E+02  0.7816164E-02  0.1312668E+00
        -11   -1    0    0    0    0  0.00000000000E+00  0.00000000000E+00  0.45593999997E+02  0.45594000000E+02  0.51100000000E-03 0. -1.
         11   -1    0    0    0    0 -0.00000000000E+00 -0.00000000000E+00 -0.45593999997E+02  0.45594000000E+02  0.51100000000E-03 0.  1.
    9900012    2    1    2    0    0 -0.34550058538E+02 -0.56019830581E+01  0.25661928223E+02  0.47787270522E+02  0.19999997617E+02 0.  0.
        -12    1    1    2    0    0  0.34550058538E+02  0.56019830581E+01 -0.25661928223E+02  0.43400729478E+02  0.00000000000E+00 0.  1.
         11    1    3    3    0    0 -0.86964689430E+01 -0.37547844155E+01  0.28543004011E+01  0.98931293898E+01  0.51100000000E-03 0. -1.
        -11    1    3    3    0    0  0.12797033769E+00 -0.18483602597E+01  0.75280338793E+01  0.77526838195E+01  0.51100000000E-03 0.  1.
         12    1    3    3    0    0 -0.25981559932E+02  0.11616171443E-02  0.15279593943E+02  0.30141457312E+02  0.00000000000E+00 0. -1.
</event>
<event>
 7    1  0.5022032E-011  0.4778727E+02  0.7816164E-02  0.1312668E+00
        -11   -1    0    0    0    0  0.00000000000E+00  0.00000000000E+00  0.45593999997E+02  0.45594000000E+02  0.51100000000E-03 0. -1.
         11   -1    0    0    0    0 -0.00000000000E+00 -0.00000000000E+00 -0.45593999997E+02  0.45594000000E+02  0.51100000000E-03 0.  1.
    9900012    2    1    2    0    0  0.11334390496E+02 -0.43915215315E+01  0.41663765612E+02  0.47787271501E+02  0.20000002082E+02 0.  0.
        -12    1    1    2    0    0 -0.11334390496E+02  0.43915215315E+01 -0.41663765612E+02  0.43400728499E+02  0.00000000000E+00 0.  1.
         11    1    3    3    0    0  0.55180751927E+01 -0.75838434508E+01  0.26544832128E+02  0.28153009578E+02  0.51100000000E-03 0. -1.
        -11    1    3    3    0    0 -0.24073580927E+01  0.43445363110E+00  0.81454078337E+01  0.85048099322E+01  0.51100000000E-03 0.  1.
         12    1    3    3    0    0  0.82236733963E+01  0.27578682882E+01  0.69735256496E+01  0.11129451991E+02  0.00000000000E+00 0. -1.
</event>
<event>
 7    1  0.5022032E-011  0.4778727E+02  0.7816164E-02  0.1312668E+00
        -11   -1    0    0    0    0  0.00000000000E+00  0.00000000000E+00  0.45593999997E+02  0.45594000000E+02  0.51100000000E-03 0.  1.
         11   -1    0    0    0    0 -0.00000000000E+00 -0.00000000000E+00 -0.45593999997E+02  0.45594000000E+02  0.51100000000E-03 0. -1.
    9900012    2    1    2    0    0 -0.24418914764E+02  0.33458819620E+02  0.12955584414E+02  0.47787272170E+02  0.20000005132E+02 0.  0.
         12    1    1    2    0    0  0.24418914764E+02 -0.33458819620E+02 -0.12955584414E+02  0.43400727830E+02  0.00000000000E+00 0. -1.
         11    1    3    3    0    0 -0.13183094763E+02  0.43806099975E+01  0.43059022726E+01  0.14543882773E+02  0.51100000000E-03 0. -1.
        -11    1    3    3    0    0  0.69789214055E+00  0.34391777283E+01  0.24822309200E+01  0.42984261641E+01  0.51100000000E-03 0.  1.
        -12    1    3    3    0    0 -0.11933712142E+02  0.25639031895E+02  0.61674512212E+01  0.28944963233E+02  0.00000000000E+00 0.  1.
</event>
<event>
 7    1  0.5022032E-011  0.4778727E+02  0.7816164E-02  0.1312668E+00
        -11   -1    0    0    0    0  0.00000000000E+00  0.00000000000E+00  0.45593999997E+02  0.45594000000E+02  0.51100000000E-03 0. -1.
         11   -1    0    0    0    0 -0.00000000000E+00 -0.00000000000E+00 -0.45593999997E+02  0.45594000000E+02  0.51100000000E-03 0.  1.
    9900012    2    1    2    0    0 -0.18479812150E+02  0.38461831129E+02  0.79251002898E+01  0.47787272754E+02  0.20000007795E+02 0.  0.
         12    1    1    2    0    0  0.18479812150E+02 -0.38461831129E+02 -0.79251002898E+01  0.43400727246E+02  0.00000000000E+00 0. -1.
         11    1    3    3    0    0 -0.47051350513E+01  0.67607935145E+01  0.40229272504E+01  0.91668188986E+01  0.51100000000E-03 0. -1.
        -11    1    3    3    0    0 -0.11239840913E+02  0.17711888235E+02 -0.53617050955E+01  0.21651625583E+02  0.51100000000E-03 0.  1.
         12    1    3    3    0    0 -0.25348361853E+01  0.13989149379E+02  0.92638781348E+01  0.16968828272E+02  0.00000000000E+00 0. -1.
</event>
<event>
 7    1  0.5022032E-011  0.4778727E+02  0.7816164E-02  0.1312668E+00
        -11   -1    0    0    0    0  0.00000000000E+00  0.00000000000E+00  0.45593999997E+02  0.45594000000E+02  0.51100000000E-03 0. -1.
         11   -1    0    0    0    0 -0.00000000000E+00 -0.00000000000E+00 -0.45593999997E+02  0.45594000000E+02  0.51100000000E-03 0.  1.
    9900012    2    1    2    0    0  0.38527637432E-01 -0.10549156757E+01 -0.43387886719E+02  0.47787273676E+02  0.20000012000E+02 0.  0.
         12    1    1    2    0    0 -0.38527637432E-01  0.10549156757E+01  0.43387886719E+02  0.43400726324E+02  0.00000000000E+00 0. -1.
         11    1    3    3    0    0 -0.58545293098E+01  0.86109370410E+00 -0.60721215849E+01  0.84786588922E+01  0.51100000000E-03 0. -1.
        -11    1    3    3    0    0 -0.84580706847E+00  0.34733946809E+01 -0.83042386862E+01  0.90410309492E+01  0.51100000000E-03 0.  1.
         12    1    3    3    0    0  0.67388640157E+01 -0.53894040607E+01 -0.29011526448E+02  0.30267583835E+02  0.00000000000E+00 0. -1.
</event>
<event>
 7    1  0.5022032E-011  0.4778727E+02  0.7816164E-02  0.1312668E+00
        -11   -1    0    0    0    0  0.00000000000E+00  0.00000000000E+00  0.45593999997E+02  0.45594000000E+02  0.51100000000E-03 0.  1.
         11   -1    0    0    0    0 -0.00000000000E+00 -0.00000000000E+00 -0.45593999997E+02  0.45594000000E+02  0.51100000000E-03 0. -1.
    9900012    2    1    2    0    0  0.25908763676E+02 -0.23889507739E+02 -0.25330822834E+02  0.47787271888E+02  0.20000003845E+02 0.  0.
         12    1    1    2    0    0 -0.25908763676E+02  0.23889507739E+02  0.25330822834E+02  0.43400728112E+02  0.00000000000E+00 0. -1.
         11    1    3    3    0    0  0.85708959522E+01 -0.79308384927E+01  0.87409360792E+00  0.11709931533E+02  0.51100000000E-03 0. -1.
        -11    1    3    3    0    0  0.95213785398E+01 -0.69589037979E+01 -0.77653880139E+01  0.14120348531E+02  0.51100000000E-03 0.  1.
         12    1    3    3    0    0  0.78164891838E+01 -0.89997654481E+01 -0.18439528428E+02  0.21956991823E+02  0.00000000000E+00 0. -1.
</event>
<event>
 7    1  0.5022032E-011  0.4778727E+02  0.7816164E-02  0.1312668E+00
        -11   -1    0    0    0    0  0.00000000000E+00  0.00000000000E+00  0.45593999997E+02  0.45594000000E+02  0.51100000000E-03 0.  1.
         11   -1    0    0    0    0 -0.00000000000E+00 -0.00000000000E+00 -0.45593999997E+02  0.45594000000E+02  0.51100000000E-03 0. -1.
    9900012    2    1    2    0    0 -0.40423293822E+01  0.42826442264E+02  0.57600988092E+01  0.47787270488E+02  0.19999997465E+02 0.  0.
        -12    1    1    2    0    0  0.40423293822E+01 -0.42826442264E+02 -0.57600988092E+01  0.43400729512E+02  0.00000000000E+00 0.  1.
         11    1    3    3    0    0  0.31404728551E+01  0.15184511880E+02 -0.18631116762E-02  0.15505869035E+02  0.51100000000E-03 0. -1.
        -11    1    3    3    0    0  0.91106339748E-03 -0.10288954353E+01 -0.15246836540E+01  0.18393714015E+01  0.51100000000E-03 0.  1.
        -12    1    3    3    0    0 -0.71837133007E+01  0.28670825819E+02  0.72866455748E+01  0.30442030052E+02  0.00000000000E+00 0.  1.
</event>
<event>
 7    1  0.5022032E-011  0.4778727E+02  0.7816164E-02  0.1312668E+00
        -11   -1    0    0    0    0  0.00000000000E+00  0.00000000000E+00  0.45593999997E+02  0.45594000000E+02  0.51100000000E-03 0. -1.
         11   -1    0    0    0    0 -0.00000000000E+00 -0.00000000000E+00 -0.45593999997E+02  0.45594000000E+02  0.51100000000E-03 0.  1.
    9900012    2    1    2    0    0  0.88219686036E+01  0.37456362046E+02 -0.20070295538E+02  0.47787274767E+02  0.20000016973E+02 0.  0.
         12    1    1    2    0    0 -0.88219686036E+01 -0.37456362046E+02  0.20070295538E+02  0.43400725233E+02  0.00000000000E+00 0. -1.
         11    1    3    3    0    0  0.56422656276E+01  0.15160497296E+02 -0.13505674160E+02  0.21073183776E+02  0.51100000000E-03 0. -1.
        -11    1    3    3    0    0  0.71983501522E+01  0.16276343169E+02 -0.14589336718E+01  0.17856765653E+02  0.51100000000E-03 0.  1.
         12    1    3    3    0    0 -0.40186471761E+01  0.60195215807E+01 -0.51056877063E+01  0.88573253379E+01  0.00000000000E+00 0. -1.
</event>
<event>
 7    1  0.5022032E-011  0.4778727E+02  0.7816164E-02  0.1312668E+00
        -11   -1    0    0    0    0  0.00000000000E+00  0.00000000000E+00  0.45593999997E+02  0.45594000000E+02  0.51100000000E-03 0. -1.
         11   -1    0    0    0    0 -0.00000000000E+00 -0.00000000000E+00 -0.45593999997E+02  0.45594000000E+02  0.51100000000E-03 0.  1.
    9900012    2    1    2    0    0  0.39383760920E+02  0.93697887993E+01  0.15644490091E+02  0.47787266866E+02  0.19999980950E+02 0.  0.
        -12    1    1    2    0    0 -0.39383760920E+02 -0.93697887993E+01 -0.15644490091E+02  0.43400733134E+02  0.00000000000E+00 0.  1.
         11    1    3    3    0    0  0.60501981787E+01 -0.23654142382E+00 -0.69106611603E+00  0.60941301664E+01  0.51100000000E-03 0. -1.
        -11    1    3    3    0    0  0.41824656222E+01  0.61484913549E+01 -0.11500384988E+01  0.75245965627E+01  0.51100000000E-03 0.  1.
         12    1    3    3    0    0  0.29151097119E+02  0.34578388683E+01  0.17485594706E+02  0.34168540137E+02  0.00000000000E+00 0. -1.
</event>
<event>
 7    1  0.5022032E-011  0.4778727E+02  0.7816164E-02  0.1312668E+00
        -11   -1    0    0    0    0  0.00000000000E+00  0.00000000000E+00  0.45593999997E+02  0.45594000000E+02  0.51100000000E-03 0. -1.
         11   -1    0    0    0    0 -0.00000000000E+00 -0.00000000000E+00 -0.45593999997E+02  0.45594000000E+02  0.51100000000E-03 0.  1.
    9900012    2    1    2    0    0 -0.11540851267E+00  0.15262001286E+02 -0.40628577027E+02  0.47787271047E+02  0.20000000011E+02 0.  0.
         12    1    1    2    0    0  0.11540851267E+00 -0.15262001286E+02  0.40628577027E+02  0.43400728953E+02  0.00000000000E+00 0. -1.
         11    1    3    3    0    0  0.56263629961E+01  0.16768407308E+02 -0.28005633996E+02  0.33123269464E+02  0.51100000000E-03 0. -1.
        -11    1    3    3    0    0 -0.15350266913E+01  0.15944888938E+01 -0.32401971274E+01  0.39239749567E+01  0.51100000000E-03 0.  1.
         12    1    3    3    0    0 -0.42067448175E+01 -0.31008949151E+01 -0.93827459042E+01  0.10740026626E+02  0.00000000000E+00 0. -1.
</event>
<event>
 7    1  0.5022032E-011  0.4778727E+02  0.7816164E-02  0.1312668E+00
        -11   -1    0    0    0    0  0.00000000000E+00  0.00000000000E+00  0.45593999997E+02  0.45594000000E+02  0.51100000000E-03 0. -1.
         11   -1    0    0    0    0 -0.00000000000E+00 -0.00000000000E+00 -0.45593999997E+02  0.45594000000E+02  0.51100000000E-03 0.  1.
    9900012    2    1    2    0    0  0.21096489497E+00  0.21996847288E+02 -0.37412799608E+02  0.47787269922E+02  0.19999994884E+02 0.  0.
         12    1    1    2    0    0 -0.21096489497E+00 -0.21996847288E+02  0.37412799608E+02  0.43400730078E+02  0.00000000000E+00 0. -1.
         11    1    3    3    0    0  0.53592786075E+01  0.12433839453E+02 -0.15086990222E+02  0.20271642877E+02  0.51100000000E-03 0. -1.
        -11    1    3    3    0    0 -0.59479282888E+00  0.98519538914E+01 -0.20199386220E+02  0.22481769901E+02  0.51100000000E-03 0.  1.
        -12    1    3    3    0    0 -0.45535208837E+01 -0.28894605659E+00 -0.21264231665E+01  0.50338571439E+01  0.00000000000E+00 0.  1.
</event>
<event>
 7    1  0.5022032E-011  0.4778727E+02  0.7816164E-02  0.1312668E+00
        -11   -1    0    0    0    0  0.00000000000E+00  0.00000000000E+00  0.45593999997E+02  0.45594000000E+02  0.51100000000E-03 0. -1.
         11   -1    0    0    0    0 -0.00000000000E+00 -0.00000000000E+00 -0.45593999997E+02  0.45594000000E+02  0.51100000000E-03 0.  1.
    9900012    2    1    2    0    0 -0.14193153727E+01 -0.76359944115E+01  0.42700121068E+02  0.47787271827E+02  0.20000003566E+02 0.  0.
        -12    1    1    2    0    0  0.14193153727E+01  0.76359944115E+01 -0.42700121068E+02  0.43400728173E+02  0.00000000000E+00 0.  1.
         11    1    3    3    0    0 -0.83325944337E+00 -0.59391151095E+01  0.39151614192E+02  0.39608285795E+02  0.51100000000E-03 0. -1.
        -11    1    3    3    0    0 -0.71467156422E+00 -0.41406389903E+01  0.38679261679E+01  0.57110856931E+01  0.51100000000E-03 0.  1.
         12    1    3    3    0    0  0.12861563487E+00  0.24437596883E+01 -0.31941929169E+00  0.24679003382E+01  0.00000000000E+00 0. -1.
</event>
<event>
 7    1  0.5022032E-011  0.4778727E+02  0.7816164E-02  0.1312668E+00
        -11   -1    0    0    0    0  0.00000000000E+00  0.00000000000E+00  0.45593999997E+02  0.45594000000E+02  0.51100000000E-03 0.  1.
         11   -1    0    0    0    0 -0.00000000000E+00 -0.00000000000E+00 -0.45593999997E+02  0.45594000000E+02  0.51100000000E-03 0. -1.
    9900012    2    1    2    0    0  0.13500700263E+02  0.39344937516E+02  0.12382660576E+02  0.47787270759E+02  0.19999998698E+02 0.  0.
        -12    1    1    2    0    0 -0.13500700263E+02 -0.39344937516E+02 -0.12382660576E+02  0.43400729241E+02  0.00000000000E+00 0.  1.
         11    1    3    3    0    0  0.10338290584E+02  0.28680170651E+02  0.79483193188E+01  0.31505685535E+02  0.51100000000E-03 0. -1.
        -11    1    3    3    0    0  0.12217999311E+01  0.12480137365E+02  0.20399908530E+01  0.12704652166E+02  0.51100000000E-03 0.  1.
        -12    1    3    3    0    0  0.19406097477E+01 -0.18153704997E+01  0.23943504038E+01  0.35769330578E+01  0.00000000000E+00 0.  1.
</event>
<event>
 7    1  0.5022032E-011  0.4778727E+02  0.7816164E-02  0.1312668E+00
        -11   -1    0    0    0    0  0.00000000000E+00  0.00000000000E+00  0.45593999997E+02  0.45594000000E+02  0.51100000000E-03 0. -1.
         11   -1    0    0    0    0 -0.00000000000E+00 -0.00000000000E+00 -0.45593999997E+02  0.45594000000E+02  0.51100000000E-03 0.  1.
    9900012    2    1    2    0    0 -0.76074954954E+01 -0.25265662428E+02  0.34458605370E+02  0.47787272245E+02  0.20000005474E+02 0.  0.
        -12    1    1    2    0    0  0.76074954954E+01  0.25265662428E+02 -0.34458605370E+02  0.43400727755E+02  0.00000000000E+00 0.  1.
         11    1    3    3    0    0 -0.59011618794E+01 -0.11904607512E+02  0.15243637872E+02  0.20221569854E+02  0.51100000000E-03 0. -1.
        -11    1    3    3    0    0 -0.65432435031E+01 -0.27373987144E+01  0.32845422145E+01  0.78163677678E+01  0.51100000000E-03 0.  1.
         12    1    3    3    0    0  0.48369098871E+01 -0.10623656202E+02  0.15930425283E+02  0.19749334623E+02  0.00000000000E+00 0. -1.
</event>
<event>
 7    1  0.5022032E-011  0.4778727E+02  0.7816164E-02  0.1312668E+00
        -11   -1    0    0    0    0  0.00000000000E+00  0.00000000000E+00  0.45593999997E+02  0.45594000000E+02  0.51100000000E-03 0. -1.
         11   -1    0    0    0    0 -0.00000000000E+00 -0.00000000000E+00 -0.45593999997E+02  0.45594000000E+02  0.51100000000E-03 0.  1.
    9900012    2    1    2    0    0  0.18417926202E+02 -0.26618343347E+02 -0.28911364897E+02  0.47787271569E+02  0.20000002394E+02 0.  0.
         12    1    1    2    0    0 -0.18417926202E+02  0.26618343347E+02  0.28911364897E+02  0.43400728431E+02  0.00000000000E+00 0. -1.
         11    1    3    3    0    0  0.77707965069E+01 -0.70279528185E+01 -0.44976294767E+01  0.11402020450E+02  0.51100000000E-03 0. -1.
        -11    1    3    3    0    0 -0.23828744604E+01 -0.62703125582E+01 -0.12737266677E+02  0.14395585189E+02  0.51100000000E-03 0.  1.
        -12    1    3    3    0    0  0.13030004155E+02 -0.13320077971E+02 -0.11676468742E+02  0.21989665930E+02  0.00000000000E+00 0.  1.
</event>
<event>
 7    1  0.5022032E-011  0.4778727E+02  0.7816164E-02  0.1312668E+00
        -11   -1    0    0    0    0  0.00000000000E+00  0.00000000000E+00  0.45593999997E+02  0.45594000000E+02  0.51100000000E-03 0. -1.
         11   -1    0    0    0    0 -0.00000000000E+00 -0.00000000000E+00 -0.45593999997E+02  0.45594000000E+02  0.51100000000E-03 0.  1.
    9900012    2    1    2    0    0  0.89913211312E+01  0.37534660330E+02 -0.19847638959E+02  0.47787270121E+02  0.19999995788E+02 0.  0.
         12    1    1    2    0    0 -0.89913211312E+01 -0.37534660330E+02  0.19847638959E+02  0.43400729879E+02  0.00000000000E+00 0. -1.
         11    1    3    3    0    0  0.49249072025E+01 -0.96467533912E-01 -0.13547399361E+01  0.51087510699E+01  0.51100000000E-03 0. -1.
        -11    1    3    3    0    0 -0.86321064107E+00  0.10467954103E+02 -0.25872903215E+01  0.10817451973E+02  0.51100000000E-03 0.  1.
         12    1    3    3    0    0  0.49296245698E+01  0.27163173761E+02 -0.15905608702E+02  0.31861067078E+02  0.00000000000E+00 0. -1.
</event>
<event>
 7    1  0.5112403E-011  0.4778727E+02  0.7816164E-02  0.1312668E+00
        -11   -1    0    0    0    0  0.00000000000E+00  0.00000000000E+00  0.45593999997E+02  0.45594000000E+02  0.51100000000E-03 0. -1.
         11   -1    0    0    0    0 -0.00000000000E+00 -0.00000000000E+00 -0.45593999997E+02  0.45594000000E+02  0.51100000000E-03 0.  1.
    9900012    2    1    2    0    0 -0.98676455774E+01 -0.23175797228E+02 -0.35343109607E+02  0.47787269556E+02  0.19999993212E+02 0.  0.
         12    1    1    2    0    0  0.98676455774E+01  0.23175797228E+02  0.35343109607E+02  0.43400730444E+02  0.00000000000E+00 0. -1.
         11    1    3    3    0    0 -0.30147655618E+01 -0.67913946166E+01 -0.15782993274E+01  0.75962412586E+01  0.51100000000E-03 0. -1.
        -11    1    3    3    0    0 -0.53450781454E+01 -0.10793723055E+02 -0.97744179876E+01  0.15511723471E+02  0.51100000000E-03 0.  1.
        -12    1    3    3    0    0 -0.15078018701E+01 -0.55906795560E+01 -0.23990392292E+02  0.24679304827E+02  0.00000000000E+00 0.  1.
</event>
<event>
 7    1  0.5022032E-011  0.4778727E+02  0.7816164E-02  0.1312668E+00
        -11   -1    0    0    0    0  0.00000000000E+00  0.00000000000E+00  0.45593999997E+02  0.45594000000E+02  0.51100000000E-03 0. -1.
         11   -1    0    0    0    0 -0.00000000000E+00 -0.00000000000E+00 -0.45593999997E+02  0.45594000000E+02  0.51100000000E-03 0.  1.
    9900012    2    1    2    0    0  0.22142105119E+01 -0.67816268020E+01 -0.42810398159E+02  0.47787269813E+02  0.19999994384E+02 0.  0.
         12    1    1    2    0    0 -0.22142105119E+01  0.67816268020E+01  0.42810398159E+02  0.43400730187E+02  0.00000000000E+00 0. -1.
         11    1    3    3    0    0  0.45122312258E+01  0.93651336939E+00 -0.45325277316E+01  0.64638298110E+01  0.51100000000E-03 0.  1.
        -11    1    3    3    0    0  0.31725425829E+01  0.74236810011E+00 -0.23703214878E+01  0.40292134534E+01  0.51100000000E-03 0. -1.
        -12    1    3    3    0    0 -0.54705632968E+01 -0.84605082715E+01 -0.35907548939E+02  0.37294226548E+02  0.00000000000E+00 0.  1.
</event>
<event>
 7    1  0.5022032E-011  0.4778729E+02  0.7816164E-02  0.1312668E+00
        -11   -1    0    0    0    0  0.00000000000E+00  0.00000000000E+00  0.45593999997E+02  0.45594000000E+02  0.51100000000E-03 0. -1.
         11   -1    0    0    0    0 -0.00000000000E+00 -0.00000000000E+00 -0.45593999997E+02  0.45594000000E+02  0.51100000000E-03 0.  1.
    9900012    2    1    2    0    0 -0.23214694089E+02 -0.22611726681E+02  0.28868826322E+02  0.47787293343E+02  0.20000101666E+02 0.  0.
        -12    1    1    2    0    0  0.23214694089E+02  0.22611726681E+02 -0.28868826322E+02  0.43400706657E+02  0.00000000000E+00 0.  1.
         11    1    3    3    0    0 -0.87954021635E+01 -0.17754413965E+02  0.99715168696E+01  0.22181286333E+02  0.51100000000E-03 0. -1.
        -11    1    3    3    0    0 -0.99251315415E+00  0.34803131644E+00 -0.71706792887E+00  0.12729473022E+01  0.51100000000E-03 0.  1.
        -12    1    3    3    0    0 -0.13426778772E+02 -0.52053440328E+01  0.19614377381E+02  0.24333059707E+02  0.00000000000E+00 0.  1.
</event>
<event>
 7    1  0.5022032E-011  0.4778727E+02  0.7816164E-02  0.1312668E+00
        -11   -1    0    0    0    0  0.00000000000E+00  0.00000000000E+00  0.45593999997E+02  0.45594000000E+02  0.51100000000E-03 0. -1.
         11   -1    0    0    0    0 -0.00000000000E+00 -0.00000000000E+00 -0.45593999997E+02  0.45594000000E+02  0.51100000000E-03 0.  1.
    9900012    2    1    2    0    0  0.27853736185E+01 -0.27931688871E+01 -0.43221097802E+02  0.47787269662E+02  0.19999993699E+02 0.  0.
         12    1    1    2    0    0 -0.27853736185E+01  0.27931688871E+01  0.43221097802E+02  0.43400730338E+02  0.00000000000E+00 0. -1.
         11    1    3    3    0    0  0.24719345053E+01 -0.77399991406E+01 -0.12933449671E+02  0.15273904790E+02  0.51100000000E-03 0.  1.
        -11    1    3    3    0    0  0.30731100808E+01 -0.16364257627E+01 -0.41426910779E+01  0.54114493875E+01  0.51100000000E-03 0. -1.
         12    1    3    3    0    0 -0.27596709676E+01  0.65832560162E+01 -0.26144957053E+02  0.27101915485E+02  0.00000000000E+00 0. -1.
</event>
<event>
 7    1  0.5022032E-011  0.4778727E+02  0.7816164E-02  0.1312668E+00
        -11   -1    0    0    0    0  0.00000000000E+00  0.00000000000E+00  0.45593999997E+02  0.45594000000E+02  0.51100000000E-03 0.  1.
         11   -1    0    0    0    0 -0.00000000000E+00 -0.00000000000E+00 -0.45593999997E+02  0.45594000000E+02  0.51100000000E-03 0. -1.
    9900012    2    1    2    0    0  0.43261709841E+02 -0.49235109172E+00  0.34358797675E+01  0.47787271691E+02  0.20000002949E+02 0.  0.
        -12    1    1    2    0    0 -0.43261709841E+02  0.49235109172E+00 -0.34358797675E+01  0.43400728309E+02  0.00000000000E+00 0.  1.
         11    1    3    3    0    0  0.21541776930E+02  0.28832063864E+01  0.83804278656E+01  0.23293617234E+02  0.51100000000E-03 0. -1.
        -11    1    3    3    0    0  0.58279005578E+01 -0.44081498271E+01  0.12355956663E+01  0.74109990366E+01  0.51100000000E-03 0.  1.
        -12    1    3    3    0    0  0.15892032353E+02  0.10325923490E+01 -0.61801437644E+01  0.17082655421E+02  0.00000000000E+00 0.  1.
</event>
<event>
 7    1  0.5022032E-011  0.4778727E+02  0.7816164E-02  0.1312668E+00
        -11   -1    0    0    0    0  0.00000000000E+00  0.00000000000E+00  0.45593999997E+02  0.45594000000E+02  0.51100000000E-03 0.  1.
         11   -1    0    0    0    0 -0.00000000000E+00 -0.00000000000E+00 -0.45593999997E+02  0.45594000000E+02  0.51100000000E-03 0. -1.
    9900012    2    1    2    0    0  0.31702941076E+02 -0.28539331094E+02 -0.80033378570E+01  0.47787270639E+02  0.19999998154E+02 0.  0.
        -12    1    1    2    0    0 -0.31702941076E+02  0.28539331094E+02  0.80033378570E+01  0.43400729361E+02  0.00000000000E+00 0.  1.
         11    1    3    3    0    0  0.50862063875E+01 -0.71576098169E+00 -0.25726348030E+01  0.57445852148E+01  0.51100000000E-03 0. -1.
        -11    1    3    3    0    0  0.30424248517E+01 -0.41790749322E+01 -0.69000645200E+01  0.86215953807E+01  0.51100000000E-03 0.  1.
        -12    1    3    3    0    0  0.23574309837E+02 -0.23644495180E+02  0.14693614659E+01  0.33421090044E+02  0.00000000000E+00 0.  1.
</event>
<event>
 7    1  0.5022032E-011  0.4778727E+02  0.7816164E-02  0.1312668E+00
        -11   -1    0    0    0    0  0.00000000000E+00  0.00000000000E+00  0.45593999997E+02  0.45594000000E+02  0.51100000000E-03 0. -1.
         11   -1    0    0    0    0 -0.00000000000E+00 -0.00000000000E+00 -0.45593999997E+02  0.45594000000E+02  0.51100000000E-03 0.  1.
    9900012    2    1    2    0    0  0.79748146270E+01 -0.13236093237E+02  0.40556521268E+02  0.47787271321E+02  0.20000001260E+02 0.  0.
        -12    1    1    2    0    0 -0.79748146270E+01  0.13236093237E+02 -0.40556521268E+02  0.43400728679E+02  0.00000000000E+00 0.  1.
         11    1    3    3    0    0 -0.20628837039E+01  0.12545548766E+01  0.81195071768E+01  0.84708791851E+01  0.51100000000E-03 0.  1.
        -11    1    3    3    0    0  0.71641802486E+01 -0.44035065922E+01  0.25219415116E+02  0.26584492622E+02  0.51100000000E-03 0. -1.
        -12    1    3    3    0    0  0.28735180823E+01 -0.10087141522E+02  0.72175989752E+01  0.12731899513E+02  0.00000000000E+00 0.  1.
</event>
<event>
 7    1  0.5022032E-011  0.4778727E+02  0.7816164E-02  0.1312668E+00
        -11   -1    0    0    0    0  0.00000000000E+00  0.00000000000E+00  0.45593999997E+02  0.45594000000E+02  0.51100000000E-03 0. -1.
         11   -1    0    0    0    0 -0.00000000000E+00 -0.00000000000E+00 -0.45593999997E+02  0.45594000000E+02  0.51100000000E-03 0.  1.
    9900012    2    1    2    0    0  0.18209136119E+01 -0.17564465398E+02 -0.39645893819E+02  0.47787273418E+02  0.20000010823E+02 0.  0.
         12    1    1    2    0    0 -0.18209136119E+01  0.17564465398E+02  0.39645893819E+02  0.43400726582E+02  0.00000000000E+00 0. -1.
         11    1    3    3    0    0  0.10585814382E+01  0.21510141980E+01  0.18191417795E+00  0.24042773905E+01  0.51100000000E-03 0. -1.
        -11    1    3    3    0    0  0.46856082604E+01 -0.71908739906E+01 -0.14271071597E+02  0.16653140194E+02  0.51100000000E-03 0.  1.
        -12    1    3    3    0    0 -0.39232760867E+01 -0.12524605605E+02 -0.25556736400E+02  0.28729855834E+02  0.00000000000E+00 0.  1.
</event>
<event>
 7    1  0.5022032E-011  0.4778727E+02  0.7816164E-02  0.1312668E+00
        -11   -1    0    0    0    0  0.00000000000E+00  0.00000000000E+00  0.45593999997E+02  0.45594000000E+02  0.51100000000E-03 0. -1.
         11   -1    0    0    0    0 -0.00000000000E+00 -0.00000000000E+00 -0.45593999997E+02  0.45594000000E+02  0.51100000000E-03 0.  1.
    9900012    2    1    2    0    0  0.22680824732E+01  0.26634866665E+02  0.34191562728E+02  0.47787270950E+02  0.19999999567E+02 0.  0.
        -12    1    1    2    0    0 -0.22680824732E+01 -0.26634866665E+02 -0.34191562728E+02  0.43400729050E+02  0.00000000000E+00 0.  1.
         11    1    3    3    0    0 -0.29235962958E+01  0.77349174506E+01  0.15284111322E+02  0.17377583907E+02  0.51100000000E-03 0. -1.
        -11    1    3    3    0    0 -0.36606002172E+01  0.11653657191E+01  0.44337596219E+01  0.58665403651E+01  0.51100000000E-03 0.  1.
         12    1    3    3    0    0  0.88522789863E+01  0.17734583495E+02  0.14473691784E+02  0.24543146678E+02  0.00000000000E+00 0. -1.
</event>
<event>
 7    1  0.5022032E-011  0.4778728E+02  0.7816164E-02  0.1312668E+00
        -11   -1    0    0    0    0  0.00000000000E+00  0.00000000000E+00  0.45593999997E+02  0.45594000000E+02  0.51100000000E-03 0. -1.
         11   -1    0    0    0    0 -0.00000000000E+00 -0.00000000000E+00 -0.45593999997E+02  0.45594000000E+02  0.51100000000E-03 0.  1.
    9900012    2    1    2    0    0  0.16280366626E+02 -0.50961443376E+01  0.39907412949E+02  0.47787278430E+02  0.20000033672E+02 0.  0.
        -12    1    1    2    0    0 -0.16280366626E+02  0.50961443376E+01 -0.39907412949E+02  0.43400721570E+02  0.00000000000E+00 0.  1.
         11    1    3    3    0    0  0.10418327386E+02 -0.82011518851E+01  0.17466627794E+02  0.21929056626E+02  0.51100000000E-03 0. -1.
        -11    1    3    3    0    0  0.81488505202E+01  0.29795795152E+01  0.10137370731E+02  0.13343460739E+02  0.51100000000E-03 0.  1.
         12    1    3    3    0    0 -0.22868112804E+01  0.12542803228E+00  0.12303414424E+02  0.12514761064E+02  0.00000000000E+00 0. -1.
</event>
<event>
 7    1  0.5022032E-011  0.4778727E+02  0.7816164E-02  0.1312668E+00
        -11   -1    0    0    0    0  0.00000000000E+00  0.00000000000E+00  0.45593999997E+02  0.45594000000E+02  0.51100000000E-03 0. -1.
         11   -1    0    0    0    0 -0.00000000000E+00 -0.00000000000E+00 -0.45593999997E+02  0.45594000000E+02  0.51100000000E-03 0.  1.
    9900012    2    1    2    0    0 -0.88986377883E+01 -0.40375004125E+02 -0.13202138521E+02  0.47787272194E+02  0.20000005240E+02 0.  0.
         12    1    1    2    0    0  0.88986377883E+01  0.40375004125E+02  0.13202138521E+02  0.43400727806E+02  0.00000000000E+00 0. -1.
         11    1    3    3    0    0 -0.76951905365E+01 -0.15131742029E+02 -0.19737122301E+00  0.16977176734E+02  0.51100000000E-03 0. -1.
        -11    1    3    3    0    0 -0.52750157878E+01 -0.21121116785E+02 -0.81306453775E+01  0.23238647988E+02  0.51100000000E-03 0.  1.
         12    1    3    3    0    0  0.40715685360E+01 -0.41221453122E+01 -0.48741219200E+01  0.75714474712E+01  0.00000000000E+00 0. -1.
</event>
<event>
 7    1  0.5022032E-011  0.4778727E+02  0.7816164E-02  0.1312668E+00
        -11   -1    0    0    0    0  0.00000000000E+00  0.00000000000E+00  0.45593999997E+02  0.45594000000E+02  0.51100000000E-03 0. -1.
         11   -1    0    0    0    0 -0.00000000000E+00 -0.00000000000E+00 -0.45593999997E+02  0.45594000000E+02  0.51100000000E-03 0.  1.
    9900012    2    1    2    0    0  0.19513832795E+02  0.16005186233E+02  0.35308184907E+02  0.47787267539E+02  0.19999984020E+02 0.  0.
        -12    1    1    2    0    0 -0.19513832795E+02 -0.16005186233E+02 -0.35308184907E+02  0.43400732461E+02  0.00000000000E+00 0.  1.
         11    1    3    3    0    0  0.15600020428E+02  0.57888198594E+01  0.28401791832E+02  0.32917060201E+02  0.51100000000E-03 0. -1.
        -11    1    3    3    0    0  0.52051837490E+01  0.43873854087E+01  0.54613334617E+01  0.87274997581E+01  0.51100000000E-03 0.  1.
        -12    1    3    3    0    0 -0.12913713824E+01  0.58289809648E+01  0.14450596128E+01  0.61427075805E+01  0.00000000000E+00 0.  1.
</event>
<event>
 7    1  0.5022032E-011  0.4778727E+02  0.7816164E-02  0.1312668E+00
        -11   -1    0    0    0    0  0.00000000000E+00  0.00000000000E+00  0.45593999997E+02  0.45594000000E+02  0.51100000000E-03 0. -1.
         11   -1    0    0    0    0 -0.00000000000E+00 -0.00000000000E+00 -0.45593999997E+02  0.45594000000E+02  0.51100000000E-03 0.  1.
    9900012    2    1    2    0    0 -0.28325159919E+02 -0.17279464371E+02 -0.27977288235E+02  0.47787271546E+02  0.20000002285E+02 0.  0.
         12    1    1    2    0    0  0.28325159919E+02  0.17279464371E+02  0.27977288235E+02  0.43400728454E+02  0.00000000000E+00 0. -1.
         11    1    3    3    0    0 -0.62962605614E+01  0.15051618377E+01 -0.45137628453E+01  0.78919240049E+01  0.51100000000E-03 0. -1.
        -11    1    3    3    0    0 -0.10290949518E+02 -0.92562873464E+00 -0.11272955340E+02  0.15291826342E+02  0.51100000000E-03 0.  1.
        -12    1    3    3    0    0 -0.11737949840E+02 -0.17858997474E+02 -0.12190570050E+02  0.24603521199E+02  0.00000000000E+00 0.  1.
</event>
<event>
 7    1  0.5022032E-011  0.4778727E+02  0.7816164E-02  0.1312668E+00
        -11   -1    0    0    0    0  0.00000000000E+00  0.00000000000E+00  0.45593999997E+02  0.45594000000E+02  0.51100000000E-03 0. -1.
         11   -1    0    0    0    0 -0.00000000000E+00 -0.00000000000E+00 -0.45593999997E+02  0.45594000000E+02  0.51100000000E-03 0.  1.
    9900012    2    1    2    0    0  0.22713639333E+02 -0.96709813238E+01 -0.35695742048E+02  0.47787270838E+02  0.19999999057E+02 0.  0.
         12    1    1    2    0    0 -0.22713639333E+02  0.96709813238E+01  0.35695742048E+02  0.43400729162E+02  0.00000000000E+00 0. -1.
         11    1    3    3    0    0  0.66601810893E+00 -0.36914491920E+01 -0.44769042233E+01  0.58406377172E+01  0.51100000000E-03 0. -1.
        -11    1    3    3    0    0  0.11067146866E+02 -0.25624820437E+01 -0.27670760157E+02  0.29911854204E+02  0.51100000000E-03 0.  1.
         12    1    3    3    0    0  0.10980474358E+02 -0.34170500881E+01 -0.35480776670E+01  0.12034778916E+02  0.00000000000E+00 0. -1.
</event>
<event>
 7    1  0.5022032E-011  0.4778731E+02  0.7816164E-02  0.1312668E+00
        -11   -1    0    0    0    0  0.00000000000E+00  0.00000000000E+00  0.45593999997E+02  0.45594000000E+02  0.51100000000E-03 0. -1.
         11   -1    0    0    0    0 -0.00000000000E+00 -0.00000000000E+00 -0.45593999997E+02  0.45594000000E+02  0.51100000000E-03 0.  1.
    9900012    2    1    2    0    0  0.21439849257E+02  0.11959903794E+02 -0.35789855984E+02  0.47787306154E+02  0.20000160080E+02 0.  0.
         12    1    1    2    0    0 -0.21439849257E+02 -0.11959903794E+02  0.35789855984E+02  0.43400693846E+02  0.00000000000E+00 0. -1.
         11    1    3    3    0    0  0.11016221078E+02  0.14790489707E+02 -0.18774061882E+02  0.26316935848E+02  0.51100000000E-03 0. -1.
        -11    1    3    3    0    0  0.77315488199E+01 -0.20590184523E+01 -0.57271503024E+01  0.98395454665E+01  0.51100000000E-03 0.  1.
        -12    1    3    3    0    0  0.26920793585E+01 -0.77156746050E+00 -0.11288643800E+02  0.11630824840E+02  0.00000000000E+00 0.  1.
</event>
<event>
 7    1  0.5022032E-011  0.4778727E+02  0.7816164E-02  0.1312668E+00
        -11   -1    0    0    0    0  0.00000000000E+00  0.00000000000E+00  0.45593999997E+02  0.45594000000E+02  0.51100000000E-03 0. -1.
         11   -1    0    0    0    0 -0.00000000000E+00 -0.00000000000E+00 -0.45593999997E+02  0.45594000000E+02  0.51100000000E-03 0.  1.
    9900012    2    1    2    0    0 -0.15692114232E+02 -0.10329629383E+02  0.39123899325E+02  0.47787272004E+02  0.20000004373E+02 0.  0.
        -12    1    1    2    0    0  0.15692114232E+02  0.10329629383E+02 -0.39123899325E+02  0.43400727996E+02  0.00000000000E+00 0.  1.
         11    1    3    3    0    0  0.12337089518E+01 -0.17575364091E+01 -0.39213728078E+00  0.21828293371E+01  0.51100000000E-03 0. -1.
        -11    1    3    3    0    0  0.70389137838E+00  0.20051784583E+01  0.49404027398E+01  0.53780836006E+01  0.51100000000E-03 0.  1.
         12    1    3    3    0    0 -0.17629714562E+02 -0.10577271432E+02  0.34575633866E+02  0.40226359066E+02  0.00000000000E+00 0. -1.
</event>
<event>
 7    1  0.5022032E-011  0.4778727E+02  0.7816164E-02  0.1312668E+00
        -11   -1    0    0    0    0  0.00000000000E+00  0.00000000000E+00  0.45593999997E+02  0.45594000000E+02  0.51100000000E-03 0. -1.
         11   -1    0    0    0    0 -0.00000000000E+00 -0.00000000000E+00 -0.45593999997E+02  0.45594000000E+02  0.51100000000E-03 0.  1.
    9900012    2    1    2    0    0 -0.17553764921E+02  0.28290913871E+02  0.27840843499E+02  0.47787273770E+02  0.20000012428E+02 0.  0.
        -12    1    1    2    0    0  0.17553764921E+02 -0.28290913871E+02 -0.27840843499E+02  0.43400726230E+02  0.00000000000E+00 0.  1.
         11    1    3    3    0    0 -0.10670460650E+02  0.20964442063E+02  0.10521722958E+02  0.25769618076E+02  0.51100000000E-03 0. -1.
        -11    1    3    3    0    0  0.15419907256E+01  0.18915933097E+01  0.58458996965E+00  0.25095032060E+01  0.51100000000E-03 0.  1.
        -12    1    3    3    0    0 -0.84252949967E+01  0.54348784973E+01  0.16734530571E+02  0.19508152488E+02  0.00000000000E+00 0.  1.
</event>
<event>
 7    1  0.5022032E-011  0.4778727E+02  0.7816164E-02  0.1312668E+00
        -11   -1    0    0    0    0  0.00000000000E+00  0.00000000000E+00  0.45593999997E+02  0.45594000000E+02  0.51100000000E-03 0. -1.
         11   -1    0    0    0    0 -0.00000000000E+00 -0.00000000000E+00 -0.45593999997E+02  0.45594000000E+02  0.51100000000E-03 0.  1.
    9900012    2    1    2    0    0  0.68051554209E+01  0.23705716929E+02  0.35712073472E+02  0.47787270201E+02  0.19999996155E+02 0.  0.
        -12    1    1    2    0    0 -0.68051554209E+01 -0.23705716929E+02 -0.35712073472E+02  0.43400729799E+02  0.00000000000E+00 0.  1.
         11    1    3    3    0    0 -0.14723413923E+01  0.65618805361E+01  0.55564560542E+01  0.87235468411E+01  0.51100000000E-03 0. -1.
        -11    1    3    3    0    0 -0.32141747872E+01  0.10453864729E+02  0.94387497697E+01  0.14446598382E+02  0.51100000000E-03 0.  1.
         12    1    3    3    0    0  0.11491671600E+02  0.66899716639E+01  0.20716867648E+02  0.24617124978E+02  0.00000000000E+00 0. -1.
</event>
<event>
 7    1  0.5022032E-011  0.4778727E+02  0.7816164E-02  0.1312668E+00
        -11   -1    0    0    0    0  0.00000000000E+00  0.00000000000E+00  0.45593999997E+02  0.45594000000E+02  0.51100000000E-03 0.  1.
         11   -1    0    0    0    0 -0.00000000000E+00 -0.00000000000E+00 -0.45593999997E+02  0.45594000000E+02  0.51100000000E-03 0. -1.
    9900012    2    1    2    0    0 -0.35136524702E+02 -0.24628127553E+02  0.65194549516E+01  0.47787270423E+02  0.19999997167E+02 0.  0.
         12    1    1    2    0    0  0.35136524702E+02  0.24628127553E+02 -0.65194549516E+01  0.43400729577E+02  0.00000000000E+00 0. -1.
         11    1    3    3    0    0 -0.83981625669E+01  0.12269753583E+01 -0.15817668389E+01  0.86334575706E+01  0.51100000000E-03 0. -1.
        -11    1    3    3    0    0 -0.67406236191E+01 -0.47528975713E+01  0.56096975260E+01  0.99747054438E+01  0.51100000000E-03 0.  1.
         12    1    3    3    0    0 -0.19997738516E+02 -0.21102205340E+02  0.24915242645E+01  0.29179107409E+02  0.00000000000E+00 0. -1.
</event>
<event>
 7    1  0.5022032E-011  0.4778727E+02  0.7816164E-02  0.1312668E+00
        -11   -1    0    0    0    0  0.00000000000E+00  0.00000000000E+00  0.45593999997E+02  0.45594000000E+02  0.51100000000E-03 0. -1.
         11   -1    0    0    0    0 -0.00000000000E+00 -0.00000000000E+00 -0.45593999997E+02  0.45594000000E+02  0.51100000000E-03 0.  1.
    9900012    2    1    2    0    0 -0.29271919360E+02 -0.10022187007E+02  0.30435732981E+02  0.47787270311E+02  0.19999996658E+02 0.  0.
        -12    1    1    2    0    0  0.29271919360E+02  0.10022187007E+02 -0.30435732981E+02  0.43400729689E+02  0.00000000000E+00 0.  1.
         11    1    3    3    0    0 -0.21484945877E+02 -0.10711410912E+02  0.30106404272E+02  0.38506269639E+02  0.51100000000E-03 0. -1.
        -11    1    3    3    0    0 -0.45670350682E+00  0.14741046995E+00  0.17327263681E+01  0.17979568592E+01  0.51100000000E-03 0.  1.
         12    1    3    3    0    0 -0.73302699767E+01  0.54181343516E+00 -0.14033976590E+01  0.74830438137E+01  0.00000000000E+00 0. -1.
</event>
<event>
 7    1  0.5022032E-011  0.4778728E+02  0.7816164E-02  0.1312668E+00
        -11   -1    0    0    0    0  0.00000000000E+00  0.00000000000E+00  0.45593999997E+02  0.45594000000E+02  0.51100000000E-03 0. -1.
         11   -1    0    0    0    0 -0.00000000000E+00 -0.00000000000E+00 -0.45593999997E+02  0.45594000000E+02  0.51100000000E-03 0.  1.
    9900012    2    1    2    0    0  0.10279689174E+02 -0.41858482314E+02 -0.50811749783E+01  0.47787275463E+02  0.20000020146E+02 0.  0.
         12    1    1    2    0    0 -0.10279689174E+02  0.41858482314E+02  0.50811749783E+01  0.43400724537E+02  0.00000000000E+00 0. -1.
         11    1    3    3    0    0  0.33193841888E+01 -0.21707303156E+02 -0.43561143586E+01  0.22387520056E+02  0.51100000000E-03 0. -1.
        -11    1    3    3    0    0  0.11573224888E+01 -0.95773877110E+01 -0.68892119367E+01  0.11854408129E+02  0.51100000000E-03 0.  1.
         12    1    3    3    0    0  0.58029824967E+01 -0.10573791447E+02  0.61641513170E+01  0.13545347278E+02  0.00000000000E+00 0. -1.
</event>
<event>
 7    1  0.5022032E-011  0.4778727E+02  0.7816164E-02  0.1312668E+00
        -11   -1    0    0    0    0  0.00000000000E+00  0.00000000000E+00  0.45593999997E+02  0.45594000000E+02  0.51100000000E-03 0. -1.
         11   -1    0    0    0    0 -0.00000000000E+00 -0.00000000000E+00 -0.45593999997E+02  0.45594000000E+02  0.51100000000E-03 0.  1.
    9900012    2    1    2    0    0 -0.29993113495E+02 -0.20518010134E+01 -0.31302181082E+02  0.47787270916E+02  0.19999999416E+02 0.  0.
         12    1    1    2    0    0  0.29993113495E+02  0.20518010134E+01  0.31302181082E+02  0.43400729084E+02  0.00000000000E+00 0. -1.
         11    1    3    3    0    0  0.42881467144E+00  0.22082097379E+01 -0.43576536225E+01  0.49040001655E+01  0.51100000000E-03 0. -1.
        -11    1    3    3    0    0 -0.11459860393E+02 -0.62778601177E+01 -0.16801048654E+02  0.21284152885E+02  0.51100000000E-03 0.  1.
        -12    1    3    3    0    0 -0.18962067774E+02  0.20178493664E+01 -0.10143478805E+02  0.21599117866E+02  0.00000000000E+00 0.  1.
</event>
<event>
 7    1  0.5022032E-011  0.4778727E+02  0.7816164E-02  0.1312668E+00
        -11   -1    0    0    0    0  0.00000000000E+00  0.00000000000E+00  0.45593999997E+02  0.45594000000E+02  0.51100000000E-03 0. -1.
         11   -1    0    0    0    0 -0.00000000000E+00 -0.00000000000E+00 -0.45593999997E+02  0.45594000000E+02  0.51100000000E-03 0.  1.
    9900012    2    1    2    0    0  0.25434130866E+02 -0.13950738461E+02  0.32281655852E+02  0.47787269349E+02  0.19999992268E+02 0.  0.
        -12    1    1    2    0    0 -0.25434130866E+02  0.13950738461E+02 -0.32281655852E+02  0.43400730651E+02  0.00000000000E+00 0.  1.
         11    1    3    3    0    0  0.32150635097E+01 -0.51023220362E+01  0.44229113762E+01  0.74788012967E+01  0.51100000000E-03 0. -1.
        -11    1    3    3    0    0  0.62853942449E+01  0.24713032934E+01  0.61906900644E+00  0.67820916742E+01  0.51100000000E-03 0.  1.
         12    1    3    3    0    0  0.15933673111E+02 -0.11319719718E+02  0.27239675470E+02  0.33526376378E+02  0.00000000000E+00 0. -1.
</event>
<event>
 7    1  0.5022032E-011  0.4778727E+02  0.7816164E-02  0.1312668E+00
        -11   -1    0    0    0    0  0.00000000000E+00  0.00000000000E+00  0.45593999997E+02  0.45594000000E+02  0.51100000000E-03 0. -1.
         11   -1    0    0    0    0 -0.00000000000E+00 -0.00000000000E+00 -0.45593999997E+02  0.45594000000E+02  0.51100000000E-03 0.  1.
    9900012    2    1    2    0    0  0.15488718922E+01  0.84394800199E+01  0.42544088626E+02  0.47787270696E+02  0.19999998411E+02 0.  0.
        -12    1    1    2    0    0 -0.15488718922E+01 -0.84394800199E+01 -0.42544088626E+02  0.43400729304E+02  0.00000000000E+00 0.  1.
         11    1    3    3    0    0 -0.29542597268E+01 -0.18926781325E+01  0.57042414115E+01  0.66968837073E+01  0.51100000000E-03 0. -1.
        -11    1    3    3    0    0 -0.99646271826E+00  0.74432530634E+01  0.32872604399E+02  0.33719476187E+02  0.51100000000E-03 0.  1.
        -12    1    3    3    0    0  0.54995943372E+01  0.28889050890E+01  0.39672428153E+01  0.73709108014E+01  0.00000000000E+00 0.  1.
</event>
<event>
 7    1  0.5022032E-011  0.4778727E+02  0.7816164E-02  0.1312668E+00
        -11   -1    0    0    0    0  0.00000000000E+00  0.00000000000E+00  0.45593999997E+02  0.45594000000E+02  0.51100000000E-03 0. -1.
         11   -1    0    0    0    0 -0.00000000000E+00 -0.00000000000E+00 -0.45593999997E+02  0.45594000000E+02  0.51100000000E-03 0.  1.
    9900012    2    1    2    0    0 -0.22108355854E+02  0.30686200347E+02  0.21288520225E+02  0.47787269780E+02  0.19999994233E+02 0.  0.
        -12    1    1    2    0    0  0.22108355854E+02 -0.30686200347E+02 -0.21288520225E+02  0.43400730220E+02  0.00000000000E+00 0.  1.
         11    1    3    3    0    0 -0.15827992922E+02  0.95971818265E+01  0.31975189713E+01  0.18784445341E+02  0.51100000000E-03 0.  1.
        -11    1    3    3    0    0  0.14217723092E+00  0.76209481661E+01  0.47061096170E+01  0.89580429394E+01  0.51100000000E-03 0. -1.
        -12    1    3    3    0    0 -0.64225401634E+01  0.13468070354E+02  0.13384891637E+02  0.20044781499E+02  0.00000000000E+00 0.  1.
</event>
<event>
 7    1  0.5022032E-011  0.4778728E+02  0.7816164E-02  0.1312668E+00
        -11   -1    0    0    0    0  0.00000000000E+00  0.00000000000E+00  0.45593999997E+02  0.45594000000E+02  0.51100000000E-03 0. -1.
         11   -1    0    0    0    0 -0.00000000000E+00 -0.00000000000E+00 -0.45593999997E+02  0.45594000000E+02  0.51100000000E-03 0.  1.
    9900012    2    1    2    0    0 -0.27673420836E+02 -0.10147479847E+02  0.31856441924E+02  0.47787280420E+02  0.20000042746E+02 0.  0.
        -12    1    1    2    0    0  0.27673420836E+02  0.10147479847E+02 -0.31856441924E+02  0.43400719580E+02  0.00000000000E+00 0.  1.
         11    1    3    3    0    0 -0.46701378057E+01 -0.40597287747E+01  0.54052952218E+01  0.82163739901E+01  0.51100000000E-03 0. -1.
        -11    1    3    3    0    0 -0.16548940843E+02  0.39972243763E+01  0.18792589069E+02  0.25357575790E+02  0.51100000000E-03 0.  1.
        -12    1    3    3    0    0 -0.64543421867E+01 -0.10084975448E+02  0.76585576333E+01  0.14213330640E+02  0.00000000000E+00 0.  1.
</event>
<event>
 7    1  0.5022032E-011  0.4778727E+02  0.7816164E-02  0.1312668E+00
        -11   -1    0    0    0    0  0.00000000000E+00  0.00000000000E+00  0.45593999997E+02  0.45594000000E+02  0.51100000000E-03 0.  1.
         11   -1    0    0    0    0 -0.00000000000E+00 -0.00000000000E+00 -0.45593999997E+02  0.45594000000E+02  0.51100000000E-03 0. -1.
    9900012    2    1    2    0    0 -0.36484139163E+02  0.29368331406E+01  0.23321797686E+02  0.47787266750E+02  0.19999980419E+02 0.  0.
        -12    1    1    2    0    0  0.36484139163E+02 -0.29368331406E+01 -0.23321797686E+02  0.43400733250E+02  0.00000000000E+00 0.  1.
         11    1    3    3    0    0 -0.98022196714E+01 -0.42789896990E+00  0.13836850349E+02  0.16962459605E+02  0.51100000000E-03 0. -1.
        -11    1    3    3    0    0 -0.11257732982E+02 -0.43563079212E+01  0.35241241046E+01  0.12575111194E+02  0.51100000000E-03 0.  1.
         12    1    3    3    0    0 -0.15424186510E+02  0.77210400317E+01  0.59608232319E+01  0.18249695950E+02  0.00000000000E+00 0. -1.
</event>
<event>
 7    1  0.5022032E-011  0.4778727E+02  0.7816164E-02  0.1312668E+00
        -11   -1    0    0    0    0  0.00000000000E+00  0.00000000000E+00  0.45593999997E+02  0.45594000000E+02  0.51100000000E-03 0. -1.
         11   -1    0    0    0    0 -0.00000000000E+00 -0.00000000000E+00 -0.45593999997E+02  0.45594000000E+02  0.51100000000E-03 0.  1.
    9900012    2    1    2    0    0  0.14244850377E+01 -0.41733971694E+01 -0.43176116053E+02  0.47787269604E+02  0.19999993430E+02 0.  0.
         12    1    1    2    0    0 -0.14244850377E+01  0.41733971694E+01  0.43176116053E+02  0.43400730396E+02  0.00000000000E+00 0. -1.
         11    1    3    3    0    0  0.14950396636E+01 -0.40955473467E+01 -0.35095610253E+01  0.55969340282E+01  0.51100000000E-03 0. -1.
        -11    1    3    3    0    0 -0.61759532379E+01 -0.35413901705E+01 -0.23764049882E+02  0.24807537358E+02  0.51100000000E-03 0.  1.
         12    1    3    3    0    0  0.61053986120E+01  0.34635403478E+01 -0.15902505146E+02  0.17382798217E+02  0.00000000000E+00 0. -1.
</event>
<event>
 7    1  0.5022032E-011  0.4778727E+02  0.7816164E-02  0.1312668E+00
        -11   -1    0    0    0    0  0.00000000000E+00  0.00000000000E+00  0.45593999997E+02  0.45594000000E+02  0.51100000000E-03 0. -1.
         11   -1    0    0    0    0 -0.00000000000E+00 -0.00000000000E+00 -0.45593999997E+02  0.45594000000E+02  0.51100000000E-03 0.  1.
    9900012    2    1    2    0    0 -0.11832738018E+01  0.10764175504E+02 -0.42028032981E+02  0.47787272271E+02  0.20000005593E+02 0.  0.
         12    1    1    2    0    0  0.11832738018E+01 -0.10764175504E+02  0.42028032981E+02  0.43400727729E+02  0.00000000000E+00 0. -1.
         11    1    3    3    0    0  0.56606825807E+01 -0.11812863830E+01 -0.11639302359E+02  0.12996619732E+02  0.51100000000E-03 0. -1.
        -11    1    3    3    0    0  0.20667369593E+01  0.80277306387E+00 -0.18633877549E+01  0.28962148465E+01  0.51100000000E-03 0.  1.
        -12    1    3    3    0    0 -0.89106933418E+01  0.11142688823E+02 -0.28525342867E+02  0.31894437693E+02  0.00000000000E+00 0.  1.
</event>
<event>
 7    1  0.5022032E-011  0.4778726E+02  0.7816164E-02  0.1312668E+00
        -11   -1    0    0    0    0  0.00000000000E+00  0.00000000000E+00  0.45593999997E+02  0.45594000000E+02  0.51100000000E-03 0. -1.
         11   -1    0    0    0    0 -0.00000000000E+00 -0.00000000000E+00 -0.45593999997E+02  0.45594000000E+02  0.51100000000E-03 0.  1.
    9900012    2    1    2    0    0  0.32192017791E+02  0.28973593535E+02 -0.27980430328E+01  0.47787260645E+02  0.19999952583E+02 0.  0.
        -12    1    1    2    0    0 -0.32192017791E+02 -0.28973593535E+02  0.27980430328E+01  0.43400739355E+02  0.00000000000E+00 0.  1.
         11    1    3    3    0    0  0.20088391677E+02  0.25935588247E+02 -0.87578691581E+01  0.33954358930E+02  0.51100000000E-03 0. -1.
        -11    1    3    3    0    0  0.28464706764E+01  0.84406510164E+00  0.13594993619E+01  0.32654371811E+01  0.51100000000E-03 0.  1.
         12    1    3    3    0    0  0.92571554372E+01  0.21939401860E+01  0.46003267635E+01  0.10567464533E+02  0.00000000000E+00 0. -1.
</event>
<event>
 7    1  0.5022032E-011  0.4778726E+02  0.7816164E-02  0.1312668E+00
        -11   -1    0    0    0    0  0.00000000000E+00  0.00000000000E+00  0.45593999997E+02  0.45594000000E+02  0.51100000000E-03 0.  1.
         11   -1    0    0    0    0 -0.00000000000E+00 -0.00000000000E+00 -0.45593999997E+02  0.45594000000E+02  0.51100000000E-03 0. -1.
    9900012    2    1    2    0    0 -0.39954520989E+02 -0.55474619425E+01 -0.16015192510E+02  0.47787257235E+02  0.19999937036E+02 0.  0.
         12    1    1    2    0    0  0.39954520989E+02  0.55474619425E+01  0.16015192510E+02  0.43400742765E+02  0.00000000000E+00 0. -1.
         11    1    3    3    0    0 -0.13873765109E+02 -0.63286772791E+01  0.49527584131E+00  0.15257090575E+02  0.51100000000E-03 0. -1.
        -11    1    3    3    0    0 -0.16859318825E+02 -0.43915944810E+01 -0.94964263300E+01  0.19841997042E+02  0.51100000000E-03 0.  1.
         12    1    3    3    0    0 -0.92214370556E+01  0.51728098176E+01 -0.70140420210E+01  0.12688169618E+02  0.00000000000E+00 0. -1.
</event>
<event>
 7    1  0.5022032E-011  0.4778728E+02  0.7816164E-02  0.1312668E+00
        -11   -1    0    0    0    0  0.00000000000E+00  0.00000000000E+00  0.45593999997E+02  0.45594000000E+02  0.51100000000E-03 0. -1.
         11   -1    0    0    0    0 -0.00000000000E+00 -0.00000000000E+00 -0.45593999997E+02  0.45594000000E+02  0.51100000000E-03 0.  1.
    9900012    2    1    2    0    0  0.12161951481E+02  0.21159512182E+02  0.35888505414E+02  0.47787276038E+02  0.20000022767E+02 0.  0.
        -12    1    1    2    0    0 -0.12161951481E+02 -0.21159512182E+02 -0.35888505414E+02  0.43400723962E+02  0.00000000000E+00 0.  1.
         11    1    3    3    0    0  0.24877637715E+01  0.17050028999E+02  0.23931011771E+02  0.29488739920E+02  0.51100000000E-03 0. -1.
        -11    1    3    3    0    0 -0.10344134619E+01  0.28846130912E+01  0.23885851199E+01  0.38854012704E+01  0.51100000000E-03 0.  1.
        -12    1    3    3    0    0  0.10708601172E+02  0.12248700915E+01  0.95689085230E+01  0.14413134847E+02  0.00000000000E+00 0.  1.
</event>
<event>
 7    1  0.5022032E-011  0.4778728E+02  0.7816164E-02  0.1312668E+00
        -11   -1    0    0    0    0  0.00000000000E+00  0.00000000000E+00  0.45593999997E+02  0.45594000000E+02  0.51100000000E-03 0. -1.
         11   -1    0    0    0    0 -0.00000000000E+00 -0.00000000000E+00 -0.45593999997E+02  0.45594000000E+02  0.51100000000E-03 0.  1.
    9900012    2    1    2    0    0  0.42321394020E+02  0.80222441576E+01 -0.53071775559E+01  0.47787275044E+02  0.20000018234E+02 0.  0.
        -12    1    1    2    0    0 -0.42321394020E+02 -0.80222441576E+01  0.53071775559E+01  0.43400724956E+02  0.00000000000E+00 0.  1.
         11    1    3    3    0    0  0.13144548411E+01  0.27319104835E+01  0.48315844275E+00  0.30699460518E+01  0.51100000000E-03 0. -1.
        -11    1    3    3    0    0  0.15768931487E+02  0.75711609219E+01  0.32893826429E+01  0.17798924585E+02  0.51100000000E-03 0.  1.
        -12    1    3    3    0    0  0.25238007692E+02 -0.22808272478E+01 -0.90797186415E+01  0.26918404407E+02  0.00000000000E+00 0.  1.
</event>
<event>
 7    1  0.5022032E-011  0.4778727E+02  0.7816164E-02  0.1312668E+00
        -11   -1    0    0    0    0  0.00000000000E+00  0.00000000000E+00  0.45593999997E+02  0.45594000000E+02  0.51100000000E-03 0. -1.
         11   -1    0    0    0    0 -0.00000000000E+00 -0.00000000000E+00 -0.45593999997E+02  0.45594000000E+02  0.51100000000E-03 0.  1.
    9900012    2    1    2    0    0  0.87644333119E+01 -0.32022220432E+01 -0.42385773158E+02  0.47787270933E+02  0.19999999494E+02 0.  0.
         12    1    1    2    0    0 -0.87644333119E+01  0.32022220432E+01  0.42385773158E+02  0.43400729067E+02  0.00000000000E+00 0. -1.
         11    1    3    3    0    0 -0.27361658055E+01 -0.61739743795E+00  0.36430914754E+00  0.28285162767E+01  0.51100000000E-03 0. -1.
        -11    1    3    3    0    0  0.32655699874E+01  0.21236953294E+01 -0.74579261259E+01  0.84139581384E+01  0.51100000000E-03 0.  1.
         12    1    3    3    0    0  0.82350291300E+01 -0.47085199347E+01 -0.35292156180E+02  0.36544796518E+02  0.00000000000E+00 0. -1.
</event>
<event>
 7    1  0.5022032E-011  0.4778727E+02  0.7816164E-02  0.1312668E+00
        -11   -1    0    0    0    0  0.00000000000E+00  0.00000000000E+00  0.45593999997E+02  0.45594000000E+02  0.51100000000E-03 0. -1.
         11   -1    0    0    0    0 -0.00000000000E+00 -0.00000000000E+00 -0.45593999997E+02  0.45594000000E+02  0.51100000000E-03 0.  1.
    9900012    2    1    2    0    0  0.22613681728E+02 -0.13322637127E+02 -0.34565186014E+02  0.47787270219E+02  0.19999996236E+02 0.  0.
         12    1    1    2    0    0 -0.22613681728E+02  0.13322637127E+02  0.34565186014E+02  0.43400729781E+02  0.00000000000E+00 0. -1.
         11    1    3    3    0    0 -0.72371788530E+00  0.18765436464E+01 -0.39210281672E+01  0.44067727174E+01  0.51100000000E-03 0. -1.
        -11    1    3    3    0    0  0.14732208694E+02 -0.29510132081E+01 -0.19991237181E+02  0.25007919071E+02  0.51100000000E-03 0.  1.
         12    1    3    3    0    0  0.86051909197E+01 -0.12248167565E+02 -0.10652920666E+02  0.18372578431E+02  0.00000000000E+00 0. -1.
</event>
<event>
 7    1  0.5022032E-011  0.4778728E+02  0.7816164E-02  0.1312668E+00
        -11   -1    0    0    0    0  0.00000000000E+00  0.00000000000E+00  0.45593999997E+02  0.45594000000E+02  0.51100000000E-03 0. -1.
         11   -1    0    0    0    0 -0.00000000000E+00 -0.00000000000E+00 -0.45593999997E+02  0.45594000000E+02  0.51100000000E-03 0.  1.
    9900012    2    1    2    0    0 -0.14462271975E+02 -0.10612769141E+02  0.39520050269E+02  0.47787279351E+02  0.20000037875E+02 0.  0.
        -12    1    1    2    0    0  0.14462271975E+02  0.10612769141E+02 -0.39520050269E+02  0.43400720649E+02  0.00000000000E+00 0.  1.
         11    1    3    3    0    0  0.31326686978E-01 -0.76814928199E-01  0.67539771416E+01  0.67544866115E+01  0.51100000000E-03 0. -1.
        -11    1    3    3    0    0 -0.78358299307E+01 -0.22039274486E+01  0.18758539072E+01  0.83532242304E+01  0.51100000000E-03 0.  1.
         12    1    3    3    0    0 -0.66577687315E+01 -0.83320267645E+01  0.30890219220E+02  0.32679568510E+02  0.00000000000E+00 0. -1.
</event>
<event>
 7    1  0.5022032E-011  0.4778727E+02  0.7816164E-02  0.1312668E+00
        -11   -1    0    0    0    0  0.00000000000E+00  0.00000000000E+00  0.45593999997E+02  0.45594000000E+02  0.51100000000E-03 0. -1.
         11   -1    0    0    0    0 -0.00000000000E+00 -0.00000000000E+00 -0.45593999997E+02  0.45594000000E+02  0.51100000000E-03 0.  1.
    9900012    2    1    2    0    0  0.19098959490E+02 -0.16603113672E+02 -0.35258893504E+02  0.47787271800E+02  0.20000003443E+02 0.  0.
         12    1    1    2    0    0 -0.19098959490E+02  0.16603113672E+02  0.35258893504E+02  0.43400728200E+02  0.00000000000E+00 0. -1.
         11    1    3    3    0    0  0.10154181840E+02  0.15283351531E+01 -0.16448684572E+02  0.19390782388E+02  0.51100000000E-03 0. -1.
        -11    1    3    3    0    0  0.57200790959E+01 -0.55261165102E+01 -0.48623215066E+01  0.93219868720E+01  0.51100000000E-03 0.  1.
         12    1    3    3    0    0  0.32246985542E+01 -0.12605332315E+02 -0.13947887425E+02  0.19074502540E+02  0.00000000000E+00 0. -1.
</event>
<event>
 7    1  0.5022032E-011  0.4778727E+02  0.7816164E-02  0.1312668E+00
        -11   -1    0    0    0    0  0.00000000000E+00  0.00000000000E+00  0.45593999997E+02  0.45594000000E+02  0.51100000000E-03 0. -1.
         11   -1    0    0    0    0 -0.00000000000E+00 -0.00000000000E+00 -0.45593999997E+02  0.45594000000E+02  0.51100000000E-03 0.  1.
    9900012    2    1    2    0    0  0.33220401367E+01 -0.99297398537E+01  0.42118734385E+02  0.47787268780E+02  0.19999989676E+02 0.  0.
        -12    1    1    2    0    0 -0.33220401367E+01  0.99297398537E+01 -0.42118734385E+02  0.43400731220E+02  0.00000000000E+00 0.  1.
         11    1    3    3    0    0 -0.98040478024E+00 -0.21970793439E+01  0.26688306801E+02  0.26796530957E+02  0.51100000000E-03 0. -1.
        -11    1    3    3    0    0 -0.22938538553E+01  0.15209833393E+01  0.41411085967E+01  0.49723170151E+01  0.51100000000E-03 0.  1.
         12    1    3    3    0    0  0.65962987722E+01 -0.92536438491E+01  0.11289318988E+02  0.16018420808E+02  0.00000000000E+00 0. -1.
</event>
<event>
 7    1  0.5022032E-011  0.4778727E+02  0.7816164E-02  0.1312668E+00
        -11   -1    0    0    0    0  0.00000000000E+00  0.00000000000E+00  0.45593999997E+02  0.45594000000E+02  0.51100000000E-03 0. -1.
         11   -1    0    0    0    0 -0.00000000000E+00 -0.00000000000E+00 -0.45593999997E+02  0.45594000000E+02  0.51100000000E-03 0.  1.
    9900012    2    1    2    0    0 -0.12241115086E+02 -0.38693006480E+02 -0.15382774667E+02  0.47787269528E+02  0.19999993087E+02 0.  0.
         12    1    1    2    0    0  0.12241115086E+02  0.38693006480E+02  0.15382774667E+02  0.43400730472E+02  0.00000000000E+00 0. -1.
         11    1    3    3    0    0 -0.63299238717E+00  0.32594213510E+00 -0.41716661696E+01  0.42319873026E+01  0.51100000000E-03 0. -1.
        -11    1    3    3    0    0  0.17441336294E+01 -0.83731910743E+01 -0.35501653850E+01  0.92604538445E+01  0.51100000000E-03 0.  1.
         12    1    3    3    0    0 -0.13352256328E+02 -0.30645757541E+02 -0.76609431124E+01  0.34294828381E+02  0.00000000000E+00 0. -1.
</event>
<event>
 7    1  0.5022032E-011  0.4778727E+02  0.7816164E-02  0.1312668E+00
        -11   -1    0    0    0    0  0.00000000000E+00  0.00000000000E+00  0.45593999997E+02  0.45594000000E+02  0.51100000000E-03 0.  1.
         11   -1    0    0    0    0 -0.00000000000E+00 -0.00000000000E+00 -0.45593999997E+02  0.45594000000E+02  0.51100000000E-03 0. -1.
    9900012    2    1    2    0    0 -0.21949056968E+01  0.39801461858E+02 -0.17165350458E+02  0.47787271511E+02  0.20000002126E+02 0.  0.
         12    1    1    2    0    0  0.21949056968E+01 -0.39801461858E+02  0.17165350458E+02  0.43400728489E+02  0.00000000000E+00 0. -1.
         11    1    3    3    0    0 -0.53702362504E+01  0.18592071930E+02 -0.65298655219E+01  0.20424096554E+02  0.51100000000E-03 0. -1.
        -11    1    3    3    0    0 -0.30597270612E+01  0.16976872609E+02 -0.50227770633E+01  0.17966758833E+02  0.51100000000E-03 0.  1.
         12    1    3    3    0    0  0.62350576148E+01  0.42325173193E+01 -0.56127078726E+01  0.93964161243E+01  0.00000000000E+00 0. -1.
</event>
<event>
 7    1  0.5022032E-011  0.4778726E+02  0.7816164E-02  0.1312668E+00
        -11   -1    0    0    0    0  0.00000000000E+00  0.00000000000E+00  0.45593999997E+02  0.45594000000E+02  0.51100000000E-03 0. -1.
         11   -1    0    0    0    0 -0.00000000000E+00 -0.00000000000E+00 -0.45593999997E+02  0.45594000000E+02  0.51100000000E-03 0.  1.
    9900012    2    1    2    0    0  0.21487214947E+02  0.23400500822E+02 -0.29569245818E+02  0.47787261030E+02  0.19999954342E+02 0.  0.
         12    1    1    2    0    0 -0.21487214947E+02 -0.23400500822E+02  0.29569245818E+02  0.43400738970E+02  0.00000000000E+00 0. -1.
         11    1    3    3    0    0 -0.15356451259E+01  0.34051388033E+01 -0.44692400319E+01  0.58247131214E+01  0.51100000000E-03 0. -1.
        -11    1    3    3    0    0  0.87634219112E+01  0.20848930594E+01 -0.13678055919E+02  0.16377837362E+02  0.51100000000E-03 0.  1.
        -12    1    3    3    0    0  0.14259438162E+02  0.17910468959E+02 -0.11421949867E+02  0.25584710547E+02  0.00000000000E+00 0.  1.
</event>
<event>
 7    1  0.5022032E-011  0.4778728E+02  0.7816164E-02  0.1312668E+00
        -11   -1    0    0    0    0  0.00000000000E+00  0.00000000000E+00  0.45593999997E+02  0.45594000000E+02  0.51100000000E-03 0. -1.
         11   -1    0    0    0    0 -0.00000000000E+00 -0.00000000000E+00 -0.45593999997E+02  0.45594000000E+02  0.51100000000E-03 0.  1.
    9900012    2    1    2    0    0  0.36777341382E+02 -0.14709574837E+02 -0.17739177627E+02  0.47787275883E+02  0.20000022061E+02 0.  0.
         12    1    1    2    0    0 -0.36777341382E+02  0.14709574837E+02  0.17739177627E+02  0.43400724117E+02  0.00000000000E+00 0. -1.
         11    1    3    3    0    0  0.12298157428E+02 -0.56278424823E+01 -0.44507066668E+01  0.14238190799E+02  0.51100000000E-03 0. -1.
        -11    1    3    3    0    0  0.22822682730E+02 -0.69743267706E+01 -0.44019905390E+01  0.24267130071E+02  0.51100000000E-03 0.  1.
         12    1    3    3    0    0  0.16565012240E+01 -0.21074055843E+01 -0.88864804209E+01  0.92819550135E+01  0.00000000000E+00 0. -1.
</event>
<event>
 7    1  0.5022032E-011  0.4778728E+02  0.7816164E-02  0.1312668E+00
        -11   -1    0    0    0    0  0.00000000000E+00  0.00000000000E+00  0.45593999997E+02  0.45594000000E+02  0.51100000000E-03 0. -1.
         11   -1    0    0    0    0 -0.00000000000E+00 -0.00000000000E+00 -0.45593999997E+02  0.45594000000E+02  0.51100000000E-03 0.  1.
    9900012    2    1    2    0    0 -0.45297740830E+01 -0.24252142069E+02  0.35706268408E+02  0.47787275907E+02  0.20000022171E+02 0.  0.
        -12    1    1    2    0    0  0.45297740830E+01  0.24252142069E+02 -0.35706268408E+02  0.43400724093E+02  0.00000000000E+00 0.  1.
         11    1    3    3    0    0 -0.55946171008E+01 -0.11310653605E+02  0.19418372625E+02  0.23158234413E+02  0.51100000000E-03 0. -1.
        -11    1    3    3    0    0 -0.49508142033E+01 -0.10344530962E+02  0.76433396474E+01  0.13781891138E+02  0.51100000000E-03 0.  1.
        -12    1    3    3    0    0  0.60156572211E+01 -0.25969575017E+01  0.86445561355E+01  0.10847150356E+02  0.00000000000E+00 0.  1.
</event>
<event>
 7    1  0.5022032E-011  0.4778727E+02  0.7816164E-02  0.1312668E+00
        -11   -1    0    0    0    0  0.00000000000E+00  0.00000000000E+00  0.45593999997E+02  0.45594000000E+02  0.51100000000E-03 0. -1.
         11   -1    0    0    0    0 -0.00000000000E+00 -0.00000000000E+00 -0.45593999997E+02  0.45594000000E+02  0.51100000000E-03 0.  1.
    9900012    2    1    2    0    0 -0.22121834742E+02  0.33156577169E+02  0.17172337739E+02  0.47787269990E+02  0.19999995194E+02 0.  0.
        -12    1    1    2    0    0  0.22121834742E+02 -0.33156577169E+02 -0.17172337739E+02  0.43400730010E+02  0.00000000000E+00 0.  1.
         11    1    3    3    0    0 -0.14256553913E+02  0.16306544476E+02  0.12037357572E+02  0.24780046405E+02  0.51100000000E-03 0. -1.
        -11    1    3    3    0    0 -0.11210851904E+02  0.14226760048E+02  0.48240110545E+01  0.18744465444E+02  0.51100000000E-03 0.  1.
         12    1    3    3    0    0  0.33455710744E+01  0.26232726450E+01  0.31096911212E+00  0.42627581415E+01  0.00000000000E+00 0. -1.
</event>
<event>
 7    1  0.5022032E-011  0.4778727E+02  0.7816164E-02  0.1312668E+00
        -11   -1    0    0    0    0  0.00000000000E+00  0.00000000000E+00  0.45593999997E+02  0.45594000000E+02  0.51100000000E-03 0. -1.
         11   -1    0    0    0    0 -0.00000000000E+00 -0.00000000000E+00 -0.45593999997E+02  0.45594000000E+02  0.51100000000E-03 0.  1.
    9900012    2    1    2    0    0 -0.59638833843E+01  0.40922160352E+01 -0.42793796820E+02  0.47787272087E+02  0.20000004752E+02 0.  0.
         12    1    1    2    0    0  0.59638833843E+01 -0.40922160352E+01  0.42793796820E+02  0.43400727913E+02  0.00000000000E+00 0. -1.
         11    1    3    3    0    0  0.25486261733E+01  0.11531354094E+01 -0.46404675666E+00  0.28355874695E+01  0.51100000000E-03 0. -1.
        -11    1    3    3    0    0 -0.67923120187E+01 -0.40144047244E+01 -0.24404031294E+02  0.25647761920E+02  0.51100000000E-03 0.  1.
         12    1    3    3    0    0 -0.17201975389E+01  0.69534853503E+01 -0.17925718770E+02  0.19303922697E+02  0.00000000000E+00 0. -1.
</event>
<event>
 7    1  0.5022032E-011  0.4778727E+02  0.7816164E-02  0.1312668E+00
        -11   -1    0    0    0    0  0.00000000000E+00  0.00000000000E+00  0.45593999997E+02  0.45594000000E+02  0.51100000000E-03 0. -1.
         11   -1    0    0    0    0 -0.00000000000E+00 -0.00000000000E+00 -0.45593999997E+02  0.45594000000E+02  0.51100000000E-03 0.  1.
    9900012    2    1    2    0    0  0.37490785354E+02  0.19083856975E+02  0.10671033996E+02  0.47787267863E+02  0.19999985496E+02 0.  0.
        -12    1    1    2    0    0 -0.37490785354E+02 -0.19083856975E+02 -0.10671033996E+02  0.43400732137E+02  0.00000000000E+00 0.  1.
         11    1    3    3    0    0  0.10154275826E+02  0.81636961551E+00  0.11547661051E+00  0.10187694146E+02  0.51100000000E-03 0. -1.
        -11    1    3    3    0    0  0.22088382978E+02  0.68138206229E+01  0.42200714186E+01  0.23497527894E+02  0.51100000000E-03 0.  1.
        -12    1    3    3    0    0  0.52481265495E+01  0.11453666736E+02  0.63354859666E+01  0.14102045824E+02  0.00000000000E+00 0.  1.
</event>
<event>
 7    1  0.5022032E-011  0.4778727E+02  0.7816164E-02  0.1312668E+00
        -11   -1    0    0    0    0  0.00000000000E+00  0.00000000000E+00  0.45593999997E+02  0.45594000000E+02  0.51100000000E-03 0. -1.
         11   -1    0    0    0    0 -0.00000000000E+00 -0.00000000000E+00 -0.45593999997E+02  0.45594000000E+02  0.51100000000E-03 0.  1.
    9900012    2    1    2    0    0  0.58100002281E+01  0.25895459339E+02  0.34340824831E+02  0.47787272274E+02  0.20000005608E+02 0.  0.
        -12    1    1    2    0    0 -0.58100002281E+01 -0.25895459339E+02 -0.34340824831E+02  0.43400727726E+02  0.00000000000E+00 0.  1.
         11    1    3    3    0    0 -0.17278666551E+01  0.10701722436E+02  0.62028052917E+01  0.12489482777E+02  0.51100000000E-03 0. -1.
        -11    1    3    3    0    0  0.53839984463E+01  0.92438819685E+01  0.59832299283E+01  0.12257072805E+02  0.51100000000E-03 0.  1.
         12    1    3    3    0    0  0.21538684369E+01  0.59498549339E+01  0.22154789611E+02  0.23040716692E+02  0.00000000000E+00 0. -1.
</event>
<event>
 7    1  0.5022032E-011  0.4778727E+02  0.7816164E-02  0.1312668E+00
        -11   -1    0    0    0    0  0.00000000000E+00  0.00000000000E+00  0.45593999997E+02  0.45594000000E+02  0.51100000000E-03 0.  1.
         11   -1    0    0    0    0 -0.00000000000E+00 -0.00000000000E+00 -0.45593999997E+02  0.45594000000E+02  0.51100000000E-03 0. -1.
    9900012    2    1    2    0    0  0.36882237238E+02  0.19917350788E+02 -0.11252704580E+02  0.47787266752E+02  0.19999980427E+02 0.  0.
        -12    1    1    2    0    0 -0.36882237238E+02 -0.19917350788E+02  0.11252704580E+02  0.43400733248E+02  0.00000000000E+00 0.  1.
         11    1    3    3    0    0  0.92546771531E+00 -0.37815602694E+00  0.83190665350E+00  0.13006004052E+01  0.51100000000E-03 0. -1.
        -11    1    3    3    0    0  0.30952928653E+02  0.85365125235E+01 -0.87497531665E+01  0.33279333211E+02  0.51100000000E-03 0.  1.
         12    1    3    3    0    0  0.50038408700E+01  0.11758994292E+02 -0.33348580672E+01  0.13207333135E+02  0.00000000000E+00 0. -1.
</event>
<event>
 7    1  0.5022032E-011  0.4778725E+02  0.7816164E-02  0.1312668E+00
        -11   -1    0    0    0    0  0.00000000000E+00  0.00000000000E+00  0.45593999997E+02  0.45594000000E+02  0.51100000000E-03 0. -1.
         11   -1    0    0    0    0 -0.00000000000E+00 -0.00000000000E+00 -0.45593999997E+02  0.45594000000E+02  0.51100000000E-03 0.  1.
    9900012    2    1    2    0    0  0.36466027665E+02 -0.21792429450E+02  0.88850185669E+01  0.47787254500E+02  0.19999924566E+02 0.  0.
        -12    1    1    2    0    0 -0.36466027665E+02  0.21792429450E+02 -0.88850185669E+01  0.43400745500E+02  0.00000000000E+00 0.  1.
         11    1    3    3    0    0  0.34024529918E+02 -0.11773274421E+02  0.48943151487E+01  0.36335009946E+02  0.51100000000E-03 0. -1.
        -11    1    3    3    0    0 -0.12219591598E+00 -0.56684054396E+01  0.18102071985E+01  0.59516890403E+01  0.51100000000E-03 0.  1.
        -12    1    3    3    0    0  0.25636936630E+01 -0.43507495893E+01  0.21804962197E+01  0.55005555129E+01  0.00000000000E+00 0.  1.
</event>
<event>
 7    1  0.5022032E-011  0.4778727E+02  0.7816164E-02  0.1312668E+00
        -11   -1    0    0    0    0  0.00000000000E+00  0.00000000000E+00  0.45593999997E+02  0.45594000000E+02  0.51100000000E-03 0. -1.
         11   -1    0    0    0    0 -0.00000000000E+00 -0.00000000000E+00 -0.45593999997E+02  0.45594000000E+02  0.51100000000E-03 0.  1.
    9900012    2    1    2    0    0 -0.37499956716E+02 -0.71450380191E+01  0.20647635985E+02  0.47787271967E+02  0.20000004206E+02 0.  0.
        -12    1    1    2    0    0  0.37499956716E+02  0.71450380191E+01 -0.20647635985E+02  0.43400728033E+02  0.00000000000E+00 0.  1.
         11    1    3    3    0    0 -0.22998542365E+01  0.18814670091E+01  0.55745537072E+01  0.63170322867E+01  0.51100000000E-03 0. -1.
        -11    1    3    3    0    0 -0.72612526367E+01  0.34202595208E+01  0.37002289704E+01  0.88383063840E+01  0.51100000000E-03 0.  1.
        -12    1    3    3    0    0 -0.27938849843E+02 -0.12446764549E+02  0.11372853307E+02  0.32631933296E+02  0.00000000000E+00 0.  1.
</event>
<event>
 7    1  0.5022032E-011  0.4778727E+02  0.7816164E-02  0.1312668E+00
        -11   -1    0    0    0    0  0.00000000000E+00  0.00000000000E+00  0.45593999997E+02  0.45594000000E+02  0.51100000000E-03 0. -1.
         11   -1    0    0    0    0 -0.00000000000E+00 -0.00000000000E+00 -0.45593999997E+02  0.45594000000E+02  0.51100000000E-03 0.  1.
    9900012    2    1    2    0    0  0.70583690675E+01  0.99805784015E+01  0.41643615859E+02  0.47787271193E+02  0.20000000679E+02 0.  0.
        -12    1    1    2    0    0 -0.70583690675E+01 -0.99805784015E+01 -0.41643615859E+02  0.43400728807E+02  0.00000000000E+00 0.  1.
         11    1    3    3    0    0  0.48471906267E+01  0.58828276790E+01  0.95837884722E+01  0.12245485708E+02  0.51100000000E-03 0. -1.
        -11    1    3    3    0    0  0.58453944371E+01  0.14713022252E+01  0.30013801578E+02  0.30613096083E+02  0.51100000000E-03 0.  1.
        -12    1    3    3    0    0 -0.36342159963E+01  0.26264484973E+01  0.20460258085E+01  0.49286894025E+01  0.00000000000E+00 0.  1.
</event>
<event>
 7    1  0.5022032E-011  0.4778727E+02  0.7816164E-02  0.1312668E+00
        -11   -1    0    0    0    0  0.00000000000E+00  0.00000000000E+00  0.45593999997E+02  0.45594000000E+02  0.51100000000E-03 0. -1.
         11   -1    0    0    0    0 -0.00000000000E+00 -0.00000000000E+00 -0.45593999997E+02  0.45594000000E+02  0.51100000000E-03 0.  1.
    9900012    2    1    2    0    0 -0.35142792645E+02 -0.22342087221E+01  0.25369591719E+02  0.47787265588E+02  0.19999975121E+02 0.  0.
        -12    1    1    2    0    0  0.35142792645E+02  0.22342087221E+01 -0.25369591719E+02  0.43400734412E+02  0.00000000000E+00 0.  1.
         11    1    3    3    0    0 -0.20674412403E+02 -0.76995882631E+01  0.16261831621E+02  0.27407337623E+02  0.51100000000E-03 0. -1.
        -11    1    3    3    0    0 -0.11430096240E+02  0.37088096000E+00  0.88183159441E+01  0.14441168550E+02  0.51100000000E-03 0.  1.
        -12    1    3    3    0    0 -0.30382840021E+01  0.50944985810E+01  0.28944415394E+00  0.59387594149E+01  0.00000000000E+00 0.  1.
</event>
<event>
 7    1  0.5022032E-011  0.4778727E+02  0.7816164E-02  0.1312668E+00
        -11   -1    0    0    0    0  0.00000000000E+00  0.00000000000E+00  0.45593999997E+02  0.45594000000E+02  0.51100000000E-03 0. -1.
         11   -1    0    0    0    0 -0.00000000000E+00 -0.00000000000E+00 -0.45593999997E+02  0.45594000000E+02  0.51100000000E-03 0.  1.
    9900012    2    1    2    0    0 -0.13883162451E+01  0.10211173503E+02  0.42159554771E+02  0.47787267923E+02  0.19999985768E+02 0.  0.
        -12    1    1    2    0    0  0.13883162451E+01 -0.10211173503E+02 -0.42159554771E+02  0.43400732077E+02  0.00000000000E+00 0.  1.
         11    1    3    3    0    0 -0.36831729352E+01  0.42156321176E+01  0.10545230146E+02  0.11938978018E+02  0.51100000000E-03 0.  1.
        -11    1    3    3    0    0 -0.44876563904E+01 -0.31018115329E+01  0.85218436074E+01  0.10118404686E+02  0.51100000000E-03 0. -1.
         12    1    3    3    0    0  0.67825130805E+01  0.90973529186E+01  0.23092481018E+02  0.25729885219E+02  0.00000000000E+00 0. -1.
</event>
<event>
 7    1  0.5022032E-011  0.4778726E+02  0.7816164E-02  0.1312668E+00
        -11   -1    0    0    0    0  0.00000000000E+00  0.00000000000E+00  0.45593999997E+02  0.45594000000E+02  0.51100000000E-03 0. -1.
         11   -1    0    0    0    0 -0.00000000000E+00 -0.00000000000E+00 -0.45593999997E+02  0.45594000000E+02  0.51100000000E-03 0.  1.
    9900012    2    1    2    0    0 -0.20609226013E+02 -0.51796001102E+01  0.37842514165E+02  0.47787258849E+02  0.19999944395E+02 0.  0.
        -12    1    1    2    0    0  0.20609226013E+02  0.51796001102E+01 -0.37842514165E+02  0.43400741151E+02  0.00000000000E+00 0.  1.
         11    1    3    3    0    0 -0.11342976486E+02 -0.33277032576E+01  0.13141884365E+02  0.17676137855E+02  0.51100000000E-03 0. -1.
        -11    1    3    3    0    0 -0.37150887354E+01 -0.16759943433E+01 -0.67819858651E+00  0.41316818530E+01  0.51100000000E-03 0.  1.
        -12    1    3    3    0    0 -0.55511607914E+01 -0.17590250924E+00  0.25378828386E+02  0.25979439141E+02  0.00000000000E+00 0.  1.
</event>
<event>
 7    1  0.5022032E-011  0.4778727E+02  0.7816164E-02  0.1312668E+00
        -11   -1    0    0    0    0  0.00000000000E+00  0.00000000000E+00  0.45593999997E+02  0.45594000000E+02  0.51100000000E-03 0. -1.
         11   -1    0    0    0    0 -0.00000000000E+00 -0.00000000000E+00 -0.45593999997E+02  0.45594000000E+02  0.51100000000E-03 0.  1.
    9900012    2    1    2    0    0 -0.32336852379E+02 -0.14921205522E+02  0.24805421421E+02  0.47787270422E+02  0.19999997162E+02 0.  0.
        -12    1    1    2    0    0  0.32336852379E+02  0.14921205522E+02 -0.24805421421E+02  0.43400729578E+02  0.00000000000E+00 0.  1.
         11    1    3    3    0    0 -0.69697810432E+01  0.23095018124E+00  0.20525625608E+01  0.72694015644E+01  0.51100000000E-03 0. -1.
        -11    1    3    3    0    0  0.13640981632E+01 -0.45385191910E+01  0.37870832285E+01  0.60663761742E+01  0.51100000000E-03 0.  1.
        -12    1    3    3    0    0 -0.26731169499E+02 -0.10613636512E+02  0.18965775632E+02  0.34451492683E+02  0.00000000000E+00 0.  1.
</event>
<event>
 7    1  0.5022032E-011  0.4778727E+02  0.7816164E-02  0.1312668E+00
        -11   -1    0    0    0    0  0.00000000000E+00  0.00000000000E+00  0.45593999997E+02  0.45594000000E+02  0.51100000000E-03 0. -1.
         11   -1    0    0    0    0 -0.00000000000E+00 -0.00000000000E+00 -0.45593999997E+02  0.45594000000E+02  0.51100000000E-03 0.  1.
    9900012    2    1    2    0    0  0.18630902226E+02  0.14849850147E+02 -0.36276642236E+02  0.47787270293E+02  0.19999996575E+02 0.  0.
         12    1    1    2    0    0 -0.18630902226E+02 -0.14849850147E+02  0.36276642236E+02  0.43400729707E+02  0.00000000000E+00 0. -1.
         11    1    3    3    0    0  0.55254332330E+01 -0.93661274105E+00 -0.69083605518E+01  0.88956788169E+01  0.51100000000E-03 0.  1.
        -11    1    3    3    0    0  0.30234358757E+01 -0.28831333886E+01 -0.61923722751E+01  0.74698793355E+01  0.51100000000E-03 0. -1.
        -12    1    3    3    0    0  0.10082033118E+02  0.18669596276E+02 -0.23175909409E+02  0.31421712141E+02  0.00000000000E+00 0.  1.
</event>
<event>
 7    1  0.5022032E-011  0.4778727E+02  0.7816164E-02  0.1312668E+00
        -11   -1    0    0    0    0  0.00000000000E+00  0.00000000000E+00  0.45593999997E+02  0.45594000000E+02  0.51100000000E-03 0. -1.
         11   -1    0    0    0    0 -0.00000000000E+00 -0.00000000000E+00 -0.45593999997E+02  0.45594000000E+02  0.51100000000E-03 0.  1.
    9900012    2    1    2    0    0 -0.71732850694E+01 -0.37654772137E+01 -0.42637876956E+02  0.47787269722E+02  0.19999993973E+02 0.  0.
         12    1    1    2    0    0  0.71732850694E+01  0.37654772137E+01  0.42637876956E+02  0.43400730278E+02  0.00000000000E+00 0. -1.
         11    1    3    3    0    0 -0.81044310418E+00 -0.33559960297E+01 -0.17251595361E+01  0.38594951824E+01  0.51100000000E-03 0. -1.
        -11    1    3    3    0    0 -0.38637035443E+01  0.58540296337E+01 -0.95548838513E+01  0.11853002729E+02  0.51100000000E-03 0.  1.
        -12    1    3    3    0    0 -0.24991384209E+01 -0.62635108178E+01 -0.31357833568E+02  0.32074771811E+02  0.00000000000E+00 0.  1.
</event>
<event>
 7    1  0.5022032E-011  0.4778727E+02  0.7816164E-02  0.1312668E+00
        -11   -1    0    0    0    0  0.00000000000E+00  0.00000000000E+00  0.45593999997E+02  0.45594000000E+02  0.51100000000E-03 0. -1.
         11   -1    0    0    0    0 -0.00000000000E+00 -0.00000000000E+00 -0.45593999997E+02  0.45594000000E+02  0.51100000000E-03 0.  1.
    9900012    2    1    2    0    0 -0.15647466246E+02 -0.19773331758E+02  0.35324149069E+02  0.47787270097E+02  0.19999995678E+02 0.  0.
        -12    1    1    2    0    0  0.15647466246E+02  0.19773331758E+02 -0.35324149069E+02  0.43400729903E+02  0.00000000000E+00 0.  1.
         11    1    3    3    0    0 -0.42214434597E+01 -0.54513187100E+01  0.21495959855E+01  0.72220650595E+01  0.51100000000E-03 0. -1.
        -11    1    3    3    0    0 -0.11559536203E+01 -0.44625966028E+01  0.16090296552E+00  0.46126876370E+01  0.51100000000E-03 0.  1.
         12    1    3    3    0    0 -0.10270069166E+02 -0.98594164456E+01  0.33013650118E+02  0.35952517400E+02  0.00000000000E+00 0. -1.
</event>
<event>
 7    1  0.5022032E-011  0.4778727E+02  0.7816164E-02  0.1312668E+00
        -11   -1    0    0    0    0  0.00000000000E+00  0.00000000000E+00  0.45593999997E+02  0.45594000000E+02  0.51100000000E-03 0. -1.
         11   -1    0    0    0    0 -0.00000000000E+00 -0.00000000000E+00 -0.45593999997E+02  0.45594000000E+02  0.51100000000E-03 0.  1.
    9900012    2    1    2    0    0 -0.32728852098E+02 -0.19778545889E+02  0.20524490600E+02  0.47787270150E+02  0.19999995922E+02 0.  0.
        -12    1    1    2    0    0  0.32728852098E+02  0.19778545889E+02 -0.20524490600E+02  0.43400729850E+02  0.00000000000E+00 0.  1.
         11    1    3    3    0    0  0.12383949243E+01  0.22876823851E+01  0.15593489161E+01  0.30329329019E+01  0.51100000000E-03 0. -1.
        -11    1    3    3    0    0 -0.35717381202E+01 -0.25312235982E+01  0.15441824755E+01  0.46420799090E+01  0.51100000000E-03 0.  1.
         12    1    3    3    0    0 -0.30395508902E+02 -0.19535004676E+02  0.17420959208E+02  0.40112257339E+02  0.00000000000E+00 0. -1.
</event>
<event>
 7    1  0.5022032E-011  0.4778727E+02  0.7816164E-02  0.1312668E+00
        -11   -1    0    0    0    0  0.00000000000E+00  0.00000000000E+00  0.45593999997E+02  0.45594000000E+02  0.51100000000E-03 0. -1.
         11   -1    0    0    0    0 -0.00000000000E+00 -0.00000000000E+00 -0.45593999997E+02  0.45594000000E+02  0.51100000000E-03 0.  1.
    9900012    2    1    2    0    0 -0.30764965999E+01 -0.15117018998E+02  0.40566416569E+02  0.47787271343E+02  0.20000001359E+02 0.  0.
        -12    1    1    2    0    0  0.30764965999E+01  0.15117018998E+02 -0.40566416569E+02  0.43400728657E+02  0.00000000000E+00 0.  1.
         11    1    3    3    0    0 -0.62757169667E+01 -0.86716182992E+01  0.96532336188E+01  0.14414107913E+02  0.51100000000E-03 0. -1.
        -11    1    3    3    0    0  0.10396990556E+01  0.26853796860E+01  0.10830356948E+02  0.11206644014E+02  0.51100000000E-03 0.  1.
         12    1    3    3    0    0  0.21595213111E+01 -0.91307803844E+01  0.20082826003E+02  0.22166519415E+02  0.00000000000E+00 0. -1.
</event>
<event>
 7    1  0.5022032E-011  0.4778727E+02  0.7816164E-02  0.1312668E+00
        -11   -1    0    0    0    0  0.00000000000E+00  0.00000000000E+00  0.45593999997E+02  0.45594000000E+02  0.51100000000E-03 0. -1.
         11   -1    0    0    0    0 -0.00000000000E+00 -0.00000000000E+00 -0.45593999997E+02  0.45594000000E+02  0.51100000000E-03 0.  1.
    9900012    2    1    2    0    0  0.16972027350E+02 -0.13462675362E+02 -0.37607576456E+02  0.47787272504E+02  0.20000006655E+02 0.  0.
         12    1    1    2    0    0 -0.16972027350E+02  0.13462675362E+02  0.37607576456E+02  0.43400727496E+02  0.00000000000E+00 0. -1.
         11    1    3    3    0    0  0.42920995385E+01 -0.98577621850E+01 -0.10572597430E+02  0.15079038776E+02  0.51100000000E-03 0. -1.
        -11    1    3    3    0    0  0.56459657300E+01 -0.15353166844E+01 -0.13601804598E+01  0.60070140245E+01  0.51100000000E-03 0.  1.
        -12    1    3    3    0    0  0.70339620810E+01 -0.20695964922E+01 -0.25674798567E+02  0.26701219703E+02  0.00000000000E+00 0.  1.
</event>
<event>
 7    1  0.5022032E-011  0.4778727E+02  0.7816164E-02  0.1312668E+00
        -11   -1    0    0    0    0  0.00000000000E+00  0.00000000000E+00  0.45593999997E+02  0.45594000000E+02  0.51100000000E-03 0. -1.
         11   -1    0    0    0    0 -0.00000000000E+00 -0.00000000000E+00 -0.45593999997E+02  0.45594000000E+02  0.51100000000E-03 0.  1.
    9900012    2    1    2    0    0  0.35922475505E+02  0.97276591117E+01  0.22328716037E+02  0.47787272378E+02  0.20000006081E+02 0.  0.
        -12    1    1    2    0    0 -0.35922475505E+02 -0.97276591117E+01 -0.22328716037E+02  0.43400727622E+02  0.00000000000E+00 0.  1.
         11    1    3    3    0    0  0.19723280626E+02  0.80749971449E+01  0.86257696867E+01  0.22991678505E+02  0.51100000000E-03 0. -1.
        -11    1    3    3    0    0  0.23796796520E+01  0.12067588754E+01 -0.23875653448E+01  0.35804484030E+01  0.51100000000E-03 0.  1.
        -12    1    3    3    0    0  0.13819515227E+02  0.44590309146E+00  0.16090511695E+02  0.21215145470E+02  0.00000000000E+00 0.  1.
</event>
<event>
 7    1  0.5022032E-011  0.4778727E+02  0.7816164E-02  0.1312668E+00
        -11   -1    0    0    0    0  0.00000000000E+00  0.00000000000E+00  0.45593999997E+02  0.45594000000E+02  0.51100000000E-03 0. -1.
         11   -1    0    0    0    0 -0.00000000000E+00 -0.00000000000E+00 -0.45593999997E+02  0.45594000000E+02  0.51100000000E-03 0.  1.
    9900012    2    1    2    0    0 -0.66449936128E+01 -0.39521250164E+02 -0.16659472467E+02  0.47787272155E+02  0.20000005063E+02 0.  0.
         12    1    1    2    0    0  0.66449936128E+01  0.39521250164E+02  0.16659472467E+02  0.43400727845E+02  0.00000000000E+00 0. -1.
         11    1    3    3    0    0 -0.29831811048E+01 -0.14375738536E+01 -0.29029016173E+01  0.44037286644E+01  0.51100000000E-03 0. -1.
        -11    1    3    3    0    0  0.59714855484E+00 -0.22896582611E+02 -0.15285785103E+02  0.27536617587E+02  0.51100000000E-03 0.  1.
         12    1    3    3    0    0 -0.42589610629E+01 -0.15187093699E+02  0.15292142535E+01  0.15846925903E+02  0.00000000000E+00 0. -1.
</event>
<event>
 7    1  0.5022032E-011  0.4778727E+02  0.7816164E-02  0.1312668E+00
        -11   -1    0    0    0    0  0.00000000000E+00  0.00000000000E+00  0.45593999997E+02  0.45594000000E+02  0.51100000000E-03 0. -1.
         11   -1    0    0    0    0 -0.00000000000E+00 -0.00000000000E+00 -0.45593999997E+02  0.45594000000E+02  0.51100000000E-03 0.  1.
    9900012    2    1    2    0    0  0.12422981536E+02  0.18828455767E+02 -0.37078054755E+02  0.47787270038E+02  0.19999995410E+02 0.  0.
         12    1    1    2    0    0 -0.12422981536E+02 -0.18828455767E+02  0.37078054755E+02  0.43400729962E+02  0.00000000000E+00 0. -1.
         11    1    3    3    0    0  0.76235860865E+01  0.18446898958E+02 -0.20714592258E+02  0.28766325429E+02  0.51100000000E-03 0. -1.
        -11    1    3    3    0    0 -0.19691942213E+00  0.26606797573E+01 -0.11093340408E+02  0.11409653619E+02  0.51100000000E-03 0.  1.
        -12    1    3    3    0    0  0.49963148715E+01 -0.22791229478E+01 -0.52701220887E+01  0.76112909901E+01  0.00000000000E+00 0.  1.
</event>
<event>
 7    1  0.5022032E-011  0.4778727E+02  0.7816164E-02  0.1312668E+00
        -11   -1    0    0    0    0  0.00000000000E+00  0.00000000000E+00  0.45593999997E+02  0.45594000000E+02  0.51100000000E-03 0. -1.
         11   -1    0    0    0    0 -0.00000000000E+00 -0.00000000000E+00 -0.45593999997E+02  0.45594000000E+02  0.51100000000E-03 0.  1.
    9900012    2    1    2    0    0 -0.30911994165E+02 -0.18365858425E+02 -0.24305697530E+02  0.47787273378E+02  0.20000010637E+02 0.  0.
         12    1    1    2    0    0  0.30911994165E+02  0.18365858425E+02  0.24305697530E+02  0.43400726622E+02  0.00000000000E+00 0. -1.
         11    1    3    3    0    0 -0.80002737968E+01 -0.12116400630E+02 -0.14857161277E+02  0.20773704208E+02  0.51100000000E-03 0. -1.
        -11    1    3    3    0    0 -0.31291285156E+01 -0.41914534740E+01 -0.33450424372E+01  0.62087870522E+01  0.51100000000E-03 0.  1.
        -12    1    3    3    0    0 -0.19782591852E+02 -0.20580043207E+01 -0.61034938162E+01  0.20804782117E+02  0.00000000000E+00 0.  1.
</event>
<event>
 7    1  0.5022032E-011  0.4778726E+02  0.7816164E-02  0.1312668E+00
        -11   -1    0    0    0    0  0.00000000000E+00  0.00000000000E+00  0.45593999997E+02  0.45594000000E+02  0.51100000000E-03 0. -1.
         11   -1    0    0    0    0 -0.00000000000E+00 -0.00000000000E+00 -0.45593999997E+02  0.45594000000E+02  0.51100000000E-03 0.  1.
    9900012    2    1    2    0    0 -0.50115207172E+01 -0.21719540454E+02  0.37239369629E+02  0.47787257751E+02  0.19999939388E+02 0.  0.
        -12    1    1    2    0    0  0.50115207172E+01  0.21719540454E+02 -0.37239369629E+02  0.43400742249E+02  0.00000000000E+00 0.  1.
         11    1    3    3    0    0 -0.40615085408E+01 -0.18561332642E+02  0.14611311515E+02  0.23968924580E+02  0.51100000000E-03 0. -1.
        -11    1    3    3    0    0 -0.24882798202E+01 -0.14401691999E+01  0.34004980839E+01  0.44529777978E+01  0.51100000000E-03 0.  1.
        -12    1    3    3    0    0  0.15382676438E+01 -0.17180386127E+01  0.19227560030E+02  0.19365355373E+02  0.00000000000E+00 0.  1.
</event>
<event>
 7    1  0.5022032E-011  0.4778730E+02  0.7816164E-02  0.1312668E+00
        -11   -1    0    0    0    0  0.00000000000E+00  0.00000000000E+00  0.45593999997E+02  0.45594000000E+02  0.51100000000E-03 0. -1.
         11   -1    0    0    0    0 -0.00000000000E+00 -0.00000000000E+00 -0.45593999997E+02  0.45594000000E+02  0.51100000000E-03 0.  1.
    9900012    2    1    2    0    0  0.16941903953E+02 -0.39165969780E+01  0.39764970378E+02  0.47787300574E+02  0.20000134639E+02 0.  0.
        -12    1    1    2    0    0 -0.16941903953E+02  0.39165969780E+01 -0.39764970378E+02  0.43400699426E+02  0.00000000000E+00 0.  1.
         11    1    3    3    0    0  0.73031663426E+01  0.40256873421E+01  0.11942470379E+02  0.14565884670E+02  0.51100000000E-03 0. -1.
        -11    1    3    3    0    0  0.10843855886E+02 -0.58847197560E+01  0.11968402445E+02  0.17189002136E+02  0.51100000000E-03 0.  1.
         12    1    3    3    0    0 -0.12051182753E+01 -0.20575645641E+01  0.15854097554E+02  0.16032413769E+02  0.00000000000E+00 0. -1.
</event>
<event>
 7    1  0.5022032E-011  0.4778727E+02  0.7816164E-02  0.1312668E+00
        -11   -1    0    0    0    0  0.00000000000E+00  0.00000000000E+00  0.45593999997E+02  0.45594000000E+02  0.51100000000E-03 0. -1.
         11   -1    0    0    0    0 -0.00000000000E+00 -0.00000000000E+00 -0.45593999997E+02  0.45594000000E+02  0.51100000000E-03 0.  1.
    9900012    2    1    2    0    0  0.26018553636E+01  0.41755306275E+01 -0.43120976924E+02  0.47787270073E+02  0.19999995570E+02 0.  0.
         12    1    1    2    0    0 -0.26018553636E+01 -0.41755306275E+01  0.43120976924E+02  0.43400729927E+02  0.00000000000E+00 0. -1.
         11    1    3    3    0    0  0.13308075208E+01  0.38033768956E+01 -0.41007075032E+01  0.57491326959E+01  0.51100000000E-03 0. -1.
        -11    1    3    3    0    0  0.62091936012E+01  0.55198107479E+01 -0.17622314432E+02  0.19482514264E+02  0.51100000000E-03 0.  1.
         12    1    3    3    0    0 -0.49381457584E+01 -0.51476570160E+01 -0.21397954989E+02  0.22555623113E+02  0.00000000000E+00 0. -1.
</event>
<event>
 7    1  0.5022032E-011  0.4778727E+02  0.7816164E-02  0.1312668E+00
        -11   -1    0    0    0    0  0.00000000000E+00  0.00000000000E+00  0.45593999997E+02  0.45594000000E+02  0.51100000000E-03 0. -1.
         11   -1    0    0    0    0 -0.00000000000E+00 -0.00000000000E+00 -0.45593999997E+02  0.45594000000E+02  0.51100000000E-03 0.  1.
    9900012    2    1    2    0    0  0.10205585374E+02  0.88202369728E+01 -0.41251333077E+02  0.47787273811E+02  0.20000012616E+02 0.  0.
         12    1    1    2    0    0 -0.10205585374E+02 -0.88202369728E+01  0.41251333077E+02  0.43400726189E+02  0.00000000000E+00 0. -1.
         11    1    3    3    0    0  0.76105985741E+01  0.12723473634E+01 -0.26562459963E+02  0.27660519844E+02  0.51100000000E-03 0. -1.
        -11    1    3    3    0    0  0.50646027934E+01  0.16105537400E+01 -0.12061137599E+02  0.13180103385E+02  0.51100000000E-03 0.  1.
         12    1    3    3    0    0 -0.24696159931E+01  0.59373358694E+01 -0.26277355146E+01  0.69466505824E+01  0.00000000000E+00 0. -1.
</event>
<event>
 7    1  0.5022032E-011  0.4778727E+02  0.7816164E-02  0.1312668E+00
        -11   -1    0    0    0    0  0.00000000000E+00  0.00000000000E+00  0.45593999997E+02  0.45594000000E+02  0.51100000000E-03 0. -1.
         11   -1    0    0    0    0 -0.00000000000E+00 -0.00000000000E+00 -0.45593999997E+02  0.45594000000E+02  0.51100000000E-03 0.  1.
    9900012    2    1    2    0    0 -0.40382502853E+01 -0.21497477285E+02  0.37485651298E+02  0.47787273644E+02  0.20000011855E+02 0.  0.
        -12    1    1    2    0    0  0.40382502853E+01  0.21497477285E+02 -0.37485651298E+02  0.43400726356E+02  0.00000000000E+00 0.  1.
         11    1    3    3    0    0 -0.17759871797E+01  0.12685973339E+01  0.48341439749E+00  0.22354327095E+01  0.51100000000E-03 0. -1.
        -11    1    3    3    0    0  0.44137531720E+00 -0.42143743781E+01  0.19124121782E+00  0.42417375018E+01  0.51100000000E-03 0.  1.
         12    1    3    3    0    0 -0.27036384228E+01 -0.18551700241E+02  0.36810995682E+02  0.41310103433E+02  0.00000000000E+00 0. -1.
</event>
<event>
 7    1  0.5022032E-011  0.4778725E+02  0.7816164E-02  0.1312668E+00
        -11   -1    0    0    0    0  0.00000000000E+00  0.00000000000E+00  0.45593999997E+02  0.45594000000E+02  0.51100000000E-03 0. -1.
         11   -1    0    0    0    0 -0.00000000000E+00 -0.00000000000E+00 -0.45593999997E+02  0.45594000000E+02  0.51100000000E-03 0.  1.
    9900012    2    1    2    0    0 -0.12221961257E+02  0.13117685053E+02  0.39524358241E+02  0.47787252397E+02  0.19999914981E+02 0.  0.
        -12    1    1    2    0    0  0.12221961257E+02 -0.13117685053E+02 -0.39524358241E+02  0.43400747603E+02  0.00000000000E+00 0.  1.
         11    1    3    3    0    0 -0.21138280544E+01  0.68354764986E+01  0.27747738622E+02  0.28655348661E+02  0.51100000000E-03 0. -1.
        -11    1    3    3    0    0 -0.97100918695E+00  0.58198359534E+01  0.40456882671E+01  0.71540857684E+01  0.51100000000E-03 0.  1.
         12    1    3    3    0    0 -0.91371240161E+01  0.46237260067E+00  0.77309313517E+01  0.11977817968E+02  0.00000000000E+00 0. -1.
</event>
<event>
 7    1  0.5022032E-011  0.4778727E+02  0.7816164E-02  0.1312668E+00
        -11   -1    0    0    0    0  0.00000000000E+00  0.00000000000E+00  0.45593999997E+02  0.45594000000E+02  0.51100000000E-03 0. -1.
         11   -1    0    0    0    0 -0.00000000000E+00 -0.00000000000E+00 -0.45593999997E+02  0.45594000000E+02  0.51100000000E-03 0.  1.
    9900012    2    1    2    0    0 -0.35508869764E+02 -0.36538773255E+01  0.24685885252E+02  0.47787267494E+02  0.19999983810E+02 0.  0.
        -12    1    1    2    0    0  0.35508869764E+02  0.36538773255E+01 -0.24685885252E+02  0.43400732506E+02  0.00000000000E+00 0.  1.
         11    1    3    3    0    0 -0.45785897605E+01 -0.27856948362E+01  0.70496520704E+01  0.88555730752E+01  0.51100000000E-03 0.  1.
        -11    1    3    3    0    0 -0.72405914878E+01 -0.34936899828E+01  0.11992536624E+02  0.14437900462E+02  0.51100000000E-03 0. -1.
         12    1    3    3    0    0 -0.23689688516E+02  0.26255074935E+01  0.56436965567E+01  0.24493793957E+02  0.00000000000E+00 0. -1.
</event>
<event>
 7    1  0.5022032E-011  0.4778727E+02  0.7816164E-02  0.1312668E+00
        -11   -1    0    0    0    0  0.00000000000E+00  0.00000000000E+00  0.45593999997E+02  0.45594000000E+02  0.51100000000E-03 0. -1.
         11   -1    0    0    0    0 -0.00000000000E+00 -0.00000000000E+00 -0.45593999997E+02  0.45594000000E+02  0.51100000000E-03 0.  1.
    9900012    2    1    2    0    0 -0.79691080965E+01  0.26923382211E+00 -0.42661977857E+02  0.47787268147E+02  0.19999986790E+02 0.  0.
         12    1    1    2    0    0  0.79691080965E+01 -0.26923382211E+00  0.42661977857E+02  0.43400731853E+02  0.00000000000E+00 0. -1.
         11    1    3    3    0    0  0.38161469630E+00 -0.30986346018E+01 -0.42749874580E+01  0.52936456435E+01  0.51100000000E-03 0. -1.
        -11    1    3    3    0    0 -0.11905362202E+02 -0.11605930900E+01 -0.30222137382E+02  0.32503264662E+02  0.51100000000E-03 0.  1.
        -12    1    3    3    0    0  0.35546394096E+01  0.45284615139E+01 -0.81648530164E+01  0.99903578412E+01  0.00000000000E+00 0.  1.
</event>
<event>
 7    1  0.5022032E-011  0.4778727E+02  0.7816164E-02  0.1312668E+00
        -11   -1    0    0    0    0  0.00000000000E+00  0.00000000000E+00  0.45593999997E+02  0.45594000000E+02  0.51100000000E-03 0. -1.
         11   -1    0    0    0    0 -0.00000000000E+00 -0.00000000000E+00 -0.45593999997E+02  0.45594000000E+02  0.51100000000E-03 0.  1.
    9900012    2    1    2    0    0 -0.20372305873E+02  0.23462998130E+02  0.30299835808E+02  0.47787272151E+02  0.20000005046E+02 0.  0.
        -12    1    1    2    0    0  0.20372305873E+02 -0.23462998130E+02 -0.30299835808E+02  0.43400727849E+02  0.00000000000E+00 0.  1.
         11    1    3    3    0    0 -0.10613771167E+02  0.31092995291E+01  0.14029459831E+02  0.17864647362E+02  0.51100000000E-03 0. -1.
        -11    1    3    3    0    0  0.15788172155E+01  0.35179756841E+00 -0.21484277314E+00  0.16317423226E+01  0.51100000000E-03 0.  1.
        -12    1    3    3    0    0 -0.11337351921E+02  0.20001901033E+02  0.16485218750E+02  0.28290882466E+02  0.00000000000E+00 0.  1.
</event>
<event>
 7    1  0.5022032E-011  0.4778727E+02  0.7816164E-02  0.1312668E+00
        -11   -1    0    0    0    0  0.00000000000E+00  0.00000000000E+00  0.45593999997E+02  0.45594000000E+02  0.51100000000E-03 0.  1.
         11   -1    0    0    0    0 -0.00000000000E+00 -0.00000000000E+00 -0.45593999997E+02  0.45594000000E+02  0.51100000000E-03 0. -1.
    9900012    2    1    2    0    0 -0.28904992295E+02  0.21175493125E+02  0.24489242881E+02  0.47787272984E+02  0.20000008842E+02 0.  0.
        -12    1    1    2    0    0  0.28904992295E+02 -0.21175493125E+02 -0.24489242881E+02  0.43400727016E+02  0.00000000000E+00 0.  1.
         11    1    3    3    0    0 -0.41320618284E+01  0.54449168424E+00 -0.35894592693E+00  0.41832103207E+01  0.51100000000E-03 0. -1.
        -11    1    3    3    0    0 -0.75970612343E+01  0.80550750368E+00  0.24970985156E+00  0.76437253357E+01  0.51100000000E-03 0.  1.
         12    1    3    3    0    0 -0.17175869233E+02  0.19825493937E+02  0.24598478956E+02  0.35960337327E+02  0.00000000000E+00 0. -1.
</event>
<event>
 7    1  0.5022032E-011  0.4778727E+02  0.7816164E-02  0.1312668E+00
        -11   -1    0    0    0    0  0.00000000000E+00  0.00000000000E+00  0.45593999997E+02  0.45594000000E+02  0.51100000000E-03 0. -1.
         11   -1    0    0    0    0 -0.00000000000E+00 -0.00000000000E+00 -0.45593999997E+02  0.45594000000E+02  0.51100000000E-03 0.  1.
    9900012    2    1    2    0    0  0.32727249325E+02 -0.21764202319E+01 -0.28422062248E+02  0.47787271022E+02  0.19999999897E+02 0.  0.
         12    1    1    2    0    0 -0.32727249325E+02  0.21764202319E+01  0.28422062248E+02  0.43400728978E+02  0.00000000000E+00 0. -1.
         11    1    3    3    0    0  0.19286208416E+01  0.19768691180E+01 -0.89135800062E+01  0.93316396549E+01  0.51100000000E-03 0. -1.
        -11    1    3    3    0    0  0.36217214829E+01 -0.41812657381E+01 -0.11248627373E+01  0.56449239244E+01  0.51100000000E-03 0.  1.
        -12    1    3    3    0    0  0.27176907001E+02  0.27976388212E-01 -0.18383619504E+02  0.32810707443E+02  0.00000000000E+00 0.  1.
</event>
<event>
 7    1  0.5022032E-011  0.4778727E+02  0.7816164E-02  0.1312668E+00
        -11   -1    0    0    0    0  0.00000000000E+00  0.00000000000E+00  0.45593999997E+02  0.45594000000E+02  0.51100000000E-03 0.  1.
         11   -1    0    0    0    0 -0.00000000000E+00 -0.00000000000E+00 -0.45593999997E+02  0.45594000000E+02  0.51100000000E-03 0. -1.
    9900012    2    1    2    0    0 -0.29376407466E+02  0.16679669744E+02 -0.27247725881E+02  0.47787271157E+02  0.20000000513E+02 0.  0.
         12    1    1    2    0    0  0.29376407466E+02 -0.16679669744E+02  0.27247725881E+02  0.43400728843E+02  0.00000000000E+00 0. -1.
         11    1    3    3    0    0 -0.11576520421E+02 -0.14883639935E+01 -0.93655904231E+01  0.14964803262E+02  0.51100000000E-03 0. -1.
        -11    1    3    3    0    0 -0.12643986451E+02  0.62505424517E+01 -0.12199278447E+02  0.18648379801E+02  0.51100000000E-03 0.  1.
         12    1    3    3    0    0 -0.51559005946E+01  0.11917491286E+02 -0.56828570110E+01  0.14174088094E+02  0.00000000000E+00 0. -1.
</event>
<event>
 7    1  0.5022032E-011  0.4778727E+02  0.7816164E-02  0.1312668E+00
        -11   -1    0    0    0    0  0.00000000000E+00  0.00000000000E+00  0.45593999997E+02  0.45594000000E+02  0.51100000000E-03 0.  1.
         11   -1    0    0    0    0 -0.00000000000E+00 -0.00000000000E+00 -0.45593999997E+02  0.45594000000E+02  0.51100000000E-03 0. -1.
    9900012    2    1    2    0    0 -0.34325631864E+02 -0.55552008974E+01 -0.25971403491E+02  0.47787273518E+02  0.20000011278E+02 0.  0.
         12    1    1    2    0    0  0.34325631864E+02  0.55552008974E+01  0.25971403491E+02  0.43400726482E+02  0.00000000000E+00 0. -1.
         11    1    3    3    0    0 -0.35155314588E+01 -0.35445822255E+01 -0.68143227967E+01  0.84473676391E+01  0.51100000000E-03 0. -1.
        -11    1    3    3    0    0 -0.10435408734E+02 -0.78368657479E+01 -0.89031187757E+01  0.15798093062E+02  0.51100000000E-03 0.  1.
        -12    1    3    3    0    0 -0.20374691671E+02  0.58262470761E+01 -0.10253961919E+02  0.23541812817E+02  0.00000000000E+00 0.  1.
</event>
<event>
 7    1  0.5022032E-011  0.4778728E+02  0.7816164E-02  0.1312668E+00
        -11   -1    0    0    0    0  0.00000000000E+00  0.00000000000E+00  0.45593999997E+02  0.45594000000E+02  0.51100000000E-03 0. -1.
         11   -1    0    0    0    0 -0.00000000000E+00 -0.00000000000E+00 -0.45593999997E+02  0.45594000000E+02  0.51100000000E-03 0.  1.
    9900012    2    1    2    0    0 -0.24729381032E+02 -0.15071761045E+02 -0.32325259095E+02  0.47787278315E+02  0.20000033149E+02 0.  0.
         12    1    1    2    0    0  0.24729381032E+02  0.15071761045E+02  0.32325259095E+02  0.43400721685E+02  0.00000000000E+00 0. -1.
         11    1    3    3    0    0 -0.59405072061E+01 -0.13010053565E+01 -0.45933585668E+01  0.76211012319E+01  0.51100000000E-03 0. -1.
        -11    1    3    3    0    0  0.44590866798E+00 -0.65681509329E+01 -0.13968177405E+02  0.15441807586E+02  0.51100000000E-03 0.  1.
        -12    1    3    3    0    0 -0.19234782494E+02 -0.72026047556E+01 -0.13763723123E+02  0.24724369498E+02  0.00000000000E+00 0.  1.
</event>
<event>
 7    1  0.5022032E-011  0.4778727E+02  0.7816164E-02  0.1312668E+00
        -11   -1    0    0    0    0  0.00000000000E+00  0.00000000000E+00  0.45593999997E+02  0.45594000000E+02  0.51100000000E-03 0. -1.
         11   -1    0    0    0    0 -0.00000000000E+00 -0.00000000000E+00 -0.45593999997E+02  0.45594000000E+02  0.51100000000E-03 0.  1.
    9900012    2    1    2    0    0  0.31115304610E+02  0.12262022572E+02 -0.27660517960E+02  0.47787266915E+02  0.19999981172E+02 0.  0.
         12    1    1    2    0    0 -0.31115304610E+02 -0.12262022572E+02  0.27660517960E+02  0.43400733085E+02  0.00000000000E+00 0. -1.
         11    1    3    3    0    0  0.11447588780E+02  0.12267017625E+01 -0.19684426226E+02  0.22804138269E+02  0.51100000000E-03 0. -1.
        -11    1    3    3    0    0  0.68870467378E+01  0.36399557319E+01 -0.64962722097E+01  0.10143088454E+02  0.51100000000E-03 0.  1.
         12    1    3    3    0    0  0.12780669093E+02  0.73953650774E+01 -0.14798195240E+01  0.14840040192E+02  0.00000000000E+00 0. -1.
</event>
<event>
 7    1  0.5022032E-011  0.4778727E+02  0.7816164E-02  0.1312668E+00
        -11   -1    0    0    0    0  0.00000000000E+00  0.00000000000E+00  0.45593999997E+02  0.45594000000E+02  0.51100000000E-03 0. -1.
         11   -1    0    0    0    0 -0.00000000000E+00 -0.00000000000E+00 -0.45593999997E+02  0.45594000000E+02  0.51100000000E-03 0.  1.
    9900012    2    1    2    0    0  0.10420310676E+02 -0.22255943430E+02 -0.35773080176E+02  0.47787272382E+02  0.20000006097E+02 0.  0.
         12    1    1    2    0    0 -0.10420310676E+02  0.22255943430E+02  0.35773080176E+02  0.43400727618E+02  0.00000000000E+00 0. -1.
         11    1    3    3    0    0 -0.28084093116E+01 -0.28117740384E+01 -0.68676165064E+01  0.79345694807E+01  0.51100000000E-03 0.  1.
        -11    1    3    3    0    0  0.47063970747E+01  0.14045555185E+01 -0.50600366939E+01  0.70517317897E+01  0.51100000000E-03 0. -1.
         12    1    3    3    0    0  0.85223229127E+01 -0.20848724910E+02 -0.23845426976E+02  0.32800971111E+02  0.00000000000E+00 0. -1.
</event>
<event>
 7    1  0.5022032E-011  0.4778727E+02  0.7816164E-02  0.1312668E+00
        -11   -1    0    0    0    0  0.00000000000E+00  0.00000000000E+00  0.45593999997E+02  0.45594000000E+02  0.51100000000E-03 0. -1.
         11   -1    0    0    0    0 -0.00000000000E+00 -0.00000000000E+00 -0.45593999997E+02  0.45594000000E+02  0.51100000000E-03 0.  1.
    9900012    2    1    2    0    0  0.25987330264E+02 -0.13104521534E+02  0.32195548803E+02  0.47787272107E+02  0.20000004845E+02 0.  0.
        -12    1    1    2    0    0 -0.25987330264E+02  0.13104521534E+02 -0.32195548803E+02  0.43400727893E+02  0.00000000000E+00 0.  1.
         11    1    3    3    0    0  0.96533041097E+00 -0.14948108778E+01  0.44576265581E-01  0.17799746255E+01  0.51100000000E-03 0. -1.
        -11    1    3    3    0    0  0.16753602249E+02 -0.75445482403E+01  0.77807863019E+01  0.19953546858E+02  0.51100000000E-03 0.  1.
         12    1    3    3    0    0  0.82683976041E+01 -0.40651624157E+01  0.24370186236E+02  0.26053750624E+02  0.00000000000E+00 0. -1.
</event>
<event>
 7    1  0.5022032E-011  0.4778729E+02  0.7816164E-02  0.1312668E+00
        -11   -1    0    0    0    0  0.00000000000E+00  0.00000000000E+00  0.45593999997E+02  0.45594000000E+02  0.51100000000E-03 0. -1.
         11   -1    0    0    0    0 -0.00000000000E+00 -0.00000000000E+00 -0.45593999997E+02  0.45594000000E+02  0.51100000000E-03 0.  1.
    9900012    2    1    2    0    0  0.10094222134E+02 -0.14181355370E+02  0.39756978532E+02  0.47787291450E+02  0.20000093036E+02 0.  0.
        -12    1    1    2    0    0 -0.10094222134E+02  0.14181355370E+02 -0.39756978532E+02  0.43400708550E+02  0.00000000000E+00 0.  1.
         11    1    3    3    0    0  0.19999429386E+01  0.81124204401E+00 -0.16183254521E+01  0.26975661144E+01  0.51100000000E-03 0. -1.
        -11    1    3    3    0    0 -0.68597651616E+00 -0.65507799182E+00  0.39377873614E+01  0.40504148579E+01  0.51100000000E-03 0.  1.
         12    1    3    3    0    0  0.87802557120E+01 -0.14337519422E+02  0.37437516623E+02  0.41039310477E+02  0.00000000000E+00 0. -1.
</event>
<event>
 7    1  0.5022032E-011  0.4778728E+02  0.7816164E-02  0.1312668E+00
        -11   -1    0    0    0    0  0.00000000000E+00  0.00000000000E+00  0.45593999997E+02  0.45594000000E+02  0.51100000000E-03 0. -1.
         11   -1    0    0    0    0 -0.00000000000E+00 -0.00000000000E+00 -0.45593999997E+02  0.45594000000E+02  0.51100000000E-03 0.  1.
    9900012    2    1    2    0    0 -0.34288271236E+01  0.37077459560E+02  0.22296360492E+02  0.47787279337E+02  0.20000037810E+02 0.  0.
        -12    1    1    2    0    0  0.34288271236E+01 -0.37077459560E+02 -0.22296360492E+02  0.43400720663E+02  0.00000000000E+00 0.  1.
         11    1    3    3    0    0  0.14046918532E+01  0.16950554269E+02  0.15271712277E+02  0.22858688619E+02  0.51100000000E-03 0. -1.
        -11    1    3    3    0    0 -0.19529973457E+01  0.20785152346E+02  0.68375231427E+01  0.21967896569E+02  0.51100000000E-03 0.  1.
         12    1    3    3    0    0 -0.28805216312E+01 -0.65824705492E+00  0.18712507165E+00  0.29606941493E+01  0.00000000000E+00 0. -1.
</event>
<event>
 7    1  0.5022032E-011  0.4778727E+02  0.7816164E-02  0.1312668E+00
        -11   -1    0    0    0    0  0.00000000000E+00  0.00000000000E+00  0.45593999997E+02  0.45594000000E+02  0.51100000000E-03 0.  1.
         11   -1    0    0    0    0 -0.00000000000E+00 -0.00000000000E+00 -0.45593999997E+02  0.45594000000E+02  0.51100000000E-03 0. -1.
    9900012    2    1    2    0    0 -0.20737141683E+02  0.15111865829E+02 -0.35003223604E+02  0.47787271934E+02  0.20000004056E+02 0.  0.
         12    1    1    2    0    0  0.20737141683E+02 -0.15111865829E+02  0.35003223604E+02  0.43400728066E+02  0.00000000000E+00 0. -1.
         11    1    3    3    0    0 -0.10321718288E+01 -0.79879122947E+00 -0.34927702461E+01  0.37286579845E+01  0.51100000000E-03 0. -1.
        -11    1    3    3    0    0 -0.15605762505E+01  0.93802706828E+01 -0.36720604593E+01  0.10193571729E+02  0.51100000000E-03 0.  1.
        -12    1    3    3    0    0 -0.18144393603E+02  0.65303863760E+01 -0.27838392898E+02  0.33865042221E+02  0.00000000000E+00 0.  1.
</event>
<event>
 7    1  0.5022032E-011  0.4778727E+02  0.7816164E-02  0.1312668E+00
        -11   -1    0    0    0    0  0.00000000000E+00  0.00000000000E+00  0.45593999997E+02  0.45594000000E+02  0.51100000000E-03 0. -1.
         11   -1    0    0    0    0 -0.00000000000E+00 -0.00000000000E+00 -0.45593999997E+02  0.45594000000E+02  0.51100000000E-03 0.  1.
    9900012    2    1    2    0    0 -0.20057198376E+01 -0.37172909307E+02 -0.22310873370E+02  0.47787272254E+02  0.20000005513E+02 0.  0.
         12    1    1    2    0    0  0.20057198376E+01  0.37172909307E+02  0.22310873370E+02  0.43400727746E+02  0.00000000000E+00 0. -1.
         11    1    3    3    0    0 -0.64151465182E+01 -0.92365572022E+01 -0.86252592259E+01  0.14172621168E+02  0.51100000000E-03 0.  1.
        -11    1    3    3    0    0 -0.29206950463E+01 -0.17445457365E+02 -0.59589282456E+01  0.18665027948E+02  0.51100000000E-03 0. -1.
         12    1    3    3    0    0  0.73301217269E+01 -0.10490894740E+02 -0.77266858981E+01  0.14949623137E+02  0.00000000000E+00 0. -1.
</event>
<event>
 7    1  0.5022032E-011  0.4778724E+02  0.7816164E-02  0.1312668E+00
        -11   -1    0    0    0    0  0.00000000000E+00  0.00000000000E+00  0.45593999997E+02  0.45594000000E+02  0.51100000000E-03 0. -1.
         11   -1    0    0    0    0 -0.00000000000E+00 -0.00000000000E+00 -0.45593999997E+02  0.45594000000E+02  0.51100000000E-03 0.  1.
    9900012    2    1    2    0    0 -0.12045048341E+02 -0.33949376068E+02  0.24207077931E+02  0.47787240249E+02  0.19999859592E+02 0.  0.
        -12    1    1    2    0    0  0.12045048341E+02  0.33949376068E+02 -0.24207077931E+02  0.43400759751E+02  0.00000000000E+00 0.  1.
         11    1    3    3    0    0 -0.12236384247E+02 -0.36013894833E+02  0.22376715890E+02  0.44129889358E+02  0.51100000000E-03 0. -1.
        -11    1    3    3    0    0 -0.34536604520E+00 -0.37385860523E+00  0.81747829364E+00  0.96297403059E+00  0.51100000000E-03 0.  1.
        -12    1    3    3    0    0  0.53670195066E+00  0.24383773699E+01  0.10128837480E+01  0.26943768609E+01  0.00000000000E+00 0.  1.
</event>
<event>
 7    1  0.5022032E-011  0.4778727E+02  0.7816164E-02  0.1312668E+00
        -11   -1    0    0    0    0  0.00000000000E+00  0.00000000000E+00  0.45593999997E+02  0.45594000000E+02  0.51100000000E-03 0. -1.
         11   -1    0    0    0    0 -0.00000000000E+00 -0.00000000000E+00 -0.45593999997E+02  0.45594000000E+02  0.51100000000E-03 0.  1.
    9900012    2    1    2    0    0  0.27108848220E+02  0.92482091086E+01 -0.32606814741E+02  0.47787269694E+02  0.19999993843E+02 0.  0.
         12    1    1    2    0    0 -0.27108848220E+02 -0.92482091086E+01  0.32606814741E+02  0.43400730306E+02  0.00000000000E+00 0. -1.
         11    1    3    3    0    0 -0.28447766648E-01  0.70741101708E+01 -0.83513846283E+01  0.10944837571E+02  0.51100000000E-03 0. -1.
        -11    1    3    3    0    0  0.55990147485E+01 -0.82132190582E+00 -0.28779326071E+01  0.63487031888E+01  0.51100000000E-03 0.  1.
         12    1    3    3    0    0  0.21538281238E+02  0.29954208437E+01 -0.21377497505E+02  0.30493728934E+02  0.00000000000E+00 0. -1.
</event>
<event>
 7    1  0.5022032E-011  0.4778727E+02  0.7816164E-02  0.1312668E+00
        -11   -1    0    0    0    0  0.00000000000E+00  0.00000000000E+00  0.45593999997E+02  0.45594000000E+02  0.51100000000E-03 0. -1.
         11   -1    0    0    0    0 -0.00000000000E+00 -0.00000000000E+00 -0.45593999997E+02  0.45594000000E+02  0.51100000000E-03 0.  1.
    9900012    2    1    2    0    0  0.20321356129E+02  0.12457899486E+02  0.36269359798E+02  0.47787271496E+02  0.20000002058E+02 0.  0.
        -12    1    1    2    0    0 -0.20321356129E+02 -0.12457899486E+02 -0.36269359798E+02  0.43400728504E+02  0.00000000000E+00 0.  1.
         11    1    3    3    0    0  0.35916965321E+00  0.63696386834E+01  0.10039716508E+02  0.11895259881E+02  0.51100000000E-03 0.  1.
        -11    1    3    3    0    0  0.14670198423E+02  0.94651206578E+01  0.22869138143E+02  0.28771526037E+02  0.51100000000E-03 0. -1.
        -12    1    3    3    0    0  0.52919880526E+01 -0.33768598549E+01  0.33605051468E+01  0.71204855782E+01  0.00000000000E+00 0.  1.
</event>
<event>
 7    1  0.5022032E-011  0.4778727E+02  0.7816164E-02  0.1312668E+00
        -11   -1    0    0    0    0  0.00000000000E+00  0.00000000000E+00  0.45593999997E+02  0.45594000000E+02  0.51100000000E-03 0. -1.
         11   -1    0    0    0    0 -0.00000000000E+00 -0.00000000000E+00 -0.45593999997E+02  0.45594000000E+02  0.51100000000E-03 0.  1.
    9900012    2    1    2    0    0  0.14682044751E+02  0.24449270040E+02 -0.32715349595E+02  0.47787270252E+02  0.19999996386E+02 0.  0.
         12    1    1    2    0    0 -0.14682044751E+02 -0.24449270040E+02  0.32715349595E+02  0.43400729748E+02  0.00000000000E+00 0. -1.
         11    1    3    3    0    0  0.91308182881E+00  0.41271959540E+01  0.14735564987E+01  0.44764756098E+01  0.51100000000E-03 0. -1.
        -11    1    3    3    0    0  0.17931428072E+01 -0.81278890981E+00 -0.47600760808E+01  0.51511466195E+01  0.51100000000E-03 0.  1.
        -12    1    3    3    0    0  0.11975820115E+02  0.21134862996E+02 -0.29428830013E+02  0.38159648022E+02  0.00000000000E+00 0.  1.
</event>
<event>
 7    1  0.5022032E-011  0.4778726E+02  0.7816164E-02  0.1312668E+00
        -11   -1    0    0    0    0  0.00000000000E+00  0.00000000000E+00  0.45593999997E+02  0.45594000000E+02  0.51100000000E-03 0. -1.
         11   -1    0    0    0    0 -0.00000000000E+00 -0.00000000000E+00 -0.45593999997E+02  0.45594000000E+02  0.51100000000E-03 0.  1.
    9900012    2    1    2    0    0 -0.29323406672E+02 -0.15555539042E+02  0.27960456248E+02  0.47787261673E+02  0.19999957270E+02 0.  0.
        -12    1    1    2    0    0  0.29323406672E+02  0.15555539042E+02 -0.27960456248E+02  0.43400738327E+02  0.00000000000E+00 0.  1.
         11    1    3    3    0    0 -0.13369043489E+02 -0.66972897139E+01  0.81425706665E+01  0.17026052703E+02  0.51100000000E-03 0. -1.
        -11    1    3    3    0    0 -0.16789527047E+02 -0.11610756749E+02  0.15768829206E+02  0.25794454162E+02  0.51100000000E-03 0.  1.
        -12    1    3    3    0    0  0.83516386362E+00  0.27525074210E+01  0.40490563757E+01  0.49667548073E+01  0.00000000000E+00 0.  1.
</event>
<event>
 7    1  0.5022032E-011  0.4778727E+02  0.7816164E-02  0.1312668E+00
        -11   -1    0    0    0    0  0.00000000000E+00  0.00000000000E+00  0.45593999997E+02  0.45594000000E+02  0.51100000000E-03 0. -1.
         11   -1    0    0    0    0 -0.00000000000E+00 -0.00000000000E+00 -0.45593999997E+02  0.45594000000E+02  0.51100000000E-03 0.  1.
    9900012    2    1    2    0    0  0.36652495456E+02  0.15512803272E+02  0.17308110788E+02  0.47787272039E+02  0.20000004534E+02 0.  0.
        -12    1    1    2    0    0 -0.36652495456E+02 -0.15512803272E+02 -0.17308110788E+02  0.43400727961E+02  0.00000000000E+00 0.  1.
         11    1    3    3    0    0  0.10881673883E+01  0.16739876226E+01  0.15089788523E+01  0.25026706262E+01  0.51100000000E-03 0. -1.
        -11    1    3    3    0    0  0.27587783912E+02  0.13582808347E+01  0.99152949413E+01  0.29346955925E+02  0.51100000000E-03 0.  1.
        -12    1    3    3    0    0  0.79765441554E+01  0.12480534815E+02  0.58838369947E+01  0.15937645488E+02  0.00000000000E+00 0.  1.
</event>
<event>
 7    1  0.5022032E-011  0.4778728E+02  0.7816164E-02  0.1312668E+00
        -11   -1    0    0    0    0  0.00000000000E+00  0.00000000000E+00  0.45593999997E+02  0.45594000000E+02  0.51100000000E-03 0. -1.
         11   -1    0    0    0    0 -0.00000000000E+00 -0.00000000000E+00 -0.45593999997E+02  0.45594000000E+02  0.51100000000E-03 0.  1.
    9900012    2    1    2    0    0  0.26706249926E+02 -0.27726988895E+02 -0.20040289287E+02  0.47787275432E+02  0.20000020006E+02 0.  0.
         12    1    1    2    0    0 -0.26706249926E+02  0.27726988895E+02  0.20040289287E+02  0.43400724568E+02  0.00000000000E+00 0. -1.
         11    1    3    3    0    0  0.19503744286E+02 -0.13068053635E+02 -0.14150812534E+02  0.27411960211E+02  0.51100000000E-03 0. -1.
        -11    1    3    3    0    0  0.51337992584E+01 -0.91768517040E+01 -0.89105661085E+01  0.13782912996E+02  0.51100000000E-03 0.  1.
        -12    1    3    3    0    0  0.20687063820E+01 -0.54820835558E+01  0.30210893551E+01  0.65924022252E+01  0.00000000000E+00 0.  1.
</event>
<event>
 7    1  0.5022032E-011  0.4778727E+02  0.7816164E-02  0.1312668E+00
        -11   -1    0    0    0    0  0.00000000000E+00  0.00000000000E+00  0.45593999997E+02  0.45594000000E+02  0.51100000000E-03 0. -1.
         11   -1    0    0    0    0 -0.00000000000E+00 -0.00000000000E+00 -0.45593999997E+02  0.45594000000E+02  0.51100000000E-03 0.  1.
    9900012    2    1    2    0    0  0.22017281131E+02  0.13929187558E+02  0.34710807503E+02  0.47787273141E+02  0.20000009558E+02 0.  0.
        -12    1    1    2    0    0 -0.22017281131E+02 -0.13929187558E+02 -0.34710807503E+02  0.43400726859E+02  0.00000000000E+00 0.  1.
         11    1    3    3    0    0  0.94295538261E+01  0.19241508265E+01  0.11047959915E+02  0.14651834708E+02  0.51100000000E-03 0. -1.
        -11    1    3    3    0    0  0.41164721514E+01  0.12944761563E+02  0.19186706381E+02  0.23508336754E+02  0.51100000000E-03 0.  1.
        -12    1    3    3    0    0  0.84712551537E+01 -0.93972483182E+00  0.44761412061E+01  0.96271016789E+01  0.00000000000E+00 0.  1.
</event>
<event>
 7    1  0.5022032E-011  0.4778732E+02  0.7816164E-02  0.1312668E+00
        -11   -1    0    0    0    0  0.00000000000E+00  0.00000000000E+00  0.45593999997E+02  0.45594000000E+02  0.51100000000E-03 0. -1.
         11   -1    0    0    0    0 -0.00000000000E+00 -0.00000000000E+00 -0.45593999997E+02  0.45594000000E+02  0.51100000000E-03 0.  1.
    9900012    2    1    2    0    0  0.66370582305E+01  0.17803348952E+02 -0.39020630415E+02  0.47787315975E+02  0.20000204857E+02 0.  0.
         12    1    1    2    0    0 -0.66370582305E+01 -0.17803348952E+02  0.39020630415E+02  0.43400684025E+02  0.00000000000E+00 0. -1.
         11    1    3    3    0    0 -0.15019224888E+01 -0.79551982690E+00 -0.11896388769E+01  0.20745755893E+01  0.51100000000E-03 0. -1.
        -11    1    3    3    0    0  0.73703882644E+01  0.36002605302E+00 -0.11846954435E+02  0.13957169182E+02  0.51100000000E-03 0.  1.
        -12    1    3    3    0    0  0.76859245489E+00  0.18238842725E+02 -0.25984037103E+02  0.31755571204E+02  0.00000000000E+00 0.  1.
</event>
<event>
 7    1  0.5022032E-011  0.4778726E+02  0.7816164E-02  0.1312668E+00
        -11   -1    0    0    0    0  0.00000000000E+00  0.00000000000E+00  0.45593999997E+02  0.45594000000E+02  0.51100000000E-03 0. -1.
         11   -1    0    0    0    0 -0.00000000000E+00 -0.00000000000E+00 -0.45593999997E+02  0.45594000000E+02  0.51100000000E-03 0.  1.
    9900012    2    1    2    0    0  0.49174080457E+00 -0.99210274973E+01  0.42248737346E+02  0.47787258037E+02  0.19999940695E+02 0.  0.
        -12    1    1    2    0    0 -0.49174080457E+00  0.99210274973E+01 -0.42248737346E+02  0.43400741963E+02  0.00000000000E+00 0.  1.
         11    1    3    3    0    0 -0.24385967512E+01  0.19972584941E+00  0.28427713337E+01  0.37507324147E+01  0.51100000000E-03 0. -1.
        -11    1    3    3    0    0  0.25131698186E+01 -0.14763754599E+02  0.29211027414E+02  0.32826339961E+02  0.51100000000E-03 0.  1.
        -12    1    3    3    0    0  0.41716773711E+00  0.46430012522E+01  0.10194938598E+02  0.11210185661E+02  0.00000000000E+00 0.  1.
</event>
<event>
 7    1  0.5022032E-011  0.4778728E+02  0.7816164E-02  0.1312668E+00
        -11   -1    0    0    0    0  0.00000000000E+00  0.00000000000E+00  0.45593999997E+02  0.45594000000E+02  0.51100000000E-03 0. -1.
         11   -1    0    0    0    0 -0.00000000000E+00 -0.00000000000E+00 -0.45593999997E+02  0.45594000000E+02  0.51100000000E-03 0.  1.
    9900012    2    1    2    0    0 -0.90312705320E+01  0.12508594422E+02  0.40565921095E+02  0.47787277240E+02  0.20000028248E+02 0.  0.
        -12    1    1    2    0    0  0.90312705320E+01 -0.12508594422E+02 -0.40565921095E+02  0.43400722760E+02  0.00000000000E+00 0.  1.
         11    1    3    3    0    0  0.93790139090E+00  0.29523245925E+01 -0.15834102793E+00  0.31017658939E+01  0.51100000000E-03 0. -1.
        -11    1    3    3    0    0  0.83136309177E+00 -0.15678143086E+01  0.98716226294E+00  0.20306885263E+01  0.51100000000E-03 0.  1.
         12    1    3    3    0    0 -0.10800535015E+02  0.11124084138E+02  0.39737099860E+02  0.42654822820E+02  0.00000000000E+00 0. -1.
</event>
<event>
 7    1  0.5022032E-011  0.4778727E+02  0.7816164E-02  0.1312668E+00
        -11   -1    0    0    0    0  0.00000000000E+00  0.00000000000E+00  0.45593999997E+02  0.45594000000E+02  0.51100000000E-03 0. -1.
         11   -1    0    0    0    0 -0.00000000000E+00 -0.00000000000E+00 -0.45593999997E+02  0.45594000000E+02  0.51100000000E-03 0.  1.
    9900012    2    1    2    0    0  0.13883784603E+02  0.83266318271E+01  0.40268235911E+02  0.47787273095E+02  0.20000009350E+02 0.  0.
        -12    1    1    2    0    0 -0.13883784603E+02 -0.83266318271E+01 -0.40268235911E+02  0.43400726905E+02  0.00000000000E+00 0.  1.
         11    1    3    3    0    0  0.80764440067E+01  0.76875270572E+01  0.15182994659E+02  0.18837471888E+02  0.51100000000E-03 0. -1.
        -11    1    3    3    0    0  0.54310365003E+01  0.30038129414E+01  0.32919852454E+01  0.70253979796E+01  0.51100000000E-03 0.  1.
        -12    1    3    3    0    0  0.37630409601E+00 -0.23647081715E+01  0.21793256007E+02  0.21924403228E+02  0.00000000000E+00 0.  1.
</event>
<event>
 7    1  0.5022032E-011  0.4778727E+02  0.7816164E-02  0.1312668E+00
        -11   -1    0    0    0    0  0.00000000000E+00  0.00000000000E+00  0.45593999997E+02  0.45594000000E+02  0.51100000000E-03 0. -1.
         11   -1    0    0    0    0 -0.00000000000E+00 -0.00000000000E+00 -0.45593999997E+02  0.45594000000E+02  0.51100000000E-03 0.  1.
    9900012    2    1    2    0    0 -0.12943876771E+01 -0.58026686376E+01  0.42991592044E+02  0.47787269715E+02  0.19999993940E+02 0.  0.
        -12    1    1    2    0    0  0.12943876771E+01  0.58026686376E+01 -0.42991592044E+02  0.43400730285E+02  0.00000000000E+00 0.  1.
         11    1    3    3    0    0  0.40596066354E+01  0.32434610141E+01  0.50426399679E+01  0.72407640129E+01  0.51100000000E-03 0. -1.
        -11    1    3    3    0    0 -0.35738784456E+01 -0.84430391882E+00  0.34406125196E+01  0.50322232684E+01  0.51100000000E-03 0.  1.
         12    1    3    3    0    0 -0.17801158669E+01 -0.82018257328E+01  0.34508339556E+02  0.35514282434E+02  0.00000000000E+00 0. -1.
</event>
<event>
 7    1  0.5022032E-011  0.4778727E+02  0.7816164E-02  0.1312668E+00
        -11   -1    0    0    0    0  0.00000000000E+00  0.00000000000E+00  0.45593999997E+02  0.45594000000E+02  0.51100000000E-03 0. -1.
         11   -1    0    0    0    0 -0.00000000000E+00 -0.00000000000E+00 -0.45593999997E+02  0.45594000000E+02  0.51100000000E-03 0.  1.
    9900012    2    1    2    0    0  0.59507733328E+01 -0.27875750168E+02  0.32728489790E+02  0.47787271958E+02  0.20000004166E+02 0.  0.
        -12    1    1    2    0    0 -0.59507733328E+01  0.27875750168E+02 -0.32728489790E+02  0.43400728042E+02  0.00000000000E+00 0.  1.
         11    1    3    3    0    0 -0.79218592261E+00 -0.74403837787E+01  0.17933991895E+02  0.19432316765E+02  0.51100000000E-03 0. -1.
        -11    1    3    3    0    0 -0.74331533090E+00 -0.89603624871E+01  0.10862381560E+02  0.14100778241E+02  0.51100000000E-03 0.  1.
        -12    1    3    3    0    0  0.74862745863E+01 -0.11475003902E+02  0.39321163352E+01  0.14254176953E+02  0.00000000000E+00 0.  1.
</event>
<event>
 7    1  0.5022032E-011  0.4778727E+02  0.7816164E-02  0.1312668E+00
        -11   -1    0    0    0    0  0.00000000000E+00  0.00000000000E+00  0.45593999997E+02  0.45594000000E+02  0.51100000000E-03 0. -1.
         11   -1    0    0    0    0 -0.00000000000E+00 -0.00000000000E+00 -0.45593999997E+02  0.45594000000E+02  0.51100000000E-03 0.  1.
    9900012    2    1    2    0    0  0.20682087875E+02  0.23753791908E+02  0.29860213246E+02  0.47787265859E+02  0.19999976357E+02 0.  0.
        -12    1    1    2    0    0 -0.20682087875E+02 -0.23753791908E+02 -0.29860213246E+02  0.43400734141E+02  0.00000000000E+00 0.  1.
         11    1    3    3    0    0  0.79505925288E+01  0.28435010795E+01  0.31341250826E+01  0.90066730952E+01  0.51100000000E-03 0. -1.
        -11    1    3    3    0    0  0.43542839448E+01 -0.11493501785E+01  0.41924279471E+01  0.61528242992E+01  0.51100000000E-03 0.  1.
         12    1    3    3    0    0  0.83772114015E+01  0.22059641007E+02  0.22533660217E+02  0.32627768465E+02  0.00000000000E+00 0. -1.
</event>
<event>
 7    1  0.5022032E-011  0.4778727E+02  0.7816164E-02  0.1312668E+00
        -11   -1    0    0    0    0  0.00000000000E+00  0.00000000000E+00  0.45593999997E+02  0.45594000000E+02  0.51100000000E-03 0. -1.
         11   -1    0    0    0    0 -0.00000000000E+00 -0.00000000000E+00 -0.45593999997E+02  0.45594000000E+02  0.51100000000E-03 0.  1.
    9900012    2    1    2    0    0 -0.16584786893E+02 -0.26406707319E+02 -0.30186981206E+02  0.47787272102E+02  0.20000004823E+02 0.  0.
         12    1    1    2    0    0  0.16584786893E+02  0.26406707319E+02  0.30186981206E+02  0.43400727898E+02  0.00000000000E+00 0. -1.
         11    1    3    3    0    0 -0.95194157042E+01 -0.66809243938E+00 -0.93912567782E+01  0.13388850847E+02  0.51100000000E-03 0.  1.
        -11    1    3    3    0    0 -0.17882627039E+01 -0.98911481413E+01 -0.43315794784E+01  0.10945102836E+02  0.51100000000E-03 0. -1.
        -12    1    3    3    0    0 -0.52771084851E+01 -0.15847466738E+02 -0.16464144949E+02  0.23453318420E+02  0.00000000000E+00 0.  1.
</event>
<event>
 7    1  0.5022032E-011  0.4778725E+02  0.7816164E-02  0.1312668E+00
        -11   -1    0    0    0    0  0.00000000000E+00  0.00000000000E+00  0.45593999997E+02  0.45594000000E+02  0.51100000000E-03 0. -1.
         11   -1    0    0    0    0 -0.00000000000E+00 -0.00000000000E+00 -0.45593999997E+02  0.45594000000E+02  0.51100000000E-03 0.  1.
    9900012    2    1    2    0    0  0.28222588713E+02 -0.22557423695E+02 -0.24047303985E+02  0.47787254541E+02  0.19999924754E+02 0.  0.
         12    1    1    2    0    0 -0.28222588713E+02  0.22557423695E+02  0.24047303985E+02  0.43400745459E+02  0.00000000000E+00 0. -1.
         11    1    3    3    0    0 -0.17423455904E+00 -0.16390126355E+01 -0.50333125077E+01  0.52963152439E+01  0.51100000000E-03 0. -1.
        -11    1    3    3    0    0  0.17790752275E+02 -0.14852006445E+02 -0.19463589974E+02  0.30264241225E+02  0.51100000000E-03 0.  1.
         12    1    3    3    0    0  0.10606070997E+02 -0.60664046138E+01  0.44959849672E+00  0.12226698072E+02  0.00000000000E+00 0. -1.
</event>
<event>
 7    1  0.5022032E-011  0.4778728E+02  0.7816164E-02  0.1312668E+00
        -11   -1    0    0    0    0  0.00000000000E+00  0.00000000000E+00  0.45593999997E+02  0.45594000000E+02  0.51100000000E-03 0. -1.
         11   -1    0    0    0    0 -0.00000000000E+00 -0.00000000000E+00 -0.45593999997E+02  0.45594000000E+02  0.51100000000E-03 0.  1.
    9900012    2    1    2    0    0  0.11019635406E+02  0.19061013105E+00  0.41978012461E+02  0.47787283107E+02  0.20000054996E+02 0.  0.
        -12    1    1    2    0    0 -0.11019635406E+02 -0.19061013105E+00 -0.41978012461E+02  0.43400716893E+02  0.00000000000E+00 0.  1.
         11    1    3    3    0    0  0.11692062495E+01 -0.88345583827E+00  0.15596479974E+01  0.21401027099E+01  0.51100000000E-03 0. -1.
        -11    1    3    3    0    0  0.12611956365E+02 -0.30004680060E+01  0.15312365878E+02  0.20063220097E+02  0.51100000000E-03 0.  1.
         12    1    3    3    0    0 -0.27615272090E+01  0.40745339753E+01  0.25105998586E+02  0.25583960300E+02  0.00000000000E+00 0. -1.
</event>
<event>
 7    1  0.5022032E-011  0.4778726E+02  0.7816164E-02  0.1312668E+00
        -11   -1    0    0    0    0  0.00000000000E+00  0.00000000000E+00  0.45593999997E+02  0.45594000000E+02  0.51100000000E-03 0. -1.
         11   -1    0    0    0    0 -0.00000000000E+00 -0.00000000000E+00 -0.45593999997E+02  0.45594000000E+02  0.51100000000E-03 0.  1.
    9900012    2    1    2    0    0  0.66817231803E+01  0.25565523883E+00  0.42882550503E+02  0.47787263578E+02  0.19999965959E+02 0.  0.
        -12    1    1    2    0    0 -0.66817231803E+01 -0.25565523883E+00 -0.42882550503E+02  0.43400736422E+02  0.00000000000E+00 0.  1.
         11    1    3    3    0    0  0.45730921732E+01  0.39616301586E+01  0.66333202625E+01  0.89782305330E+01  0.51100000000E-03 0. -1.
        -11    1    3    3    0    0  0.25895983525E+01  0.43233542182E+01  0.20673914499E+02  0.21279289280E+02  0.51100000000E-03 0.  1.
        -12    1    3    3    0    0 -0.48096734536E+00 -0.80293291379E+01  0.15575315742E+02  0.17529743765E+02  0.00000000000E+00 0.  1.
</event>
<event>
 7    1  0.5022032E-011  0.4778725E+02  0.7816164E-02  0.1312668E+00
        -11   -1    0    0    0    0  0.00000000000E+00  0.00000000000E+00  0.45593999997E+02  0.45594000000E+02  0.51100000000E-03 0. -1.
         11   -1    0    0    0    0 -0.00000000000E+00 -0.00000000000E+00 -0.45593999997E+02  0.45594000000E+02  0.51100000000E-03 0.  1.
    9900012    2    1    2    0    0 -0.16396249862E+02  0.11673963322E+02 -0.38451350383E+02  0.47787253745E+02  0.19999921126E+02 0.  0.
         12    1    1    2    0    0  0.16396249862E+02 -0.11673963322E+02  0.38451350383E+02  0.43400746255E+02  0.00000000000E+00 0. -1.
         11    1    3    3    0    0  0.18240083056E+01 -0.17819080389E+01 -0.84867776211E+01  0.88615798371E+01  0.51100000000E-03 0. -1.
        -11    1    3    3    0    0 -0.58684390598E+01  0.58382730421E+01 -0.19039186629E+02  0.20760892006E+02  0.51100000000E-03 0.  1.
        -12    1    3    3    0    0 -0.12351819108E+02  0.76175983186E+01 -0.10925386133E+02  0.18164781903E+02  0.00000000000E+00 0.  1.
</event>
<event>
 7    1  0.5022032E-011  0.4778727E+02  0.7816164E-02  0.1312668E+00
        -11   -1    0    0    0    0  0.00000000000E+00  0.00000000000E+00  0.45593999997E+02  0.45594000000E+02  0.51100000000E-03 0. -1.
         11   -1    0    0    0    0 -0.00000000000E+00 -0.00000000000E+00 -0.45593999997E+02  0.45594000000E+02  0.51100000000E-03 0.  1.
    9900012    2    1    2    0    0 -0.12554588501E+02 -0.51880715820E+01 -0.41220012122E+02  0.47787272143E+02  0.20000005010E+02 0.  0.
         12    1    1    2    0    0  0.12554588501E+02  0.51880715820E+01  0.41220012122E+02  0.43400727857E+02  0.00000000000E+00 0. -1.
         11    1    3    3    0    0 -0.52405467441E+01  0.57259900111E+01 -0.75702402147E+01  0.10842454932E+02  0.51100000000E-03 0. -1.
        -11    1    3    3    0    0 -0.68037297810E+01 -0.32423930592E+01 -0.17739539901E+02  0.19274208877E+02  0.51100000000E-03 0.  1.
         12    1    3    3    0    0 -0.51031197546E+00 -0.76716685339E+01 -0.15910232006E+02  0.17670608334E+02  0.00000000000E+00 0. -1.
</event>
<event>
 7    1  0.9785145E-011  0.4778727E+02  0.7816164E-02  0.1312668E+00
        -11   -1    0    0    0    0  0.00000000000E+00  0.00000000000E+00  0.45593999997E+02  0.45594000000E+02  0.51100000000E-03 0. -1.
         11   -1    0    0    0    0 -0.00000000000E+00 -0.00000000000E+00 -0.45593999997E+02  0.45594000000E+02  0.51100000000E-03 0.  1.
    9900012    2    1    2    0    0 -0.15678045439E+02 -0.27621855830E+01 -0.40375641364E+02  0.47787271970E+02  0.20000004219E+02 0.  0.
         12    1    1    2    0    0  0.15678045439E+02  0.27621855830E+01  0.40375641364E+02  0.43400728030E+02  0.00000000000E+00 0. -1.
         11    1    3    3    0    0  0.14993534929E+01 -0.30864940870E+01 -0.19936898044E+01  0.39685395227E+01  0.51100000000E-03 0. -1.
        -11    1    3    3    0    0 -0.35337096812E+01  0.46140386813E+00 -0.55558227597E+00  0.36067533278E+01  0.51100000000E-03 0.  1.
        -12    1    3    3    0    0 -0.13643689250E+02 -0.13709536416E+00 -0.37826369284E+02  0.40211979119E+02  0.00000000000E+00 0.  1.
</event>
<event>
 7    1  0.5022032E-011  0.4778727E+02  0.7816164E-02  0.1312668E+00
        -11   -1    0    0    0    0  0.00000000000E+00  0.00000000000E+00  0.45593999997E+02  0.45594000000E+02  0.51100000000E-03 0. -1.
         11   -1    0    0    0    0 -0.00000000000E+00 -0.00000000000E+00 -0.45593999997E+02  0.45594000000E+02  0.51100000000E-03 0.  1.
    9900012    2    1    2    0    0 -0.16116096290E+02 -0.37673023360E+02  0.14305175458E+02  0.47787270817E+02  0.19999998963E+02 0.  0.
        -12    1    1    2    0    0  0.16116096290E+02  0.37673023360E+02 -0.14305175458E+02  0.43400729183E+02  0.00000000000E+00 0.  1.
         11    1    3    3    0    0  0.73186042414E+00 -0.62865154336E+01  0.79809316406E+01  0.10185831635E+02  0.51100000000E-03 0. -1.
        -11    1    3    3    0    0 -0.43518692633E+01 -0.95460615948E+01 -0.27617143106E+01  0.10848646194E+02  0.51100000000E-03 0.  1.
         12    1    3    3    0    0 -0.12496087451E+02 -0.21840446332E+02  0.90859581282E+01  0.26752792988E+02  0.00000000000E+00 0. -1.
</event>
<event>
 7    1  0.5022032E-011  0.4778727E+02  0.7816164E-02  0.1312668E+00
        -11   -1    0    0    0    0  0.00000000000E+00  0.00000000000E+00  0.45593999997E+02  0.45594000000E+02  0.51100000000E-03 0.  1.
         11   -1    0    0    0    0 -0.00000000000E+00 -0.00000000000E+00 -0.45593999997E+02  0.45594000000E+02  0.51100000000E-03 0. -1.
    9900012    2    1    2    0    0  0.18279433741E+02 -0.33063619548E+02 -0.21360770466E+02  0.47787272467E+02  0.20000006484E+02 0.  0.
         12    1    1    2    0    0 -0.18279433741E+02  0.33063619548E+02  0.21360770466E+02  0.43400727533E+02  0.00000000000E+00 0. -1.
         11    1    3    3    0    0  0.31359362378E+01  0.15933812567E+01  0.41349265650E+00  0.35417419944E+01  0.51100000000E-03 0.  1.
        -11    1    3    3    0    0 -0.17427098221E+00 -0.31255451873E+00 -0.14614401507E+01  0.15046156578E+01  0.51100000000E-03 0. -1.
        -12    1    3    3    0    0  0.15317768485E+02 -0.34344446286E+02 -0.20312822972E+02  0.42740914814E+02  0.00000000000E+00 0.  1.
</event>
<event>
 7    1  0.5022032E-011  0.4778726E+02  0.7816164E-02  0.1312668E+00
        -11   -1    0    0    0    0  0.00000000000E+00  0.00000000000E+00  0.45593999997E+02  0.45594000000E+02  0.51100000000E-03 0. -1.
         11   -1    0    0    0    0 -0.00000000000E+00 -0.00000000000E+00 -0.45593999997E+02  0.45594000000E+02  0.51100000000E-03 0.  1.
    9900012    2    1    2    0    0  0.15937435876E+02  0.19241609961E+00 -0.40368128159E+02  0.47787255106E+02  0.19999927331E+02 0.  0.
         12    1    1    2    0    0 -0.15937435876E+02 -0.19241609961E+00  0.40368128159E+02  0.43400744894E+02  0.00000000000E+00 0. -1.
         11    1    3    3    0    0  0.50064805514E+01 -0.13765256547E+01 -0.13316242838E+01  0.53603072565E+01  0.51100000000E-03 0. -1.
        -11    1    3    3    0    0 -0.26147094892E+00 -0.31779497351E+01 -0.29367105900E+01  0.43349741552E+01  0.51100000000E-03 0.  1.
         12    1    3    3    0    0  0.11192426274E+02  0.47468914894E+01 -0.36099793285E+02  0.38091973695E+02  0.00000000000E+00 0. -1.
</event>
<event>
 7    1  0.5022032E-011  0.4778727E+02  0.7816164E-02  0.1312668E+00
        -11   -1    0    0    0    0  0.00000000000E+00  0.00000000000E+00  0.45593999997E+02  0.45594000000E+02  0.51100000000E-03 0. -1.
         11   -1    0    0    0    0 -0.00000000000E+00 -0.00000000000E+00 -0.45593999997E+02  0.45594000000E+02  0.51100000000E-03 0.  1.
    9900012    2    1    2    0    0  0.31868710935E+02 -0.17267415242E+01 -0.29411346076E+02  0.47787266700E+02  0.19999980193E+02 0.  0.
         12    1    1    2    0    0 -0.31868710935E+02  0.17267415242E+01  0.29411346076E+02  0.43400733300E+02  0.00000000000E+00 0. -1.
         11    1    3    3    0    0  0.47927217280E+01  0.34808603850E+01 -0.27898113189E+01  0.65474894454E+01  0.51100000000E-03 0. -1.
        -11    1    3    3    0    0  0.24746028440E+02  0.77612966352E+00 -0.23353712125E+02  0.34034749464E+02  0.51100000000E-03 0.  1.
         12    1    3    3    0    0  0.23299607667E+01 -0.59837315727E+01 -0.32678226327E+01  0.72050277909E+01  0.00000000000E+00 0. -1.
</event>
<event>
 7    1  0.6592242E-011  0.4778727E+02  0.7816164E-02  0.1312668E+00
        -11   -1    0    0    0    0  0.00000000000E+00  0.00000000000E+00  0.45593999997E+02  0.45594000000E+02  0.51100000000E-03 0.  1.
         11   -1    0    0    0    0 -0.00000000000E+00 -0.00000000000E+00 -0.45593999997E+02  0.45594000000E+02  0.51100000000E-03 0. -1.
    9900012    2    1    2    0    0 -0.33582266773E+02 -0.15882286911E+02 -0.22441207389E+02  0.47787268806E+02  0.19999989793E+02 0.  0.
         12    1    1    2    0    0  0.33582266773E+02  0.15882286911E+02  0.22441207389E+02  0.43400731194E+02  0.00000000000E+00 0. -1.
         11    1    3    3    0    0  0.12332081539E+01 -0.44988128025E-01  0.11310706609E+01  0.16739615836E+01  0.51100000000E-03 0. -1.
        -11    1    3    3    0    0  0.16662908849E+00 -0.20108095440E+01 -0.11923636185E+01  0.23436833266E+01  0.51100000000E-03 0.  1.
        -12    1    3    3    0    0 -0.34982104015E+02 -0.13826489239E+02 -0.22379914431E+02  0.43769623896E+02  0.00000000000E+00 0.  1.
</event>
<event>
 7    1  0.5022032E-011  0.4778727E+02  0.7816164E-02  0.1312668E+00
        -11   -1    0    0    0    0  0.00000000000E+00  0.00000000000E+00  0.45593999997E+02  0.45594000000E+02  0.51100000000E-03 0.  1.
         11   -1    0    0    0    0 -0.00000000000E+00 -0.00000000000E+00 -0.45593999997E+02  0.45594000000E+02  0.51100000000E-03 0. -1.
    9900012    2    1    2    0    0 -0.25840393129E+02 -0.32180494498E+02 -0.13428073347E+02  0.47787270778E+02  0.19999998784E+02 0.  0.
        -12    1    1    2    0    0  0.25840393129E+02  0.32180494498E+02  0.13428073347E+02  0.43400729222E+02  0.00000000000E+00 0.  1.
         11    1    3    3    0    0 -0.20582734305E+01 -0.63043189386E+01 -0.40324414192E+01  0.77615404950E+01  0.51100000000E-03 0. -1.
        -11    1    3    3    0    0 -0.22181696976E+02 -0.14679133738E+02 -0.10636952973E+02  0.28646979192E+02  0.51100000000E-03 0.  1.
        -12    1    3    3    0    0 -0.16004227228E+01 -0.11197041821E+02  0.12413210452E+01  0.11378751090E+02  0.00000000000E+00 0.  1.
</event>
<event>
 7    1  0.5022032E-011  0.4778726E+02  0.7816164E-02  0.1312668E+00
        -11   -1    0    0    0    0  0.00000000000E+00  0.00000000000E+00  0.45593999997E+02  0.45594000000E+02  0.51100000000E-03 0. -1.
         11   -1    0    0    0    0 -0.00000000000E+00 -0.00000000000E+00 -0.45593999997E+02  0.45594000000E+02  0.51100000000E-03 0.  1.
    9900012    2    1    2    0    0  0.29268568561E+02 -0.31396999912E+02 -0.64189716104E+01  0.47787263766E+02  0.19999966816E+02 0.  0.
         12    1    1    2    0    0 -0.29268568561E+02  0.31396999912E+02  0.64189716104E+01  0.43400736234E+02  0.00000000000E+00 0. -1.
         11    1    3    3    0    0  0.10760458213E+02 -0.22146932540E+02 -0.76202143999E+01  0.25774827830E+02  0.51100000000E-03 0. -1.
        -11    1    3    3    0    0  0.78764932358E+01 -0.75241129006E+01  0.24637944289E+01  0.11167887172E+02  0.51100000000E-03 0.  1.
         12    1    3    3    0    0  0.10631617113E+02 -0.17259544710E+01 -0.12625516394E+01  0.10844548765E+02  0.00000000000E+00 0. -1.
</event>
<event>
 7    1  0.5022032E-011  0.4778730E+02  0.7816164E-02  0.1312668E+00
        -11   -1    0    0    0    0  0.00000000000E+00  0.00000000000E+00  0.45593999997E+02  0.45594000000E+02  0.51100000000E-03 0. -1.
         11   -1    0    0    0    0 -0.00000000000E+00 -0.00000000000E+00 -0.45593999997E+02  0.45594000000E+02  0.51100000000E-03 0.  1.
    9900012    2    1    2    0    0 -0.12033449330E+02  0.19386545151E+02 -0.36918545982E+02  0.47787296399E+02  0.20000115599E+02 0.  0.
         12    1    1    2    0    0  0.12033449330E+02 -0.19386545151E+02  0.36918545982E+02  0.43400703601E+02  0.00000000000E+00 0. -1.
         11    1    3    3    0    0 -0.10948802343E+02  0.11947282482E+02 -0.23907545562E+02  0.28882253487E+02  0.51100000000E-03 0. -1.
        -11    1    3    3    0    0 -0.35004976706E+01  0.72419730521E+01 -0.29680688780E+01  0.85737442669E+01  0.51100000000E-03 0.  1.
         12    1    3    3    0    0  0.24158506834E+01  0.19728961707E+00 -0.10042931542E+02  0.10331298644E+02  0.00000000000E+00 0. -1.
</event>
<event>
 7    1  0.5022032E-011  0.4778727E+02  0.7816164E-02  0.1312668E+00
        -11   -1    0    0    0    0  0.00000000000E+00  0.00000000000E+00  0.45593999997E+02  0.45594000000E+02  0.51100000000E-03 0. -1.
         11   -1    0    0    0    0 -0.00000000000E+00 -0.00000000000E+00 -0.45593999997E+02  0.45594000000E+02  0.51100000000E-03 0.  1.
    9900012    2    1    2    0    0  0.16148995470E+01  0.15353193756E+02 -0.40562235979E+02  0.47787269054E+02  0.19999990924E+02 0.  0.
         12    1    1    2    0    0 -0.16148995470E+01 -0.15353193756E+02  0.40562235979E+02  0.43400730946E+02  0.00000000000E+00 0. -1.
         11    1    3    3    0    0 -0.22462664737E+01 -0.22694508832E+00 -0.15879227493E+00  0.22632791237E+01  0.51100000000E-03 0. -1.
        -11    1    3    3    0    0  0.29032714819E+01 -0.15872810381E+01 -0.35275699766E+01  0.48365480037E+01  0.51100000000E-03 0.  1.
         12    1    3    3    0    0  0.95789453872E+00  0.17167419882E+02 -0.36875873727E+02  0.40687441926E+02  0.00000000000E+00 0. -1.
</event>
<event>
 7    1  0.5022032E-011  0.4778727E+02  0.7816164E-02  0.1312668E+00
        -11   -1    0    0    0    0  0.00000000000E+00  0.00000000000E+00  0.45593999997E+02  0.45594000000E+02  0.51100000000E-03 0. -1.
         11   -1    0    0    0    0 -0.00000000000E+00 -0.00000000000E+00 -0.45593999997E+02  0.45594000000E+02  0.51100000000E-03 0.  1.
    9900012    2    1    2    0    0  0.34179745684E+02 -0.26472010543E+02  0.38210955042E+01  0.47787272724E+02  0.20000007660E+02 0.  0.
        -12    1    1    2    0    0 -0.34179745684E+02  0.26472010543E+02 -0.38210955042E+01  0.43400727276E+02  0.00000000000E+00 0.  1.
         11    1    3    3    0    0  0.26991620310E+02 -0.14264815707E+02  0.62049876904E+01  0.31153401204E+02  0.51100000000E-03 0. -1.
        -11    1    3    3    0    0  0.76437414120E+01 -0.48156770321E+01 -0.87838584046E+00  0.90768436142E+01  0.51100000000E-03 0.  1.
        -12    1    3    3    0    0 -0.45561603745E+00 -0.73915178036E+01 -0.15055063458E+01  0.75570279060E+01  0.00000000000E+00 0.  1.
</event>
<event>
 7    1  0.5022032E-011  0.4778727E+02  0.7816164E-02  0.1312668E+00
        -11   -1    0    0    0    0  0.00000000000E+00  0.00000000000E+00  0.45593999997E+02  0.45594000000E+02  0.51100000000E-03 0. -1.
         11   -1    0    0    0    0 -0.00000000000E+00 -0.00000000000E+00 -0.45593999997E+02  0.45594000000E+02  0.51100000000E-03 0.  1.
    9900012    2    1    2    0    0  0.23453334541E+02  0.23179523872E+02  0.28218330001E+02  0.47787269867E+02  0.19999994633E+02 0.  0.
        -12    1    1    2    0    0 -0.23453334541E+02 -0.23179523872E+02 -0.28218330001E+02  0.43400730133E+02  0.00000000000E+00 0.  1.
         11    1    3    3    0    0  0.10955043272E+02  0.17180013968E+02  0.21945824937E+02  0.29946370155E+02  0.51100000000E-03 0. -1.
        -11    1    3    3    0    0  0.11750826129E+01  0.52182637273E+01  0.18561530518E+01  0.56618371477E+01  0.51100000000E-03 0.  1.
        -12    1    3    3    0    0  0.11323208656E+02  0.78124617648E+00  0.44163520125E+01  0.12179062565E+02  0.00000000000E+00 0.  1.
</event>
<event>
 7    1  0.5022032E-011  0.4778727E+02  0.7816164E-02  0.1312668E+00
        -11   -1    0    0    0    0  0.00000000000E+00  0.00000000000E+00  0.45593999997E+02  0.45594000000E+02  0.51100000000E-03 0. -1.
         11   -1    0    0    0    0 -0.00000000000E+00 -0.00000000000E+00 -0.45593999997E+02  0.45594000000E+02  0.51100000000E-03 0.  1.
    9900012    2    1    2    0    0  0.39825667438E+02  0.87501849765E+01  0.14865186083E+02  0.47787270959E+02  0.19999999608E+02 0.  0.
        -12    1    1    2    0    0 -0.39825667438E+02 -0.87501849765E+01 -0.14865186083E+02  0.43400729041E+02  0.00000000000E+00 0.  1.
         11    1    3    3    0    0  0.76278190563E+01  0.37968468680E+01  0.36853486654E+01  0.92833972629E+01  0.51100000000E-03 0. -1.
        -11    1    3    3    0    0  0.30881603496E+02  0.72717546826E+00  0.56200568066E+01  0.31397249201E+02  0.51100000000E-03 0.  1.
         12    1    3    3    0    0  0.13162448866E+01  0.42261626402E+01  0.55597806111E+01  0.71066244946E+01  0.00000000000E+00 0. -1.
</event>
<event>
 7    1  0.5022032E-011  0.4778727E+02  0.7816164E-02  0.1312668E+00
        -11   -1    0    0    0    0  0.00000000000E+00  0.00000000000E+00  0.45593999997E+02  0.45594000000E+02  0.51100000000E-03 0.  1.
         11   -1    0    0    0    0 -0.00000000000E+00 -0.00000000000E+00 -0.45593999997E+02  0.45594000000E+02  0.51100000000E-03 0. -1.
    9900012    2    1    2    0    0 -0.32044471940E+01 -0.33957470838E+02 -0.26837384216E+02  0.47787268450E+02  0.19999988170E+02 0.  0.
         12    1    1    2    0    0  0.32044471940E+01  0.33957470838E+02  0.26837384216E+02  0.43400731550E+02  0.00000000000E+00 0. -1.
         11    1    3    3    0    0  0.98817951807E+00 -0.11657635332E+02 -0.15476387527E+02  0.19400915737E+02  0.51100000000E-03 0. -1.
        -11    1    3    3    0    0 -0.51690176199E+01 -0.18253968980E+02 -0.13892952772E+02  0.23514681875E+02  0.51100000000E-03 0.  1.
        -12    1    3    3    0    0  0.97639090785E+00 -0.40458665259E+01  0.25319560826E+01  0.48716708380E+01  0.00000000000E+00 0.  1.
</event>
<event>
 7    1  0.5022032E-011  0.4778729E+02  0.7816164E-02  0.1312668E+00
        -11   -1    0    0    0    0  0.00000000000E+00  0.00000000000E+00  0.45593999997E+02  0.45594000000E+02  0.51100000000E-03 0. -1.
         11   -1    0    0    0    0 -0.00000000000E+00 -0.00000000000E+00 -0.45593999997E+02  0.45594000000E+02  0.51100000000E-03 0.  1.
    9900012    2    1    2    0    0  0.35452977800E+02  0.20822499985E+02 -0.13897174741E+02  0.47787290255E+02  0.20000087591E+02 0.  0.
        -12    1    1    2    0    0 -0.35452977800E+02 -0.20822499985E+02  0.13897174741E+02  0.43400709745E+02  0.00000000000E+00 0.  1.
         11    1    3    3    0    0  0.26486686348E+02  0.12475870225E+02 -0.73514777457E+01  0.30186687743E+02  0.51100000000E-03 0. -1.
        -11    1    3    3    0    0  0.96248834017E+01  0.20950274218E+01 -0.53233101115E+01  0.11196658037E+02  0.51100000000E-03 0.  1.
        -12    1    3    3    0    0 -0.65859194932E+00  0.62516023386E+01 -0.12223868840E+01  0.64039444758E+01  0.00000000000E+00 0.  1.
</event>
<event>
 7    1  0.5022032E-011  0.4778727E+02  0.7816164E-02  0.1312668E+00
        -11   -1    0    0    0    0  0.00000000000E+00  0.00000000000E+00  0.45593999997E+02  0.45594000000E+02  0.51100000000E-03 0. -1.
         11   -1    0    0    0    0 -0.00000000000E+00 -0.00000000000E+00 -0.45593999997E+02  0.45594000000E+02  0.51100000000E-03 0.  1.
    9900012    2    1    2    0    0 -0.26183621908E+02  0.76818419179E+01  0.33749526925E+02  0.47787270523E+02  0.19999997623E+02 0.  0.
        -12    1    1    2    0    0  0.26183621908E+02 -0.76818419179E+01 -0.33749526925E+02  0.43400729477E+02  0.00000000000E+00 0.  1.
         11    1    3    3    0    0 -0.12267832111E+02  0.10475309602E+02  0.11526590271E+02  0.19826600806E+02  0.51100000000E-03 0. -1.
        -11    1    3    3    0    0 -0.58078843016E+01  0.33235213018E+01  0.72295385685E+01  0.98510680679E+01  0.51100000000E-03 0.  1.
        -12    1    3    3    0    0 -0.81079054947E+01 -0.61169889857E+01  0.14993398086E+02  0.18109601650E+02  0.00000000000E+00 0.  1.
</event>
<event>
 7    1  0.5549117E-011  0.4778728E+02  0.7816164E-02  0.1312668E+00
        -11   -1    0    0    0    0  0.00000000000E+00  0.00000000000E+00  0.45593999997E+02  0.45594000000E+02  0.51100000000E-03 0. -1.
         11   -1    0    0    0    0 -0.00000000000E+00 -0.00000000000E+00 -0.45593999997E+02  0.45594000000E+02  0.51100000000E-03 0.  1.
    9900012    2    1    2    0    0 -0.21117839408E+02  0.13462176459E+01 -0.37892577827E+02  0.47787275379E+02  0.20000019764E+02 0.  0.
         12    1    1    2    0    0  0.21117839408E+02 -0.13462176459E+01  0.37892577827E+02  0.43400724621E+02  0.00000000000E+00 0. -1.
         11    1    3    3    0    0 -0.11942614227E+02 -0.36232981342E+01 -0.95283527199E+01  0.15701714230E+02  0.51100000000E-03 0. -1.
        -11    1    3    3    0    0 -0.19017394495E+01 -0.28753073154E+01 -0.30469814294E+01  0.46008804792E+01  0.51100000000E-03 0.  1.
        -12    1    3    3    0    0 -0.72734857319E+01  0.78448230954E+01 -0.25317243678E+02  0.27484680670E+02  0.00000000000E+00 0.  1.
</event>
<event>
 7    1  0.5022032E-011  0.4778727E+02  0.7816164E-02  0.1312668E+00
        -11   -1    0    0    0    0  0.00000000000E+00  0.00000000000E+00  0.45593999997E+02  0.45594000000E+02  0.51100000000E-03 0. -1.
         11   -1    0    0    0    0 -0.00000000000E+00 -0.00000000000E+00 -0.45593999997E+02  0.45594000000E+02  0.51100000000E-03 0.  1.
    9900012    2    1    2    0    0  0.18942319074E+02  0.22691973454E+02  0.31778705009E+02  0.47787271859E+02  0.20000003713E+02 0.  0.
        -12    1    1    2    0    0 -0.18942319074E+02 -0.22691973454E+02 -0.31778705009E+02  0.43400728141E+02  0.00000000000E+00 0.  1.
         11    1    3    3    0    0  0.67438644261E+01  0.12343339261E+01  0.29218851196E+01  0.74525633544E+01  0.51100000000E-03 0. -1.
        -11    1    3    3    0    0 -0.13376321983E+01  0.10559811471E+00  0.63385606949E+01  0.64790248344E+01  0.51100000000E-03 0.  1.
         12    1    3    3    0    0  0.13536086846E+02  0.21352041413E+02  0.22518259194E+02  0.33855683670E+02  0.00000000000E+00 0. -1.
</event>
<event>
 7    1  0.5022032E-011  0.4778727E+02  0.7816164E-02  0.1312668E+00
        -11   -1    0    0    0    0  0.00000000000E+00  0.00000000000E+00  0.45593999997E+02  0.45594000000E+02  0.51100000000E-03 0. -1.
         11   -1    0    0    0    0 -0.00000000000E+00 -0.00000000000E+00 -0.45593999997E+02  0.45594000000E+02  0.51100000000E-03 0.  1.
    9900012    2    1    2    0    0 -0.13459764305E+02  0.38454728518E+02 -0.14956322644E+02  0.47787274343E+02  0.20000015040E+02 0.  0.
         12    1    1    2    0    0  0.13459764305E+02 -0.38454728518E+02  0.14956322644E+02  0.43400725657E+02  0.00000000000E+00 0. -1.
         11    1    3    3    0    0 -0.24007711880E-01  0.71270664177E+01  0.91793251017E+00  0.71859760957E+01  0.51100000000E-03 0. -1.
        -11    1    3    3    0    0 -0.65116889702E+01  0.14976585298E+01 -0.19443117524E+01  0.69588377456E+01  0.51100000000E-03 0.  1.
         12    1    3    3    0    0 -0.69240676224E+01  0.29830003570E+02 -0.13929943402E+02  0.33642460502E+02  0.00000000000E+00 0. -1.
</event>
<event>
 7    1  0.5022032E-011  0.4778727E+02  0.7816164E-02  0.1312668E+00
        -11   -1    0    0    0    0  0.00000000000E+00  0.00000000000E+00  0.45593999997E+02  0.45594000000E+02  0.51100000000E-03 0. -1.
         11   -1    0    0    0    0 -0.00000000000E+00 -0.00000000000E+00 -0.45593999997E+02  0.45594000000E+02  0.51100000000E-03 0.  1.
    9900012    2    1    2    0    0  0.36138344792E+02 -0.21444552255E+02  0.10852399641E+02  0.47787270009E+02  0.19999995280E+02 0.  0.
        -12    1    1    2    0    0 -0.36138344792E+02  0.21444552255E+02 -0.10852399641E+02  0.43400729991E+02  0.00000000000E+00 0.  1.
         11    1    3    3    0    0  0.11890436052E+02 -0.13872281174E+02  0.63289259698E+01  0.19335924044E+02  0.51100000000E-03 0. -1.
        -11    1    3    3    0    0  0.10147299928E+01 -0.91250952061E+00  0.40544440863E+01  0.42779513431E+01  0.51100000000E-03 0.  1.
         12    1    3    3    0    0  0.23233178748E+02 -0.66597615613E+01  0.46902958442E+00  0.24173394622E+02  0.00000000000E+00 0. -1.
</event>
<event>
 7    1  0.5022032E-011  0.4778726E+02  0.7816164E-02  0.1312668E+00
        -11   -1    0    0    0    0  0.00000000000E+00  0.00000000000E+00  0.45593999997E+02  0.45594000000E+02  0.51100000000E-03 0. -1.
         11   -1    0    0    0    0 -0.00000000000E+00 -0.00000000000E+00 -0.45593999997E+02  0.45594000000E+02  0.51100000000E-03 0.  1.
    9900012    2    1    2    0    0 -0.10852569279E+02  0.19739166534E+02  0.37097316800E+02  0.47787264187E+02  0.19999968732E+02 0.  0.
        -12    1    1    2    0    0  0.10852569279E+02 -0.19739166534E+02 -0.37097316800E+02  0.43400735813E+02  0.00000000000E+00 0.  1.
         11    1    3    3    0    0 -0.38899669927E+01  0.97560912290E+00  0.42644520966E+01  0.58539908020E+01  0.51100000000E-03 0. -1.
        -11    1    3    3    0    0 -0.10304276362E+02  0.80090630492E+01  0.98878242829E+01  0.16373523493E+02  0.51100000000E-03 0.  1.
         12    1    3    3    0    0  0.33416740763E+01  0.10754494362E+02  0.22945040420E+02  0.25559749891E+02  0.00000000000E+00 0. -1.
</event>
<event>
 7    1  0.5022032E-011  0.4778727E+02  0.7816164E-02  0.1312668E+00
        -11   -1    0    0    0    0  0.00000000000E+00  0.00000000000E+00  0.45593999997E+02  0.45594000000E+02  0.51100000000E-03 0. -1.
         11   -1    0    0    0    0 -0.00000000000E+00 -0.00000000000E+00 -0.45593999997E+02  0.45594000000E+02  0.51100000000E-03 0.  1.
    9900012    2    1    2    0    0  0.14038383383E+02 -0.26382097575E+02  0.31472718720E+02  0.47787270696E+02  0.19999998413E+02 0.  0.
        -12    1    1    2    0    0 -0.14038383383E+02  0.26382097575E+02 -0.31472718720E+02  0.43400729304E+02  0.00000000000E+00 0.  1.
         11    1    3    3    0    0  0.17526927015E+02 -0.20003747353E+02  0.19667770342E+02  0.33078153957E+02  0.51100000000E-03 0. -1.
        -11    1    3    3    0    0 -0.60177694197E+00 -0.49105604458E+01  0.43758249458E+01  0.66048151827E+01  0.51100000000E-03 0.  1.
        -12    1    3    3    0    0 -0.28867666897E+01 -0.14677897762E+01  0.74291234319E+01  0.81043015562E+01  0.00000000000E+00 0.  1.
</event>
<event>
 7    1  0.5022032E-011  0.4778727E+02  0.7816164E-02  0.1312668E+00
        -11   -1    0    0    0    0  0.00000000000E+00  0.00000000000E+00  0.45593999997E+02  0.45594000000E+02  0.51100000000E-03 0. -1.
         11   -1    0    0    0    0 -0.00000000000E+00 -0.00000000000E+00 -0.45593999997E+02  0.45594000000E+02  0.51100000000E-03 0.  1.
    9900012    2    1    2    0    0 -0.41003219034E+02  0.12676966930E+02 -0.64539971063E+01  0.47787267974E+02  0.19999986002E+02 0.  0.
        -12    1    1    2    0    0  0.41003219034E+02 -0.12676966930E+02  0.64539971063E+01  0.43400732026E+02  0.00000000000E+00 0.  1.
         11    1    3    3    0    0 -0.19921594709E+02 -0.23507611206E+01  0.51624763024E+00  0.20066452737E+02  0.51100000000E-03 0. -1.
        -11    1    3    3    0    0  0.13150632846E-01  0.16062104114E+01  0.39864021718E+00  0.16549921779E+01  0.51100000000E-03 0.  1.
        -12    1    3    3    0    0 -0.21094774958E+02  0.13421517639E+02 -0.73688849537E+01  0.26065823059E+02  0.00000000000E+00 0.  1.
</event>
<event>
 7    1  0.5022032E-011  0.4778727E+02  0.7816164E-02  0.1312668E+00
        -11   -1    0    0    0    0  0.00000000000E+00  0.00000000000E+00  0.45593999997E+02  0.45594000000E+02  0.51100000000E-03 0. -1.
         11   -1    0    0    0    0 -0.00000000000E+00 -0.00000000000E+00 -0.45593999997E+02  0.45594000000E+02  0.51100000000E-03 0.  1.
    9900012    2    1    2    0    0 -0.19969251597E+02 -0.10373582068E+02  0.37111202054E+02  0.47787268069E+02  0.19999986432E+02 0.  0.
        -12    1    1    2    0    0  0.19969251597E+02  0.10373582068E+02 -0.37111202054E+02  0.43400731931E+02  0.00000000000E+00 0.  1.
         11    1    3    3    0    0 -0.91021312708E+01  0.37212176817E+00  0.31358849037E+01  0.96343677879E+01  0.51100000000E-03 0. -1.
        -11    1    3    3    0    0  0.11344552557E+01 -0.18204778606E+00  0.42257054537E+01  0.43791228535E+01  0.51100000000E-03 0.  1.
         12    1    3    3    0    0 -0.12001575582E+02 -0.10563656051E+02  0.29749611697E+02  0.33773777427E+02  0.00000000000E+00 0. -1.
</event>
<event>
 7    1  0.5022032E-011  0.4778728E+02  0.7816164E-02  0.1312668E+00
        -11   -1    0    0    0    0  0.00000000000E+00  0.00000000000E+00  0.45593999997E+02  0.45594000000E+02  0.51100000000E-03 0.  1.
         11   -1    0    0    0    0 -0.00000000000E+00 -0.00000000000E+00 -0.45593999997E+02  0.45594000000E+02  0.51100000000E-03 0. -1.
    9900012    2    1    2    0    0 -0.23974233921E+02 -0.36177375774E+02  0.23762248754E+00  0.47787275646E+02  0.20000020980E+02 0.  0.
         12    1    1    2    0    0  0.23974233921E+02  0.36177375774E+02 -0.23762248754E+00  0.43400724354E+02  0.00000000000E+00 0. -1.
         11    1    3    3    0    0 -0.10293893989E+02 -0.16921609544E+02 -0.67615105419E+01  0.20929002558E+02  0.51100000000E-03 0. -1.
        -11    1    3    3    0    0 -0.47767504802E+01 -0.14424950170E+02  0.13381811386E+01  0.15254089995E+02  0.51100000000E-03 0.  1.
         12    1    3    3    0    0 -0.89035894523E+01 -0.48308160607E+01  0.56609518908E+01  0.11604183093E+02  0.00000000000E+00 0. -1.
</event>
<event>
 7    1  0.7581355E-011  0.4778727E+02  0.7816164E-02  0.1312668E+00
        -11   -1    0    0    0    0  0.00000000000E+00  0.00000000000E+00  0.45593999997E+02  0.45594000000E+02  0.51100000000E-03 0. -1.
         11   -1    0    0    0    0 -0.00000000000E+00 -0.00000000000E+00 -0.45593999997E+02  0.45594000000E+02  0.51100000000E-03 0.  1.
    9900012    2    1    2    0    0 -0.19281327834E+02  0.94262380931E+01 -0.37722672559E+02  0.47787267372E+02  0.19999983258E+02 0.  0.
         12    1    1    2    0    0  0.19281327834E+02 -0.94262380931E+01  0.37722672559E+02  0.43400732628E+02  0.00000000000E+00 0. -1.
         11    1    3    3    0    0 -0.29933873111E+00 -0.34699892791E+01 -0.34386863525E+01  0.48943838596E+01  0.51100000000E-03 0. -1.
        -11    1    3    3    0    0 -0.34228965907E+01 -0.21481233999E+01 -0.68006737531E+01  0.79107407345E+01  0.51100000000E-03 0.  1.
        -12    1    3    3    0    0 -0.15559092512E+02  0.15044350772E+02 -0.27483312453E+02  0.34982142778E+02  0.00000000000E+00 0.  1.
</event>
<event>
 7    1  0.5022032E-011  0.4778727E+02  0.7816164E-02  0.1312668E+00
        -11   -1    0    0    0    0  0.00000000000E+00  0.00000000000E+00  0.45593999997E+02  0.45594000000E+02  0.51100000000E-03 0. -1.
         11   -1    0    0    0    0 -0.00000000000E+00 -0.00000000000E+00 -0.45593999997E+02  0.45594000000E+02  0.51100000000E-03 0.  1.
    9900012    2    1    2    0    0 -0.15355168518E+02 -0.34082999220E+02 -0.22049742941E+02  0.47787271898E+02  0.20000003891E+02 0.  0.
         12    1    1    2    0    0  0.15355168518E+02  0.34082999220E+02  0.22049742941E+02  0.43400728102E+02  0.00000000000E+00 0. -1.
         11    1    3    3    0    0 -0.10599052287E+02 -0.10394171546E+02 -0.45269260774E+01  0.15520044184E+02  0.51100000000E-03 0. -1.
        -11    1    3    3    0    0 -0.24992609909E+01 -0.78011667008E+01 -0.13389013243E+02  0.15696183717E+02  0.51100000000E-03 0.  1.
         12    1    3    3    0    0 -0.22568552401E+01 -0.15887660973E+02 -0.41338036205E+01  0.16571043997E+02  0.00000000000E+00 0. -1.
</event>
<event>
 7    1  0.5022032E-011  0.4778727E+02  0.7816164E-02  0.1312668E+00
        -11   -1    0    0    0    0  0.00000000000E+00  0.00000000000E+00  0.45593999997E+02  0.45594000000E+02  0.51100000000E-03 0. -1.
         11   -1    0    0    0    0 -0.00000000000E+00 -0.00000000000E+00 -0.45593999997E+02  0.45594000000E+02  0.51100000000E-03 0.  1.
    9900012    2    1    2    0    0  0.11153641650E+02 -0.25688021073E+02  0.33156373782E+02  0.47787271077E+02  0.20000000150E+02 0.  0.
        -12    1    1    2    0    0 -0.11153641650E+02  0.25688021073E+02 -0.33156373782E+02  0.43400728923E+02  0.00000000000E+00 0.  1.
         11    1    3    3    0    0  0.33871237581E+01 -0.27469316762E+01  0.48544905105E-01  0.43612610396E+01  0.51100000000E-03 0. -1.
        -11    1    3    3    0    0  0.74153100006E+01 -0.29717394917E+01  0.75692581849E+01  0.11005077362E+02  0.51100000000E-03 0.  1.
        -12    1    3    3    0    0  0.35120789165E+00 -0.19969349905E+02  0.25538570691E+02  0.32420932676E+02  0.00000000000E+00 0.  1.
</event>
<event>
 7    1  0.5022032E-011  0.4778727E+02  0.7816164E-02  0.1312668E+00
        -11   -1    0    0    0    0  0.00000000000E+00  0.00000000000E+00  0.45593999997E+02  0.45594000000E+02  0.51100000000E-03 0. -1.
         11   -1    0    0    0    0 -0.00000000000E+00 -0.00000000000E+00 -0.45593999997E+02  0.45594000000E+02  0.51100000000E-03 0.  1.
    9900012    2    1    2    0    0  0.24863032922E+02 -0.13858818848E+02 -0.32762573078E+02  0.47787268893E+02  0.19999990190E+02 0.  0.
         12    1    1    2    0    0 -0.24863032922E+02  0.13858818848E+02  0.32762573078E+02  0.43400731107E+02  0.00000000000E+00 0. -1.
         11    1    3    3    0    0  0.56440204836E+01 -0.70611919224E+01 -0.20952384550E+01  0.92793007833E+01  0.51100000000E-03 0. -1.
        -11    1    3    3    0    0  0.44152627092E+01 -0.70885988365E+01 -0.13068159803E+02  0.15508693664E+02  0.51100000000E-03 0.  1.
        -12    1    3    3    0    0  0.14803749729E+02  0.29097191042E+00 -0.17599174820E+02  0.22999274446E+02  0.00000000000E+00 0.  1.
</event>
<event>
 7    1  0.5022032E-011  0.4778727E+02  0.7816164E-02  0.1312668E+00
        -11   -1    0    0    0    0  0.00000000000E+00  0.00000000000E+00  0.45593999997E+02  0.45594000000E+02  0.51100000000E-03 0. -1.
         11   -1    0    0    0    0 -0.00000000000E+00 -0.00000000000E+00 -0.45593999997E+02  0.45594000000E+02  0.51100000000E-03 0.  1.
    9900012    2    1    2    0    0  0.88609698721E+01  0.28066844969E+02  0.31896056704E+02  0.47787274121E+02  0.20000014027E+02 0.  0.
        -12    1    1    2    0    0 -0.88609698721E+01 -0.28066844969E+02 -0.31896056704E+02  0.43400725879E+02  0.00000000000E+00 0.  1.
         11    1    3    3    0    0  0.95841833284E+01  0.86433632325E+01  0.11796557143E+02  0.17484938053E+02  0.51100000000E-03 0. -1.
        -11    1    3    3    0    0  0.31355534040E+01  0.17463008661E+01  0.73147738733E+01  0.81478327758E+01  0.51100000000E-03 0.  1.
        -12    1    3    3    0    0 -0.38587668603E+01  0.17677180870E+02  0.12784725687E+02  0.22154503292E+02  0.00000000000E+00 0.  1.
</event>
<event>
 7    1  0.5022032E-011  0.4778727E+02  0.7816164E-02  0.1312668E+00
        -11   -1    0    0    0    0  0.00000000000E+00  0.00000000000E+00  0.45593999997E+02  0.45594000000E+02  0.51100000000E-03 0. -1.
         11   -1    0    0    0    0 -0.00000000000E+00 -0.00000000000E+00 -0.45593999997E+02  0.45594000000E+02  0.51100000000E-03 0.  1.
    9900012    2    1    2    0    0  0.37567179254E+02 -0.81016403878E+01  0.20166654236E+02  0.47787268703E+02  0.19999989324E+02 0.  0.
        -12    1    1    2    0    0 -0.37567179254E+02  0.81016403878E+01 -0.20166654236E+02  0.43400731297E+02  0.00000000000E+00 0.  1.
         11    1    3    3    0    0  0.12360362916E+02  0.19494889916E+01  0.41292180907E+01  0.13176855507E+02  0.51100000000E-03 0. -1.
        -11    1    3    3    0    0  0.18052098027E+02 -0.44478493580E+01  0.17348066599E+02  0.25428665362E+02  0.51100000000E-03 0.  1.
        -12    1    3    3    0    0  0.71547183112E+01 -0.56032800215E+01 -0.13106304541E+01  0.91817478346E+01  0.00000000000E+00 0.  1.
</event>
<event>
 7    1  0.5022032E-011  0.4778727E+02  0.7816164E-02  0.1312668E+00
        -11   -1    0    0    0    0  0.00000000000E+00  0.00000000000E+00  0.45593999997E+02  0.45594000000E+02  0.51100000000E-03 0. -1.
         11   -1    0    0    0    0 -0.00000000000E+00 -0.00000000000E+00 -0.45593999997E+02  0.45594000000E+02  0.51100000000E-03 0.  1.
    9900012    2    1    2    0    0  0.21843592359E+02 -0.27390118414E+02 -0.25617616147E+02  0.47787269926E+02  0.19999994903E+02 0.  0.
         12    1    1    2    0    0 -0.21843592359E+02  0.27390118414E+02  0.25617616147E+02  0.43400730074E+02  0.00000000000E+00 0. -1.
         11    1    3    3    0    0  0.15510796924E+02 -0.21844902989E+02 -0.98625944397E+01  0.28549174719E+02  0.51100000000E-03 0. -1.
        -11    1    3    3    0    0  0.57740356166E+01 -0.59007277430E+01 -0.81384172631E+01  0.11592752521E+02  0.51100000000E-03 0.  1.
        -12    1    3    3    0    0  0.55875981821E+00  0.35551231746E+00 -0.76166044437E+01  0.76453426865E+01  0.00000000000E+00 0.  1.
</event>
<event>
 7    1  0.5022032E-011  0.4778727E+02  0.7816164E-02  0.1312668E+00
        -11   -1    0    0    0    0  0.00000000000E+00  0.00000000000E+00  0.45593999997E+02  0.45594000000E+02  0.51100000000E-03 0. -1.
         11   -1    0    0    0    0 -0.00000000000E+00 -0.00000000000E+00 -0.45593999997E+02  0.45594000000E+02  0.51100000000E-03 0.  1.
    9900012    2    1    2    0    0 -0.27798538369E+02  0.25206893194E+01  0.33234186763E+02  0.47787265215E+02  0.19999973422E+02 0.  0.
        -12    1    1    2    0    0  0.27798538369E+02 -0.25206893194E+01 -0.33234186763E+02  0.43400734785E+02  0.00000000000E+00 0.  1.
         11    1    3    3    0    0 -0.75851007344E+01  0.50712623673E+01  0.11610557251E+02  0.14766736101E+02  0.51100000000E-03 0. -1.
        -11    1    3    3    0    0 -0.46465601927E+01 -0.57940099138E+01  0.18640557099E+01  0.76574001107E+01  0.51100000000E-03 0.  1.
        -12    1    3    3    0    0 -0.15566877442E+02  0.32434368660E+01  0.19759573802E+02  0.25363129003E+02  0.00000000000E+00 0.  1.
</event>
<event>
 7    1  0.5022032E-011  0.4778727E+02  0.7816164E-02  0.1312668E+00
        -11   -1    0    0    0    0  0.00000000000E+00  0.00000000000E+00  0.45593999997E+02  0.45594000000E+02  0.51100000000E-03 0. -1.
         11   -1    0    0    0    0 -0.00000000000E+00 -0.00000000000E+00 -0.45593999997E+02  0.45594000000E+02  0.51100000000E-03 0.  1.
    9900012    2    1    2    0    0  0.24041104271E+02 -0.25647119258E+02 -0.25453365092E+02  0.47787271719E+02  0.20000003077E+02 0.  0.
         12    1    1    2    0    0 -0.24041104271E+02  0.25647119258E+02  0.25453365092E+02  0.43400728281E+02  0.00000000000E+00 0. -1.
         11    1    3    3    0    0  0.20499956022E+02 -0.15409945890E+02 -0.18331184009E+02  0.31523751945E+02  0.51100000000E-03 0. -1.
        -11    1    3    3    0    0  0.65345933598E+01 -0.39055009943E+01 -0.35027019753E+01  0.83799027311E+01  0.51100000000E-03 0.  1.
         12    1    3    3    0    0 -0.29934451108E+01 -0.63316723738E+01 -0.36194791077E+01  0.78836170437E+01  0.00000000000E+00 0. -1.
</event>
<event>
 7    1  0.5022032E-011  0.4778727E+02  0.7816164E-02  0.1312668E+00
        -11   -1    0    0    0    0  0.00000000000E+00  0.00000000000E+00  0.45593999997E+02  0.45594000000E+02  0.51100000000E-03 0. -1.
         11   -1    0    0    0    0 -0.00000000000E+00 -0.00000000000E+00 -0.45593999997E+02  0.45594000000E+02  0.51100000000E-03 0.  1.
    9900012    2    1    2    0    0  0.53878339939E+01  0.11301438618E+02  0.41555647232E+02  0.47787273199E+02  0.20000009823E+02 0.  0.
        -12    1    1    2    0    0 -0.53878339939E+01 -0.11301438618E+02 -0.41555647232E+02  0.43400726801E+02  0.00000000000E+00 0.  1.
         11    1    3    3    0    0  0.65692135500E+01  0.90430606641E+01  0.15304682834E+02  0.18951644513E+02  0.51100000000E-03 0. -1.
        -11    1    3    3    0    0 -0.32684249768E+01  0.64127695637E+01  0.14225528943E+02  0.15942769185E+02  0.51100000000E-03 0.  1.
        -12    1    3    3    0    0  0.20870454207E+01 -0.41543916095E+01  0.12025435455E+02  0.12892859501E+02  0.00000000000E+00 0.  1.
</event>
<event>
 7    1  0.5022032E-011  0.4778727E+02  0.7816164E-02  0.1312668E+00
        -11   -1    0    0    0    0  0.00000000000E+00  0.00000000000E+00  0.45593999997E+02  0.45594000000E+02  0.51100000000E-03 0.  1.
         11   -1    0    0    0    0 -0.00000000000E+00 -0.00000000000E+00 -0.45593999997E+02  0.45594000000E+02  0.51100000000E-03 0. -1.
    9900012    2    1    2    0    0 -0.35593231746E+02  0.23546488308E+02  0.78935432010E+01  0.47787270951E+02  0.19999999572E+02 0.  0.
        -12    1    1    2    0    0  0.35593231746E+02 -0.23546488308E+02 -0.78935432010E+01  0.43400729049E+02  0.00000000000E+00 0.  1.
         11    1    3    3    0    0 -0.26150873468E+02  0.19787140025E+02 -0.21034446235E+01  0.32860669090E+02  0.51100000000E-03 0. -1.
        -11    1    3    3    0    0 -0.27152480034E+00 -0.30434145569E+00 -0.33391353784E+00  0.52711284439E+00  0.51100000000E-03 0.  1.
        -12    1    3    3    0    0 -0.91708334775E+01  0.40636897388E+01  0.10330901362E+02  0.14399489016E+02  0.00000000000E+00 0.  1.
</event>
<event>
 7    1  0.5022032E-011  0.4778728E+02  0.7816164E-02  0.1312668E+00
        -11   -1    0    0    0    0  0.00000000000E+00  0.00000000000E+00  0.45593999997E+02  0.45594000000E+02  0.51100000000E-03 0. -1.
         11   -1    0    0    0    0 -0.00000000000E+00 -0.00000000000E+00 -0.45593999997E+02  0.45594000000E+02  0.51100000000E-03 0.  1.
    9900012    2    1    2    0    0 -0.14076722028E+02 -0.12522065298E+02 -0.39098162963E+02  0.47787279160E+02  0.20000037002E+02 0.  0.
         12    1    1    2    0    0  0.14076722028E+02  0.12522065298E+02  0.39098162963E+02  0.43400720840E+02  0.00000000000E+00 0. -1.
         11    1    3    3    0    0 -0.60798792975E+00 -0.55083847260E+00 -0.50613145971E+00  0.96397181559E+00  0.51100000000E-03 0. -1.
        -11    1    3    3    0    0 -0.13631132029E+02 -0.15307850640E+02 -0.22703379653E+02  0.30587276759E+02  0.51100000000E-03 0.  1.
         12    1    3    3    0    0  0.16239793007E+00  0.33366238146E+01 -0.15888651850E+02  0.16236030586E+02  0.00000000000E+00 0. -1.
</event>
<event>
 7    1  0.5022032E-011  0.4778727E+02  0.7816164E-02  0.1312668E+00
        -11   -1    0    0    0    0  0.00000000000E+00  0.00000000000E+00  0.45593999997E+02  0.45594000000E+02  0.51100000000E-03 0. -1.
         11   -1    0    0    0    0 -0.00000000000E+00 -0.00000000000E+00 -0.45593999997E+02  0.45594000000E+02  0.51100000000E-03 0.  1.
    9900012    2    1    2    0    0  0.50641610932E+01 -0.23721767703E+02 -0.35989655247E+02  0.47787271027E+02  0.19999999922E+02 0.  0.
         12    1    1    2    0    0 -0.50641610932E+01  0.23721767703E+02  0.35989655247E+02  0.43400728973E+02  0.00000000000E+00 0. -1.
         11    1    3    3    0    0 -0.57879501581E+01 -0.65418903879E+01 -0.13697737521E+02  0.16245759765E+02  0.51100000000E-03 0. -1.
        -11    1    3    3    0    0 -0.13644792033E+01 -0.12447574970E+01 -0.38866678626E+01  0.43031862681E+01  0.51100000000E-03 0.  1.
        -12    1    3    3    0    0  0.12216590455E+02 -0.15935119818E+02 -0.18405249863E+02  0.27238324994E+02  0.00000000000E+00 0.  1.
</event>
<event>
 7    1  0.5022032E-011  0.4778727E+02  0.7816164E-02  0.1312668E+00
        -11   -1    0    0    0    0  0.00000000000E+00  0.00000000000E+00  0.45593999997E+02  0.45594000000E+02  0.51100000000E-03 0. -1.
         11   -1    0    0    0    0 -0.00000000000E+00 -0.00000000000E+00 -0.45593999997E+02  0.45594000000E+02  0.51100000000E-03 0.  1.
    9900012    2    1    2    0    0  0.26705452495E+02  0.99694554460E+00 -0.34197193967E+02  0.47787272257E+02  0.20000005528E+02 0.  0.
         12    1    1    2    0    0 -0.26705452495E+02 -0.99694554460E+00  0.34197193967E+02  0.43400727743E+02  0.00000000000E+00 0. -1.
         11    1    3    3    0    0  0.22918102888E+01 -0.61122705707E+01 -0.13353079550E+02  0.14863276209E+02  0.51100000000E-03 0. -1.
        -11    1    3    3    0    0  0.43883644798E+01  0.67180242260E+00 -0.40140267148E+01  0.59851041788E+01  0.51100000000E-03 0.  1.
         12    1    3    3    0    0  0.20025277726E+02  0.64374136927E+01 -0.16830087702E+02  0.26938891869E+02  0.00000000000E+00 0. -1.
</event>
<event>
 7    1  0.5022032E-011  0.4778727E+02  0.7816164E-02  0.1312668E+00
        -11   -1    0    0    0    0  0.00000000000E+00  0.00000000000E+00  0.45593999997E+02  0.45594000000E+02  0.51100000000E-03 0. -1.
         11   -1    0    0    0    0 -0.00000000000E+00 -0.00000000000E+00 -0.45593999997E+02  0.45594000000E+02  0.51100000000E-03 0.  1.
    9900012    2    1    2    0    0 -0.31096241174E+02  0.23507836110E+02 -0.19079533441E+02  0.47787272240E+02  0.20000005453E+02 0.  0.
         12    1    1    2    0    0  0.31096241174E+02 -0.23507836110E+02  0.19079533441E+02  0.43400727760E+02  0.00000000000E+00 0. -1.
         11    1    3    3    0    0 -0.22869288290E+01  0.58171677986E+01 -0.15775602027E+01  0.64465635125E+01  0.51100000000E-03 0. -1.
        -11    1    3    3    0    0 -0.13416954678E+02  0.80393268108E+01 -0.17091463205E+02  0.23168158389E+02  0.51100000000E-03 0.  1.
         12    1    3    3    0    0 -0.15392357667E+02  0.96513415004E+01 -0.41051003339E+00  0.18172550339E+02  0.00000000000E+00 0. -1.
</event>
<event>
 7    1  0.5022032E-011  0.4778727E+02  0.7816164E-02  0.1312668E+00
        -11   -1    0    0    0    0  0.00000000000E+00  0.00000000000E+00  0.45593999997E+02  0.45594000000E+02  0.51100000000E-03 0. -1.
         11   -1    0    0    0    0 -0.00000000000E+00 -0.00000000000E+00 -0.45593999997E+02  0.45594000000E+02  0.51100000000E-03 0.  1.
    9900012    2    1    2    0    0  0.33011754851E+02  0.28137859001E+02 -0.14520082006E+01  0.47787269645E+02  0.19999993621E+02 0.  0.
         12    1    1    2    0    0 -0.33011754851E+02 -0.28137859001E+02  0.14520082006E+01  0.43400730355E+02  0.00000000000E+00 0. -1.
         11    1    3    3    0    0 -0.28797061594E+00  0.51465612283E+00 -0.93940875593E-01  0.59717932787E+00  0.51100000000E-03 0. -1.
        -11    1    3    3    0    0  0.27105621241E+02  0.22210149564E+02 -0.87631250449E+01  0.36121985097E+02  0.51100000000E-03 0.  1.
         12    1    3    3    0    0  0.61941042259E+01  0.54130533140E+01  0.74050577199E+01  0.11068105221E+02  0.00000000000E+00 0. -1.
</event>
<event>
 7    1  0.5022032E-011  0.4778727E+02  0.7816164E-02  0.1312668E+00
        -11   -1    0    0    0    0  0.00000000000E+00  0.00000000000E+00  0.45593999997E+02  0.45594000000E+02  0.51100000000E-03 0. -1.
         11   -1    0    0    0    0 -0.00000000000E+00 -0.00000000000E+00 -0.45593999997E+02  0.45594000000E+02  0.51100000000E-03 0.  1.
    9900012    2    1    2    0    0  0.15958060758E+02 -0.10178191446E+02  0.39055959602E+02  0.47787271150E+02  0.20000000482E+02 0.  0.
        -12    1    1    2    0    0 -0.15958060758E+02  0.10178191446E+02 -0.39055959602E+02  0.43400728850E+02  0.00000000000E+00 0.  1.
         11    1    3    3    0    0  0.99474089647E+01 -0.84704309797E+01  0.71631348717E+01  0.14899988173E+02  0.51100000000E-03 0. -1.
        -11    1    3    3    0    0  0.28976811978E+01 -0.31058177477E+01  0.12646986214E+02  0.13341248845E+02  0.51100000000E-03 0.  1.
         12    1    3    3    0    0  0.31129705952E+01  0.13980572814E+01  0.19245838517E+02  0.19546034132E+02  0.00000000000E+00 0. -1.
</event>
<event>
 7    1  0.5022032E-011  0.4778727E+02  0.7816164E-02  0.1312668E+00
        -11   -1    0    0    0    0  0.00000000000E+00  0.00000000000E+00  0.45593999997E+02  0.45594000000E+02  0.51100000000E-03 0. -1.
         11   -1    0    0    0    0 -0.00000000000E+00 -0.00000000000E+00 -0.45593999997E+02  0.45594000000E+02  0.51100000000E-03 0.  1.
    9900012    2    1    2    0    0 -0.13293021875E+02  0.20274888711E+01  0.41265093147E+02  0.47787273576E+02  0.20000011544E+02 0.  0.
        -12    1    1    2    0    0  0.13293021875E+02 -0.20274888711E+01 -0.41265093147E+02  0.43400726424E+02  0.00000000000E+00 0.  1.
         11    1    3    3    0    0 -0.72859323948E+01 -0.14518155405E+01  0.35758049320E+02  0.36521646604E+02  0.51100000000E-03 0. -1.
        -11    1    3    3    0    0  0.20127740411E+00  0.81649562400E+00  0.43270657202E+01  0.44080240137E+01  0.51100000000E-03 0.  1.
        -12    1    3    3    0    0 -0.62083668842E+01  0.26628087876E+01  0.11799781065E+01  0.68576029587E+01  0.00000000000E+00 0.  1.
</event>
<event>
 7    1  0.5022032E-011  0.4778726E+02  0.7816164E-02  0.1312668E+00
        -11   -1    0    0    0    0  0.00000000000E+00  0.00000000000E+00  0.45593999997E+02  0.45594000000E+02  0.51100000000E-03 0. -1.
         11   -1    0    0    0    0 -0.00000000000E+00 -0.00000000000E+00 -0.45593999997E+02  0.45594000000E+02  0.51100000000E-03 0.  1.
    9900012    2    1    2    0    0 -0.18455877545E+02 -0.17862127787E+02 -0.34984979333E+02  0.47787264938E+02  0.19999972158E+02 0.  0.
         12    1    1    2    0    0  0.18455877545E+02  0.17862127787E+02  0.34984979333E+02  0.43400735062E+02  0.00000000000E+00 0. -1.
         11    1    3    3    0    0  0.24763080034E+00 -0.25464289445E+01 -0.12156746236E+02  0.12423047158E+02  0.51100000000E-03 0. -1.
        -11    1    3    3    0    0 -0.12704684700E+02 -0.99948332732E+01 -0.22003835633E+02  0.27303378698E+02  0.51100000000E-03 0.  1.
         12    1    3    3    0    0 -0.59988236453E+01 -0.53208655689E+01 -0.82439746374E+00  0.80608390822E+01  0.00000000000E+00 0. -1.
</event>
<event>
 7    1  0.5022032E-011  0.4778727E+02  0.7816164E-02  0.1312668E+00
        -11   -1    0    0    0    0  0.00000000000E+00  0.00000000000E+00  0.45593999997E+02  0.45594000000E+02  0.51100000000E-03 0. -1.
         11   -1    0    0    0    0 -0.00000000000E+00 -0.00000000000E+00 -0.45593999997E+02  0.45594000000E+02  0.51100000000E-03 0.  1.
    9900012    2    1    2    0    0  0.23596211710E+02 -0.17239902690E+02 -0.32087814089E+02  0.47787271148E+02  0.20000000474E+02 0.  0.
         12    1    1    2    0    0 -0.23596211710E+02  0.17239902690E+02  0.32087814089E+02  0.43400728852E+02  0.00000000000E+00 0. -1.
         11    1    3    3    0    0  0.11372562643E+02 -0.80025811334E+01 -0.88179927548E+01  0.16466131372E+02  0.51100000000E-03 0. -1.
        -11    1    3    3    0    0 -0.26709163119E+00 -0.67673189422E+01 -0.30530430420E+01  0.74289309919E+01  0.51100000000E-03 0.  1.
         12    1    3    3    0    0  0.12490740699E+02 -0.24700026147E+01 -0.20216778292E+02  0.23892208785E+02  0.00000000000E+00 0. -1.
</event>
<event>
 7    1  0.5022032E-011  0.4778727E+02  0.7816164E-02  0.1312668E+00
        -11   -1    0    0    0    0  0.00000000000E+00  0.00000000000E+00  0.45593999997E+02  0.45594000000E+02  0.51100000000E-03 0.  1.
         11   -1    0    0    0    0 -0.00000000000E+00 -0.00000000000E+00 -0.45593999997E+02  0.45594000000E+02  0.51100000000E-03 0. -1.
    9900012    2    1    2    0    0  0.36628189547E+02 -0.18000218643E+02  0.14764522071E+02  0.47787271289E+02  0.20000001115E+02 0.  0.
        -12    1    1    2    0    0 -0.36628189547E+02  0.18000218643E+02 -0.14764522071E+02  0.43400728711E+02  0.00000000000E+00 0.  1.
         11    1    3    3    0    0  0.64089819959E+01 -0.15968043388E+01 -0.12413633948E+01  0.67205518865E+01  0.51100000000E-03 0. -1.
        -11    1    3    3    0    0  0.26917015280E+02 -0.71609057666E+01  0.10192846122E+02  0.29659709966E+02  0.51100000000E-03 0.  1.
         12    1    3    3    0    0  0.33021922712E+01 -0.92425085375E+01  0.58130393438E+01  0.11407009436E+02  0.00000000000E+00 0. -1.
</event>
<event>
 7    1  0.5022032E-011  0.4778727E+02  0.7816164E-02  0.1312668E+00
        -11   -1    0    0    0    0  0.00000000000E+00  0.00000000000E+00  0.45593999997E+02  0.45594000000E+02  0.51100000000E-03 0. -1.
         11   -1    0    0    0    0 -0.00000000000E+00 -0.00000000000E+00 -0.45593999997E+02  0.45594000000E+02  0.51100000000E-03 0.  1.
    9900012    2    1    2    0    0 -0.10063719698E+02  0.19830959006E+02  0.37270335706E+02  0.47787270596E+02  0.19999997953E+02 0.  0.
        -12    1    1    2    0    0  0.10063719698E+02 -0.19830959006E+02 -0.37270335706E+02  0.43400729404E+02  0.00000000000E+00 0.  1.
         11    1    3    3    0    0  0.59964544913E+00  0.45263113421E+01  0.11780701821E+02  0.12634555975E+02  0.51100000000E-03 0. -1.
        -11    1    3    3    0    0  0.22709142233E+01 -0.10986697760E+01  0.48215116251E+00  0.25683840622E+01  0.51100000000E-03 0.  1.
        -12    1    3    3    0    0 -0.12934279370E+02  0.16403317439E+02  0.25007482722E+02  0.32584330558E+02  0.00000000000E+00 0.  1.
</event>
<event>
 7    1  0.5022032E-011  0.4778727E+02  0.7816164E-02  0.1312668E+00
        -11   -1    0    0    0    0  0.00000000000E+00  0.00000000000E+00  0.45593999997E+02  0.45594000000E+02  0.51100000000E-03 0. -1.
         11   -1    0    0    0    0 -0.00000000000E+00 -0.00000000000E+00 -0.45593999997E+02  0.45594000000E+02  0.51100000000E-03 0.  1.
    9900012    2    1    2    0    0 -0.12708796280E+02  0.12509305839E+01  0.41479451364E+02  0.47787271715E+02  0.20000003057E+02 0.  0.
        -12    1    1    2    0    0  0.12708796280E+02 -0.12509305839E+01 -0.41479451364E+02  0.43400728285E+02  0.00000000000E+00 0.  1.
         11    1    3    3    0    0 -0.39394319581E+00 -0.30121751463E+01  0.26256776853E+01  0.40152925076E+01  0.51100000000E-03 0. -1.
        -11    1    3    3    0    0  0.81225493012E+00 -0.34122335675E+01  0.23348519738E+01  0.42136243296E+01  0.51100000000E-03 0.  1.
        -12    1    3    3    0    0 -0.13127108015E+02  0.76753392976E+01  0.36518921705E+02  0.39558354878E+02  0.00000000000E+00 0.  1.
</event>
<event>
 7    1  0.5022032E-011  0.4778728E+02  0.7816164E-02  0.1312668E+00
        -11   -1    0    0    0    0  0.00000000000E+00  0.00000000000E+00  0.45593999997E+02  0.45594000000E+02  0.51100000000E-03 0. -1.
         11   -1    0    0    0    0 -0.00000000000E+00 -0.00000000000E+00 -0.45593999997E+02  0.45594000000E+02  0.51100000000E-03 0.  1.
    9900012    2    1    2    0    0  0.90279135561E+01  0.12651195671E+02 -0.40522424557E+02  0.47787275731E+02  0.20000021367E+02 0.  0.
         12    1    1    2    0    0 -0.90279135561E+01 -0.12651195671E+02  0.40522424557E+02  0.43400724269E+02  0.00000000000E+00 0. -1.
         11    1    3    3    0    0  0.35074388246E+01  0.85390531448E+01 -0.17274673194E+02  0.19586523171E+02  0.51100000000E-03 0. -1.
        -11    1    3    3    0    0  0.68832088639E+01  0.48926176248E+01 -0.24674114642E+02  0.26079267726E+02  0.51100000000E-03 0.  1.
         12    1    3    3    0    0 -0.13627341324E+01 -0.78047509848E+00  0.14263632790E+01  0.21214848334E+01  0.00000000000E+00 0. -1.
</event>
<event>
 7    1  0.5022032E-011  0.4778727E+02  0.7816164E-02  0.1312668E+00
        -11   -1    0    0    0    0  0.00000000000E+00  0.00000000000E+00  0.45593999997E+02  0.45594000000E+02  0.51100000000E-03 0. -1.
         11   -1    0    0    0    0 -0.00000000000E+00 -0.00000000000E+00 -0.45593999997E+02  0.45594000000E+02  0.51100000000E-03 0.  1.
    9900012    2    1    2    0    0  0.16262418142E+00  0.11925310100E+02 -0.41729890848E+02  0.47787271230E+02  0.20000000846E+02 0.  0.
         12    1    1    2    0    0 -0.16262418142E+00 -0.11925310100E+02  0.41729890848E+02  0.43400728770E+02  0.00000000000E+00 0. -1.
         11    1    3    3    0    0  0.10141849219E+01  0.12052001359E+01 -0.16624569528E+01  0.22901619603E+01  0.51100000000E-03 0.  1.
        -11    1    3    3    0    0  0.40658483436E+00  0.12743205890E+02 -0.12595573256E+02  0.17922139200E+02  0.51100000000E-03 0. -1.
        -12    1    3    3    0    0 -0.12581455748E+01 -0.20230959256E+01 -0.27471860639E+02  0.27574970070E+02  0.00000000000E+00 0.  1.
</event>
<event>
 7    1  0.5022032E-011  0.4778728E+02  0.7816164E-02  0.1312668E+00
        -11   -1    0    0    0    0  0.00000000000E+00  0.00000000000E+00  0.45593999997E+02  0.45594000000E+02  0.51100000000E-03 0. -1.
         11   -1    0    0    0    0 -0.00000000000E+00 -0.00000000000E+00 -0.45593999997E+02  0.45594000000E+02  0.51100000000E-03 0.  1.
    9900012    2    1    2    0    0 -0.12309494299E+02  0.21852369700E+01  0.41561086725E+02  0.47787276040E+02  0.20000022777E+02 0.  0.
        -12    1    1    2    0    0  0.12309494299E+02 -0.21852369700E+01 -0.41561086725E+02  0.43400723960E+02  0.00000000000E+00 0.  1.
         11    1    3    3    0    0 -0.67690319509E+01 -0.15126488656E+00  0.66435596006E+01  0.94857555864E+01  0.51100000000E-03 0. -1.
        -11    1    3    3    0    0 -0.50326792843E+01  0.24959072147E+00  0.21743609471E+01  0.54879870714E+01  0.51100000000E-03 0.  1.
        -12    1    3    3    0    0 -0.50778306368E+00  0.20869111351E+01  0.32743166177E+02  0.32813533382E+02  0.00000000000E+00 0.  1.
</event>
<event>
 7    1  0.5022032E-011  0.4778728E+02  0.7816164E-02  0.1312668E+00
        -11   -1    0    0    0    0  0.00000000000E+00  0.00000000000E+00  0.45593999997E+02  0.45594000000E+02  0.51100000000E-03 0.  1.
         11   -1    0    0    0    0 -0.00000000000E+00 -0.00000000000E+00 -0.45593999997E+02  0.45594000000E+02  0.51100000000E-03 0. -1.
    9900012    2    1    2    0    0  0.41594586024E+02  0.10677533823E+02  0.62851775844E+01  0.47787276822E+02  0.20000026344E+02 0.  0.
         12    1    1    2    0    0 -0.41594586024E+02 -0.10677533823E+02 -0.62851775844E+01  0.43400723178E+02  0.00000000000E+00 0. -1.
         11    1    3    3    0    0  0.85794642624E+01 -0.15815655959E+00  0.70306687413E+01  0.11093354936E+02  0.51100000000E-03 0. -1.
        -11    1    3    3    0    0  0.19893002277E+02  0.24148392444E+01  0.39206700984E+01  0.20418977507E+02  0.51100000000E-03 0.  1.
        -12    1    3    3    0    0  0.13122119485E+02  0.84208511386E+01 -0.46661612553E+01  0.16274944379E+02  0.00000000000E+00 0.  1.
</event>
<event>
 7    1  0.5022032E-011  0.4778727E+02  0.7816164E-02  0.1312668E+00
        -11   -1    0    0    0    0  0.00000000000E+00  0.00000000000E+00  0.45593999997E+02  0.45594000000E+02  0.51100000000E-03 0. -1.
         11   -1    0    0    0    0 -0.00000000000E+00 -0.00000000000E+00 -0.45593999997E+02  0.45594000000E+02  0.51100000000E-03 0.  1.
    9900012    2    1    2    0    0 -0.21140190297E+02  0.16829676649E+02  0.33962881837E+02  0.47787274147E+02  0.20000014146E+02 0.  0.
        -12    1    1    2    0    0  0.21140190297E+02 -0.16829676649E+02 -0.33962881837E+02  0.43400725853E+02  0.00000000000E+00 0.  1.
         11    1    3    3    0    0 -0.24937046515E+01  0.67020489377E+01  0.20360371995E+02  0.21579637876E+02  0.51100000000E-03 0. -1.
        -11    1    3    3    0    0 -0.38650287573E+01 -0.84354134855E+00  0.29963097652E+01  0.49626486649E+01  0.51100000000E-03 0.  1.
         12    1    3    3    0    0 -0.14781456889E+02  0.10971169060E+02  0.10606200077E+02  0.21244987606E+02  0.00000000000E+00 0. -1.
</event>
<event>
 7    1  0.5022032E-011  0.4778728E+02  0.7816164E-02  0.1312668E+00
        -11   -1    0    0    0    0  0.00000000000E+00  0.00000000000E+00  0.45593999997E+02  0.45594000000E+02  0.51100000000E-03 0. -1.
         11   -1    0    0    0    0 -0.00000000000E+00 -0.00000000000E+00 -0.45593999997E+02  0.45594000000E+02  0.51100000000E-03 0.  1.
    9900012    2    1    2    0    0 -0.75226004995E+01  0.18580044357E+02  0.38494351180E+02  0.47787278355E+02  0.20000033330E+02 0.  0.
        -12    1    1    2    0    0  0.75226004995E+01 -0.18580044357E+02 -0.38494351180E+02  0.43400721645E+02  0.00000000000E+00 0.  1.
         11    1    3    3    0    0  0.26524535514E+00 -0.25109225812E+01  0.42830092959E+01  0.49718463570E+01  0.51100000000E-03 0.  1.
        -11    1    3    3    0    0 -0.11293502782E+00  0.97020393785E+01  0.59180205766E+01  0.11365090859E+02  0.51100000000E-03 0. -1.
        -12    1    3    3    0    0 -0.76749108268E+01  0.11388927560E+02  0.28293321307E+02  0.31450341139E+02  0.00000000000E+00 0.  1.
</event>
<event>
 7    1  0.5022032E-011  0.4778727E+02  0.7816164E-02  0.1312668E+00
        -11   -1    0    0    0    0  0.00000000000E+00  0.00000000000E+00  0.45593999997E+02  0.45594000000E+02  0.51100000000E-03 0. -1.
         11   -1    0    0    0    0 -0.00000000000E+00 -0.00000000000E+00 -0.45593999997E+02  0.45594000000E+02  0.51100000000E-03 0.  1.
    9900012    2    1    2    0    0  0.35589399717E+01 -0.12530931726E+02  0.41399676452E+02  0.47787268278E+02  0.19999987387E+02 0.  0.
        -12    1    1    2    0    0 -0.35589399717E+01  0.12530931726E+02 -0.41399676452E+02  0.43400731722E+02  0.00000000000E+00 0.  1.
         11    1    3    3    0    0  0.12091713325E+01  0.15507369942E+01  0.81636592368E+01  0.83971550499E+01  0.51100000000E-03 0. -1.
        -11    1    3    3    0    0  0.56040228167E+01 -0.53439316434E+01  0.40251651717E+01  0.87272350753E+01  0.51100000000E-03 0.  1.
        -12    1    3    3    0    0 -0.32542541775E+01 -0.87377370768E+01  0.29210852044E+02  0.30662878153E+02  0.00000000000E+00 0.  1.
</event>
<event>
 7    1  0.5022032E-011  0.4778727E+02  0.7816164E-02  0.1312668E+00
        -11   -1    0    0    0    0  0.00000000000E+00  0.00000000000E+00  0.45593999997E+02  0.45594000000E+02  0.51100000000E-03 0. -1.
         11   -1    0    0    0    0 -0.00000000000E+00 -0.00000000000E+00 -0.45593999997E+02  0.45594000000E+02  0.51100000000E-03 0.  1.
    9900012    2    1    2    0    0 -0.11160873420E+02  0.37036974940E+02  0.19680464845E+02  0.47787270689E+02  0.19999998381E+02 0.  0.
        -12    1    1    2    0    0  0.11160873420E+02 -0.37036974940E+02 -0.19680464845E+02  0.43400729311E+02  0.00000000000E+00 0.  1.
         11    1    3    3    0    0 -0.88614161420E+01  0.17988099426E+02  0.91767946795E+01  0.22052437005E+02  0.51100000000E-03 0. -1.
        -11    1    3    3    0    0 -0.61136510566E+01  0.17278942337E+02  0.53703512820E+01  0.19099195027E+02  0.51100000000E-03 0.  1.
         12    1    3    3    0    0  0.38141937785E+01  0.17699331764E+01  0.51333188837E+01  0.66356386573E+01  0.00000000000E+00 0. -1.
</event>
<event>
 7    1  0.5022032E-011  0.4778728E+02  0.7816164E-02  0.1312668E+00
        -11   -1    0    0    0    0  0.00000000000E+00  0.00000000000E+00  0.45593999997E+02  0.45594000000E+02  0.51100000000E-03 0. -1.
         11   -1    0    0    0    0 -0.00000000000E+00 -0.00000000000E+00 -0.45593999997E+02  0.45594000000E+02  0.51100000000E-03 0.  1.
    9900012    2    1    2    0    0 -0.23136447685E+02  0.13585647559E+02  0.34113890099E+02  0.47787279628E+02  0.20000039135E+02 0.  0.
        -12    1    1    2    0    0  0.23136447685E+02 -0.13585647559E+02 -0.34113890099E+02  0.43400720372E+02  0.00000000000E+00 0.  1.
         11    1    3    3    0    0 -0.14112183097E+02  0.11857921540E+02  0.22368529580E+02  0.28984739620E+02  0.51100000000E-03 0. -1.
        -11    1    3    3    0    0 -0.11025324712E+02 -0.42338164133E+00  0.11365418716E+02  0.15840131940E+02  0.51100000000E-03 0.  1.
         12    1    3    3    0    0  0.20010601236E+01  0.21511076610E+01  0.37994180334E+00  0.29624080680E+01  0.00000000000E+00 0. -1.
</event>
<event>
 7    1  0.5022032E-011  0.4778727E+02  0.7816164E-02  0.1312668E+00
        -11   -1    0    0    0    0  0.00000000000E+00  0.00000000000E+00  0.45593999997E+02  0.45594000000E+02  0.51100000000E-03 0. -1.
         11   -1    0    0    0    0 -0.00000000000E+00 -0.00000000000E+00 -0.45593999997E+02  0.45594000000E+02  0.51100000000E-03 0.  1.
    9900012    2    1    2    0    0 -0.32643416688E+02  0.19122672771E+02 -0.21268614467E+02  0.47787271570E+02  0.20000002394E+02 0.  0.
         12    1    1    2    0    0  0.32643416688E+02 -0.19122672771E+02  0.21268614467E+02  0.43400728430E+02  0.00000000000E+00 0. -1.
         11    1    3    3    0    0 -0.54531067583E+01  0.21526182449E+01 -0.84420230293E+01  0.10278029564E+02  0.51100000000E-03 0. -1.
        -11    1    3    3    0    0 -0.13984894143E+02  0.16252544824E+01 -0.95219326410E+01  0.16996644310E+02  0.51100000000E-03 0.  1.
         12    1    3    3    0    0 -0.13205415786E+02  0.15344800043E+02 -0.33046587970E+01  0.20512597696E+02  0.00000000000E+00 0. -1.
</event>
<event>
 7    1  0.5022032E-011  0.4778727E+02  0.7816164E-02  0.1312668E+00
        -11   -1    0    0    0    0  0.00000000000E+00  0.00000000000E+00  0.45593999997E+02  0.45594000000E+02  0.51100000000E-03 0. -1.
         11   -1    0    0    0    0 -0.00000000000E+00 -0.00000000000E+00 -0.45593999997E+02  0.45594000000E+02  0.51100000000E-03 0.  1.
    9900012    2    1    2    0    0  0.31926459242E+02  0.35159560547E+01  0.29188399073E+02  0.47787269739E+02  0.19999994047E+02 0.  0.
        -12    1    1    2    0    0 -0.31926459242E+02 -0.35159560547E+01 -0.29188399073E+02  0.43400730261E+02  0.00000000000E+00 0.  1.
         11    1    3    3    0    0  0.96178418364E+01 -0.29080098208E+01  0.19574009224E+02  0.22002300791E+02  0.51100000000E-03 0. -1.
        -11    1    3    3    0    0  0.69642278056E+01 -0.53596405659E+00  0.38595704493E+01  0.79802262319E+01  0.51100000000E-03 0.  1.
        -12    1    3    3    0    0  0.15344389600E+02  0.69599299321E+01  0.57548193999E+01  0.17804742716E+02  0.00000000000E+00 0.  1.
</event>
<event>
 7    1  0.5022032E-011  0.4778727E+02  0.7816164E-02  0.1312668E+00
        -11   -1    0    0    0    0  0.00000000000E+00  0.00000000000E+00  0.45593999997E+02  0.45594000000E+02  0.51100000000E-03 0. -1.
         11   -1    0    0    0    0 -0.00000000000E+00 -0.00000000000E+00 -0.45593999997E+02  0.45594000000E+02  0.51100000000E-03 0.  1.
    9900012    2    1    2    0    0 -0.10645471334E+02  0.19761762388E+02  0.37145253141E+02  0.47787272547E+02  0.20000006850E+02 0.  0.
        -12    1    1    2    0    0  0.10645471334E+02 -0.19761762388E+02 -0.37145253141E+02  0.43400727453E+02  0.00000000000E+00 0.  1.
         11    1    3    3    0    0 -0.53382898932E+01  0.11814976153E+02  0.18221536166E+02  0.22363259624E+02  0.51100000000E-03 0. -1.
        -11    1    3    3    0    0 -0.17070514692E+00  0.66478301059E+01  0.18994926671E+02  0.20125357757E+02  0.51100000000E-03 0.  1.
        -12    1    3    3    0    0 -0.51364762942E+01  0.12989561288E+01 -0.71209696448E-01  0.52986551659E+01  0.00000000000E+00 0.  1.
</event>
<event>
 7    1  0.5022032E-011  0.4778728E+02  0.7816164E-02  0.1312668E+00
        -11   -1    0    0    0    0  0.00000000000E+00  0.00000000000E+00  0.45593999997E+02  0.45594000000E+02  0.51100000000E-03 0. -1.
         11   -1    0    0    0    0 -0.00000000000E+00 -0.00000000000E+00 -0.45593999997E+02  0.45594000000E+02  0.51100000000E-03 0.  1.
    9900012    2    1    2    0    0  0.72786928593E+01 -0.40965290700E+01  0.42589456933E+02  0.47787276942E+02  0.20000026888E+02 0.  0.
        -12    1    1    2    0    0 -0.72786928593E+01  0.40965290700E+01 -0.42589456933E+02  0.43400723058E+02  0.00000000000E+00 0.  1.
         11    1    3    3    0    0  0.28341324528E+01 -0.15358785869E+01  0.10290949422E+02  0.10784009925E+02  0.51100000000E-03 0. -1.
        -11    1    3    3    0    0  0.79618347585E+01  0.42321000387E+01  0.10178173956E+02  0.13597672919E+02  0.51100000000E-03 0.  1.
         12    1    3    3    0    0 -0.35172743521E+01 -0.67927505218E+01  0.22120333554E+02  0.23405594098E+02  0.00000000000E+00 0. -1.
</event>
<event>
 7    1  0.5022032E-011  0.4778727E+02  0.7816164E-02  0.1312668E+00
        -11   -1    0    0    0    0  0.00000000000E+00  0.00000000000E+00  0.45593999997E+02  0.45594000000E+02  0.51100000000E-03 0. -1.
         11   -1    0    0    0    0 -0.00000000000E+00 -0.00000000000E+00 -0.45593999997E+02  0.45594000000E+02  0.51100000000E-03 0.  1.
    9900012    2    1    2    0    0  0.29383821160E+02 -0.16860408516E+02  0.27128231216E+02  0.47787271317E+02  0.20000001242E+02 0.  0.
        -12    1    1    2    0    0 -0.29383821160E+02  0.16860408516E+02 -0.27128231216E+02  0.43400728683E+02  0.00000000000E+00 0.  1.
         11    1    3    3    0    0  0.24402554828E+01 -0.73000474554E+01  0.78663596565E+01  0.11005687356E+02  0.51100000000E-03 0.  1.
        -11    1    3    3    0    0  0.13589770223E+02 -0.74030749435E+01  0.17134333261E+02  0.23088368282E+02  0.51100000000E-03 0. -1.
        -12    1    3    3    0    0  0.13353795454E+02 -0.21572861173E+01  0.21275382984E+01  0.13693215679E+02  0.00000000000E+00 0.  1.
</event>
<event>
 7    1  0.5022032E-011  0.4778727E+02  0.7816164E-02  0.1312668E+00
        -11   -1    0    0    0    0  0.00000000000E+00  0.00000000000E+00  0.45593999997E+02  0.45594000000E+02  0.51100000000E-03 0. -1.
         11   -1    0    0    0    0 -0.00000000000E+00 -0.00000000000E+00 -0.45593999997E+02  0.45594000000E+02  0.51100000000E-03 0.  1.
    9900012    2    1    2    0    0  0.85491389976E+01 -0.27861761245E+02  0.32159875749E+02  0.47787272754E+02  0.20000007796E+02 0.  0.
        -12    1    1    2    0    0 -0.85491389976E+01  0.27861761245E+02 -0.32159875749E+02  0.43400727246E+02  0.00000000000E+00 0.  1.
         11    1    3    3    0    0  0.18809471144E+01 -0.19929378140E+02  0.15124196899E+02  0.25089029618E+02  0.51100000000E-03 0. -1.
        -11    1    3    3    0    0  0.33101998945E+01 -0.39562048754E+01  0.29454117911E+00  0.51667915697E+01  0.51100000000E-03 0.  1.
        -12    1    3    3    0    0  0.33579919888E+01 -0.39761782301E+01  0.16741137671E+02  0.17531451566E+02  0.00000000000E+00 0.  1.
</event>
<event>
 7    1  0.5022032E-011  0.4778727E+02  0.7816164E-02  0.1312668E+00
        -11   -1    0    0    0    0  0.00000000000E+00  0.00000000000E+00  0.45593999997E+02  0.45594000000E+02  0.51100000000E-03 0.  1.
         11   -1    0    0    0    0 -0.00000000000E+00 -0.00000000000E+00 -0.45593999997E+02  0.45594000000E+02  0.51100000000E-03 0. -1.
    9900012    2    1    2    0    0 -0.22009716848E+02  0.44811826357E+01  0.37136432608E+02  0.47787271200E+02  0.20000000709E+02 0.  0.
        -12    1    1    2    0    0  0.22009716848E+02 -0.44811826357E+01 -0.37136432608E+02  0.43400728800E+02  0.00000000000E+00 0.  1.
         11    1    3    3    0    0 -0.17869079771E+02  0.31239272199E+01  0.36144766631E+02  0.40441403143E+02  0.51100000000E-03 0. -1.
        -11    1    3    3    0    0 -0.17205102266E+01 -0.16445644580E+01  0.22645949176E+01  0.32852911741E+01  0.51100000000E-03 0.  1.
        -12    1    3    3    0    0 -0.24201268511E+01  0.30018198738E+01 -0.12729289412E+01  0.40605768826E+01  0.00000000000E+00 0.  1.
</event>
<event>
 7    1  0.5022032E-011  0.4778727E+02  0.7816164E-02  0.1312668E+00
        -11   -1    0    0    0    0  0.00000000000E+00  0.00000000000E+00  0.45593999997E+02  0.45594000000E+02  0.51100000000E-03 0. -1.
         11   -1    0    0    0    0 -0.00000000000E+00 -0.00000000000E+00 -0.45593999997E+02  0.45594000000E+02  0.51100000000E-03 0.  1.
    9900012    2    1    2    0    0 -0.55561173981E+01 -0.25053841659E+02  0.35000828091E+02  0.47787269713E+02  0.19999993927E+02 0.  0.
        -12    1    1    2    0    0  0.55561173981E+01  0.25053841659E+02 -0.35000828091E+02  0.43400730287E+02  0.00000000000E+00 0.  1.
         11    1    3    3    0    0 -0.20911374796E+01 -0.31321793880E+01  0.33374480033E+01  0.50320933132E+01  0.51100000000E-03 0. -1.
        -11    1    3    3    0    0 -0.24025308820E+01 -0.23689270416E+02  0.32697184372E+02  0.40448233009E+02  0.51100000000E-03 0.  1.
        -12    1    3    3    0    0 -0.10624490365E+01  0.17676081446E+01 -0.10338042839E+01  0.23069433902E+01  0.00000000000E+00 0.  1.
</event>
<event>
 7    1  0.5022032E-011  0.4778727E+02  0.7816164E-02  0.1312668E+00
        -11   -1    0    0    0    0  0.00000000000E+00  0.00000000000E+00  0.45593999997E+02  0.45594000000E+02  0.51100000000E-03 0. -1.
         11   -1    0    0    0    0 -0.00000000000E+00 -0.00000000000E+00 -0.45593999997E+02  0.45594000000E+02  0.51100000000E-03 0.  1.
    9900012    2    1    2    0    0 -0.20109821026E+02  0.11280288949E+02  0.36769192997E+02  0.47787269889E+02  0.19999994733E+02 0.  0.
        -12    1    1    2    0    0  0.20109821026E+02 -0.11280288949E+02 -0.36769192997E+02  0.43400730111E+02  0.00000000000E+00 0.  1.
         11    1    3    3    0    0 -0.13274924632E+02  0.42157487829E+01  0.19247632751E+02  0.23758525387E+02  0.51100000000E-03 0. -1.
        -11    1    3    3    0    0  0.99695948699E+00  0.47928793374E+01  0.14546785881E+02  0.15348439670E+02  0.51100000000E-03 0.  1.
         12    1    3    3    0    0 -0.78318558808E+01  0.22716608287E+01  0.29747743652E+01  0.86803048323E+01  0.00000000000E+00 0. -1.
</event>
<event>
 7    1  0.5022032E-011  0.4778727E+02  0.7816164E-02  0.1312668E+00
        -11   -1    0    0    0    0  0.00000000000E+00  0.00000000000E+00  0.45593999997E+02  0.45594000000E+02  0.51100000000E-03 0. -1.
         11   -1    0    0    0    0 -0.00000000000E+00 -0.00000000000E+00 -0.45593999997E+02  0.45594000000E+02  0.51100000000E-03 0.  1.
    9900012    2    1    2    0    0 -0.20402190323E+02 -0.37046502301E+02  0.97432402908E+01  0.47787269199E+02  0.19999991585E+02 0.  0.
        -12    1    1    2    0    0  0.20402190323E+02  0.37046502301E+02 -0.97432402908E+01  0.43400730801E+02  0.00000000000E+00 0.  1.
         11    1    3    3    0    0 -0.33750584145E+00 -0.99156970709E+01  0.79799200610E+01  0.12732402878E+02  0.51100000000E-03 0. -1.
        -11    1    3    3    0    0 -0.92526158908E+01 -0.10652717129E+02  0.52216495686E+01  0.15045162264E+02  0.51100000000E-03 0.  1.
         12    1    3    3    0    0 -0.10812068590E+02 -0.16478088101E+02 -0.34583293388E+01  0.20009704058E+02  0.00000000000E+00 0. -1.
</event>
<event>
 7    1  0.5022032E-011  0.4778728E+02  0.7816164E-02  0.1312668E+00
        -11   -1    0    0    0    0  0.00000000000E+00  0.00000000000E+00  0.45593999997E+02  0.45594000000E+02  0.51100000000E-03 0. -1.
         11   -1    0    0    0    0 -0.00000000000E+00 -0.00000000000E+00 -0.45593999997E+02  0.45594000000E+02  0.51100000000E-03 0.  1.
    9900012    2    1    2    0    0  0.29661849548E+02  0.15004829655E+02 -0.27904339972E+02  0.47787280872E+02  0.20000044806E+02 0.  0.
         12    1    1    2    0    0 -0.29661849548E+02 -0.15004829655E+02  0.27904339972E+02  0.43400719128E+02  0.00000000000E+00 0. -1.
         11    1    3    3    0    0  0.73050839351E+01  0.60372656792E+01 -0.43995128458E+01  0.10448375076E+02  0.51100000000E-03 0. -1.
        -11    1    3    3    0    0  0.23649724695E+02  0.10528540456E+02 -0.18157948066E+02  0.31620732447E+02  0.51100000000E-03 0.  1.
         12    1    3    3    0    0 -0.12929590816E+01 -0.15609764804E+01 -0.53468790605E+01  0.57181733488E+01  0.00000000000E+00 0. -1.
</event>
<event>
 7    1  0.5022032E-011  0.4778726E+02  0.7816164E-02  0.1312668E+00
        -11   -1    0    0    0    0  0.00000000000E+00  0.00000000000E+00  0.45593999997E+02  0.45594000000E+02  0.51100000000E-03 0. -1.
         11   -1    0    0    0    0 -0.00000000000E+00 -0.00000000000E+00 -0.45593999997E+02  0.45594000000E+02  0.51100000000E-03 0.  1.
    9900012    2    1    2    0    0 -0.98636751485E+00  0.98347955228E+01 -0.42260246674E+02  0.47787256080E+02  0.19999931772E+02 0.  0.
         12    1    1    2    0    0  0.98636751485E+00 -0.98347955228E+01  0.42260246674E+02  0.43400743920E+02  0.00000000000E+00 0. -1.
         11    1    3    3    0    0 -0.46799769356E+01  0.27126365761E+01 -0.13016015206E+02  0.14095291178E+02  0.51100000000E-03 0. -1.
        -11    1    3    3    0    0 -0.38867509847E+00  0.50741167551E+01 -0.11348812867E+01  0.52139893530E+01  0.51100000000E-03 0.  1.
        -12    1    3    3    0    0  0.40822845192E+01  0.20480421915E+01 -0.28109350182E+02  0.28477975549E+02  0.00000000000E+00 0.  1.
</event>
<event>
 7    1  0.5022032E-011  0.4778727E+02  0.7816164E-02  0.1312668E+00
        -11   -1    0    0    0    0  0.00000000000E+00  0.00000000000E+00  0.45593999997E+02  0.45594000000E+02  0.51100000000E-03 0. -1.
         11   -1    0    0    0    0 -0.00000000000E+00 -0.00000000000E+00 -0.45593999997E+02  0.45594000000E+02  0.51100000000E-03 0.  1.
    9900012    2    1    2    0    0 -0.30090049715E+02  0.19621397223E+02 -0.24355960583E+02  0.47787272624E+02  0.20000007204E+02 0.  0.
         12    1    1    2    0    0  0.30090049715E+02 -0.19621397223E+02  0.24355960583E+02  0.43400727376E+02  0.00000000000E+00 0. -1.
         11    1    3    3    0    0 -0.56508569337E+01  0.28889032279E+01 -0.66751946276E+01  0.92106552168E+01  0.51100000000E-03 0.  1.
        -11    1    3    3    0    0 -0.91549263273E+01  0.16609922909E+02 -0.89141202709E+01  0.20956234289E+02  0.51100000000E-03 0. -1.
         12    1    3    3    0    0 -0.15284266454E+02  0.12257108567E+00 -0.87666456846E+01  0.17620383119E+02  0.00000000000E+00 0. -1.
</event>
<event>
 7    1  0.5022032E-011  0.4778727E+02  0.7816164E-02  0.1312668E+00
        -11   -1    0    0    0    0  0.00000000000E+00  0.00000000000E+00  0.45593999997E+02  0.45594000000E+02  0.51100000000E-03 0. -1.
         11   -1    0    0    0    0 -0.00000000000E+00 -0.00000000000E+00 -0.45593999997E+02  0.45594000000E+02  0.51100000000E-03 0.  1.
    9900012    2    1    2    0    0  0.15837100164E+01  0.24117038569E+00  0.43371151424E+02  0.47787273319E+02  0.20000010370E+02 0.  0.
        -12    1    1    2    0    0 -0.15837100164E+01 -0.24117038569E+00 -0.43371151424E+02  0.43400726681E+02  0.00000000000E+00 0.  1.
         11    1    3    3    0    0  0.32907616685E+01 -0.14245306377E+01  0.19067566704E+02  0.19401816930E+02  0.51100000000E-03 0. -1.
        -11    1    3    3    0    0  0.39716389649E+01 -0.40480057221E+01  0.53729273209E+01  0.78120813264E+01  0.51100000000E-03 0.  1.
         12    1    3    3    0    0 -0.56786906171E+01  0.57137067454E+01  0.18930657400E+02  0.20573375063E+02  0.00000000000E+00 0. -1.
</event>
<event>
 7    1  0.5022032E-011  0.4778727E+02  0.7816164E-02  0.1312668E+00
        -11   -1    0    0    0    0  0.00000000000E+00  0.00000000000E+00  0.45593999997E+02  0.45594000000E+02  0.51100000000E-03 0. -1.
         11   -1    0    0    0    0 -0.00000000000E+00 -0.00000000000E+00 -0.45593999997E+02  0.45594000000E+02  0.51100000000E-03 0.  1.
    9900012    2    1    2    0    0 -0.36218655813E+02 -0.19060293616E+02 -0.14440824971E+02  0.47787271348E+02  0.20000001385E+02 0.  0.
         12    1    1    2    0    0  0.36218655813E+02  0.19060293616E+02  0.14440824971E+02  0.43400728652E+02  0.00000000000E+00 0. -1.
         11    1    3    3    0    0 -0.13441292619E+02 -0.36904444066E+01 -0.13731227047E+02  0.19566152500E+02  0.51100000000E-03 0. -1.
        -11    1    3    3    0    0 -0.34701296732E+01 -0.54572146315E+01 -0.81055724083E+00  0.65176678947E+01  0.51100000000E-03 0.  1.
        -12    1    3    3    0    0 -0.19307233521E+02 -0.99126345782E+01  0.10095931594E+00  0.21703450954E+02  0.00000000000E+00 0.  1.
</event>
<event>
 7    1  0.5022032E-011  0.4778726E+02  0.7816164E-02  0.1312668E+00
        -11   -1    0    0    0    0  0.00000000000E+00  0.00000000000E+00  0.45593999997E+02  0.45594000000E+02  0.51100000000E-03 0. -1.
         11   -1    0    0    0    0 -0.00000000000E+00 -0.00000000000E+00 -0.45593999997E+02  0.45594000000E+02  0.51100000000E-03 0.  1.
    9900012    2    1    2    0    0  0.36302825224E+02 -0.44361630259E+01  0.23367698762E+02  0.47787262598E+02  0.19999961489E+02 0.  0.
        -12    1    1    2    0    0 -0.36302825224E+02  0.44361630259E+01 -0.23367698762E+02  0.43400737402E+02  0.00000000000E+00 0.  1.
         11    1    3    3    0    0  0.27476670352E+02 -0.47946781826E+01  0.14482082929E+02  0.31427489221E+02  0.51100000000E-03 0. -1.
        -11    1    3    3    0    0  0.86205928003E+01 -0.31599875460E+01  0.89676926316E+01  0.12834315444E+02  0.51100000000E-03 0.  1.
        -12    1    3    3    0    0  0.20556207134E+00  0.35185027027E+01 -0.82076799006E-01  0.35254579327E+01  0.00000000000E+00 0.  1.
</event>
<event>
 7    1  0.5022032E-011  0.4778727E+02  0.7816164E-02  0.1312668E+00
        -11   -1    0    0    0    0  0.00000000000E+00  0.00000000000E+00  0.45593999997E+02  0.45594000000E+02  0.51100000000E-03 0. -1.
         11   -1    0    0    0    0 -0.00000000000E+00 -0.00000000000E+00 -0.45593999997E+02  0.45594000000E+02  0.51100000000E-03 0.  1.
    9900012    2    1    2    0    0  0.14754465958E+02  0.74698466110E+01  0.40126432222E+02  0.47787269166E+02  0.19999991434E+02 0.  0.
        -12    1    1    2    0    0 -0.14754465958E+02 -0.74698466110E+01 -0.40126432222E+02  0.43400730834E+02  0.00000000000E+00 0.  1.
         11    1    3    3    0    0  0.81865436060E+01 -0.15641200654E+01  0.22652533265E+02  0.24137175298E+02  0.51100000000E-03 0.  1.
        -11    1    3    3    0    0  0.29982562653E+01  0.58266401283E+01  0.17671308878E+02  0.18847133298E+02  0.51100000000E-03 0. -1.
        -12    1    3    3    0    0  0.35696660868E+01  0.32073265481E+01 -0.19740992144E+00  0.48029605697E+01  0.00000000000E+00 0.  1.
</event>
<event>
 7    1  0.5022032E-011  0.4778727E+02  0.7816164E-02  0.1312668E+00
        -11   -1    0    0    0    0  0.00000000000E+00  0.00000000000E+00  0.45593999997E+02  0.45594000000E+02  0.51100000000E-03 0. -1.
         11   -1    0    0    0    0 -0.00000000000E+00 -0.00000000000E+00 -0.45593999997E+02  0.45594000000E+02  0.51100000000E-03 0.  1.
    9900012    2    1    2    0    0  0.30303428978E+02 -0.36075413301E+01 -0.30859539273E+02  0.47787270439E+02  0.19999997238E+02 0.  0.
         12    1    1    2    0    0 -0.30303428978E+02  0.36075413301E+01  0.30859539273E+02  0.43400729561E+02  0.00000000000E+00 0. -1.
         11    1    3    3    0    0  0.61827702782E+01 -0.61209015087E+00 -0.24919262039E+01  0.66941018167E+01  0.51100000000E-03 0. -1.
        -11    1    3    3    0    0  0.53969134051E+01 -0.34389057476E+01 -0.19204758364E+02  0.20242912120E+02  0.51100000000E-03 0.  1.
        -12    1    3    3    0    0  0.18723745295E+02  0.44345456840E+00 -0.91628547058E+01  0.20850256502E+02  0.00000000000E+00 0.  1.
</event>
<event>
 7    1  0.6277012E-011  0.4778728E+02  0.7816164E-02  0.1312668E+00
        -11   -1    0    0    0    0  0.00000000000E+00  0.00000000000E+00  0.45593999997E+02  0.45594000000E+02  0.51100000000E-03 0. -1.
         11   -1    0    0    0    0 -0.00000000000E+00 -0.00000000000E+00 -0.45593999997E+02  0.45594000000E+02  0.51100000000E-03 0.  1.
    9900012    2    1    2    0    0 -0.36818342999E+01 -0.14727174320E+02 -0.40659283348E+02  0.47787275471E+02  0.20000020181E+02 0.  0.
         12    1    1    2    0    0  0.36818342999E+01  0.14727174320E+02  0.40659283348E+02  0.43400724529E+02  0.00000000000E+00 0. -1.
         11    1    3    3    0    0 -0.63800082133E-01  0.18843943244E+01 -0.98490076229E+01  0.10027859385E+02  0.51100000000E-03 0. -1.
        -11    1    3    3    0    0 -0.28439407385E+01 -0.51142395671E+00  0.10819470908E+00  0.28915842965E+01  0.51100000000E-03 0.  1.
        -12    1    3    3    0    0 -0.77409347930E+00 -0.16100144688E+02 -0.30918470435E+02  0.34867831790E+02  0.00000000000E+00 0.  1.
</event>
<event>
 7    1  0.5022032E-011  0.4778727E+02  0.7816164E-02  0.1312668E+00
        -11   -1    0    0    0    0  0.00000000000E+00  0.00000000000E+00  0.45593999997E+02  0.45594000000E+02  0.51100000000E-03 0. -1.
         11   -1    0    0    0    0 -0.00000000000E+00 -0.00000000000E+00 -0.45593999997E+02  0.45594000000E+02  0.51100000000E-03 0.  1.
    9900012    2    1    2    0    0 -0.12367840677E+02  0.64523826730E+01  0.41097768374E+02  0.47787270853E+02  0.19999999129E+02 0.  0.
        -12    1    1    2    0    0  0.12367840677E+02 -0.64523826730E+01 -0.41097768374E+02  0.43400729147E+02  0.00000000000E+00 0.  1.
         11    1    3    3    0    0 -0.13996261435E+02  0.10922467042E+02  0.25637739766E+02  0.31184761038E+02  0.51100000000E-03 0. -1.
        -11    1    3    3    0    0 -0.82337091559E+00 -0.12232057387E+01  0.16843720703E+01  0.22385891709E+01  0.51100000000E-03 0.  1.
         12    1    3    3    0    0  0.24517916738E+01 -0.32468786299E+01  0.13775656537E+02  0.14363920644E+02  0.00000000000E+00 0. -1.
</event>
<event>
 7    1  0.5022032E-011  0.4778727E+02  0.7816164E-02  0.1312668E+00
        -11   -1    0    0    0    0  0.00000000000E+00  0.00000000000E+00  0.45593999997E+02  0.45594000000E+02  0.51100000000E-03 0. -1.
         11   -1    0    0    0    0 -0.00000000000E+00 -0.00000000000E+00 -0.45593999997E+02  0.45594000000E+02  0.51100000000E-03 0.  1.
    9900012    2    1    2    0    0  0.48026718563E+01 -0.34205867420E+02 -0.26277681088E+02  0.47787267906E+02  0.19999985691E+02 0.  0.
         12    1    1    2    0    0 -0.48026718563E+01  0.34205867420E+02  0.26277681088E+02  0.43400732094E+02  0.00000000000E+00 0. -1.
         11    1    3    3    0    0  0.47128810607E+01 -0.24782453751E+01  0.98067720370E+00  0.54143029164E+01  0.51100000000E-03 0. -1.
        -11    1    3    3    0    0  0.32753565939E+01 -0.18245936561E+02 -0.14419478994E+02  0.23485389852E+02  0.51100000000E-03 0.  1.
        -12    1    3    3    0    0 -0.31855657983E+01 -0.13481685484E+02 -0.12838879298E+02  0.18887575137E+02  0.00000000000E+00 0.  1.
</event>
<event>
 7    1  0.5022032E-011  0.4778729E+02  0.7816164E-02  0.1312668E+00
        -11   -1    0    0    0    0  0.00000000000E+00  0.00000000000E+00  0.45593999997E+02  0.45594000000E+02  0.51100000000E-03 0. -1.
         11   -1    0    0    0    0 -0.00000000000E+00 -0.00000000000E+00 -0.45593999997E+02  0.45594000000E+02  0.51100000000E-03 0.  1.
    9900012    2    1    2    0    0  0.32401045449E+02 -0.17852276093E+02  0.22695588167E+02  0.47787294590E+02  0.20000107352E+02 0.  0.
        -12    1    1    2    0    0 -0.32401045449E+02  0.17852276093E+02 -0.22695588167E+02  0.43400705410E+02  0.00000000000E+00 0.  1.
         11    1    3    3    0    0  0.17063159031E+02 -0.56035544812E+01  0.10769144459E+02  0.20941005028E+02  0.51100000000E-03 0. -1.
        -11    1    3    3    0    0  0.17399604703E+02 -0.98812882661E+01  0.73924524088E+01  0.21331536618E+02  0.51100000000E-03 0.  1.
        -12    1    3    3    0    0 -0.20617182848E+01 -0.23674333455E+01  0.45339912990E+01  0.55147529438E+01  0.00000000000E+00 0.  1.
</event>
<event>
 7    1  0.5022032E-011  0.4778727E+02  0.7816164E-02  0.1312668E+00
        -11   -1    0    0    0    0  0.00000000000E+00  0.00000000000E+00  0.45593999997E+02  0.45594000000E+02  0.51100000000E-03 0. -1.
         11   -1    0    0    0    0 -0.00000000000E+00 -0.00000000000E+00 -0.45593999997E+02  0.45594000000E+02  0.51100000000E-03 0.  1.
    9900012    2    1    2    0    0 -0.28725433366E+01  0.37776340693E+02  0.21173573280E+02  0.47787266978E+02  0.19999981461E+02 0.  0.
        -12    1    1    2    0    0  0.28725433366E+01 -0.37776340693E+02 -0.21173573280E+02  0.43400733022E+02  0.00000000000E+00 0.  1.
         11    1    3    3    0    0 -0.47073543211E+01  0.16700434203E+02  0.10146939114E+02  0.20100349771E+02  0.51100000000E-03 0.  1.
        -11    1    3    3    0    0  0.40750613892E+01  0.16538237633E+02  0.13795110439E+02  0.21918588038E+02  0.51100000000E-03 0. -1.
        -12    1    3    3    0    0 -0.22402504047E+01  0.45376688573E+01 -0.27684762722E+01  0.57683291692E+01  0.00000000000E+00 0.  1.
</event>
<event>
 7    1  0.5022032E-011  0.4778727E+02  0.7816164E-02  0.1312668E+00
        -11   -1    0    0    0    0  0.00000000000E+00  0.00000000000E+00  0.45593999997E+02  0.45594000000E+02  0.51100000000E-03 0. -1.
         11   -1    0    0    0    0 -0.00000000000E+00 -0.00000000000E+00 -0.45593999997E+02  0.45594000000E+02  0.51100000000E-03 0.  1.
    9900012    2    1    2    0    0 -0.28326718406E+02  0.83582843788E+01 -0.31801878596E+02  0.47787269872E+02  0.19999994653E+02 0.  0.
         12    1    1    2    0    0  0.28326718406E+02 -0.83582843788E+01  0.31801878596E+02  0.43400730128E+02  0.00000000000E+00 0. -1.
         11    1    3    3    0    0 -0.17869646645E+02  0.10142683130E+02 -0.15871885816E+02  0.25963725695E+02  0.51100000000E-03 0. -1.
        -11    1    3    3    0    0 -0.65907476940E+01  0.38414488698E+01 -0.56903136260E+01  0.95170559528E+01  0.51100000000E-03 0.  1.
        -12    1    3    3    0    0 -0.38663240670E+01 -0.56258476212E+01 -0.10239679154E+02  0.12306488224E+02  0.00000000000E+00 0.  1.
</event>
<event>
 7    1  0.5022032E-011  0.4778727E+02  0.7816164E-02  0.1312668E+00
        -11   -1    0    0    0    0  0.00000000000E+00  0.00000000000E+00  0.45593999997E+02  0.45594000000E+02  0.51100000000E-03 0. -1.
         11   -1    0    0    0    0 -0.00000000000E+00 -0.00000000000E+00 -0.45593999997E+02  0.45594000000E+02  0.51100000000E-03 0.  1.
    9900012    2    1    2    0    0  0.23708875453E+01 -0.16264343737E+01  0.43305389573E+02  0.47787272327E+02  0.20000005846E+02 0.  0.
        -12    1    1    2    0    0 -0.23708875453E+01  0.16264343737E+01 -0.43305389573E+02  0.43400727673E+02  0.00000000000E+00 0.  1.
         11    1    3    3    0    0 -0.32621608904E+01  0.11779504952E+01  0.17251133497E+02  0.17596331102E+02  0.51100000000E-03 0. -1.
        -11    1    3    3    0    0 -0.46126960295E+01 -0.10987199432E+01  0.64539969685E+01  0.80086345468E+01  0.51100000000E-03 0.  1.
        -12    1    3    3    0    0  0.10245744465E+02 -0.17056649258E+01  0.19600259107E+02  0.22182306678E+02  0.00000000000E+00 0.  1.
</event>
<event>
 7    1  0.5022032E-011  0.4778727E+02  0.7816164E-02  0.1312668E+00
        -11   -1    0    0    0    0  0.00000000000E+00  0.00000000000E+00  0.45593999997E+02  0.45594000000E+02  0.51100000000E-03 0. -1.
         11   -1    0    0    0    0 -0.00000000000E+00 -0.00000000000E+00 -0.45593999997E+02  0.45594000000E+02  0.51100000000E-03 0.  1.
    9900012    2    1    2    0    0 -0.38166724576E+02  0.17988161409E+02  0.10166137022E+02  0.47787272383E+02  0.20000006104E+02 0.  0.
        -12    1    1    2    0    0  0.38166724576E+02 -0.17988161409E+02 -0.10166137022E+02  0.43400727617E+02  0.00000000000E+00 0.  1.
         11    1    3    3    0    0 -0.13829681309E+01  0.62631083506E+01  0.20575039950E+01  0.67359075122E+01  0.51100000000E-03 0. -1.
        -11    1    3    3    0    0 -0.59567493191E+01 -0.22852185644E+01  0.11722357257E+01  0.64868500211E+01  0.51100000000E-03 0.  1.
        -12    1    3    3    0    0 -0.30827007126E+02  0.14010271623E+02  0.69363973014E+01  0.34564514850E+02  0.00000000000E+00 0.  1.
</event>
<event>
 7    1  0.5022032E-011  0.4778727E+02  0.7816164E-02  0.1312668E+00
        -11   -1    0    0    0    0  0.00000000000E+00  0.00000000000E+00  0.45593999997E+02  0.45594000000E+02  0.51100000000E-03 0. -1.
         11   -1    0    0    0    0 -0.00000000000E+00 -0.00000000000E+00 -0.45593999997E+02  0.45594000000E+02  0.51100000000E-03 0.  1.
    9900012    2    1    2    0    0 -0.21300858154E+02  0.98616739703E+01  0.36505400673E+02  0.47787269016E+02  0.19999990753E+02 0.  0.
        -12    1    1    2    0    0  0.21300858154E+02 -0.98616739703E+01 -0.36505400673E+02  0.43400730984E+02  0.00000000000E+00 0.  1.
         11    1    3    3    0    0 -0.86658047079E+01  0.26938551498E+01  0.18361416829E+02  0.20481568666E+02  0.51100000000E-03 0. -1.
        -11    1    3    3    0    0  0.28403498112E+01  0.20823003828E+01  0.61127897109E+01  0.70547686174E+01  0.51100000000E-03 0.  1.
         12    1    3    3    0    0 -0.15475403257E+02  0.50855184378E+01  0.12031194134E+02  0.20250931733E+02  0.00000000000E+00 0. -1.
</event>
<event>
 7    1  0.5022032E-011  0.4778727E+02  0.7816164E-02  0.1312668E+00
        -11   -1    0    0    0    0  0.00000000000E+00  0.00000000000E+00  0.45593999997E+02  0.45594000000E+02  0.51100000000E-03 0.  1.
         11   -1    0    0    0    0 -0.00000000000E+00 -0.00000000000E+00 -0.45593999997E+02  0.45594000000E+02  0.51100000000E-03 0. -1.
    9900012    2    1    2    0    0  0.28229464332E+02 -0.30664767300E+02  0.12099288746E+02  0.47787269612E+02  0.19999993471E+02 0.  0.
        -12    1    1    2    0    0 -0.28229464332E+02  0.30664767300E+02 -0.12099288746E+02  0.43400730388E+02  0.00000000000E+00 0.  1.
         11    1    3    3    0    0  0.45661226160E+01 -0.47053532498E+01  0.13409504260E+01  0.66923817327E+01  0.51100000000E-03 0. -1.
        -11    1    3    3    0    0  0.90212304810E+01 -0.22307392838E+02  0.33856178036E+01  0.24299481122E+02  0.51100000000E-03 0.  1.
        -12    1    3    3    0    0  0.14642111235E+02 -0.36520212117E+01  0.73727205165E+01  0.16795406758E+02  0.00000000000E+00 0.  1.
</event>
<event>
 7    1  0.5022032E-011  0.4778727E+02  0.7816164E-02  0.1312668E+00
        -11   -1    0    0    0    0  0.00000000000E+00  0.00000000000E+00  0.45593999997E+02  0.45594000000E+02  0.51100000000E-03 0.  1.
         11   -1    0    0    0    0 -0.00000000000E+00 -0.00000000000E+00 -0.45593999997E+02  0.45594000000E+02  0.51100000000E-03 0. -1.
    9900012    2    1    2    0    0 -0.37296319698E+02 -0.15929923563E+02  0.15454620617E+02  0.47787271594E+02  0.20000002507E+02 0.  0.
        -12    1    1    2    0    0  0.37296319698E+02  0.15929923563E+02 -0.15454620617E+02  0.43400728406E+02  0.00000000000E+00 0.  1.
         11    1    3    3    0    0 -0.12259051543E+02 -0.68288200670E+01  0.12501384479E+01  0.14088292112E+02  0.51100000000E-03 0. -1.
        -11    1    3    3    0    0 -0.98616184035E+01 -0.56313330819E+01  0.14134711602E+02  0.18131560941E+02  0.51100000000E-03 0.  1.
        -12    1    3    3    0    0 -0.15175649752E+02 -0.34697704144E+01  0.69770567223E-01  0.15567418541E+02  0.00000000000E+00 0.  1.
</event>
<event>
 7    1  0.5022032E-011  0.4778727E+02  0.7816164E-02  0.1312668E+00
        -11   -1    0    0    0    0  0.00000000000E+00  0.00000000000E+00  0.45593999997E+02  0.45594000000E+02  0.51100000000E-03 0.  1.
         11   -1    0    0    0    0 -0.00000000000E+00 -0.00000000000E+00 -0.45593999997E+02  0.45594000000E+02  0.51100000000E-03 0. -1.
    9900012    2    1    2    0    0 -0.19107662559E+02 -0.35996975818E+02  0.14924419524E+02  0.47787270344E+02  0.19999996806E+02 0.  0.
        -12    1    1    2    0    0  0.19107662559E+02  0.35996975818E+02 -0.14924419524E+02  0.43400729656E+02  0.00000000000E+00 0.  1.
         11    1    3    3    0    0 -0.14917271442E+02 -0.15558486603E+02  0.38174715771E+01  0.21889828281E+02  0.51100000000E-03 0. -1.
        -11    1    3    3    0    0 -0.72548925056E+01 -0.92018230256E+01  0.62243283928E+01  0.13268356208E+02  0.51100000000E-03 0.  1.
        -12    1    3    3    0    0  0.30645013884E+01 -0.11236666190E+02  0.48826195545E+01  0.12629085855E+02  0.00000000000E+00 0.  1.
</event>
<event>
 7    1  0.5022032E-011  0.4778727E+02  0.7816164E-02  0.1312668E+00
        -11   -1    0    0    0    0  0.00000000000E+00  0.00000000000E+00  0.45593999997E+02  0.45594000000E+02  0.51100000000E-03 0. -1.
         11   -1    0    0    0    0 -0.00000000000E+00 -0.00000000000E+00 -0.45593999997E+02  0.45594000000E+02  0.51100000000E-03 0.  1.
    9900012    2    1    2    0    0 -0.17690163632E+02  0.24156690354E+02  0.31418717731E+02  0.47787269568E+02  0.19999993267E+02 0.  0.
        -12    1    1    2    0    0  0.17690163632E+02 -0.24156690354E+02 -0.31418717731E+02  0.43400730432E+02  0.00000000000E+00 0.  1.
         11    1    3    3    0    0 -0.46119427445E+01  0.26189580862E+01  0.14192969599E+02  0.15151545916E+02  0.51100000000E-03 0. -1.
        -11    1    3    3    0    0 -0.13139141206E+02  0.13520275431E+02  0.81883333752E+01  0.20554407875E+02  0.51100000000E-03 0.  1.
         12    1    3    3    0    0  0.60920318567E-01  0.80174568367E+01  0.90374147571E+01  0.12081315777E+02  0.00000000000E+00 0. -1.
</event>
<event>
 7    1  0.5022032E-011  0.4778727E+02  0.7816164E-02  0.1312668E+00
        -11   -1    0    0    0    0  0.00000000000E+00  0.00000000000E+00  0.45593999997E+02  0.45594000000E+02  0.51100000000E-03 0. -1.
         11   -1    0    0    0    0 -0.00000000000E+00 -0.00000000000E+00 -0.45593999997E+02  0.45594000000E+02  0.51100000000E-03 0.  1.
    9900012    2    1    2    0    0  0.22363064596E+02 -0.10779631531E+02 -0.35599386485E+02  0.47787269221E+02  0.19999991684E+02 0.  0.
         12    1    1    2    0    0 -0.22363064596E+02  0.10779631531E+02  0.35599386485E+02  0.43400730779E+02  0.00000000000E+00 0. -1.
         11    1    3    3    0    0  0.50772153868E+01 -0.66603055890E+01 -0.10876863993E+01  0.84451671734E+01  0.51100000000E-03 0. -1.
        -11    1    3    3    0    0  0.39356929929E+01  0.14404535763E+01 -0.53930547674E+01  0.68300531349E+01  0.51100000000E-03 0.  1.
         12    1    3    3    0    0  0.13350156216E+02 -0.55597795183E+01 -0.29118645318E+02  0.32512048912E+02  0.00000000000E+00 0. -1.
</event>
<event>
 7    1  0.5022032E-011  0.4778728E+02  0.7816164E-02  0.1312668E+00
        -11   -1    0    0    0    0  0.00000000000E+00  0.00000000000E+00  0.45593999997E+02  0.45594000000E+02  0.51100000000E-03 0. -1.
         11   -1    0    0    0    0 -0.00000000000E+00 -0.00000000000E+00 -0.45593999997E+02  0.45594000000E+02  0.51100000000E-03 0.  1.
    9900012    2    1    2    0    0  0.34772517762E+02  0.22379324308E+02  0.13178036670E+02  0.47787276522E+02  0.20000024973E+02 0.  0.
        -12    1    1    2    0    0 -0.34772517762E+02 -0.22379324308E+02 -0.13178036670E+02  0.43400723478E+02  0.00000000000E+00 0.  1.
         11    1    3    3    0    0  0.10577564081E+02  0.15461921088E+02  0.70247954247E+01  0.20007588976E+02  0.51100000000E-03 0.  1.
        -11    1    3    3    0    0  0.89042929555E+01  0.76570907287E+01  0.33943711630E+01  0.12224533828E+02  0.51100000000E-03 0. -1.
        -12    1    3    3    0    0  0.15290660726E+02 -0.73968750906E+00  0.27588700827E+01  0.15555153717E+02  0.00000000000E+00 0.  1.
</event>
<event>
 7    1  0.5022032E-011  0.4778727E+02  0.7816164E-02  0.1312668E+00
        -11   -1    0    0    0    0  0.00000000000E+00  0.00000000000E+00  0.45593999997E+02  0.45594000000E+02  0.51100000000E-03 0. -1.
         11   -1    0    0    0    0 -0.00000000000E+00 -0.00000000000E+00 -0.45593999997E+02  0.45594000000E+02  0.51100000000E-03 0.  1.
    9900012    2    1    2    0    0 -0.35397748033E+01  0.16070536507E+02  0.40160064557E+02  0.47787274954E+02  0.20000017825E+02 0.  0.
        -12    1    1    2    0    0  0.35397748033E+01 -0.16070536507E+02 -0.40160064557E+02  0.43400725046E+02  0.00000000000E+00 0.  1.
         11    1    3    3    0    0 -0.16665857971E+01  0.92477373785E+01  0.56795826417E+01  0.10979791168E+02  0.51100000000E-03 0. -1.
        -11    1    3    3    0    0  0.44151153909E+01  0.23788608627E+01  0.10825257835E+02  0.11930567060E+02  0.51100000000E-03 0.  1.
         12    1    3    3    0    0 -0.62883043971E+01  0.44439382662E+01  0.23655224080E+02  0.24876916726E+02  0.00000000000E+00 0. -1.
</event>
<event>
 7    1  0.5022032E-011  0.4778727E+02  0.7816164E-02  0.1312668E+00
        -11   -1    0    0    0    0  0.00000000000E+00  0.00000000000E+00  0.45593999997E+02  0.45594000000E+02  0.51100000000E-03 0. -1.
         11   -1    0    0    0    0 -0.00000000000E+00 -0.00000000000E+00 -0.45593999997E+02  0.45594000000E+02  0.51100000000E-03 0.  1.
    9900012    2    1    2    0    0  0.34024384683E+02  0.22891871270E+02 -0.14210092124E+02  0.47787271417E+02  0.20000001700E+02 0.  0.
         12    1    1    2    0    0 -0.34024384683E+02 -0.22891871270E+02  0.14210092124E+02  0.43400728583E+02  0.00000000000E+00 0. -1.
         11    1    3    3    0    0  0.11805338022E+02  0.31271171477E+00 -0.63011243126E+01  0.13385363734E+02  0.51100000000E-03 0. -1.
        -11    1    3    3    0    0  0.78955620454E+01  0.64307962772E+01 -0.77818270489E+01  0.12816078700E+02  0.51100000000E-03 0.  1.
         12    1    3    3    0    0  0.14323484615E+02  0.16148363278E+02 -0.12714076266E+00  0.21585828983E+02  0.00000000000E+00 0. -1.
</event>
<event>
 7    1  0.5022032E-011  0.4778728E+02  0.7816164E-02  0.1312668E+00
        -11   -1    0    0    0    0  0.00000000000E+00  0.00000000000E+00  0.45593999997E+02  0.45594000000E+02  0.51100000000E-03 0. -1.
         11   -1    0    0    0    0 -0.00000000000E+00 -0.00000000000E+00 -0.45593999997E+02  0.45594000000E+02  0.51100000000E-03 0.  1.
    9900012    2    1    2    0    0 -0.86167210371E+00 -0.23133182057E+01 -0.43330462164E+02  0.47787275683E+02  0.20000021148E+02 0.  0.
         12    1    1    2    0    0  0.86167210371E+00  0.23133182057E+01  0.43330462164E+02  0.43400724317E+02  0.00000000000E+00 0. -1.
         11    1    3    3    0    0 -0.61448391852E+01  0.36802724960E+01 -0.13225718499E+02  0.15040714223E+02  0.51100000000E-03 0. -1.
        -11    1    3    3    0    0 -0.26343547667E+01 -0.36880578073E+01 -0.87329677957E+01  0.98390203887E+01  0.51100000000E-03 0.  1.
        -12    1    3    3    0    0  0.79175218482E+01 -0.23055328944E+01 -0.21371775868E+02  0.22907541071E+02  0.00000000000E+00 0.  1.
</event>
<event>
 7    1  0.5022032E-011  0.4778727E+02  0.7816164E-02  0.1312668E+00
        -11   -1    0    0    0    0  0.00000000000E+00  0.00000000000E+00  0.45593999997E+02  0.45594000000E+02  0.51100000000E-03 0. -1.
         11   -1    0    0    0    0 -0.00000000000E+00 -0.00000000000E+00 -0.45593999997E+02  0.45594000000E+02  0.51100000000E-03 0.  1.
    9900012    2    1    2    0    0 -0.14685239754E+02 -0.27917954938E+02 -0.29808635503E+02  0.47787271606E+02  0.20000002562E+02 0.  0.
         12    1    1    2    0    0  0.14685239754E+02  0.27917954938E+02  0.29808635503E+02  0.43400728394E+02  0.00000000000E+00 0. -1.
         11    1    3    3    0    0  0.46409660288E+00 -0.60343361587E+01 -0.68651286310E+01  0.91519719140E+01  0.51100000000E-03 0.  1.
        -11    1    3    3    0    0 -0.99995941456E+00 -0.15227411561E+02 -0.92121161175E+01  0.17825180653E+02  0.51100000000E-03 0. -1.
        -12    1    3    3    0    0 -0.14149376942E+02 -0.66562072178E+01 -0.13731390755E+02  0.20810119040E+02  0.00000000000E+00 0.  1.
</event>
<event>
 7    1  0.5022032E-011  0.4778728E+02  0.7816164E-02  0.1312668E+00
        -11   -1    0    0    0    0  0.00000000000E+00  0.00000000000E+00  0.45593999997E+02  0.45594000000E+02  0.51100000000E-03 0.  1.
         11   -1    0    0    0    0 -0.00000000000E+00 -0.00000000000E+00 -0.45593999997E+02  0.45594000000E+02  0.51100000000E-03 0. -1.
    9900012    2    1    2    0    0  0.42616319705E+02 -0.78986103291E+01  0.22547463114E+01  0.47787278447E+02  0.20000033753E+02 0.  0.
        -12    1    1    2    0    0 -0.42616319705E+02  0.78986103291E+01 -0.22547463114E+01  0.43400721553E+02  0.00000000000E+00 0.  1.
         11    1    3    3    0    0  0.82759358089E+01  0.37468585204E+01  0.17533856671E+01  0.92522658762E+01  0.51100000000E-03 0. -1.
        -11    1    3    3    0    0  0.39866704144E+01 -0.34351350813E+01 -0.42102983305E+01  0.67394589035E+01  0.51100000000E-03 0.  1.
         12    1    3    3    0    0  0.30353713482E+02 -0.82103337682E+01  0.47116589748E+01  0.31795553668E+02  0.00000000000E+00 0. -1.
</event>
<event>
 7    1  0.5022032E-011  0.4778725E+02  0.7816164E-02  0.1312668E+00
        -11   -1    0    0    0    0  0.00000000000E+00  0.00000000000E+00  0.45593999997E+02  0.45594000000E+02  0.51100000000E-03 0. -1.
         11   -1    0    0    0    0 -0.00000000000E+00 -0.00000000000E+00 -0.45593999997E+02  0.45594000000E+02  0.51100000000E-03 0.  1.
    9900012    2    1    2    0    0  0.18796747091E+02  0.27571133352E+01  0.39021862849E+02  0.47787249368E+02  0.19999901170E+02 0.  0.
        -12    1    1    2    0    0 -0.18796747091E+02 -0.27571133352E+01 -0.39021862849E+02  0.43400750632E+02  0.00000000000E+00 0.  1.
         11    1    3    3    0    0  0.82014585350E+01  0.55598711274E+01  0.93162852279E+01  0.13600340428E+02  0.51100000000E-03 0. -1.
        -11    1    3    3    0    0  0.60129836676E+00  0.26004906702E+01  0.32819875335E+00  0.26892054838E+01  0.51100000000E-03 0.  1.
         12    1    3    3    0    0  0.99939901895E+01 -0.54032484623E+01  0.29377378868E+02  0.31497703456E+02  0.00000000000E+00 0. -1.
</event>
<event>
 7    1  0.5022032E-011  0.4778727E+02  0.7816164E-02  0.1312668E+00
        -11   -1    0    0    0    0  0.00000000000E+00  0.00000000000E+00  0.45593999997E+02  0.45594000000E+02  0.51100000000E-03 0. -1.
         11   -1    0    0    0    0 -0.00000000000E+00 -0.00000000000E+00 -0.45593999997E+02  0.45594000000E+02  0.51100000000E-03 0.  1.
    9900012    2    1    2    0    0 -0.22887249947E+02 -0.16687397833E+01 -0.36837653836E+02  0.47787266795E+02  0.19999980627E+02 0.  0.
         12    1    1    2    0    0  0.22887249947E+02  0.16687397833E+01  0.36837653836E+02  0.43400733205E+02  0.00000000000E+00 0. -1.
         11    1    3    3    0    0 -0.46873124447E+01 -0.89856268763E+01 -0.10564778904E+02  0.14639909217E+02  0.51100000000E-03 0. -1.
        -11    1    3    3    0    0 -0.27554460970E+01  0.83480724054E+00 -0.72533589651E+01  0.78038838318E+01  0.51100000000E-03 0.  1.
         12    1    3    3    0    0 -0.15444491405E+02  0.64820798525E+01 -0.19019515966E+02  0.25343473747E+02  0.00000000000E+00 0. -1.
</event>
<event>
 7    1  0.5022032E-011  0.4778728E+02  0.7816164E-02  0.1312668E+00
        -11   -1    0    0    0    0  0.00000000000E+00  0.00000000000E+00  0.45593999997E+02  0.45594000000E+02  0.51100000000E-03 0. -1.
         11   -1    0    0    0    0 -0.00000000000E+00 -0.00000000000E+00 -0.45593999997E+02  0.45594000000E+02  0.51100000000E-03 0.  1.
    9900012    2    1    2    0    0 -0.31725842962E+02 -0.11890380137E+02 -0.27124022607E+02  0.47787275883E+02  0.20000022063E+02 0.  0.
         12    1    1    2    0    0  0.31725842962E+02  0.11890380137E+02  0.27124022607E+02  0.43400724117E+02  0.00000000000E+00 0. -1.
         11    1    3    3    0    0 -0.43916956168E+01 -0.11115092762E+01 -0.60766503536E+00  0.45707439567E+01  0.51100000000E-03 0. -1.
        -11    1    3    3    0    0 -0.18789181497E+02 -0.11207090717E+02 -0.88736746328E+01  0.23608776449E+02  0.51100000000E-03 0.  1.
         12    1    3    3    0    0 -0.85449658484E+01  0.42821985616E+00 -0.17642682939E+02  0.19607755478E+02  0.00000000000E+00 0. -1.
</event>
<event>
 7    1  0.5022032E-011  0.4778727E+02  0.7816164E-02  0.1312668E+00
        -11   -1    0    0    0    0  0.00000000000E+00  0.00000000000E+00  0.45593999997E+02  0.45594000000E+02  0.51100000000E-03 0. -1.
         11   -1    0    0    0    0 -0.00000000000E+00 -0.00000000000E+00 -0.45593999997E+02  0.45594000000E+02  0.51100000000E-03 0.  1.
    9900012    2    1    2    0    0 -0.35286624211E+02  0.19812879350E+02 -0.15682068933E+02  0.47787270486E+02  0.19999997453E+02 0.  0.
         12    1    1    2    0    0  0.35286624211E+02 -0.19812879350E+02  0.15682068933E+02  0.43400729514E+02  0.00000000000E+00 0. -1.
         11    1    3    3    0    0 -0.44539812062E+00  0.39046621769E+00  0.79717772168E+00  0.99314446788E+00  0.51100000000E-03 0. -1.
        -11    1    3    3    0    0 -0.33069330679E+02  0.14006946634E+02 -0.83576895530E+01  0.36873108908E+02  0.51100000000E-03 0.  1.
        -12    1    3    3    0    0 -0.17718954111E+01  0.54154664984E+01 -0.81215571019E+01  0.99210171103E+01  0.00000000000E+00 0.  1.
</event>
<event>
 7    1  0.5022032E-011  0.4778726E+02  0.7816164E-02  0.1312668E+00
        -11   -1    0    0    0    0  0.00000000000E+00  0.00000000000E+00  0.45593999997E+02  0.45594000000E+02  0.51100000000E-03 0. -1.
         11   -1    0    0    0    0 -0.00000000000E+00 -0.00000000000E+00 -0.45593999997E+02  0.45594000000E+02  0.51100000000E-03 0.  1.
    9900012    2    1    2    0    0 -0.17847460696E+02  0.35828884132E+02  0.16774478001E+02  0.47787263789E+02  0.19999966919E+02 0.  0.
        -12    1    1    2    0    0  0.17847460696E+02 -0.35828884132E+02 -0.16774478001E+02  0.43400736211E+02  0.00000000000E+00 0.  1.
         11    1    3    3    0    0 -0.42342183012E+01  0.11724696146E+02 -0.24431440425E+01  0.12702994034E+02  0.51100000000E-03 0. -1.
        -11    1    3    3    0    0 -0.39594840827E+01  0.68554531900E+00  0.28340025747E+01  0.49172204994E+01  0.51100000000E-03 0.  1.
        -12    1    3    3    0    0 -0.96537583125E+01  0.23418642667E+02  0.16383619468E+02  0.30167049256E+02  0.00000000000E+00 0.  1.
</event>
<event>
 7    1  0.5022032E-011  0.4778727E+02  0.7816164E-02  0.1312668E+00
        -11   -1    0    0    0    0  0.00000000000E+00  0.00000000000E+00  0.45593999997E+02  0.45594000000E+02  0.51100000000E-03 0. -1.
         11   -1    0    0    0    0 -0.00000000000E+00 -0.00000000000E+00 -0.45593999997E+02  0.45594000000E+02  0.51100000000E-03 0.  1.
    9900012    2    1    2    0    0 -0.10889672401E+02 -0.25066866705E+02  0.33714840869E+02  0.47787271133E+02  0.20000000403E+02 0.  0.
        -12    1    1    2    0    0  0.10889672401E+02  0.25066866705E+02 -0.33714840869E+02  0.43400728867E+02  0.00000000000E+00 0.  1.
         11    1    3    3    0    0 -0.53632204013E+01 -0.70118156790E+01  0.95698676943E+01  0.13019679725E+02  0.51100000000E-03 0. -1.
        -11    1    3    3    0    0 -0.71308629242E+00  0.62486758495E+00  0.11859866868E+02  0.11897705407E+02  0.51100000000E-03 0.  1.
        -12    1    3    3    0    0 -0.48133657069E+01 -0.18679918611E+02  0.12285106306E+02  0.22869886001E+02  0.00000000000E+00 0.  1.
</event>
<event>
 7    1  0.5022032E-011  0.4778727E+02  0.7816164E-02  0.1312668E+00
        -11   -1    0    0    0    0  0.00000000000E+00  0.00000000000E+00  0.45593999997E+02  0.45594000000E+02  0.51100000000E-03 0. -1.
         11   -1    0    0    0    0 -0.00000000000E+00 -0.00000000000E+00 -0.45593999997E+02  0.45594000000E+02  0.51100000000E-03 0.  1.
    9900012    2    1    2    0    0  0.17733285291E+02 -0.92946344149E+01  0.38506669332E+02  0.47787271674E+02  0.20000002873E+02 0.  0.
        -12    1    1    2    0    0 -0.17733285291E+02  0.92946344149E+01 -0.38506669332E+02  0.43400728326E+02  0.00000000000E+00 0.  1.
         11    1    3    3    0    0  0.10873526391E+02 -0.38338612989E+01  0.27276510732E+02  0.29613174544E+02  0.51100000000E-03 0. -1.
        -11    1    3    3    0    0  0.66236799490E+01  0.19254887486E+01  0.52993039108E+01  0.86984633808E+01  0.51100000000E-03 0.  1.
        -12    1    3    3    0    0  0.23607895155E+00 -0.73862618645E+01  0.59308546897E+01  0.94756337494E+01  0.00000000000E+00 0.  1.
</event>
<event>
 7    1  0.5022032E-011  0.4778726E+02  0.7816164E-02  0.1312668E+00
        -11   -1    0    0    0    0  0.00000000000E+00  0.00000000000E+00  0.45593999997E+02  0.45594000000E+02  0.51100000000E-03 0.  1.
         11   -1    0    0    0    0 -0.00000000000E+00 -0.00000000000E+00 -0.45593999997E+02  0.45594000000E+02  0.51100000000E-03 0. -1.
    9900012    2    1    2    0    0 -0.20268830978E+02  0.27052182377E+02 -0.27220906630E+02  0.47787264542E+02  0.19999970351E+02 0.  0.
         12    1    1    2    0    0  0.20268830978E+02 -0.27052182377E+02  0.27220906630E+02  0.43400735458E+02  0.00000000000E+00 0. -1.
         11    1    3    3    0    0 -0.74526864267E+01  0.10299955353E+02 -0.52603186693E+01  0.13758726976E+02  0.51100000000E-03 0. -1.
        -11    1    3    3    0    0 -0.88114212396E+01  0.18871370760E+02 -0.20609500976E+02  0.29300534285E+02  0.51100000000E-03 0.  1.
         12    1    3    3    0    0 -0.40047233115E+01 -0.21191437366E+01 -0.13510869848E+01  0.47280032803E+01  0.00000000000E+00 0. -1.
</event>
<event>
 7    1  0.5022032E-011  0.4778727E+02  0.7816164E-02  0.1312668E+00
        -11   -1    0    0    0    0  0.00000000000E+00  0.00000000000E+00  0.45593999997E+02  0.45594000000E+02  0.51100000000E-03 0. -1.
         11   -1    0    0    0    0 -0.00000000000E+00 -0.00000000000E+00 -0.45593999997E+02  0.45594000000E+02  0.51100000000E-03 0.  1.
    9900012    2    1    2    0    0 -0.31773577887E+02  0.18471732760E+01 -0.29506792248E+02  0.47787273167E+02  0.20000009680E+02 0.  0.
         12    1    1    2    0    0  0.31773577887E+02 -0.18471732760E+01  0.29506792248E+02  0.43400726833E+02  0.00000000000E+00 0. -1.
         11    1    3    3    0    0 -0.29763668232E+01 -0.11017752875E+01 -0.10212191510E+01  0.33340001599E+01  0.51100000000E-03 0. -1.
        -11    1    3    3    0    0 -0.83511096249E+01  0.91132028994E+01 -0.13852633116E+02  0.18565746512E+02  0.51100000000E-03 0.  1.
        -12    1    3    3    0    0 -0.20446101438E+02 -0.61642543359E+01 -0.14632939981E+02  0.25887526495E+02  0.00000000000E+00 0.  1.
</event>
<event>
 7    1  0.5022032E-011  0.4778728E+02  0.7816164E-02  0.1312668E+00
        -11   -1    0    0    0    0  0.00000000000E+00  0.00000000000E+00  0.45593999997E+02  0.45594000000E+02  0.51100000000E-03 0. -1.
         11   -1    0    0    0    0 -0.00000000000E+00 -0.00000000000E+00 -0.45593999997E+02  0.45594000000E+02  0.51100000000E-03 0.  1.
    9900012    2    1    2    0    0 -0.12716785386E+02 -0.92127870352E+00  0.41485630155E+02  0.47787275416E+02  0.20000019932E+02 0.  0.
        -12    1    1    2    0    0  0.12716785386E+02  0.92127870352E+00 -0.41485630155E+02  0.43400724584E+02  0.00000000000E+00 0.  1.
         11    1    3    3    0    0 -0.84932115358E+01 -0.23515876929E+01  0.11864098918E+02  0.14779088276E+02  0.51100000000E-03 0. -1.
        -11    1    3    3    0    0 -0.27252204609E+01 -0.46426619856E+01  0.41987326462E+01  0.68271877789E+01  0.51100000000E-03 0.  1.
         12    1    3    3    0    0 -0.14983533896E+01  0.60729709750E+01  0.25422798591E+02  0.26180999361E+02  0.00000000000E+00 0. -1.
</event>
<event>
 7    1  0.5022032E-011  0.4778727E+02  0.7816164E-02  0.1312668E+00
        -11   -1    0    0    0    0  0.00000000000E+00  0.00000000000E+00  0.45593999997E+02  0.45594000000E+02  0.51100000000E-03 0. -1.
         11   -1    0    0    0    0 -0.00000000000E+00 -0.00000000000E+00 -0.45593999997E+02  0.45594000000E+02  0.51100000000E-03 0.  1.
    9900012    2    1    2    0    0  0.20561855571E+02 -0.33236060205E+02 -0.18873200839E+02  0.47787270600E+02  0.19999997976E+02 0.  0.
         12    1    1    2    0    0 -0.20561855571E+02  0.33236060205E+02  0.18873200839E+02  0.43400729400E+02  0.00000000000E+00 0. -1.
         11    1    3    3    0    0  0.94517928230E+00  0.92608596585E+00  0.64818146953E+00  0.14734783916E+01  0.51100000000E-03 0. -1.
        -11    1    3    3    0    0  0.14672801843E+02 -0.11313338836E+02 -0.71048492806E+01  0.19843427958E+02  0.51100000000E-03 0.  1.
         12    1    3    3    0    0  0.49438744461E+01 -0.22848807335E+02 -0.12416533028E+02  0.26470364251E+02  0.00000000000E+00 0. -1.
</event>
<event>
 7    1  0.5022032E-011  0.4778728E+02  0.7816164E-02  0.1312668E+00
        -11   -1    0    0    0    0  0.00000000000E+00  0.00000000000E+00  0.45593999997E+02  0.45594000000E+02  0.51100000000E-03 0. -1.
         11   -1    0    0    0    0 -0.00000000000E+00 -0.00000000000E+00 -0.45593999997E+02  0.45594000000E+02  0.51100000000E-03 0.  1.
    9900012    2    1    2    0    0 -0.74854114788E+01 -0.11510138343E+02  0.41171691062E+02  0.47787276336E+02  0.20000024125E+02 0.  0.
        -12    1    1    2    0    0  0.74854114788E+01  0.11510138343E+02 -0.41171691062E+02  0.43400723664E+02  0.00000000000E+00 0.  1.
         11    1    3    3    0    0 -0.41459474425E+01 -0.89501171609E-01  0.19212293557E+02  0.19654747891E+02  0.51100000000E-03 0. -1.
        -11    1    3    3    0    0  0.11863318880E+00  0.20632747269E+01  0.85784095001E+01  0.88238475873E+01  0.51100000000E-03 0.  1.
        -12    1    3    3    0    0 -0.34580972251E+01 -0.13483911898E+02  0.13380988005E+02  0.19308680858E+02  0.00000000000E+00 0.  1.
</event>
<event>
 7    1  0.5022032E-011  0.4778727E+02  0.7816164E-02  0.1312668E+00
        -11   -1    0    0    0    0  0.00000000000E+00  0.00000000000E+00  0.45593999997E+02  0.45594000000E+02  0.51100000000E-03 0. -1.
         11   -1    0    0    0    0 -0.00000000000E+00 -0.00000000000E+00 -0.45593999997E+02  0.45594000000E+02  0.51100000000E-03 0.  1.
    9900012    2    1    2    0    0  0.35530495843E+02 -0.15268593100E+02  0.19699672016E+02  0.47787272499E+02  0.20000006632E+02 0.  0.
        -12    1    1    2    0    0 -0.35530495843E+02  0.15268593100E+02 -0.19699672016E+02  0.43400727501E+02  0.00000000000E+00 0.  1.
         11    1    3    3    0    0  0.67808298966E+01 -0.82953888785E+01 -0.47810549353E+00  0.10724817754E+02  0.51100000000E-03 0. -1.
        -11    1    3    3    0    0  0.17807483008E+01 -0.33847086260E+01  0.32548265123E+01  0.50220725682E+01  0.51100000000E-03 0.  1.
        -12    1    3    3    0    0  0.26968917645E+02 -0.35884955952E+01  0.16922950997E+02  0.32040382177E+02  0.00000000000E+00 0.  1.
</event>
<event>
 7    1  0.5022032E-011  0.4778727E+02  0.7816164E-02  0.1312668E+00
        -11   -1    0    0    0    0  0.00000000000E+00  0.00000000000E+00  0.45593999997E+02  0.45594000000E+02  0.51100000000E-03 0. -1.
         11   -1    0    0    0    0 -0.00000000000E+00 -0.00000000000E+00 -0.45593999997E+02  0.45594000000E+02  0.51100000000E-03 0.  1.
    9900012    2    1    2    0    0  0.34842273865E+02  0.20081766987E+02  0.16320596346E+02  0.47787270991E+02  0.19999999758E+02 0.  0.
        -12    1    1    2    0    0 -0.34842273865E+02 -0.20081766987E+02 -0.16320596346E+02  0.43400729009E+02  0.00000000000E+00 0.  1.
         11    1    3    3    0    0  0.56676466114E+01  0.96482689787E+01  0.86801511703E+01  0.14161791447E+02  0.51100000000E-03 0. -1.
        -11    1    3    3    0    0  0.14426580675E+01 -0.22143184585E+00  0.32913023315E+01  0.36004118738E+01  0.51100000000E-03 0.  1.
        -12    1    3    3    0    0  0.27731969186E+02  0.10654929854E+02  0.43491428440E+01  0.30025067670E+02  0.00000000000E+00 0.  1.
</event>
<event>
 7    1  0.5022032E-011  0.4778727E+02  0.7816164E-02  0.1312668E+00
        -11   -1    0    0    0    0  0.00000000000E+00  0.00000000000E+00  0.45593999997E+02  0.45594000000E+02  0.51100000000E-03 0. -1.
         11   -1    0    0    0    0 -0.00000000000E+00 -0.00000000000E+00 -0.45593999997E+02  0.45594000000E+02  0.51100000000E-03 0.  1.
    9900012    2    1    2    0    0  0.19565811926E+02  0.17956228429E+02  0.34327486842E+02  0.47787268570E+02  0.19999988720E+02 0.  0.
        -12    1    1    2    0    0 -0.19565811926E+02 -0.17956228429E+02 -0.34327486842E+02  0.43400731430E+02  0.00000000000E+00 0.  1.
         11    1    3    3    0    0  0.51729084385E+01  0.22895800383E+00  0.69234799174E+00  0.52240548890E+01  0.51100000000E-03 0. -1.
        -11    1    3    3    0    0 -0.23184229519E+01  0.18560499562E+01  0.48692618831E+01  0.57034829684E+01  0.51100000000E-03 0.  1.
         12    1    3    3    0    0  0.16711326439E+02  0.15871220469E+02  0.28765876967E+02  0.36859730713E+02  0.00000000000E+00 0. -1.
</event>
<event>
 7    1  0.5022032E-011  0.4778727E+02  0.7816164E-02  0.1312668E+00
        -11   -1    0    0    0    0  0.00000000000E+00  0.00000000000E+00  0.45593999997E+02  0.45594000000E+02  0.51100000000E-03 0. -1.
         11   -1    0    0    0    0 -0.00000000000E+00 -0.00000000000E+00 -0.45593999997E+02  0.45594000000E+02  0.51100000000E-03 0.  1.
    9900012    2    1    2    0    0 -0.56257679215E+01  0.16939866784E+01  0.43001215248E+02  0.47787269955E+02  0.19999995035E+02 0.  0.
        -12    1    1    2    0    0  0.56257679215E+01 -0.16939866784E+01 -0.43001215248E+02  0.43400730045E+02  0.00000000000E+00 0.  1.
         11    1    3    3    0    0 -0.12521748402E+02  0.40372389339E+01  0.24588362003E+02  0.27886932916E+02  0.51100000000E-03 0. -1.
        -11    1    3    3    0    0  0.13744171618E+01  0.32985587195E+00  0.33139152649E+01  0.36027575654E+01  0.51100000000E-03 0.  1.
         12    1    3    3    0    0  0.55215633190E+01 -0.26731081275E+01  0.15098937981E+02  0.16297579474E+02  0.00000000000E+00 0. -1.
</event>
<event>
 7    1  0.5022032E-011  0.4778727E+02  0.7816164E-02  0.1312668E+00
        -11   -1    0    0    0    0  0.00000000000E+00  0.00000000000E+00  0.45593999997E+02  0.45594000000E+02  0.51100000000E-03 0. -1.
         11   -1    0    0    0    0 -0.00000000000E+00 -0.00000000000E+00 -0.45593999997E+02  0.45594000000E+02  0.51100000000E-03 0.  1.
    9900012    2    1    2    0    0 -0.39252119647E+02  0.16881194452E+01  0.18440293668E+02  0.47787273340E+02  0.20000010467E+02 0.  0.
        -12    1    1    2    0    0  0.39252119647E+02 -0.16881194452E+01 -0.18440293668E+02  0.43400726660E+02  0.00000000000E+00 0.  1.
         11    1    3    3    0    0 -0.16142968840E+02 -0.41948763802E+01  0.80170371831E+01  0.18505818444E+02  0.51100000000E-03 0. -1.
        -11    1    3    3    0    0 -0.19256744963E+02  0.21975878415E+01  0.22344945730E+01  0.19510114945E+02  0.51100000000E-03 0.  1.
        -12    1    3    3    0    0 -0.38524058434E+01  0.36854079839E+01  0.81887619123E+01  0.97713399514E+01  0.00000000000E+00 0.  1.
</event>
<event>
 7    1  0.5022032E-011  0.4778727E+02  0.7816164E-02  0.1312668E+00
        -11   -1    0    0    0    0  0.00000000000E+00  0.00000000000E+00  0.45593999997E+02  0.45594000000E+02  0.51100000000E-03 0. -1.
         11   -1    0    0    0    0 -0.00000000000E+00 -0.00000000000E+00 -0.45593999997E+02  0.45594000000E+02  0.51100000000E-03 0.  1.
    9900012    2    1    2    0    0  0.15364913563E+02 -0.37808578437E+02 -0.14766655589E+02  0.47787270864E+02  0.19999999178E+02 0.  0.
         12    1    1    2    0    0 -0.15364913563E+02  0.37808578437E+02  0.14766655589E+02  0.43400729136E+02  0.00000000000E+00 0. -1.
         11    1    3    3    0    0  0.96474484668E+01 -0.94208083125E+01 -0.19473419945E+01  0.13624134185E+02  0.51100000000E-03 0.  1.
        -11    1    3    3    0    0  0.44020496660E+01 -0.13813061462E+01 -0.22392247034E+01  0.51283696693E+01  0.51100000000E-03 0. -1.
        -12    1    3    3    0    0  0.13154154297E+01 -0.27006463979E+02 -0.10580088892E+02  0.29034767010E+02  0.00000000000E+00 0.  1.
</event>
<event>
 7    1  0.5022032E-011  0.4778727E+02  0.7816164E-02  0.1312668E+00
        -11   -1    0    0    0    0  0.00000000000E+00  0.00000000000E+00  0.45593999997E+02  0.45594000000E+02  0.51100000000E-03 0. -1.
         11   -1    0    0    0    0 -0.00000000000E+00 -0.00000000000E+00 -0.45593999997E+02  0.45594000000E+02  0.51100000000E-03 0.  1.
    9900012    2    1    2    0    0 -0.13331457747E+02 -0.17189175546E+02  0.37555660706E+02  0.47787272210E+02  0.20000005315E+02 0.  0.
        -12    1    1    2    0    0  0.13331457747E+02  0.17189175546E+02 -0.37555660706E+02  0.43400727790E+02  0.00000000000E+00 0.  1.
         11    1    3    3    0    0 -0.16779691585E+01  0.22802896812E+01  0.37054372391E+01  0.46632142263E+01  0.51100000000E-03 0. -1.
        -11    1    3    3    0    0  0.22702638188E-01 -0.18027490042E+01 -0.12053610101E+01  0.21687127075E+01  0.51100000000E-03 0.  1.
         12    1    3    3    0    0 -0.11676191227E+02 -0.17666716223E+02  0.35055584477E+02  0.40955345276E+02  0.00000000000E+00 0. -1.
</event>
<event>
 7    1  0.5022032E-011  0.4778727E+02  0.7816164E-02  0.1312668E+00
        -11   -1    0    0    0    0  0.00000000000E+00  0.00000000000E+00  0.45593999997E+02  0.45594000000E+02  0.51100000000E-03 0. -1.
         11   -1    0    0    0    0 -0.00000000000E+00 -0.00000000000E+00 -0.45593999997E+02  0.45594000000E+02  0.51100000000E-03 0.  1.
    9900012    2    1    2    0    0  0.26797735007E+02 -0.33296939813E+02  0.75378086767E+01  0.47787270028E+02  0.19999995368E+02 0.  0.
        -12    1    1    2    0    0 -0.26797735007E+02  0.33296939813E+02 -0.75378086767E+01  0.43400729972E+02  0.00000000000E+00 0.  1.
         11    1    3    3    0    0  0.25233283909E+01 -0.34938856667E+01 -0.21351274913E+01  0.48096977957E+01  0.51100000000E-03 0. -1.
        -11    1    3    3    0    0  0.44685098557E+01 -0.15193667882E+02  0.92954147729E+01  0.18363547046E+02  0.51100000000E-03 0.  1.
        -12    1    3    3    0    0  0.19805896760E+02 -0.14609386264E+02  0.37752139509E+00  0.24614025187E+02  0.00000000000E+00 0.  1.
</event>
<event>
 7    1  0.5022032E-011  0.4778728E+02  0.7816164E-02  0.1312668E+00
        -11   -1    0    0    0    0  0.00000000000E+00  0.00000000000E+00  0.45593999997E+02  0.45594000000E+02  0.51100000000E-03 0. -1.
         11   -1    0    0    0    0 -0.00000000000E+00 -0.00000000000E+00 -0.45593999997E+02  0.45594000000E+02  0.51100000000E-03 0.  1.
    9900012    2    1    2    0    0 -0.32044616811E+01 -0.11278963949E+02  0.41786824437E+02  0.47787282276E+02  0.20000051211E+02 0.  0.
        -12    1    1    2    0    0  0.32044616811E+01  0.11278963949E+02 -0.41786824437E+02  0.43400717724E+02  0.00000000000E+00 0.  1.
         11    1    3    3    0    0 -0.57186931215E+00 -0.55125357844E+01  0.71076658285E+01  0.90129905733E+01  0.51100000000E-03 0. -1.
        -11    1    3    3    0    0 -0.75966045789E+01 -0.54740286242E+01  0.10412296034E+02  0.14003188903E+02  0.51100000000E-03 0.  1.
         12    1    3    3    0    0  0.49640122100E+01 -0.29239954051E+00  0.24266862574E+02  0.24771102800E+02  0.00000000000E+00 0. -1.
</event>
<event>
 7    1  0.5022032E-011  0.4778727E+02  0.7816164E-02  0.1312668E+00
        -11   -1    0    0    0    0  0.00000000000E+00  0.00000000000E+00  0.45593999997E+02  0.45594000000E+02  0.51100000000E-03 0. -1.
         11   -1    0    0    0    0 -0.00000000000E+00 -0.00000000000E+00 -0.45593999997E+02  0.45594000000E+02  0.51100000000E-03 0.  1.
    9900012    2    1    2    0    0  0.16849340018E+02  0.20064027096E+02  0.34599968647E+02  0.47787271058E+02  0.20000000060E+02 0.  0.
        -12    1    1    2    0    0 -0.16849340018E+02 -0.20064027096E+02 -0.34599968647E+02  0.43400728942E+02  0.00000000000E+00 0.  1.
         11    1    3    3    0    0 -0.12578751389E+01  0.41636038689E+01  0.45440558211E+01  0.62901741318E+01  0.51100000000E-03 0. -1.
        -11    1    3    3    0    0  0.13058369273E+02  0.61818440067E+01  0.26138713705E+02  0.29865842661E+02  0.51100000000E-03 0.  1.
         12    1    3    3    0    0  0.50488458833E+01  0.97185792209E+01  0.39171991206E+01  0.11631254265E+02  0.00000000000E+00 0. -1.
</event>
<event>
 7    1  0.5022032E-011  0.4778727E+02  0.7816164E-02  0.1312668E+00
        -11   -1    0    0    0    0  0.00000000000E+00  0.00000000000E+00  0.45593999997E+02  0.45594000000E+02  0.51100000000E-03 0. -1.
         11   -1    0    0    0    0 -0.00000000000E+00 -0.00000000000E+00 -0.45593999997E+02  0.45594000000E+02  0.51100000000E-03 0.  1.
    9900012    2    1    2    0    0 -0.11754767270E+02 -0.13091786087E+02  0.39674347588E+02  0.47787271053E+02  0.20000000041E+02 0.  0.
        -12    1    1    2    0    0  0.11754767270E+02  0.13091786087E+02 -0.39674347588E+02  0.43400728947E+02  0.00000000000E+00 0.  1.
         11    1    3    3    0    0  0.25942779403E+01 -0.19885621567E+01  0.96256765965E+01  0.10165545125E+02  0.51100000000E-03 0. -1.
        -11    1    3    3    0    0  0.90116182367E+00 -0.46357223107E+00 -0.10044627235E+01  0.14268628069E+01  0.51100000000E-03 0.  1.
         12    1    3    3    0    0 -0.15250207034E+02 -0.10639651700E+02  0.31053133715E+02  0.36194863122E+02  0.00000000000E+00 0. -1.
</event>
<event>
 7    1  0.5022032E-011  0.4778727E+02  0.7816164E-02  0.1312668E+00
        -11   -1    0    0    0    0  0.00000000000E+00  0.00000000000E+00  0.45593999997E+02  0.45594000000E+02  0.51100000000E-03 0. -1.
         11   -1    0    0    0    0 -0.00000000000E+00 -0.00000000000E+00 -0.45593999997E+02  0.45594000000E+02  0.51100000000E-03 0.  1.
    9900012    2    1    2    0    0 -0.41066773096E+01  0.83628479159E+00  0.43197904984E+02  0.47787272290E+02  0.20000005679E+02 0.  0.
        -12    1    1    2    0    0  0.41066773096E+01 -0.83628479159E+00 -0.43197904984E+02  0.43400727710E+02  0.00000000000E+00 0.  1.
         11    1    3    3    0    0  0.12644515324E+01 -0.20705734125E+01  0.32705339272E+01  0.40721621240E+01  0.51100000000E-03 0. -1.
        -11    1    3    3    0    0 -0.10277428474E+01  0.72433587368E+01  0.66827192047E+01  0.99086445784E+01  0.51100000000E-03 0.  1.
         12    1    3    3    0    0 -0.43433859946E+01 -0.43365005327E+01  0.33244651852E+02  0.33806465588E+02  0.00000000000E+00 0. -1.
</event>
<event>
 7    1  0.5022032E-011  0.4778725E+02  0.7816164E-02  0.1312668E+00
        -11   -1    0    0    0    0  0.00000000000E+00  0.00000000000E+00  0.45593999997E+02  0.45594000000E+02  0.51100000000E-03 0.  1.
         11   -1    0    0    0    0 -0.00000000000E+00 -0.00000000000E+00 -0.45593999997E+02  0.45594000000E+02  0.51100000000E-03 0. -1.
    9900012    2    1    2    0    0 -0.10247758926E+02  0.34886865998E+02  0.23696307780E+02  0.47787251336E+02  0.19999910140E+02 0.  0.
        -12    1    1    2    0    0  0.10247758926E+02 -0.34886865998E+02 -0.23696307780E+02  0.43400748664E+02  0.00000000000E+00 0.  1.
         11    1    3    3    0    0 -0.10296443213E+01  0.21999425463E+02  0.22362638192E+02  0.31386660786E+02  0.51100000000E-03 0. -1.
        -11    1    3    3    0    0 -0.40226638649E+01  0.57995918195E+01  0.25999395339E+01  0.75217534980E+01  0.51100000000E-03 0.  1.
        -12    1    3    3    0    0 -0.51954507399E+01  0.70878487162E+01 -0.12662699459E+01  0.88788370516E+01  0.00000000000E+00 0.  1.
</event>
<event>
 7    1  0.5022032E-011  0.4778726E+02  0.7816164E-02  0.1312668E+00
        -11   -1    0    0    0    0  0.00000000000E+00  0.00000000000E+00  0.45593999997E+02  0.45594000000E+02  0.51100000000E-03 0. -1.
         11   -1    0    0    0    0 -0.00000000000E+00 -0.00000000000E+00 -0.45593999997E+02  0.45594000000E+02  0.51100000000E-03 0.  1.
    9900012    2    1    2    0    0 -0.20261914594E+02 -0.17778897698E+02 -0.34014552314E+02  0.47787260888E+02  0.19999953693E+02 0.  0.
         12    1    1    2    0    0  0.20261914594E+02  0.17778897698E+02  0.34014552314E+02  0.43400739112E+02  0.00000000000E+00 0. -1.
         11    1    3    3    0    0 -0.17521834251E+01  0.26454863245E+00  0.25694432372E+00  0.17905734782E+01  0.51100000000E-03 0. -1.
        -11    1    3    3    0    0 -0.18652881086E+02 -0.14273725455E+02 -0.18837903323E+02  0.30108733169E+02  0.51100000000E-03 0.  1.
         12    1    3    3    0    0  0.14314991707E+00 -0.37697208757E+01 -0.15433593315E+02  0.15887954241E+02  0.00000000000E+00 0. -1.
</event>
<event>
 7    1  0.5022032E-011  0.4778727E+02  0.7816164E-02  0.1312668E+00
        -11   -1    0    0    0    0  0.00000000000E+00  0.00000000000E+00  0.45593999997E+02  0.45594000000E+02  0.51100000000E-03 0. -1.
         11   -1    0    0    0    0 -0.00000000000E+00 -0.00000000000E+00 -0.45593999997E+02  0.45594000000E+02  0.51100000000E-03 0.  1.
    9900012    2    1    2    0    0 -0.19497486036E+02 -0.28776984275E+02 -0.25987618693E+02  0.47787272920E+02  0.20000008553E+02 0.  0.
         12    1    1    2    0    0  0.19497486036E+02  0.28776984275E+02  0.25987618693E+02  0.43400727080E+02  0.00000000000E+00 0. -1.
         11    1    3    3    0    0 -0.80649330677E+01 -0.12382453602E+02 -0.21862838773E+02  0.26388482754E+02  0.51100000000E-03 0. -1.
        -11    1    3    3    0    0 -0.21284983565E+01 -0.85978460216E+01 -0.18509704106E+01  0.90487321315E+01  0.51100000000E-03 0.  1.
        -12    1    3    3    0    0 -0.93040546118E+01 -0.77966846520E+01 -0.22738095102E+01  0.12350058035E+02  0.00000000000E+00 0.  1.
</event>
<event>
 7    1  0.5022032E-011  0.4778727E+02  0.7816164E-02  0.1312668E+00
        -11   -1    0    0    0    0  0.00000000000E+00  0.00000000000E+00  0.45593999997E+02  0.45594000000E+02  0.51100000000E-03 0. -1.
         11   -1    0    0    0    0 -0.00000000000E+00 -0.00000000000E+00 -0.45593999997E+02  0.45594000000E+02  0.51100000000E-03 0.  1.
    9900012    2    1    2    0    0  0.94083433370E+01 -0.97317978108E+01  0.41235885209E+02  0.47787273716E+02  0.20000012182E+02 0.  0.
        -12    1    1    2    0    0 -0.94083433370E+01  0.97317978108E+01 -0.41235885209E+02  0.43400726284E+02  0.00000000000E+00 0.  1.
         11    1    3    3    0    0  0.92814874335E+01 -0.37296779515E+01  0.22998062634E+02  0.25079222312E+02  0.51100000000E-03 0. -1.
        -11    1    3    3    0    0  0.55844336903E+01 -0.93416354188E+00  0.51722341377E+01  0.76688048222E+01  0.51100000000E-03 0.  1.
         12    1    3    3    0    0 -0.54575777868E+01 -0.50679563174E+01  0.13065588438E+02  0.15039246582E+02  0.00000000000E+00 0. -1.
</event>
<event>
 7    1  0.5022032E-011  0.4778724E+02  0.7816164E-02  0.1312668E+00
        -11   -1    0    0    0    0  0.00000000000E+00  0.00000000000E+00  0.45593999997E+02  0.45594000000E+02  0.51100000000E-03 0. -1.
         11   -1    0    0    0    0 -0.00000000000E+00 -0.00000000000E+00 -0.45593999997E+02  0.45594000000E+02  0.51100000000E-03 0.  1.
    9900012    2    1    2    0    0  0.47346513649E+01 -0.36539147353E+02  0.22936859425E+02  0.47787242712E+02  0.19999870822E+02 0.  0.
        -12    1    1    2    0    0 -0.47346513649E+01  0.36539147353E+02 -0.22936859425E+02  0.43400757288E+02  0.00000000000E+00 0.  1.
         11    1    3    3    0    0  0.66266806788E+00 -0.88808677745E+01  0.46920702292E+01  0.10066005399E+02  0.51100000000E-03 0. -1.
        -11    1    3    3    0    0  0.82823480647E+01 -0.11561933089E+02  0.18138113588E+01  0.14337555514E+02  0.51100000000E-03 0.  1.
         12    1    3    3    0    0 -0.42103647678E+01 -0.16096346490E+02  0.16430977837E+02  0.23383681799E+02  0.00000000000E+00 0. -1.
</event>
<event>
 7    1  0.5022032E-011  0.4778726E+02  0.7816164E-02  0.1312668E+00
        -11   -1    0    0    0    0  0.00000000000E+00  0.00000000000E+00  0.45593999997E+02  0.45594000000E+02  0.51100000000E-03 0. -1.
         11   -1    0    0    0    0 -0.00000000000E+00 -0.00000000000E+00 -0.45593999997E+02  0.45594000000E+02  0.51100000000E-03 0.  1.
    9900012    2    1    2    0    0 -0.20726181262E+01 -0.15554081301E+02  0.40464783572E+02  0.47787263824E+02  0.19999967081E+02 0.  0.
        -12    1    1    2    0    0  0.20726181262E+01  0.15554081301E+02 -0.40464783572E+02  0.43400736176E+02  0.00000000000E+00 0.  1.
         11    1    3    3    0    0  0.36839579208E+01 -0.11919553929E+01  0.64292379440E+01  0.75051585208E+01  0.51100000000E-03 0. -1.
        -11    1    3    3    0    0  0.34933652173E+01 -0.19457181224E+00  0.12001950236E+02  0.12501530644E+02  0.51100000000E-03 0.  1.
         12    1    3    3    0    0 -0.92499412643E+01 -0.14167554096E+02  0.22033595393E+02  0.27780574659E+02  0.00000000000E+00 0. -1.
</event>
<event>
 7    1  0.5022032E-011  0.4778727E+02  0.7816164E-02  0.1312668E+00
        -11   -1    0    0    0    0  0.00000000000E+00  0.00000000000E+00  0.45593999997E+02  0.45594000000E+02  0.51100000000E-03 0. -1.
         11   -1    0    0    0    0 -0.00000000000E+00 -0.00000000000E+00 -0.45593999997E+02  0.45594000000E+02  0.51100000000E-03 0.  1.
    9900012    2    1    2    0    0 -0.19326509976E+02  0.20967153188E+02 -0.32718310187E+02  0.47787270488E+02  0.19999997463E+02 0.  0.
         12    1    1    2    0    0  0.19326509976E+02 -0.20967153188E+02  0.32718310187E+02  0.43400729512E+02  0.00000000000E+00 0. -1.
         11    1    3    3    0    0 -0.46969908461E+01  0.93732149510E+01 -0.44804202971E+00  0.10493789756E+02  0.51100000000E-03 0. -1.
        -11    1    3    3    0    0 -0.64554139775E+01  0.51225205300E+01 -0.15238280603E+02  0.17323907821E+02  0.51100000000E-03 0.  1.
         12    1    3    3    0    0 -0.81741051525E+01  0.64714177074E+01 -0.17031987554E+02  0.19969572911E+02  0.00000000000E+00 0. -1.
</event>
<event>
 7    1  0.5022032E-011  0.4778727E+02  0.7816164E-02  0.1312668E+00
        -11   -1    0    0    0    0  0.00000000000E+00  0.00000000000E+00  0.45593999997E+02  0.45594000000E+02  0.51100000000E-03 0. -1.
         11   -1    0    0    0    0 -0.00000000000E+00 -0.00000000000E+00 -0.45593999997E+02  0.45594000000E+02  0.51100000000E-03 0.  1.
    9900012    2    1    2    0    0  0.23554803319E+02  0.26409646526E+02  0.25126178994E+02  0.47787273510E+02  0.20000011242E+02 0.  0.
        -12    1    1    2    0    0 -0.23554803319E+02 -0.26409646526E+02 -0.25126178994E+02  0.43400726490E+02  0.00000000000E+00 0.  1.
         11    1    3    3    0    0  0.14619848666E+01  0.42695685911E+01  0.62321719744E+01  0.76945814366E+01  0.51100000000E-03 0. -1.
        -11    1    3    3    0    0  0.24680077950E+02  0.18849329790E+02  0.17676417716E+02  0.35733167012E+02  0.51100000000E-03 0.  1.
        -12    1    3    3    0    0 -0.25872594970E+01  0.32907481442E+01  0.12175893036E+01  0.43595250620E+01  0.00000000000E+00 0.  1.
</event>
<event>
 7    1  0.5022032E-011  0.4778727E+02  0.7816164E-02  0.1312668E+00
        -11   -1    0    0    0    0  0.00000000000E+00  0.00000000000E+00  0.45593999997E+02  0.45594000000E+02  0.51100000000E-03 0. -1.
         11   -1    0    0    0    0 -0.00000000000E+00 -0.00000000000E+00 -0.45593999997E+02  0.45594000000E+02  0.51100000000E-03 0.  1.
    9900012    2    1    2    0    0 -0.71237857325E+01  0.62248844790E+01 -0.42357122469E+02  0.47787270354E+02  0.19999996853E+02 0.  0.
         12    1    1    2    0    0  0.71237857325E+01 -0.62248844790E+01  0.42357122469E+02  0.43400729646E+02  0.00000000000E+00 0. -1.
         11    1    3    3    0    0 -0.38980278133E+01 -0.21632510149E+01 -0.19739908205E+01  0.48755426167E+01  0.51100000000E-03 0. -1.
        -11    1    3    3    0    0 -0.61032059991E+01  0.25272753131E+01 -0.11163413873E+02  0.12971432209E+02  0.51100000000E-03 0.  1.
        -12    1    3    3    0    0  0.28774480799E+01  0.58608601808E+01 -0.29219717775E+02  0.29940295529E+02  0.00000000000E+00 0.  1.
</event>
<event>
 7    1  0.5022032E-011  0.4778727E+02  0.7816164E-02  0.1312668E+00
        -11   -1    0    0    0    0  0.00000000000E+00  0.00000000000E+00  0.45593999997E+02  0.45594000000E+02  0.51100000000E-03 0. -1.
         11   -1    0    0    0    0 -0.00000000000E+00 -0.00000000000E+00 -0.45593999997E+02  0.45594000000E+02  0.51100000000E-03 0.  1.
    9900012    2    1    2    0    0 -0.62929826929E+01 -0.21096635023E+02 -0.37402588413E+02  0.47787271199E+02  0.20000000705E+02 0.  0.
         12    1    1    2    0    0  0.62929826929E+01  0.21096635023E+02  0.37402588413E+02  0.43400728801E+02  0.00000000000E+00 0. -1.
         11    1    3    3    0    0 -0.12467479993E+01  0.30556668775E-01 -0.45900054237E+00  0.13289078383E+01  0.51100000000E-03 0. -1.
        -11    1    3    3    0    0  0.20263384200E+01 -0.20301724179E+02 -0.31345858388E+02  0.37400920983E+02  0.51100000000E-03 0.  1.
        -12    1    3    3    0    0 -0.70725731136E+01 -0.82546751233E+00 -0.55977294824E+01  0.90574423773E+01  0.00000000000E+00 0.  1.
</event>
<event>
 7    1  0.5022032E-011  0.4778726E+02  0.7816164E-02  0.1312668E+00
        -11   -1    0    0    0    0  0.00000000000E+00  0.00000000000E+00  0.45593999997E+02  0.45594000000E+02  0.51100000000E-03 0. -1.
         11   -1    0    0    0    0 -0.00000000000E+00 -0.00000000000E+00 -0.45593999997E+02  0.45594000000E+02  0.51100000000E-03 0.  1.
    9900012    2    1    2    0    0 -0.24625118295E+02  0.26878638460E+02  0.23553481931E+02  0.47787260749E+02  0.19999953057E+02 0.  0.
        -12    1    1    2    0    0  0.24625118295E+02 -0.26878638460E+02 -0.23553481931E+02  0.43400739251E+02  0.00000000000E+00 0.  1.
         11    1    3    3    0    0 -0.76931831919E+01  0.98001177328E+01  0.31429199691E+01  0.12849331554E+02  0.51100000000E-03 0. -1.
        -11    1    3    3    0    0 -0.38723424102E+01 -0.17769945751E+01  0.38915892894E-01  0.42607816383E+01  0.51100000000E-03 0.  1.
        -12    1    3    3    0    0 -0.13059592693E+02  0.18855515302E+02  0.20371646068E+02  0.30677147556E+02  0.00000000000E+00 0.  1.
</event>
<event>
 7    1  0.5022032E-011  0.4778726E+02  0.7816164E-02  0.1312668E+00
        -11   -1    0    0    0    0  0.00000000000E+00  0.00000000000E+00  0.45593999997E+02  0.45594000000E+02  0.51100000000E-03 0. -1.
         11   -1    0    0    0    0 -0.00000000000E+00 -0.00000000000E+00 -0.45593999997E+02  0.45594000000E+02  0.51100000000E-03 0.  1.
    9900012    2    1    2    0    0  0.13126963048E+02 -0.38338568334E+02 -0.15539017617E+02  0.47787262111E+02  0.19999959271E+02 0.  0.
         12    1    1    2    0    0 -0.13126963048E+02  0.38338568334E+02  0.15539017617E+02  0.43400737889E+02  0.00000000000E+00 0. -1.
         11    1    3    3    0    0  0.53225156532E+00 -0.61294629877E+01 -0.60579549405E+01  0.86343747063E+01  0.51100000000E-03 0. -1.
        -11    1    3    3    0    0  0.12664348051E+02 -0.32918312822E+02 -0.11431230864E+02  0.37076597335E+02  0.51100000000E-03 0.  1.
         12    1    3    3    0    0 -0.69636568032E-01  0.70920747536E+00  0.19501681880E+01  0.20762900704E+01  0.00000000000E+00 0. -1.
</event>
<event>
 7    1  0.5022032E-011  0.4778727E+02  0.7816164E-02  0.1312668E+00
        -11   -1    0    0    0    0  0.00000000000E+00  0.00000000000E+00  0.45593999997E+02  0.45594000000E+02  0.51100000000E-03 0. -1.
         11   -1    0    0    0    0 -0.00000000000E+00 -0.00000000000E+00 -0.45593999997E+02  0.45594000000E+02  0.51100000000E-03 0.  1.
    9900012    2    1    2    0    0  0.18444020010E+02  0.21694860209E+02  0.32753234559E+02  0.47787271807E+02  0.20000003476E+02 0.  0.
        -12    1    1    2    0    0 -0.18444020010E+02 -0.21694860209E+02 -0.32753234559E+02  0.43400728193E+02  0.00000000000E+00 0.  1.
         11    1    3    3    0    0  0.23487065175E+01  0.11511314695E+02  0.12698786968E+02  0.17299883787E+02  0.51100000000E-03 0. -1.
        -11    1    3    3    0    0  0.11425372452E+02  0.12296149594E+02  0.10954848537E+02  0.20043531057E+02  0.51100000000E-03 0.  1.
        -12    1    3    3    0    0  0.46699410407E+01 -0.21126040797E+01  0.90995990542E+01  0.10443856963E+02  0.00000000000E+00 0.  1.
</event>
<event>
 7    1  0.5022032E-011  0.4778728E+02  0.7816164E-02  0.1312668E+00
        -11   -1    0    0    0    0  0.00000000000E+00  0.00000000000E+00  0.45593999997E+02  0.45594000000E+02  0.51100000000E-03 0. -1.
         11   -1    0    0    0    0 -0.00000000000E+00 -0.00000000000E+00 -0.45593999997E+02  0.45594000000E+02  0.51100000000E-03 0.  1.
    9900012    2    1    2    0    0  0.14128551435E+02  0.19732681700E+02  0.35980936962E+02  0.47787279760E+02  0.20000039738E+02 0.  0.
        -12    1    1    2    0    0 -0.14128551435E+02 -0.19732681700E+02 -0.35980936962E+02  0.43400720240E+02  0.00000000000E+00 0.  1.
         11    1    3    3    0    0  0.78413377008E-01  0.22813056551E+01  0.26114086217E+01  0.34684231865E+01  0.51100000000E-03 0.  1.
        -11    1    3    3    0    0  0.17390228112E+02  0.80970507834E+01  0.20736857853E+02  0.28248885625E+02  0.51100000000E-03 0. -1.
         12    1    3    3    0    0 -0.33400900537E+01  0.93543252612E+01  0.12632670487E+02  0.16069970949E+02  0.00000000000E+00 0. -1.
</event>
<event>
 7    1  0.5022032E-011  0.4778728E+02  0.7816164E-02  0.1312668E+00
        -11   -1    0    0    0    0  0.00000000000E+00  0.00000000000E+00  0.45593999997E+02  0.45594000000E+02  0.51100000000E-03 0. -1.
         11   -1    0    0    0    0 -0.00000000000E+00 -0.00000000000E+00 -0.45593999997E+02  0.45594000000E+02  0.51100000000E-03 0.  1.
    9900012    2    1    2    0    0  0.28054938292E+02  0.12534641874E+02 -0.30650058302E+02  0.47787275543E+02  0.20000020510E+02 0.  0.
         12    1    1    2    0    0 -0.28054938292E+02 -0.12534641874E+02  0.30650058302E+02  0.43400724457E+02  0.00000000000E+00 0. -1.
         11    1    3    3    0    0  0.23524135427E+02  0.15065123931E+02 -0.22100948874E+02  0.35620146659E+02  0.51100000000E-03 0. -1.
        -11    1    3    3    0    0  0.50302027829E+01  0.10836906281E+00 -0.79612316728E+01  0.94178497492E+01  0.51100000000E-03 0.  1.
         12    1    3    3    0    0 -0.49939991742E+00 -0.26388511190E+01 -0.58787775551E+00  0.27492791348E+01  0.00000000000E+00 0. -1.
</event>
<event>
 7    1  0.5022032E-011  0.4778727E+02  0.7816164E-02  0.1312668E+00
        -11   -1    0    0    0    0  0.00000000000E+00  0.00000000000E+00  0.45593999997E+02  0.45594000000E+02  0.51100000000E-03 0. -1.
         11   -1    0    0    0    0 -0.00000000000E+00 -0.00000000000E+00 -0.45593999997E+02  0.45594000000E+02  0.51100000000E-03 0.  1.
    9900012    2    1    2    0    0  0.25357147119E+02  0.50680709776E+01  0.34856175363E+02  0.47787271730E+02  0.20000003125E+02 0.  0.
        -12    1    1    2    0    0 -0.25357147119E+02 -0.50680709776E+01 -0.34856175363E+02  0.43400728270E+02  0.00000000000E+00 0.  1.
         11    1    3    3    0    0  0.86078689031E+01  0.21921813016E+01  0.60201762379E+01  0.10730498036E+02  0.51100000000E-03 0. -1.
        -11    1    3    3    0    0  0.16345514500E+02 -0.24282185120E+00  0.12929591769E+02  0.20842484264E+02  0.51100000000E-03 0.  1.
        -12    1    3    3    0    0  0.40376371624E+00  0.31187115273E+01  0.15906407356E+02  0.16214289429E+02  0.00000000000E+00 0.  1.
</event>
<event>
 7    1  0.5022032E-011  0.4778728E+02  0.7816164E-02  0.1312668E+00
        -11   -1    0    0    0    0  0.00000000000E+00  0.00000000000E+00  0.45593999997E+02  0.45594000000E+02  0.51100000000E-03 0. -1.
         11   -1    0    0    0    0 -0.00000000000E+00 -0.00000000000E+00 -0.45593999997E+02  0.45594000000E+02  0.51100000000E-03 0.  1.
    9900012    2    1    2    0    0  0.13019065370E+02  0.29557881043E+02 -0.28990656088E+02  0.47787279554E+02  0.20000038798E+02 0.  0.
         12    1    1    2    0    0 -0.13019065370E+02 -0.29557881043E+02  0.28990656088E+02  0.43400720446E+02  0.00000000000E+00 0. -1.
         11    1    3    3    0    0  0.63309003261E+00  0.15754177463E+01  0.20899999466E+01  0.26927391449E+01  0.51100000000E-03 0. -1.
        -11    1    3    3    0    0  0.19142186432E+01  0.87061963304E+01 -0.28832617759E+01  0.93688465825E+01  0.51100000000E-03 0.  1.
         12    1    3    3    0    0  0.10471756695E+02  0.19276266966E+02 -0.28197394259E+02  0.35725693826E+02  0.00000000000E+00 0. -1.
</event>
<event>
 7    1  0.5022032E-011  0.4778727E+02  0.7816164E-02  0.1312668E+00
        -11   -1    0    0    0    0  0.00000000000E+00  0.00000000000E+00  0.45593999997E+02  0.45594000000E+02  0.51100000000E-03 0.  1.
         11   -1    0    0    0    0 -0.00000000000E+00 -0.00000000000E+00 -0.45593999997E+02  0.45594000000E+02  0.51100000000E-03 0. -1.
    9900012    2    1    2    0    0  0.36406907998E+02 -0.20101299041E+02 -0.12413618779E+02  0.47787272998E+02  0.20000008906E+02 0.  0.
         12    1    1    2    0    0 -0.36406907998E+02  0.20101299041E+02  0.12413618779E+02  0.43400727002E+02  0.00000000000E+00 0. -1.
         11    1    3    3    0    0  0.24494327507E+01  0.24909441356E+01 -0.29646241484E+01  0.45818686242E+01  0.51100000000E-03 0. -1.
        -11    1    3    3    0    0  0.16204271403E+02 -0.64645150826E+01 -0.54602548658E-01  0.17446241677E+02  0.51100000000E-03 0.  1.
        -12    1    3    3    0    0  0.17753203844E+02 -0.16127728094E+02 -0.93943920825E+01  0.25759162696E+02  0.00000000000E+00 0.  1.
</event>
<event>
 7    1  0.5022032E-011  0.4778727E+02  0.7816164E-02  0.1312668E+00
        -11   -1    0    0    0    0  0.00000000000E+00  0.00000000000E+00  0.45593999997E+02  0.45594000000E+02  0.51100000000E-03 0. -1.
         11   -1    0    0    0    0 -0.00000000000E+00 -0.00000000000E+00 -0.45593999997E+02  0.45594000000E+02  0.51100000000E-03 0.  1.
    9900012    2    1    2    0    0 -0.40309559339E+01  0.52358352907E+01  0.42894761665E+02  0.47787272412E+02  0.20000006234E+02 0.  0.
        -12    1    1    2    0    0  0.40309559339E+01 -0.52358352907E+01 -0.42894761665E+02  0.43400727588E+02  0.00000000000E+00 0.  1.
         11    1    3    3    0    0  0.78040538396E+00 -0.75335113739E+00  0.40958679630E+01  0.42370632673E+01  0.51100000000E-03 0.  1.
        -11    1    3    3    0    0 -0.11200258099E+02  0.11089843030E+01  0.17742665175E+02  0.21011373003E+02  0.51100000000E-03 0. -1.
         12    1    3    3    0    0  0.63888967816E+01  0.48802021251E+01  0.21056228526E+02  0.22538836142E+02  0.00000000000E+00 0. -1.
</event>
<event>
 7    1  0.5022032E-011  0.4778727E+02  0.7816164E-02  0.1312668E+00
        -11   -1    0    0    0    0  0.00000000000E+00  0.00000000000E+00  0.45593999997E+02  0.45594000000E+02  0.51100000000E-03 0. -1.
         11   -1    0    0    0    0 -0.00000000000E+00 -0.00000000000E+00 -0.45593999997E+02  0.45594000000E+02  0.51100000000E-03 0.  1.
    9900012    2    1    2    0    0  0.19717657833E+02  0.88406346268E+01 -0.37638819154E+02  0.47787267768E+02  0.19999985060E+02 0.  0.
         12    1    1    2    0    0 -0.19717657833E+02 -0.88406346268E+01  0.37638819154E+02  0.43400732232E+02  0.00000000000E+00 0. -1.
         11    1    3    3    0    0  0.14940622997E+01 -0.13106766991E+01 -0.61935534570E+01  0.65046291401E+01  0.51100000000E-03 0. -1.
        -11    1    3    3    0    0  0.16855325615E+02  0.59036352502E+01 -0.12450889206E+02  0.21771071472E+02  0.51100000000E-03 0.  1.
        -12    1    3    3    0    0  0.13682699184E+01  0.42476760757E+01 -0.18994376490E+02  0.19511567156E+02  0.00000000000E+00 0.  1.
</event>
<event>
 7    1  0.5022032E-011  0.4778728E+02  0.7816164E-02  0.1312668E+00
        -11   -1    0    0    0    0  0.00000000000E+00  0.00000000000E+00  0.45593999997E+02  0.45594000000E+02  0.51100000000E-03 0. -1.
         11   -1    0    0    0    0 -0.00000000000E+00 -0.00000000000E+00 -0.45593999997E+02  0.45594000000E+02  0.51100000000E-03 0.  1.
    9900012    2    1    2    0    0  0.13455793945E+01  0.30338900931E+02 -0.31005859847E+02  0.47787276061E+02  0.20000022872E+02 0.  0.
         12    1    1    2    0    0 -0.13455793945E+01 -0.30338900931E+02  0.31005859847E+02  0.43400723939E+02  0.00000000000E+00 0. -1.
         11    1    3    3    0    0  0.19063824718E+01  0.58434468864E+01 -0.11286604578E+02  0.12851755086E+02  0.51100000000E-03 0. -1.
        -11    1    3    3    0    0 -0.67501058213E+00  0.10059165420E+02 -0.17684047236E+02  0.20356030437E+02  0.51100000000E-03 0.  1.
         12    1    3    3    0    0  0.11420750478E+00  0.14436288624E+02 -0.20352080330E+01  0.14579490538E+02  0.00000000000E+00 0. -1.
</event>
<event>
 7    1  0.5022032E-011  0.4778727E+02  0.7816164E-02  0.1312668E+00
        -11   -1    0    0    0    0  0.00000000000E+00  0.00000000000E+00  0.45593999997E+02  0.45594000000E+02  0.51100000000E-03 0. -1.
         11   -1    0    0    0    0 -0.00000000000E+00 -0.00000000000E+00 -0.45593999997E+02  0.45594000000E+02  0.51100000000E-03 0.  1.
    9900012    2    1    2    0    0  0.23721708525E+02 -0.69102481407E+01 -0.35681259903E+02  0.47787270825E+02  0.19999998998E+02 0.  0.
         12    1    1    2    0    0 -0.23721708525E+02  0.69102481407E+01  0.35681259903E+02  0.43400729175E+02  0.00000000000E+00 0. -1.
         11    1    3    3    0    0  0.10420013077E+02 -0.12214185145E+01 -0.17643927211E+02  0.20527462177E+02  0.51100000000E-03 0. -1.
        -11    1    3    3    0    0  0.13482379294E+02  0.10889563877E+01 -0.10513447291E+02  0.17131635988E+02  0.51100000000E-03 0.  1.
         12    1    3    3    0    0 -0.18068384638E+00 -0.67777860139E+01 -0.75238854006E+01  0.10128172660E+02  0.00000000000E+00 0. -1.
</event>
<event>
 7    1  0.5022032E-011  0.4778727E+02  0.7816164E-02  0.1312668E+00
        -11   -1    0    0    0    0  0.00000000000E+00  0.00000000000E+00  0.45593999997E+02  0.45594000000E+02  0.51100000000E-03 0. -1.
         11   -1    0    0    0    0 -0.00000000000E+00 -0.00000000000E+00 -0.45593999997E+02  0.45594000000E+02  0.51100000000E-03 0.  1.
    9900012    2    1    2    0    0  0.30095952172E+02  0.11155419266E+02 -0.29213241037E+02  0.47787272264E+02  0.20000005561E+02 0.  0.
         12    1    1    2    0    0 -0.30095952172E+02 -0.11155419266E+02  0.29213241037E+02  0.43400727736E+02  0.00000000000E+00 0. -1.
         11    1    3    3    0    0 -0.10776295867E+01  0.15020097401E+01 -0.31094847691E+01  0.36174873291E+01  0.51100000000E-03 0. -1.
        -11    1    3    3    0    0  0.88767347555E+00  0.48924199551E+01 -0.37458617961E+01  0.62253689106E+01  0.51100000000E-03 0.  1.
        -12    1    3    3    0    0  0.30285908283E+02  0.47609895708E+01 -0.22357894472E+02  0.37944416024E+02  0.00000000000E+00 0.  1.
</event>
<event>
 7    1  0.5022032E-011  0.4778727E+02  0.7816164E-02  0.1312668E+00
        -11   -1    0    0    0    0  0.00000000000E+00  0.00000000000E+00  0.45593999997E+02  0.45594000000E+02  0.51100000000E-03 0. -1.
         11   -1    0    0    0    0 -0.00000000000E+00 -0.00000000000E+00 -0.45593999997E+02  0.45594000000E+02  0.51100000000E-03 0.  1.
    9900012    2    1    2    0    0  0.21504323394E+02 -0.33103045798E+02  0.18038173654E+02  0.47787271036E+02  0.19999999964E+02 0.  0.
        -12    1    1    2    0    0 -0.21504323394E+02  0.33103045798E+02 -0.18038173654E+02  0.43400728964E+02  0.00000000000E+00 0.  1.
         11    1    3    3    0    0  0.40054255035E+00 -0.94899014560E+01  0.87512883575E+01  0.12915251146E+02  0.51100000000E-03 0. -1.
        -11    1    3    3    0    0  0.60362652075E+01 -0.10170470677E+02  0.86802700923E+01  0.14670448547E+02  0.51100000000E-03 0.  1.
        -12    1    3    3    0    0  0.15067515637E+02 -0.13442673666E+02  0.60661520452E+00  0.20201571343E+02  0.00000000000E+00 0.  1.
</event>
<event>
 7    1  0.5022032E-011  0.4778727E+02  0.7816164E-02  0.1312668E+00
        -11   -1    0    0    0    0  0.00000000000E+00  0.00000000000E+00  0.45593999997E+02  0.45594000000E+02  0.51100000000E-03 0. -1.
         11   -1    0    0    0    0 -0.00000000000E+00 -0.00000000000E+00 -0.45593999997E+02  0.45594000000E+02  0.51100000000E-03 0.  1.
    9900012    2    1    2    0    0  0.33185402125E+02  0.85366272092E+01 -0.26636029628E+02  0.47787274284E+02  0.20000014771E+02 0.  0.
         12    1    1    2    0    0 -0.33185402125E+02 -0.85366272092E+01  0.26636029628E+02  0.43400725716E+02  0.00000000000E+00 0. -1.
         11    1    3    3    0    0  0.57238624412E+01  0.67509288457E+01 -0.11046557111E+02  0.14155001441E+02  0.51100000000E-03 0. -1.
        -11    1    3    3    0    0  0.66674275809E+01  0.53269052669E+01 -0.28860889250E+01  0.90088856033E+01  0.51100000000E-03 0.  1.
        -12    1    3    3    0    0  0.20794112103E+02 -0.35412069034E+01 -0.12703383592E+02  0.24623387240E+02  0.00000000000E+00 0.  1.
</event>
<event>
 7    1  0.5022032E-011  0.4778727E+02  0.7816164E-02  0.1312668E+00
        -11   -1    0    0    0    0  0.00000000000E+00  0.00000000000E+00  0.45593999997E+02  0.45594000000E+02  0.51100000000E-03 0. -1.
         11   -1    0    0    0    0 -0.00000000000E+00 -0.00000000000E+00 -0.45593999997E+02  0.45594000000E+02  0.51100000000E-03 0.  1.
    9900012    2    1    2    0    0  0.36070392111E+01  0.29166005117E+02  0.31936761876E+02  0.47787270219E+02  0.19999996237E+02 0.  0.
        -12    1    1    2    0    0 -0.36070392111E+01 -0.29166005117E+02 -0.31936761876E+02  0.43400729781E+02  0.00000000000E+00 0.  1.
         11    1    3    3    0    0  0.84074440274E+00  0.57178367405E+01  0.15515779932E+01  0.59839704772E+01  0.51100000000E-03 0. -1.
        -11    1    3    3    0    0  0.72881966416E+01  0.21723223965E+02  0.28595805295E+02  0.36643367073E+02  0.51100000000E-03 0.  1.
        -12    1    3    3    0    0 -0.45219018333E+01  0.17249444120E+01  0.17893785876E+01  0.51599326686E+01  0.00000000000E+00 0.  1.
</event>
<event>
 7    1  0.5022032E-011  0.4778727E+02  0.7816164E-02  0.1312668E+00
        -11   -1    0    0    0    0  0.00000000000E+00  0.00000000000E+00  0.45593999997E+02  0.45594000000E+02  0.51100000000E-03 0. -1.
         11   -1    0    0    0    0 -0.00000000000E+00 -0.00000000000E+00 -0.45593999997E+02  0.45594000000E+02  0.51100000000E-03 0.  1.
    9900012    2    1    2    0    0 -0.24082139783E+02 -0.10666901534E+02  0.34494800655E+02  0.47787268242E+02  0.19999987223E+02 0.  0.
        -12    1    1    2    0    0  0.24082139783E+02  0.10666901534E+02 -0.34494800655E+02  0.43400731758E+02  0.00000000000E+00 0.  1.
         11    1    3    3    0    0 -0.63009250428E+00 -0.41649043009E+01  0.56304377690E+01  0.70317333660E+01  0.51100000000E-03 0. -1.
        -11    1    3    3    0    0 -0.15855394715E+02 -0.90042273132E+01  0.11288173659E+02  0.21445104707E+02  0.51100000000E-03 0.  1.
         12    1    3    3    0    0 -0.75966525637E+01  0.25022300805E+01  0.17576189228E+02  0.19310430169E+02  0.00000000000E+00 0. -1.
</event>
<event>
 7    1  0.5022032E-011  0.4778727E+02  0.7816164E-02  0.1312668E+00
        -11   -1    0    0    0    0  0.00000000000E+00  0.00000000000E+00  0.45593999997E+02  0.45594000000E+02  0.51100000000E-03 0. -1.
         11   -1    0    0    0    0 -0.00000000000E+00 -0.00000000000E+00 -0.45593999997E+02  0.45594000000E+02  0.51100000000E-03 0.  1.
    9900012    2    1    2    0    0  0.23572568435E+02  0.91843784391E+01  0.35264780997E+02  0.47787267648E+02  0.19999984512E+02 0.  0.
        -12    1    1    2    0    0 -0.23572568435E+02 -0.91843784391E+01 -0.35264780997E+02  0.43400732352E+02  0.00000000000E+00 0.  1.
         11    1    3    3    0    0 -0.53367938280E+00  0.61818663064E+00 -0.14828805774E+01  0.16928979479E+01  0.51100000000E-03 0.  1.
        -11    1    3    3    0    0  0.28428214931E+01 -0.24216280566E+01  0.67934969781E+01  0.77522588926E+01  0.51100000000E-03 0. -1.
         12    1    3    3    0    0  0.21263426325E+02  0.10987819865E+02  0.29954164597E+02  0.38342110807E+02  0.00000000000E+00 0. -1.
</event>
<event>
 7    1  0.5022032E-011  0.4778727E+02  0.7816164E-02  0.1312668E+00
        -11   -1    0    0    0    0  0.00000000000E+00  0.00000000000E+00  0.45593999997E+02  0.45594000000E+02  0.51100000000E-03 0. -1.
         11   -1    0    0    0    0 -0.00000000000E+00 -0.00000000000E+00 -0.45593999997E+02  0.45594000000E+02  0.51100000000E-03 0.  1.
    9900012    2    1    2    0    0  0.81395980886E+00  0.32022729303E+02  0.29283199706E+02  0.47787268352E+02  0.19999987724E+02 0.  0.
        -12    1    1    2    0    0 -0.81395980886E+00 -0.32022729303E+02 -0.29283199706E+02  0.43400731648E+02  0.00000000000E+00 0.  1.
         11    1    3    3    0    0 -0.22389908966E+01  0.11167907036E+02  0.23137912111E+02  0.25789497958E+02  0.51100000000E-03 0. -1.
        -11    1    3    3    0    0  0.72851839130E+00  0.35108538224E+01  0.56071885389E+00  0.36292202335E+01  0.51100000000E-03 0.  1.
         12    1    3    3    0    0  0.23244323141E+01  0.17343968444E+02  0.55845687405E+01  0.18368550160E+02  0.00000000000E+00 0. -1.
</event>
<event>
 7    1  0.5022032E-011  0.4778727E+02  0.7816164E-02  0.1312668E+00
        -11   -1    0    0    0    0  0.00000000000E+00  0.00000000000E+00  0.45593999997E+02  0.45594000000E+02  0.51100000000E-03 0. -1.
         11   -1    0    0    0    0 -0.00000000000E+00 -0.00000000000E+00 -0.45593999997E+02  0.45594000000E+02  0.51100000000E-03 0.  1.
    9900012    2    1    2    0    0 -0.99957483300E+01  0.38933571184E+02 -0.16367208629E+02  0.47787268807E+02  0.19999989798E+02 0.  0.
         12    1    1    2    0    0  0.99957483300E+01 -0.38933571184E+02  0.16367208629E+02  0.43400731193E+02  0.00000000000E+00 0. -1.
         11    1    3    3    0    0 -0.15999859705E+01  0.20906665028E+02 -0.10496849719E+02  0.23448506391E+02  0.51100000000E-03 0. -1.
        -11    1    3    3    0    0 -0.64216200712E+01  0.17784167327E+02 -0.83687935587E+00  0.18926546942E+02  0.51100000000E-03 0.  1.
         12    1    3    3    0    0 -0.19741422883E+01  0.24273882918E+00 -0.50334795536E+01  0.54122154734E+01  0.00000000000E+00 0. -1.
</event>
<event>
 7    1  0.6593182E-011  0.4778727E+02  0.7816164E-02  0.1312668E+00
        -11   -1    0    0    0    0  0.00000000000E+00  0.00000000000E+00  0.45593999997E+02  0.45594000000E+02  0.51100000000E-03 0. -1.
         11   -1    0    0    0    0 -0.00000000000E+00 -0.00000000000E+00 -0.45593999997E+02  0.45594000000E+02  0.51100000000E-03 0.  1.
    9900012    2    1    2    0    0 -0.38763734611E+01  0.34747580469E+02 -0.25713861512E+02  0.47787270818E+02  0.19999998967E+02 0.  0.
         12    1    1    2    0    0  0.38763734611E+01 -0.34747580469E+02  0.25713861512E+02  0.43400729182E+02  0.00000000000E+00 0. -1.
         11    1    3    3    0    0 -0.36376826067E+01  0.12395763339E+01 -0.11567951216E+01  0.40134099528E+01  0.51100000000E-03 0. -1.
        -11    1    3    3    0    0  0.17450713669E+00  0.25126167106E+01 -0.84969237252E+01  0.88623590837E+01  0.51100000000E-03 0.  1.
        -12    1    3    3    0    0 -0.41319799108E+00  0.30995387425E+02 -0.16060142666E+02  0.34911501781E+02  0.00000000000E+00 0.  1.
</event>
<event>
 7    1  0.5022032E-011  0.4778727E+02  0.7816164E-02  0.1312668E+00
        -11   -1    0    0    0    0  0.00000000000E+00  0.00000000000E+00  0.45593999997E+02  0.45594000000E+02  0.51100000000E-03 0. -1.
         11   -1    0    0    0    0 -0.00000000000E+00 -0.00000000000E+00 -0.45593999997E+02  0.45594000000E+02  0.51100000000E-03 0.  1.
    9900012    2    1    2    0    0 -0.25513906753E+02  0.93292752101E+01 -0.33847132231E+02  0.47787272195E+02  0.20000005244E+02 0.  0.
         12    1    1    2    0    0  0.25513906753E+02 -0.93292752101E+01  0.33847132231E+02  0.43400727805E+02  0.00000000000E+00 0. -1.
         11    1    3    3    0    0 -0.76380578638E+01 -0.35117990159E+00 -0.13653759669E+02  0.15648910781E+02  0.51100000000E-03 0. -1.
        -11    1    3    3    0    0 -0.10861302099E+02  0.69598225040E+01 -0.20922300669E+02  0.24579456425E+02  0.51100000000E-03 0.  1.
         12    1    3    3    0    0 -0.70145467899E+01  0.27206326077E+01  0.72892810701E+00  0.75589049894E+01  0.00000000000E+00 0. -1.
</event>
<event>
 7    1  0.5022032E-011  0.4778727E+02  0.7816164E-02  0.1312668E+00
        -11   -1    0    0    0    0  0.00000000000E+00  0.00000000000E+00  0.45593999997E+02  0.45594000000E+02  0.51100000000E-03 0. -1.
         11   -1    0    0    0    0 -0.00000000000E+00 -0.00000000000E+00 -0.45593999997E+02  0.45594000000E+02  0.51100000000E-03 0.  1.
    9900012    2    1    2    0    0  0.23577383637E+02  0.23824761460E+02  0.27570114034E+02  0.47787268835E+02  0.19999989925E+02 0.  0.
        -12    1    1    2    0    0 -0.23577383637E+02 -0.23824761460E+02 -0.27570114034E+02  0.43400731165E+02  0.00000000000E+00 0.  1.
         11    1    3    3    0    0  0.55218015445E+01  0.13137085585E+02  0.15703019911E+02  0.21205144295E+02  0.51100000000E-03 0. -1.
        -11    1    3    3    0    0 -0.40863557755E+00 -0.15426333636E+01  0.12178945805E+01  0.20074780696E+01  0.51100000000E-03 0.  1.
        -12    1    3    3    0    0  0.18464217670E+02  0.12230309239E+02  0.10649199542E+02  0.24574646470E+02  0.00000000000E+00 0.  1.
</event>
<event>
 7    1  0.5022032E-011  0.4778726E+02  0.7816164E-02  0.1312668E+00
        -11   -1    0    0    0    0  0.00000000000E+00  0.00000000000E+00  0.45593999997E+02  0.45594000000E+02  0.51100000000E-03 0. -1.
         11   -1    0    0    0    0 -0.00000000000E+00 -0.00000000000E+00 -0.45593999997E+02  0.45594000000E+02  0.51100000000E-03 0.  1.
    9900012    2    1    2    0    0 -0.14408076165E+02  0.13805195494E+02  0.38541509429E+02  0.47787262328E+02  0.19999960260E+02 0.  0.
        -12    1    1    2    0    0  0.14408076165E+02 -0.13805195494E+02 -0.38541509429E+02  0.43400737672E+02  0.00000000000E+00 0.  1.
         11    1    3    3    0    0 -0.72579042173E+01  0.32104252219E+01  0.17114813100E+02  0.18865334120E+02  0.51100000000E-03 0. -1.
        -11    1    3    3    0    0 -0.14358697538E+01  0.28509908187E+00  0.15787203444E+02  0.15854929716E+02  0.51100000000E-03 0.  1.
         12    1    3    3    0    0 -0.57143021937E+01  0.10309671191E+02  0.56394928841E+01  0.13066998493E+02  0.00000000000E+00 0. -1.
</event>
<event>
 7    1  0.5022032E-011  0.4778727E+02  0.7816164E-02  0.1312668E+00
        -11   -1    0    0    0    0  0.00000000000E+00  0.00000000000E+00  0.45593999997E+02  0.45594000000E+02  0.51100000000E-03 0. -1.
         11   -1    0    0    0    0 -0.00000000000E+00 -0.00000000000E+00 -0.45593999997E+02  0.45594000000E+02  0.51100000000E-03 0.  1.
    9900012    2    1    2    0    0 -0.40301222506E+02  0.15405637958E+02 -0.47012043726E+01  0.47787267991E+02  0.19999986078E+02 0.  0.
        -12    1    1    2    0    0  0.40301222506E+02 -0.15405637958E+02  0.47012043726E+01  0.43400732009E+02  0.00000000000E+00 0.  1.
         11    1    3    3    0    0 -0.19444595087E+01 -0.50140754064E+00  0.18547561072E+01  0.27335787498E+01  0.51100000000E-03 0. -1.
        -11    1    3    3    0    0 -0.67890931486E+01 -0.25850582540E+01 -0.42032130518E+01  0.83929322753E+01  0.51100000000E-03 0.  1.
        -12    1    3    3    0    0 -0.31567669848E+02  0.18492103753E+02 -0.23527474279E+01  0.36660756966E+02  0.00000000000E+00 0.  1.
</event>
<event>
 7    1  0.5022032E-011  0.4778727E+02  0.7816164E-02  0.1312668E+00
        -11   -1    0    0    0    0  0.00000000000E+00  0.00000000000E+00  0.45593999997E+02  0.45594000000E+02  0.51100000000E-03 0. -1.
         11   -1    0    0    0    0 -0.00000000000E+00 -0.00000000000E+00 -0.45593999997E+02  0.45594000000E+02  0.51100000000E-03 0.  1.
    9900012    2    1    2    0    0  0.18925214633E+02 -0.22978277428E+02  0.31582562745E+02  0.47787271296E+02  0.20000001147E+02 0.  0.
        -12    1    1    2    0    0 -0.18925214633E+02  0.22978277428E+02 -0.31582562745E+02  0.43400728704E+02  0.00000000000E+00 0.  1.
         11    1    3    3    0    0  0.17352455587E+02 -0.19322414727E+02  0.23556556874E+02  0.35062441412E+02  0.51100000000E-03 0. -1.
        -11    1    3    3    0    0  0.36907385522E+01 -0.18375376029E+01  0.88926899321E+01  0.98019401137E+01  0.51100000000E-03 0.  1.
        -12    1    3    3    0    0 -0.21179795056E+01 -0.18183250984E+01 -0.86668406030E+00  0.29228897704E+01  0.00000000000E+00 0.  1.
</event>
<event>
 7    1  0.5022032E-011  0.4778727E+02  0.7816164E-02  0.1312668E+00
        -11   -1    0    0    0    0  0.00000000000E+00  0.00000000000E+00  0.45593999997E+02  0.45594000000E+02  0.51100000000E-03 0. -1.
         11   -1    0    0    0    0 -0.00000000000E+00 -0.00000000000E+00 -0.45593999997E+02  0.45594000000E+02  0.51100000000E-03 0.  1.
    9900012    2    1    2    0    0 -0.10679630296E+02 -0.66553655419E+01  0.41536428088E+02  0.47787271296E+02  0.20000001148E+02 0.  0.
        -12    1    1    2    0    0  0.10679630296E+02  0.66553655419E+01 -0.41536428088E+02  0.43400728704E+02  0.00000000000E+00 0.  1.
         11    1    3    3    0    0 -0.11856681610E+02 -0.51468520053E+01  0.34523134590E+02  0.36863502364E+02  0.51100000000E-03 0. -1.
        -11    1    3    3    0    0  0.21604087715E+00 -0.28690564368E+01  0.83220681437E+01  0.88053947639E+01  0.51100000000E-03 0.  1.
        -12    1    3    3    0    0  0.96101043717E+00  0.13605429002E+01 -0.13087746459E+01  0.21183741684E+01  0.00000000000E+00 0.  1.
</event>
<event>
 7    1  0.5022032E-011  0.4778727E+02  0.7816164E-02  0.1312668E+00
        -11   -1    0    0    0    0  0.00000000000E+00  0.00000000000E+00  0.45593999997E+02  0.45594000000E+02  0.51100000000E-03 0. -1.
         11   -1    0    0    0    0 -0.00000000000E+00 -0.00000000000E+00 -0.45593999997E+02  0.45594000000E+02  0.51100000000E-03 0.  1.
    9900012    2    1    2    0    0 -0.18971090254E+01 -0.13552601281E+02  0.41186785947E+02  0.47787270043E+02  0.19999995435E+02 0.  0.
        -12    1    1    2    0    0  0.18971090254E+01  0.13552601281E+02 -0.41186785947E+02  0.43400729957E+02  0.00000000000E+00 0.  1.
         11    1    3    3    0    0 -0.13232236577E+01  0.31938703488E+01  0.45303372964E+01  0.56987441541E+01  0.51100000000E-03 0. -1.
        -11    1    3    3    0    0  0.21483326391E+01  0.12440839544E+01  0.46819575845E+01  0.52994155430E+01  0.51100000000E-03 0.  1.
         12    1    3    3    0    0 -0.27222180069E+01 -0.17990555584E+02  0.31974491066E+02  0.36789110346E+02  0.00000000000E+00 0. -1.
</event>
<event>
 7    1  0.1094314E-010  0.4778727E+02  0.7816164E-02  0.1312668E+00
        -11   -1    0    0    0    0  0.00000000000E+00  0.00000000000E+00  0.45593999997E+02  0.45594000000E+02  0.51100000000E-03 0. -1.
         11   -1    0    0    0    0 -0.00000000000E+00 -0.00000000000E+00 -0.45593999997E+02  0.45594000000E+02  0.51100000000E-03 0.  1.
    9900012    2    1    2    0    0  0.45356267344E+01  0.38864295839E+02 -0.18778125384E+02  0.47787269662E+02  0.19999993699E+02 0.  0.
         12    1    1    2    0    0 -0.45356267344E+01 -0.38864295839E+02  0.18778125384E+02  0.43400730338E+02  0.00000000000E+00 0. -1.
         11    1    3    3    0    0 -0.35047026389E+00  0.31623349695E+01 -0.82290045504E+01  0.88226814528E+01  0.51100000000E-03 0. -1.
        -11    1    3    3    0    0 -0.29771663366E+01  0.52137509440E+01 -0.12309365693E+01  0.61287782960E+01  0.51100000000E-03 0.  1.
        -12    1    3    3    0    0  0.78632633349E+01  0.30488209925E+02 -0.93181842638E+01  0.32835809914E+02  0.00000000000E+00 0.  1.
</event>
<event>
 7    1  0.5022032E-011  0.4778727E+02  0.7816164E-02  0.1312668E+00
        -11   -1    0    0    0    0  0.00000000000E+00  0.00000000000E+00  0.45593999997E+02  0.45594000000E+02  0.51100000000E-03 0. -1.
         11   -1    0    0    0    0 -0.00000000000E+00 -0.00000000000E+00 -0.45593999997E+02  0.45594000000E+02  0.51100000000E-03 0.  1.
    9900012    2    1    2    0    0 -0.14888721145E+02  0.11056409501E+02  0.39239075247E+02  0.47787271497E+02  0.20000002064E+02 0.  0.
        -12    1    1    2    0    0  0.14888721145E+02 -0.11056409501E+02 -0.39239075247E+02  0.43400728503E+02  0.00000000000E+00 0.  1.
         11    1    3    3    0    0 -0.98032664430E+01  0.32965336079E+01  0.44210524127E+01  0.11247971883E+02  0.51100000000E-03 0. -1.
        -11    1    3    3    0    0  0.92286421847E+00 -0.29306856633E+00  0.43840045075E+01  0.44896618284E+01  0.51100000000E-03 0.  1.
         12    1    3    3    0    0 -0.60083189203E+01  0.80529444592E+01  0.30434018326E+02  0.32049637786E+02  0.00000000000E+00 0. -1.
</event>
<event>
 7    1  0.5022032E-011  0.4778727E+02  0.7816164E-02  0.1312668E+00
        -11   -1    0    0    0    0  0.00000000000E+00  0.00000000000E+00  0.45593999997E+02  0.45594000000E+02  0.51100000000E-03 0. -1.
         11   -1    0    0    0    0 -0.00000000000E+00 -0.00000000000E+00 -0.45593999997E+02  0.45594000000E+02  0.51100000000E-03 0.  1.
    9900012    2    1    2    0    0 -0.28647479723E+01  0.23871918037E+02 -0.36132369974E+02  0.47787269457E+02  0.19999992761E+02 0.  0.
         12    1    1    2    0    0  0.28647479723E+01 -0.23871918037E+02  0.36132369974E+02  0.43400730543E+02  0.00000000000E+00 0. -1.
         11    1    3    3    0    0 -0.87024784755E+00  0.16869033829E+02 -0.29103098453E+02  0.33649843587E+02  0.51100000000E-03 0. -1.
        -11    1    3    3    0    0  0.15401283770E+00  0.90860739384E+01 -0.62988873577E+01  0.11056963497E+02  0.51100000000E-03 0.  1.
         12    1    3    3    0    0 -0.21485129625E+01 -0.20831897296E+01 -0.73038416360E+00  0.30804623721E+01  0.00000000000E+00 0. -1.
</event>
<event>
 7    1  0.5022032E-011  0.4778727E+02  0.7816164E-02  0.1312668E+00
        -11   -1    0    0    0    0  0.00000000000E+00  0.00000000000E+00  0.45593999997E+02  0.45594000000E+02  0.51100000000E-03 0. -1.
         11   -1    0    0    0    0 -0.00000000000E+00 -0.00000000000E+00 -0.45593999997E+02  0.45594000000E+02  0.51100000000E-03 0.  1.
    9900012    2    1    2    0    0 -0.30701352523E+02 -0.18905469720E+02  0.24158503073E+02  0.47787273015E+02  0.20000008986E+02 0.  0.
        -12    1    1    2    0    0  0.30701352523E+02  0.18905469720E+02 -0.24158503073E+02  0.43400726985E+02  0.00000000000E+00 0.  1.
         11    1    3    3    0    0  0.75717852762E+00  0.46622754668E+00  0.23059600142E-01  0.88950517382E+00  0.51100000000E-03 0. -1.
        -11    1    3    3    0    0 -0.85732207042E+01  0.20923063505E+01  0.57304335383E+01  0.10522154148E+02  0.51100000000E-03 0.  1.
         12    1    3    3    0    0 -0.22885310347E+02 -0.21464003617E+02  0.18405009934E+02  0.36375613694E+02  0.00000000000E+00 0. -1.
</event>
<event>
 7    1  0.5022032E-011  0.4778727E+02  0.7816164E-02  0.1312668E+00
        -11   -1    0    0    0    0  0.00000000000E+00  0.00000000000E+00  0.45593999997E+02  0.45594000000E+02  0.51100000000E-03 0. -1.
         11   -1    0    0    0    0 -0.00000000000E+00 -0.00000000000E+00 -0.45593999997E+02  0.45594000000E+02  0.51100000000E-03 0.  1.
    9900012    2    1    2    0    0  0.79767806081E+01  0.16338090201E+02  0.39408896087E+02  0.47787270615E+02  0.19999998044E+02 0.  0.
        -12    1    1    2    0    0 -0.79767806081E+01 -0.16338090201E+02 -0.39408896087E+02  0.43400729385E+02  0.00000000000E+00 0.  1.
         11    1    3    3    0    0  0.26691103031E+01  0.89418855744E+01  0.23530178634E+02  0.25313055411E+02  0.51100000000E-03 0. -1.
        -11    1    3    3    0    0  0.75296138530E+01  0.30689406701E-02  0.11040157288E+02  0.13363389068E+02  0.51100000000E-03 0.  1.
        -12    1    3    3    0    0 -0.22219435480E+01  0.73931356860E+01  0.48385601655E+01  0.91108261358E+01  0.00000000000E+00 0.  1.
</event>
<event>
 7    1  0.5022032E-011  0.4778724E+02  0.7816164E-02  0.1312668E+00
        -11   -1    0    0    0    0  0.00000000000E+00  0.00000000000E+00  0.45593999997E+02  0.45594000000E+02  0.51100000000E-03 0. -1.
         11   -1    0    0    0    0 -0.00000000000E+00 -0.00000000000E+00 -0.45593999997E+02  0.45594000000E+02  0.51100000000E-03 0.  1.
    9900012    2    1    2    0    0  0.30294135563E+01  0.17476756227E+02 -0.39610749782E+02  0.47787241332E+02  0.19999864527E+02 0.  0.
         12    1    1    2    0    0 -0.30294135563E+01 -0.17476756227E+02  0.39610749782E+02  0.43400758668E+02  0.00000000000E+00 0. -1.
         11    1    3    3    0    0 -0.42414936254E+00  0.48577150166E+01  0.58568585606E+00  0.49112448572E+01  0.51100000000E-03 0. -1.
        -11    1    3    3    0    0  0.21752367914E+01  0.61496724046E+01 -0.97998168280E+01  0.11772278280E+02  0.51100000000E-03 0.  1.
        -12    1    3    3    0    0  0.12783261274E+01  0.64693688059E+01 -0.30396618810E+02  0.31103718194E+02  0.00000000000E+00 0.  1.
</event>
<event>
 7    1  0.5022032E-011  0.4778727E+02  0.7816164E-02  0.1312668E+00
        -11   -1    0    0    0    0  0.00000000000E+00  0.00000000000E+00  0.45593999997E+02  0.45594000000E+02  0.51100000000E-03 0. -1.
         11   -1    0    0    0    0 -0.00000000000E+00 -0.00000000000E+00 -0.45593999997E+02  0.45594000000E+02  0.51100000000E-03 0.  1.
    9900012    2    1    2    0    0 -0.16833191605E+02  0.28962810735E+02 -0.27593880965E+02  0.47787274061E+02  0.20000013756E+02 0.  0.
         12    1    1    2    0    0  0.16833191605E+02 -0.28962810735E+02  0.27593880965E+02  0.43400725939E+02  0.00000000000E+00 0. -1.
         11    1    3    3    0    0 -0.15035249760E+02  0.81952839925E+01 -0.78011748927E+01  0.18817006803E+02  0.51100000000E-03 0. -1.
        -11    1    3    3    0    0 -0.11879238472E+01  0.40816973165E+01 -0.24973381407E+01  0.49303259629E+01  0.51100000000E-03 0.  1.
        -12    1    3    3    0    0 -0.61001799791E+00  0.16685829426E+02 -0.17295367932E+02  0.24039941295E+02  0.00000000000E+00 0.  1.
</event>
<event>
 7    1  0.5022032E-011  0.4778727E+02  0.7816164E-02  0.1312668E+00
        -11   -1    0    0    0    0  0.00000000000E+00  0.00000000000E+00  0.45593999997E+02  0.45594000000E+02  0.51100000000E-03 0. -1.
         11   -1    0    0    0    0 -0.00000000000E+00 -0.00000000000E+00 -0.45593999997E+02  0.45594000000E+02  0.51100000000E-03 0.  1.
    9900012    2    1    2    0    0 -0.16109242321E+02 -0.13402845624E+02  0.38006306414E+02  0.47787270902E+02  0.19999999352E+02 0.  0.
        -12    1    1    2    0    0  0.16109242321E+02  0.13402845624E+02 -0.38006306414E+02  0.43400729098E+02  0.00000000000E+00 0.  1.
         11    1    3    3    0    0  0.79807493139E+00  0.29484520473E+00  0.32188679206E+01  0.33294095937E+01  0.51100000000E-03 0. -1.
        -11    1    3    3    0    0 -0.12740953785E+02  0.18768280797E+00  0.20263797735E+02  0.23937180851E+02  0.51100000000E-03 0.  1.
         12    1    3    3    0    0 -0.41663634679E+01 -0.13885373637E+02  0.14523640759E+02  0.20520680458E+02  0.00000000000E+00 0. -1.
</event>
<event>
 7    1  0.5022032E-011  0.4778726E+02  0.7816164E-02  0.1312668E+00
        -11   -1    0    0    0    0  0.00000000000E+00  0.00000000000E+00  0.45593999997E+02  0.45594000000E+02  0.51100000000E-03 0. -1.
         11   -1    0    0    0    0 -0.00000000000E+00 -0.00000000000E+00 -0.45593999997E+02  0.45594000000E+02  0.51100000000E-03 0.  1.
    9900012    2    1    2    0    0  0.18762555458E+02 -0.70548372827E+01  0.38494412086E+02  0.47787262930E+02  0.19999963003E+02 0.  0.
        -12    1    1    2    0    0 -0.18762555458E+02  0.70548372827E+01 -0.38494412086E+02  0.43400737070E+02  0.00000000000E+00 0.  1.
         11    1    3    3    0    0  0.32836218334E+01 -0.86196987104E+01  0.19356566024E+02  0.21441968816E+02  0.51100000000E-03 0.  1.
        -11    1    3    3    0    0  0.71842928003E+01 -0.38923545953E+01  0.89752055742E+01  0.12137495734E+02  0.51100000000E-03 0. -1.
        -12    1    3    3    0    0  0.82946408240E+01  0.54572160230E+01  0.10162640488E+02  0.14207798380E+02  0.00000000000E+00 0.  1.
</event>
<event>
 7    1  0.5022032E-011  0.4778726E+02  0.7816164E-02  0.1312668E+00
        -11   -1    0    0    0    0  0.00000000000E+00  0.00000000000E+00  0.45593999997E+02  0.45594000000E+02  0.51100000000E-03 0.  1.
         11   -1    0    0    0    0 -0.00000000000E+00 -0.00000000000E+00 -0.45593999997E+02  0.45594000000E+02  0.51100000000E-03 0. -1.
    9900012    2    1    2    0    0  0.35101836195E+02 -0.21222745436E+02 -0.14180288023E+02  0.47787258111E+02  0.19999941032E+02 0.  0.
         12    1    1    2    0    0 -0.35101836195E+02  0.21222745436E+02  0.14180288023E+02  0.43400741889E+02  0.00000000000E+00 0. -1.
         11    1    3    3    0    0  0.11337500793E+01 -0.76845124880E+01 -0.68608928027E+01  0.10363829974E+02  0.51100000000E-03 0. -1.
        -11    1    3    3    0    0  0.91431013738E+01 -0.43532347937E+01 -0.77155958213E+00  0.10155897811E+02  0.51100000000E-03 0.  1.
         12    1    3    3    0    0  0.24824984742E+02 -0.91849981543E+01 -0.65478356377E+01  0.27267530326E+02  0.00000000000E+00 0. -1.
</event>
<event>
 7    1  0.5022032E-011  0.4778724E+02  0.7816164E-02  0.1312668E+00
        -11   -1    0    0    0    0  0.00000000000E+00  0.00000000000E+00  0.45593999997E+02  0.45594000000E+02  0.51100000000E-03 0. -1.
         11   -1    0    0    0    0 -0.00000000000E+00 -0.00000000000E+00 -0.45593999997E+02  0.45594000000E+02  0.51100000000E-03 0.  1.
    9900012    2    1    2    0    0 -0.40363027957E+02  0.54042200915E+01 -0.15008200478E+02  0.47787243069E+02  0.19999872447E+02 0.  0.
         12    1    1    2    0    0  0.40363027957E+02 -0.54042200915E+01  0.15008200478E+02  0.43400756931E+02  0.00000000000E+00 0. -1.
         11    1    3    3    0    0 -0.15055748191E+02  0.36806027605E+01 -0.48327879640E+01  0.16235092548E+02  0.51100000000E-03 0. -1.
        -11    1    3    3    0    0 -0.11957677659E+02  0.43670272051E+01 -0.12390081134E+02  0.17764320769E+02  0.51100000000E-03 0.  1.
         12    1    3    3    0    0 -0.13349602107E+02 -0.26434098741E+01  0.22146686206E+01  0.13787829752E+02  0.00000000000E+00 0. -1.
</event>
<event>
 7    1  0.5022032E-011  0.4778727E+02  0.7816164E-02  0.1312668E+00
        -11   -1    0    0    0    0  0.00000000000E+00  0.00000000000E+00  0.45593999997E+02  0.45594000000E+02  0.51100000000E-03 0. -1.
         11   -1    0    0    0    0 -0.00000000000E+00 -0.00000000000E+00 -0.45593999997E+02  0.45594000000E+02  0.51100000000E-03 0.  1.
    9900012    2    1    2    0    0  0.16737784055E+02  0.23796599531E+02 -0.32205456748E+02  0.47787274100E+02  0.20000013930E+02 0.  0.
         12    1    1    2    0    0 -0.16737784055E+02 -0.23796599531E+02  0.32205456748E+02  0.43400725900E+02  0.00000000000E+00 0. -1.
         11    1    3    3    0    0 -0.29824697594E-01  0.38990086709E+00 -0.22248887768E+01  0.22589914849E+01  0.51100000000E-03 0. -1.
        -11    1    3    3    0    0  0.70997575709E+01  0.20297736450E+02 -0.27791951010E+02  0.35139681327E+02  0.51100000000E-03 0.  1.
         12    1    3    3    0    0  0.96678511812E+01  0.31089622140E+01 -0.21886169616E+01  0.10388601288E+02  0.00000000000E+00 0. -1.
</event>
<event>
 7    1  0.5022032E-011  0.4778727E+02  0.7816164E-02  0.1312668E+00
        -11   -1    0    0    0    0  0.00000000000E+00  0.00000000000E+00  0.45593999997E+02  0.45594000000E+02  0.51100000000E-03 0. -1.
         11   -1    0    0    0    0 -0.00000000000E+00 -0.00000000000E+00 -0.45593999997E+02  0.45594000000E+02  0.51100000000E-03 0.  1.
    9900012    2    1    2    0    0 -0.42218991747E+02  0.72770912574E+01  0.69443320745E+01  0.47787273402E+02  0.20000010748E+02 0.  0.
        -12    1    1    2    0    0  0.42218991747E+02 -0.72770912574E+01 -0.69443320745E+01  0.43400726598E+02  0.00000000000E+00 0.  1.
         11    1    3    3    0    0 -0.18502655204E+02 -0.23444301550E+01  0.35512648279E+01  0.18985681039E+02  0.51100000000E-03 0. -1.
        -11    1    3    3    0    0 -0.13275174707E+02  0.46818640382E+00 -0.28364820430E+01  0.13582897064E+02  0.51100000000E-03 0.  1.
         12    1    3    3    0    0 -0.10441161835E+02  0.91533350086E+01  0.62295492895E+01  0.15218695299E+02  0.00000000000E+00 0. -1.
</event>
<event>
 7    1  0.5022032E-011  0.4778727E+02  0.7816164E-02  0.1312668E+00
        -11   -1    0    0    0    0  0.00000000000E+00  0.00000000000E+00  0.45593999997E+02  0.45594000000E+02  0.51100000000E-03 0.  1.
         11   -1    0    0    0    0 -0.00000000000E+00 -0.00000000000E+00 -0.45593999997E+02  0.45594000000E+02  0.51100000000E-03 0. -1.
    9900012    2    1    2    0    0  0.16921733523E+02  0.37942307119E+02 -0.12556257940E+02  0.47787270186E+02  0.19999996086E+02 0.  0.
        -12    1    1    2    0    0 -0.16921733523E+02 -0.37942307119E+02  0.12556257940E+02  0.43400729814E+02  0.00000000000E+00 0.  1.
         11    1    3    3    0    0 -0.47109447484E-02  0.38752168846E+00 -0.27929197148E+01  0.28196801320E+01  0.51100000000E-03 0. -1.
        -11    1    3    3    0    0  0.29001830918E+01  0.24677946836E+02 -0.51470727759E+01  0.25375273012E+02  0.51100000000E-03 0.  1.
        -12    1    3    3    0    0  0.14026261376E+02  0.12876838594E+02 -0.46162654494E+01  0.19592317042E+02  0.00000000000E+00 0.  1.
</event>
<event>
 7    1  0.5022032E-011  0.4778728E+02  0.7816164E-02  0.1312668E+00
        -11   -1    0    0    0    0  0.00000000000E+00  0.00000000000E+00  0.45593999997E+02  0.45594000000E+02  0.51100000000E-03 0.  1.
         11   -1    0    0    0    0 -0.00000000000E+00 -0.00000000000E+00 -0.45593999997E+02  0.45594000000E+02  0.51100000000E-03 0. -1.
    9900012    2    1    2    0    0 -0.17858705026E+02 -0.23276374649E+02 -0.31982806083E+02  0.47787275963E+02  0.20000022426E+02 0.  0.
         12    1    1    2    0    0  0.17858705026E+02  0.23276374649E+02  0.31982806083E+02  0.43400724037E+02  0.00000000000E+00 0. -1.
         11    1    3    3    0    0 -0.10015361307E+02 -0.72668837901E+01 -0.17774422685E+02  0.21657450546E+02  0.51100000000E-03 0. -1.
        -11    1    3    3    0    0  0.81481155644E+00  0.18824792341E+01 -0.12513236315E+01  0.24028019126E+01  0.51100000000E-03 0.  1.
        -12    1    3    3    0    0 -0.86581552760E+01 -0.17891970093E+02 -0.12957059766E+02  0.23727023504E+02  0.00000000000E+00 0.  1.
</event>
<event>
 7    1  0.5022032E-011  0.4778727E+02  0.7816164E-02  0.1312668E+00
        -11   -1    0    0    0    0  0.00000000000E+00  0.00000000000E+00  0.45593999997E+02  0.45594000000E+02  0.51100000000E-03 0. -1.
         11   -1    0    0    0    0 -0.00000000000E+00 -0.00000000000E+00 -0.45593999997E+02  0.45594000000E+02  0.51100000000E-03 0.  1.
    9900012    2    1    2    0    0 -0.24025566144E+02 -0.13023528025E+02  0.33716213844E+02  0.47787272049E+02  0.20000004579E+02 0.  0.
        -12    1    1    2    0    0  0.24025566144E+02  0.13023528025E+02 -0.33716213844E+02  0.43400727951E+02  0.00000000000E+00 0.  1.
         11    1    3    3    0    0  0.12638698922E+01 -0.31743845923E+01  0.12061750296E+00  0.34188643564E+01  0.51100000000E-03 0. -1.
        -11    1    3    3    0    0 -0.70172146467E+01 -0.78255555120E+01  0.10604750872E+02  0.14931221041E+02  0.51100000000E-03 0.  1.
         12    1    3    3    0    0 -0.18272221389E+02 -0.20235879212E+01  0.22990845468E+02  0.29437186651E+02  0.00000000000E+00 0. -1.
</event>
<event>
 7    1  0.5022032E-011  0.4778727E+02  0.7816164E-02  0.1312668E+00
        -11   -1    0    0    0    0  0.00000000000E+00  0.00000000000E+00  0.45593999997E+02  0.45594000000E+02  0.51100000000E-03 0. -1.
         11   -1    0    0    0    0 -0.00000000000E+00 -0.00000000000E+00 -0.45593999997E+02  0.45594000000E+02  0.51100000000E-03 0.  1.
    9900012    2    1    2    0    0  0.52356836879E+01 -0.32202675359E+02  0.28621639660E+02  0.47787274882E+02  0.20000017497E+02 0.  0.
        -12    1    1    2    0    0 -0.52356836879E+01  0.32202675359E+02 -0.28621639660E+02  0.43400725118E+02  0.00000000000E+00 0.  1.
         11    1    3    3    0    0  0.97745796742E+00 -0.28244925454E+02  0.22894009758E+02  0.36371237551E+02  0.51100000000E-03 0. -1.
        -11    1    3    3    0    0 -0.47788552863E+00 -0.47978018856E+01  0.16069389365E+01  0.50822761159E+01  0.51100000000E-03 0.  1.
        -12    1    3    3    0    0  0.47361112491E+01  0.84005198029E+00  0.41206909653E+01  0.63337612147E+01  0.00000000000E+00 0.  1.
</event>
<event>
 7    1  0.5022032E-011  0.4778727E+02  0.7816164E-02  0.1312668E+00
        -11   -1    0    0    0    0  0.00000000000E+00  0.00000000000E+00  0.45593999997E+02  0.45594000000E+02  0.51100000000E-03 0. -1.
         11   -1    0    0    0    0 -0.00000000000E+00 -0.00000000000E+00 -0.45593999997E+02  0.45594000000E+02  0.51100000000E-03 0.  1.
    9900012    2    1    2    0    0  0.21263786024E+02  0.35855743984E+02 -0.12076429795E+02  0.47787272710E+02  0.20000007593E+02 0.  0.
         12    1    1    2    0    0 -0.21263786024E+02 -0.35855743984E+02  0.12076429795E+02  0.43400727290E+02  0.00000000000E+00 0. -1.
         11    1    3    3    0    0  0.40590997020E+01  0.13857953737E+02  0.14836006799E+01  0.14516206233E+02  0.51100000000E-03 0. -1.
        -11    1    3    3    0    0  0.14540615727E+02  0.20508110051E+02 -0.70951944286E+01  0.26121903985E+02  0.51100000000E-03 0.  1.
         12    1    3    3    0    0  0.26640705956E+01  0.14896801959E+01 -0.64648360461E+01  0.71491624914E+01  0.00000000000E+00 0. -1.
</event>
<event>
 7    1  0.5022032E-011  0.4778727E+02  0.7816164E-02  0.1312668E+00
        -11   -1    0    0    0    0  0.00000000000E+00  0.00000000000E+00  0.45593999997E+02  0.45594000000E+02  0.51100000000E-03 0. -1.
         11   -1    0    0    0    0 -0.00000000000E+00 -0.00000000000E+00 -0.45593999997E+02  0.45594000000E+02  0.51100000000E-03 0.  1.
    9900012    2    1    2    0    0  0.11357567929E+02 -0.30156635485E+02 -0.29072431858E+02  0.47787270661E+02  0.19999998250E+02 0.  0.
         12    1    1    2    0    0 -0.11357567929E+02  0.30156635485E+02  0.29072431858E+02  0.43400729339E+02  0.00000000000E+00 0. -1.
         11    1    3    3    0    0  0.46167574674E+01 -0.51568627404E+01 -0.89257142241E+01  0.11294957172E+02  0.51100000000E-03 0. -1.
        -11    1    3    3    0    0  0.29349110841E+01 -0.23404565450E+02 -0.21730804370E+02  0.32072032144E+02  0.51100000000E-03 0.  1.
         12    1    3    3    0    0  0.38058993774E+01 -0.15952072947E+01  0.15840867363E+01  0.44202813453E+01  0.00000000000E+00 0. -1.
</event>
<event>
 7    1  0.5022032E-011  0.4778727E+02  0.7816164E-02  0.1312668E+00
        -11   -1    0    0    0    0  0.00000000000E+00  0.00000000000E+00  0.45593999997E+02  0.45594000000E+02  0.51100000000E-03 0. -1.
         11   -1    0    0    0    0 -0.00000000000E+00 -0.00000000000E+00 -0.45593999997E+02  0.45594000000E+02  0.51100000000E-03 0.  1.
    9900012    2    1    2    0    0 -0.24702082491E+02  0.21728806258E+02 -0.28307055585E+02  0.47787270782E+02  0.19999998802E+02 0.  0.
         12    1    1    2    0    0  0.24702082491E+02 -0.21728806258E+02  0.28307055585E+02  0.43400729218E+02  0.00000000000E+00 0. -1.
         11    1    3    3    0    0 -0.58963395877E+01  0.11086741711E+01 -0.16438563084E+01  0.62207911695E+01  0.51100000000E-03 0. -1.
        -11    1    3    3    0    0 -0.15278116844E+02  0.15978546246E+02 -0.10677447216E+02  0.24550818189E+02  0.51100000000E-03 0.  1.
         12    1    3    3    0    0 -0.35276260597E+01  0.46415858408E+01 -0.15985752060E+02  0.17015661423E+02  0.00000000000E+00 0. -1.
</event>
<event>
 7    1  0.5022032E-011  0.4778731E+02  0.7816164E-02  0.1312668E+00
        -11   -1    0    0    0    0  0.00000000000E+00  0.00000000000E+00  0.45593999997E+02  0.45594000000E+02  0.51100000000E-03 0. -1.
         11   -1    0    0    0    0 -0.00000000000E+00 -0.00000000000E+00 -0.45593999997E+02  0.45594000000E+02  0.51100000000E-03 0.  1.
    9900012    2    1    2    0    0  0.17186900709E+02  0.15385517588E+02  0.36762976308E+02  0.47787307212E+02  0.20000164904E+02 0.  0.
        -12    1    1    2    0    0 -0.17186900709E+02 -0.15385517588E+02 -0.36762976308E+02  0.43400692788E+02  0.00000000000E+00 0.  1.
         11    1    3    3    0    0  0.66214819055E+01  0.37676500094E+01  0.20764107870E+02  0.22117580905E+02  0.51100000000E-03 0. -1.
        -11    1    3    3    0    0  0.55135879358E+01  0.11020250165E+02  0.16460299318E+02  0.20561785417E+02  0.51100000000E-03 0.  1.
        -12    1    3    3    0    0  0.50518308673E+01  0.59761741393E+00 -0.46143087956E+00  0.51079408906E+01  0.00000000000E+00 0.  1.
</event>
<event>
 7    1  0.5022032E-011  0.4778727E+02  0.7816164E-02  0.1312668E+00
        -11   -1    0    0    0    0  0.00000000000E+00  0.00000000000E+00  0.45593999997E+02  0.45594000000E+02  0.51100000000E-03 0. -1.
         11   -1    0    0    0    0 -0.00000000000E+00 -0.00000000000E+00 -0.45593999997E+02  0.45594000000E+02  0.51100000000E-03 0.  1.
    9900012    2    1    2    0    0  0.41738114486E+02  0.41136439939E+01  0.11163831078E+02  0.47787269682E+02  0.19999993789E+02 0.  0.
        -12    1    1    2    0    0 -0.41738114486E+02 -0.41136439939E+01 -0.11163831078E+02  0.43400730318E+02  0.00000000000E+00 0.  1.
         11    1    3    3    0    0  0.21966491856E+02  0.24776006754E+01  0.30918098856E+01  0.22320944384E+02  0.51100000000E-03 0. -1.
        -11    1    3    3    0    0  0.18908079644E+02 -0.30295560865E+01  0.49241083248E+01  0.19772216086E+02  0.51100000000E-03 0.  1.
        -12    1    3    3    0    0  0.86354298661E+00  0.46655994051E+01  0.31479128675E+01  0.56941092121E+01  0.00000000000E+00 0.  1.
</event>
<event>
 7    1  0.5022032E-011  0.4778727E+02  0.7816164E-02  0.1312668E+00
        -11   -1    0    0    0    0  0.00000000000E+00  0.00000000000E+00  0.45593999997E+02  0.45594000000E+02  0.51100000000E-03 0. -1.
         11   -1    0    0    0    0 -0.00000000000E+00 -0.00000000000E+00 -0.45593999997E+02  0.45594000000E+02  0.51100000000E-03 0.  1.
    9900012    2    1    2    0    0 -0.40280554594E+02  0.63291812690E+01 -0.14867472404E+02  0.47787270171E+02  0.19999996020E+02 0.  0.
        -12    1    1    2    0    0  0.40280554594E+02 -0.63291812690E+01  0.14867472404E+02  0.43400729829E+02  0.00000000000E+00 0.  1.
         11    1    3    3    0    0 -0.55025659158E+01  0.57298691186E+01 -0.75117074287E+00  0.79795920648E+01  0.51100000000E-03 0. -1.
        -11    1    3    3    0    0 -0.10107592857E+02  0.30673220825E+01  0.12531094020E+01  0.10636831368E+02  0.51100000000E-03 0.  1.
         12    1    3    3    0    0 -0.24670395821E+02 -0.24680099322E+01 -0.15369411063E+02  0.29170846738E+02  0.00000000000E+00 0. -1.
</event>
<event>
 7    1  0.5022032E-011  0.4778727E+02  0.7816164E-02  0.1312668E+00
        -11   -1    0    0    0    0  0.00000000000E+00  0.00000000000E+00  0.45593999997E+02  0.45594000000E+02  0.51100000000E-03 0.  1.
         11   -1    0    0    0    0 -0.00000000000E+00 -0.00000000000E+00 -0.45593999997E+02  0.45594000000E+02  0.51100000000E-03 0. -1.
    9900012    2    1    2    0    0  0.37434739396E+02 -0.17855673622E+02 -0.12784301374E+02  0.47787272405E+02  0.20000006204E+02 0.  0.
        -12    1    1    2    0    0 -0.37434739396E+02  0.17855673622E+02  0.12784301374E+02  0.43400727595E+02  0.00000000000E+00 0.  1.
         11    1    3    3    0    0  0.28467527856E+02 -0.88927308354E+01 -0.44637437283E+01  0.30156356084E+02  0.51100000000E-03 0. -1.
        -11    1    3    3    0    0  0.98070774439E+01 -0.41745924122E+01 -0.52551798024E+01  0.11883724366E+02  0.51100000000E-03 0.  1.
        -12    1    3    3    0    0 -0.83986590378E+00 -0.47883503743E+01 -0.30653778431E+01  0.57471919547E+01  0.00000000000E+00 0.  1.
</event>
<event>
 7    1  0.5022032E-011  0.4778727E+02  0.7816164E-02  0.1312668E+00
        -11   -1    0    0    0    0  0.00000000000E+00  0.00000000000E+00  0.45593999997E+02  0.45594000000E+02  0.51100000000E-03 0. -1.
         11   -1    0    0    0    0 -0.00000000000E+00 -0.00000000000E+00 -0.45593999997E+02  0.45594000000E+02  0.51100000000E-03 0.  1.
    9900012    2    1    2    0    0  0.11041333135E+02 -0.19184384332E+02 -0.37331910696E+02  0.47787271944E+02  0.20000004102E+02 0.  0.
         12    1    1    2    0    0 -0.11041333135E+02  0.19184384332E+02  0.37331910696E+02  0.43400728056E+02  0.00000000000E+00 0. -1.
         11    1    3    3    0    0  0.25091886959E+01 -0.46532348069E+01 -0.40423796545E+01  0.66550323524E+01  0.51100000000E-03 0. -1.
        -11    1    3    3    0    0  0.10197384129E+02 -0.70252892083E+01 -0.30560303250E+02  0.32973830025E+02  0.51100000000E-03 0.  1.
         12    1    3    3    0    0 -0.16652396906E+01 -0.75058603164E+01 -0.27292277916E+01  0.81584095665E+01  0.00000000000E+00 0. -1.
</event>
<event>
 7    1  0.5022032E-011  0.4778727E+02  0.7816164E-02  0.1312668E+00
        -11   -1    0    0    0    0  0.00000000000E+00  0.00000000000E+00  0.45593999997E+02  0.45594000000E+02  0.51100000000E-03 0. -1.
         11   -1    0    0    0    0 -0.00000000000E+00 -0.00000000000E+00 -0.45593999997E+02  0.45594000000E+02  0.51100000000E-03 0.  1.
    9900012    2    1    2    0    0  0.84735922054E+01 -0.93941251113E+01 -0.41515922881E+02  0.47787271848E+02  0.20000003663E+02 0.  0.
         12    1    1    2    0    0 -0.84735922054E+01  0.93941251113E+01  0.41515922881E+02  0.43400728152E+02  0.00000000000E+00 0. -1.
         11    1    3    3    0    0  0.38664604919E+01 -0.49470374863E-01 -0.99531048319E+01  0.10677839674E+02  0.51100000000E-03 0.  1.
        -11    1    3    3    0    0  0.73224078716E+01  0.90806988327E+00 -0.62695634119E+01  0.96824415096E+01  0.51100000000E-03 0. -1.
         12    1    3    3    0    0 -0.27152761581E+01 -0.10252724620E+02 -0.25293254637E+02  0.27426990664E+02  0.00000000000E+00 0. -1.
</event>
<event>
 7    1  0.5022032E-011  0.4778727E+02  0.7816164E-02  0.1312668E+00
        -11   -1    0    0    0    0  0.00000000000E+00  0.00000000000E+00  0.45593999997E+02  0.45594000000E+02  0.51100000000E-03 0. -1.
         11   -1    0    0    0    0 -0.00000000000E+00 -0.00000000000E+00 -0.45593999997E+02  0.45594000000E+02  0.51100000000E-03 0.  1.
    9900012    2    1    2    0    0 -0.28180236625E+01  0.62329523774E+01  0.42858287704E+02  0.47787265241E+02  0.19999973542E+02 0.  0.
        -12    1    1    2    0    0  0.28180236625E+01 -0.62329523774E+01 -0.42858287704E+02  0.43400734759E+02  0.00000000000E+00 0.  1.
         11    1    3    3    0    0 -0.12674010827E+01  0.17791437125E+00  0.46558111299E-01  0.12806744109E+01  0.51100000000E-03 0. -1.
        -11    1    3    3    0    0 -0.55380848368E+01  0.10629050109E+02  0.25885791350E+02  0.28525800321E+02  0.51100000000E-03 0.  1.
         12    1    3    3    0    0  0.39874622570E+01 -0.45740121029E+01  0.16925938242E+02  0.17980790509E+02  0.00000000000E+00 0. -1.
</event>
<event>
 7    1  0.5022032E-011  0.4778727E+02  0.7816164E-02  0.1312668E+00
        -11   -1    0    0    0    0  0.00000000000E+00  0.00000000000E+00  0.45593999997E+02  0.45594000000E+02  0.51100000000E-03 0. -1.
         11   -1    0    0    0    0 -0.00000000000E+00 -0.00000000000E+00 -0.45593999997E+02  0.45594000000E+02  0.51100000000E-03 0.  1.
    9900012    2    1    2    0    0  0.35264696537E+02 -0.25134433290E+02 -0.28782972964E+01  0.47787272426E+02  0.20000006298E+02 0.  0.
         12    1    1    2    0    0 -0.35264696537E+02  0.25134433290E+02  0.28782972964E+01  0.43400727574E+02  0.00000000000E+00 0. -1.
         11    1    3    3    0    0  0.21511322883E+02 -0.10508457357E+02 -0.33461406717E+01  0.24173567090E+02  0.51100000000E-03 0.  1.
        -11    1    3    3    0    0  0.35883430159E+01 -0.20787244790E+01 -0.50631098101E+01  0.65446453128E+01  0.51100000000E-03 0. -1.
        -12    1    3    3    0    0  0.10165030638E+02 -0.12547251455E+02  0.55309531855E+01  0.17069060023E+02  0.00000000000E+00 0.  1.
</event>
<event>
 7    1  0.5022032E-011  0.4778727E+02  0.7816164E-02  0.1312668E+00
        -11   -1    0    0    0    0  0.00000000000E+00  0.00000000000E+00  0.45593999997E+02  0.45594000000E+02  0.51100000000E-03 0. -1.
         11   -1    0    0    0    0 -0.00000000000E+00 -0.00000000000E+00 -0.45593999997E+02  0.45594000000E+02  0.51100000000E-03 0.  1.
    9900012    2    1    2    0    0  0.99596477172E+01  0.93567630944E+01 -0.41193198130E+02  0.47787272236E+02  0.20000005434E+02 0.  0.
         12    1    1    2    0    0 -0.99596477172E+01 -0.93567630944E+01  0.41193198130E+02  0.43400727764E+02  0.00000000000E+00 0. -1.
         11    1    3    3    0    0 -0.30550963826E+01  0.85410996125E+01 -0.22203427849E+02  0.23984916197E+02  0.51100000000E-03 0. -1.
        -11    1    3    3    0    0  0.89090194414E+00 -0.10518293191E+01 -0.50454579662E+01  0.52303630410E+01  0.51100000000E-03 0.  1.
         12    1    3    3    0    0  0.12123842156E+02  0.18674928010E+01 -0.13944312315E+02  0.18571992998E+02  0.00000000000E+00 0. -1.
</event>
<event>
 7    1  0.5022032E-011  0.4778727E+02  0.7816164E-02  0.1312668E+00
        -11   -1    0    0    0    0  0.00000000000E+00  0.00000000000E+00  0.45593999997E+02  0.45594000000E+02  0.51100000000E-03 0. -1.
         11   -1    0    0    0    0 -0.00000000000E+00 -0.00000000000E+00 -0.45593999997E+02  0.45594000000E+02  0.51100000000E-03 0.  1.
    9900012    2    1    2    0    0  0.27803252237E+02 -0.12089762183E+02  0.31055434764E+02  0.47787271746E+02  0.20000003199E+02 0.  0.
        -12    1    1    2    0    0 -0.27803252237E+02  0.12089762183E+02 -0.31055434764E+02  0.43400728254E+02  0.00000000000E+00 0.  1.
         11    1    3    3    0    0  0.19234225188E+02 -0.55980246815E+01  0.15013063974E+02  0.25033685087E+02  0.51100000000E-03 0. -1.
        -11    1    3    3    0    0  0.53239128511E+01 -0.51392817380E+01  0.11949483025E+01  0.74956098174E+01  0.51100000000E-03 0.  1.
        -12    1    3    3    0    0  0.32451141983E+01 -0.13524557631E+01  0.14847422488E+02  0.15257976842E+02  0.00000000000E+00 0.  1.
</event>
<event>
 7    1  0.5022032E-011  0.4778727E+02  0.7816164E-02  0.1312668E+00
        -11   -1    0    0    0    0  0.00000000000E+00  0.00000000000E+00  0.45593999997E+02  0.45594000000E+02  0.51100000000E-03 0. -1.
         11   -1    0    0    0    0 -0.00000000000E+00 -0.00000000000E+00 -0.45593999997E+02  0.45594000000E+02  0.51100000000E-03 0.  1.
    9900012    2    1    2    0    0 -0.15870015063E+02  0.24990956326E+01  0.40317743522E+02  0.47787270746E+02  0.19999998638E+02 0.  0.
        -12    1    1    2    0    0  0.15870015063E+02 -0.24990956326E+01 -0.40317743522E+02  0.43400729254E+02  0.00000000000E+00 0.  1.
         11    1    3    3    0    0 -0.16478809708E+01  0.70709715072E+01  0.13314037994E+02  0.15165017564E+02  0.51100000000E-03 0. -1.
        -11    1    3    3    0    0 -0.43520663848E+01  0.31158966223E+01  0.11620170297E+02  0.12793656693E+02  0.51100000000E-03 0.  1.
        -12    1    3    3    0    0 -0.98700677074E+01 -0.76877724969E+01  0.15383535231E+02  0.19828596489E+02  0.00000000000E+00 0.  1.
</event>
<event>
 7    1  0.5022032E-011  0.4778727E+02  0.7816164E-02  0.1312668E+00
        -11   -1    0    0    0    0  0.00000000000E+00  0.00000000000E+00  0.45593999997E+02  0.45594000000E+02  0.51100000000E-03 0. -1.
         11   -1    0    0    0    0 -0.00000000000E+00 -0.00000000000E+00 -0.45593999997E+02  0.45594000000E+02  0.51100000000E-03 0.  1.
    9900012    2    1    2    0    0  0.14294393441E+02 -0.89921104589E+01 -0.39980441190E+02  0.47787269452E+02  0.19999992740E+02 0.  0.
         12    1    1    2    0    0 -0.14294393441E+02  0.89921104589E+01  0.39980441190E+02  0.43400730548E+02  0.00000000000E+00 0. -1.
         11    1    3    3    0    0  0.95942783046E+01 -0.11892986160E+02 -0.23171009775E+02  0.27755882084E+02  0.51100000000E-03 0. -1.
        -11    1    3    3    0    0  0.55084633790E+01 -0.90939632021E+00 -0.14416934036E+02  0.15460212085E+02  0.51100000000E-03 0.  1.
        -12    1    3    3    0    0 -0.80834824214E+00  0.38102720216E+01 -0.23924973789E+01  0.45711752829E+01  0.00000000000E+00 0.  1.
</event>
<event>
 7    1  0.5022032E-011  0.4778727E+02  0.7816164E-02  0.1312668E+00
        -11   -1    0    0    0    0  0.00000000000E+00  0.00000000000E+00  0.45593999997E+02  0.45594000000E+02  0.51100000000E-03 0. -1.
         11   -1    0    0    0    0 -0.00000000000E+00 -0.00000000000E+00 -0.45593999997E+02  0.45594000000E+02  0.51100000000E-03 0.  1.
    9900012    2    1    2    0    0 -0.26662964486E+02 -0.17757063061E+02 -0.29281331421E+02  0.47787270357E+02  0.19999996868E+02 0.  0.
         12    1    1    2    0    0  0.26662964486E+02  0.17757063061E+02  0.29281331421E+02  0.43400729643E+02  0.00000000000E+00 0. -1.
         11    1    3    3    0    0 -0.12730210295E+02 -0.13392159356E+02 -0.11967000989E+02  0.22014025059E+02  0.51100000000E-03 0.  1.
        -11    1    3    3    0    0 -0.10676280368E+02 -0.75156675615E+01 -0.16703825211E+02  0.21201084838E+02  0.51100000000E-03 0. -1.
         12    1    3    3    0    0 -0.32564738231E+01  0.31507638570E+01 -0.61050522108E+00  0.45721604596E+01  0.00000000000E+00 0. -1.
</event>
<event>
 7    1  0.5392172E-011  0.4778727E+02  0.7816164E-02  0.1312668E+00
        -11   -1    0    0    0    0  0.00000000000E+00  0.00000000000E+00  0.45593999997E+02  0.45594000000E+02  0.51100000000E-03 0. -1.
         11   -1    0    0    0    0 -0.00000000000E+00 -0.00000000000E+00 -0.45593999997E+02  0.45594000000E+02  0.51100000000E-03 0.  1.
    9900012    2    1    2    0    0  0.42045407960E+02 -0.14826348396E+01 -0.10658757280E+02  0.47787266788E+02  0.19999980593E+02 0.  0.
         12    1    1    2    0    0 -0.42045407960E+02  0.14826348396E+01  0.10658757280E+02  0.43400733212E+02  0.00000000000E+00 0. -1.
         11    1    3    3    0    0 -0.89538467038E+00  0.56104182107E+00  0.36173789173E+00  0.11168420642E+01  0.51100000000E-03 0. -1.
        -11    1    3    3    0    0  0.18029220096E+02 -0.63226495462E+01 -0.24321348496E-01  0.19105739095E+02  0.51100000000E-03 0.  1.
        -12    1    3    3    0    0  0.24911572534E+02  0.42789728856E+01 -0.10996173824E+02  0.27564685629E+02  0.00000000000E+00 0.  1.
</event>
<event>
 7    1  0.5022032E-011  0.4778727E+02  0.7816164E-02  0.1312668E+00
        -11   -1    0    0    0    0  0.00000000000E+00  0.00000000000E+00  0.45593999997E+02  0.45594000000E+02  0.51100000000E-03 0.  1.
         11   -1    0    0    0    0 -0.00000000000E+00 -0.00000000000E+00 -0.45593999997E+02  0.45594000000E+02  0.51100000000E-03 0. -1.
    9900012    2    1    2    0    0 -0.11529267250E+02  0.31774109974E+02 -0.27223244779E+02  0.47787272768E+02  0.20000007859E+02 0.  0.
         12    1    1    2    0    0  0.11529267250E+02 -0.31774109974E+02  0.27223244779E+02  0.43400727232E+02  0.00000000000E+00 0. -1.
         11    1    3    3    0    0 -0.46101308415E+01  0.18739224312E+01 -0.70566721847E+01  0.86349009397E+01  0.51100000000E-03 0. -1.
        -11    1    3    3    0    0 -0.96856476874E+01  0.11901895850E+02 -0.95443363441E+01  0.18071005851E+02  0.51100000000E-03 0.  1.
        -12    1    3    3    0    0  0.27665112791E+01  0.17998291694E+02 -0.10622236250E+02  0.21081365978E+02  0.00000000000E+00 0.  1.
</event>
<event>
 7    1  0.5022032E-011  0.4778727E+02  0.7816164E-02  0.1312668E+00
        -11   -1    0    0    0    0  0.00000000000E+00  0.00000000000E+00  0.45593999997E+02  0.45594000000E+02  0.51100000000E-03 0. -1.
         11   -1    0    0    0    0 -0.00000000000E+00 -0.00000000000E+00 -0.45593999997E+02  0.45594000000E+02  0.51100000000E-03 0.  1.
    9900012    2    1    2    0    0 -0.27740561820E+02  0.18257646951E+02  0.27941776851E+02  0.47787270330E+02  0.19999996742E+02 0.  0.
        -12    1    1    2    0    0  0.27740561820E+02 -0.18257646951E+02 -0.27941776851E+02  0.43400729670E+02  0.00000000000E+00 0.  1.
         11    1    3    3    0    0  0.74258165193E+00  0.53582990808E+01  0.73804242261E+01  0.91505988092E+01  0.51100000000E-03 0. -1.
        -11    1    3    3    0    0 -0.36690269493E+01 -0.77901915392E+00  0.51835411511E+01  0.63982598199E+01  0.51100000000E-03 0.  1.
        -12    1    3    3    0    0 -0.24814116523E+02  0.13678367024E+02  0.15377811474E+02  0.32238411701E+02  0.00000000000E+00 0.  1.
</event>
<event>
 7    1  0.5022032E-011  0.4778727E+02  0.7816164E-02  0.1312668E+00
        -11   -1    0    0    0    0  0.00000000000E+00  0.00000000000E+00  0.45593999997E+02  0.45594000000E+02  0.51100000000E-03 0.  1.
         11   -1    0    0    0    0 -0.00000000000E+00 -0.00000000000E+00 -0.45593999997E+02  0.45594000000E+02  0.51100000000E-03 0. -1.
    9900012    2    1    2    0    0 -0.23355885758E+02 -0.28675942421E+02  0.22711582010E+02  0.47787273846E+02  0.20000012775E+02 0.  0.
        -12    1    1    2    0    0  0.23355885758E+02  0.28675942421E+02 -0.22711582010E+02  0.43400726154E+02  0.00000000000E+00 0.  1.
         11    1    3    3    0    0  0.72095733197E+00 -0.17655514661E+01  0.20551220460E+01  0.28036544614E+01  0.51100000000E-03 0. -1.
        -11    1    3    3    0    0 -0.17938169949E+01 -0.31338095442E+01  0.10106494048E+02  0.10732183556E+02  0.51100000000E-03 0.  1.
         12    1    3    3    0    0 -0.22283026095E+02 -0.23776581411E+02  0.10549965916E+02  0.34251435829E+02  0.00000000000E+00 0. -1.
</event>
<event>
 7    1  0.5022032E-011  0.4778727E+02  0.7816164E-02  0.1312668E+00
        -11   -1    0    0    0    0  0.00000000000E+00  0.00000000000E+00  0.45593999997E+02  0.45594000000E+02  0.51100000000E-03 0. -1.
         11   -1    0    0    0    0 -0.00000000000E+00 -0.00000000000E+00 -0.45593999997E+02  0.45594000000E+02  0.51100000000E-03 0.  1.
    9900012    2    1    2    0    0 -0.25905422590E+01 -0.13888646744E+02  0.41036785938E+02  0.47787271692E+02  0.20000002950E+02 0.  0.
        -12    1    1    2    0    0  0.25905422590E+01  0.13888646744E+02 -0.41036785938E+02  0.43400728308E+02  0.00000000000E+00 0.  1.
         11    1    3    3    0    0 -0.49107001931E+01 -0.92363353234E+01  0.17737316523E+02  0.20592165119E+02  0.51100000000E-03 0. -1.
        -11    1    3    3    0    0 -0.34222434056E+01 -0.65176291872E+01  0.16699421639E+02  0.18249984205E+02  0.51100000000E-03 0.  1.
        -12    1    3    3    0    0  0.57424013397E+01  0.18653177668E+01  0.66000477756E+01  0.89451223668E+01  0.00000000000E+00 0.  1.
</event>
<event>
 7    1  0.5022032E-011  0.4778727E+02  0.7816164E-02  0.1312668E+00
        -11   -1    0    0    0    0  0.00000000000E+00  0.00000000000E+00  0.45593999997E+02  0.45594000000E+02  0.51100000000E-03 0. -1.
         11   -1    0    0    0    0 -0.00000000000E+00 -0.00000000000E+00 -0.45593999997E+02  0.45594000000E+02  0.51100000000E-03 0.  1.
    9900012    2    1    2    0    0  0.11351641252E+02 -0.23102206874E+02 -0.34943547552E+02  0.47787271468E+02  0.20000001930E+02 0.  0.
         12    1    1    2    0    0 -0.11351641252E+02  0.23102206874E+02  0.34943547552E+02  0.43400728532E+02  0.00000000000E+00 0. -1.
         11    1    3    3    0    0  0.90133957956E+01 -0.77142270960E+01 -0.13431300382E+02  0.17920670570E+02  0.51100000000E-03 0. -1.
        -11    1    3    3    0    0  0.49917465675E+01 -0.70746799067E+01 -0.26036388048E+01  0.90414359956E+01  0.51100000000E-03 0.  1.
        -12    1    3    3    0    0 -0.26535011106E+01 -0.83132998717E+01 -0.18908608365E+02  0.20825164902E+02  0.00000000000E+00 0.  1.
</event>
<event>
 7    1  0.5022032E-011  0.4778728E+02  0.7816164E-02  0.1312668E+00
        -11   -1    0    0    0    0  0.00000000000E+00  0.00000000000E+00  0.45593999997E+02  0.45594000000E+02  0.51100000000E-03 0.  1.
         11   -1    0    0    0    0 -0.00000000000E+00 -0.00000000000E+00 -0.45593999997E+02  0.45594000000E+02  0.51100000000E-03 0. -1.
    9900012    2    1    2    0    0  0.30868312441E+02 -0.15484364390E+02  0.26286962676E+02  0.47787278114E+02  0.20000032231E+02 0.  0.
        -12    1    1    2    0    0 -0.30868312441E+02  0.15484364390E+02 -0.26286962676E+02  0.43400721886E+02  0.00000000000E+00 0.  1.
         11    1    3    3    0    0  0.23008941453E+01 -0.67009140633E+01  0.20692277670E+01  0.73809258880E+01  0.51100000000E-03 0. -1.
        -11    1    3    3    0    0  0.20973222372E+02 -0.11924132791E+02  0.18177566807E+02  0.30207365572E+02  0.51100000000E-03 0.  1.
        -12    1    3    3    0    0  0.75941959236E+01  0.31406824641E+01  0.60401681019E+01  0.10198986654E+02  0.00000000000E+00 0.  1.
</event>
<event>
 7    1  0.5022032E-011  0.4778727E+02  0.7816164E-02  0.1312668E+00
        -11   -1    0    0    0    0  0.00000000000E+00  0.00000000000E+00  0.45593999997E+02  0.45594000000E+02  0.51100000000E-03 0. -1.
         11   -1    0    0    0    0 -0.00000000000E+00 -0.00000000000E+00 -0.45593999997E+02  0.45594000000E+02  0.51100000000E-03 0.  1.
    9900012    2    1    2    0    0  0.25241327624E+02 -0.25926125107E+02  0.23965278457E+02  0.47787272416E+02  0.20000006253E+02 0.  0.
        -12    1    1    2    0    0 -0.25241327624E+02  0.25926125107E+02 -0.23965278457E+02  0.43400727584E+02  0.00000000000E+00 0.  1.
         11    1    3    3    0    0  0.60007021744E+01 -0.89587718561E+01  0.15928330630E+01  0.10899776933E+02  0.51100000000E-03 0. -1.
        -11    1    3    3    0    0  0.47104037905E+01  0.21109087777E+01  0.24657802424E+01  0.57204818156E+01  0.51100000000E-03 0.  1.
         12    1    3    3    0    0  0.14530221660E+02 -0.19078262029E+02  0.19906665151E+02  0.31167013668E+02  0.00000000000E+00 0. -1.
</event>
<event>
 7    1  0.5022032E-011  0.4778727E+02  0.7816164E-02  0.1312668E+00
        -11   -1    0    0    0    0  0.00000000000E+00  0.00000000000E+00  0.45593999997E+02  0.45594000000E+02  0.51100000000E-03 0.  1.
         11   -1    0    0    0    0 -0.00000000000E+00 -0.00000000000E+00 -0.45593999997E+02  0.45594000000E+02  0.51100000000E-03 0. -1.
    9900012    2    1    2    0    0 -0.15293092478E+01  0.34832040647E+02 -0.25845954778E+02  0.47787271656E+02  0.20000002788E+02 0.  0.
         12    1    1    2    0    0  0.15293092478E+01 -0.34832040647E+02  0.25845954778E+02  0.43400728344E+02  0.00000000000E+00 0. -1.
         11    1    3    3    0    0  0.21217243090E+01  0.12503286715E+01 -0.76153671064E+01  0.80036774208E+01  0.51100000000E-03 0. -1.
        -11    1    3    3    0    0  0.15996643681E+01  0.14349419670E+02 -0.12346034110E+02  0.18997087394E+02  0.51100000000E-03 0.  1.
         12    1    3    3    0    0 -0.52506979249E+01  0.19232292306E+02 -0.58845535613E+01  0.20786506841E+02  0.00000000000E+00 0. -1.
</event>
<event>
 7    1  0.5022032E-011  0.4778727E+02  0.7816164E-02  0.1312668E+00
        -11   -1    0    0    0    0  0.00000000000E+00  0.00000000000E+00  0.45593999997E+02  0.45594000000E+02  0.51100000000E-03 0. -1.
         11   -1    0    0    0    0 -0.00000000000E+00 -0.00000000000E+00 -0.45593999997E+02  0.45594000000E+02  0.51100000000E-03 0.  1.
    9900012    2    1    2    0    0 -0.33756207307E+02 -0.11185407727E+02 -0.24880276850E+02  0.47787273579E+02  0.20000011554E+02 0.  0.
         12    1    1    2    0    0  0.33756207307E+02  0.11185407727E+02  0.24880276850E+02  0.43400726421E+02  0.00000000000E+00 0. -1.
         11    1    3    3    0    0 -0.93355145914E+01 -0.48098097789E+01 -0.69735927002E+01  0.12606232514E+02  0.51100000000E-03 0. -1.
        -11    1    3    3    0    0 -0.11280190372E+02 -0.59023661422E+01 -0.17981101552E+02  0.22031809598E+02  0.51100000000E-03 0.  1.
         12    1    3    3    0    0 -0.13140502344E+02 -0.47323180549E+00  0.74417401774E-01  0.13149231466E+02  0.00000000000E+00 0. -1.
</event>
<event>
 7    1  0.5022032E-011  0.4778727E+02  0.7816164E-02  0.1312668E+00
        -11   -1    0    0    0    0  0.00000000000E+00  0.00000000000E+00  0.45593999997E+02  0.45594000000E+02  0.51100000000E-03 0. -1.
         11   -1    0    0    0    0 -0.00000000000E+00 -0.00000000000E+00 -0.45593999997E+02  0.45594000000E+02  0.51100000000E-03 0.  1.
    9900012    2    1    2    0    0 -0.62982519932E+01  0.21200390977E+02 -0.37342986596E+02  0.47787271853E+02  0.20000003689E+02 0.  0.
         12    1    1    2    0    0  0.62982519932E+01 -0.21200390977E+02  0.37342986596E+02  0.43400728147E+02  0.00000000000E+00 0. -1.
         11    1    3    3    0    0 -0.31631221400E+01  0.96600869730E+01 -0.59766166123E+01  0.11791631286E+02  0.51100000000E-03 0. -1.
        -11    1    3    3    0    0 -0.37169191586E+01  0.14326892782E+02 -0.25825281332E+02  0.29766096502E+02  0.51100000000E-03 0.  1.
         12    1    3    3    0    0  0.58178930537E+00 -0.27865887784E+01 -0.55410886514E+01  0.62295440651E+01  0.00000000000E+00 0. -1.
</event>
<event>
 7    1  0.5022032E-011  0.4778726E+02  0.7816164E-02  0.1312668E+00
        -11   -1    0    0    0    0  0.00000000000E+00  0.00000000000E+00  0.45593999997E+02  0.45594000000E+02  0.51100000000E-03 0. -1.
         11   -1    0    0    0    0 -0.00000000000E+00 -0.00000000000E+00 -0.45593999997E+02  0.45594000000E+02  0.51100000000E-03 0.  1.
    9900012    2    1    2    0    0  0.17697106398E+02  0.20958581191E+02 -0.33632943291E+02  0.47787256057E+02  0.19999931664E+02 0.  0.
         12    1    1    2    0    0 -0.17697106398E+02 -0.20958581191E+02  0.33632943291E+02  0.43400743943E+02  0.00000000000E+00 0. -1.
         11    1    3    3    0    0 -0.66888681030E+00  0.17430471085E+01 -0.10791647383E+02  0.10951953081E+02  0.51100000000E-03 0. -1.
        -11    1    3    3    0    0  0.56379429064E+00  0.25969848962E+01 -0.77309042554E+01  0.81749052239E+01  0.51100000000E-03 0.  1.
        -12    1    3    3    0    0  0.17802198918E+02  0.16618549187E+02 -0.15110391653E+02  0.28660397752E+02  0.00000000000E+00 0.  1.
</event>
<event>
 7    1  0.5022032E-011  0.4778727E+02  0.7816164E-02  0.1312668E+00
        -11   -1    0    0    0    0  0.00000000000E+00  0.00000000000E+00  0.45593999997E+02  0.45594000000E+02  0.51100000000E-03 0. -1.
         11   -1    0    0    0    0 -0.00000000000E+00 -0.00000000000E+00 -0.45593999997E+02  0.45594000000E+02  0.51100000000E-03 0.  1.
    9900012    2    1    2    0    0  0.52279334782E+01  0.34250033504E+02 -0.26138618800E+02  0.47787268713E+02  0.19999989371E+02 0.  0.
         12    1    1    2    0    0 -0.52279334782E+01 -0.34250033504E+02  0.26138618800E+02  0.43400731287E+02  0.00000000000E+00 0. -1.
         11    1    3    3    0    0 -0.16909936851E+01 -0.40515467162E+00 -0.35988233332E+01  0.39968912414E+01  0.51100000000E-03 0. -1.
        -11    1    3    3    0    0 -0.25270922356E+01  0.51975174891E+01 -0.72834666645E+01  0.92978099642E+01  0.51100000000E-03 0.  1.
         12    1    3    3    0    0  0.94460193989E+01  0.29457670686E+02 -0.15256328802E+02  0.34492567508E+02  0.00000000000E+00 0. -1.
</event>
<event>
 7    1  0.5022032E-011  0.4778727E+02  0.7816164E-02  0.1312668E+00
        -11   -1    0    0    0    0  0.00000000000E+00  0.00000000000E+00  0.45593999997E+02  0.45594000000E+02  0.51100000000E-03 0.  1.
         11   -1    0    0    0    0 -0.00000000000E+00 -0.00000000000E+00 -0.45593999997E+02  0.45594000000E+02  0.51100000000E-03 0. -1.
    9900012    2    1    2    0    0  0.17993512570E+02 -0.38492248960E+02  0.88432737963E+01  0.47787271710E+02  0.20000003037E+02 0.  0.
        -12    1    1    2    0    0 -0.17993512570E+02  0.38492248960E+02 -0.88432737963E+01  0.43400728290E+02  0.00000000000E+00 0.  1.
         11    1    3    3    0    0  0.36508244823E+00 -0.13956372953E+02  0.10126109513E+02  0.17246788840E+02  0.51100000000E-03 0. -1.
        -11    1    3    3    0    0  0.31249528528E+01 -0.25682294136E+01 -0.11917255964E+01  0.42167929533E+01  0.51100000000E-03 0.  1.
        -12    1    3    3    0    0  0.14503477269E+02 -0.21967646594E+02 -0.91110119859E-01  0.26323689917E+02  0.00000000000E+00 0.  1.
</event>
<event>
 7    1  0.5022032E-011  0.4778730E+02  0.7816164E-02  0.1312668E+00
        -11   -1    0    0    0    0  0.00000000000E+00  0.00000000000E+00  0.45593999997E+02  0.45594000000E+02  0.51100000000E-03 0. -1.
         11   -1    0    0    0    0 -0.00000000000E+00 -0.00000000000E+00 -0.45593999997E+02  0.45594000000E+02  0.51100000000E-03 0.  1.
    9900012    2    1    2    0    0 -0.15954508345E+02  0.10731847644E+02 -0.38908890743E+02  0.47787301051E+02  0.20000136813E+02 0.  0.
         12    1    1    2    0    0  0.15954508345E+02 -0.10731847644E+02  0.38908890743E+02  0.43400698949E+02  0.00000000000E+00 0. -1.
         11    1    3    3    0    0 -0.60474095034E+00  0.44502831143E+01 -0.10685182164E+01  0.46165423050E+01  0.51100000000E-03 0. -1.
        -11    1    3    3    0    0 -0.10345845018E+02 -0.20169179766E+00 -0.10971539769E+02  0.15081507679E+02  0.51100000000E-03 0.  1.
        -12    1    3    3    0    0 -0.50039223769E+01  0.64832563272E+01 -0.26868832757E+02  0.28089251067E+02  0.00000000000E+00 0.  1.
</event>
<event>
 7    1  0.5022032E-011  0.4778727E+02  0.7816164E-02  0.1312668E+00
        -11   -1    0    0    0    0  0.00000000000E+00  0.00000000000E+00  0.45593999997E+02  0.45594000000E+02  0.51100000000E-03 0. -1.
         11   -1    0    0    0    0 -0.00000000000E+00 -0.00000000000E+00 -0.45593999997E+02  0.45594000000E+02  0.51100000000E-03 0.  1.
    9900012    2    1    2    0    0 -0.28433229189E+02 -0.19502616077E+02 -0.26359487227E+02  0.47787272785E+02  0.20000007935E+02 0.  0.
         12    1    1    2    0    0  0.28433229189E+02  0.19502616077E+02  0.26359487227E+02  0.43400727215E+02  0.00000000000E+00 0. -1.
         11    1    3    3    0    0 -0.12801375446E+02 -0.64599859849E+01 -0.94392958107E+01  0.17167030550E+02  0.51100000000E-03 0. -1.
        -11    1    3    3    0    0 -0.16570258802E+02 -0.15504852417E+02 -0.13898107972E+02  0.26610737131E+02  0.51100000000E-03 0.  1.
         12    1    3    3    0    0  0.93840505859E+00  0.24622223250E+01 -0.30220834448E+01  0.40095051040E+01  0.00000000000E+00 0. -1.
</event>
<event>
 7    1  0.5022032E-011  0.4778729E+02  0.7816164E-02  0.1312668E+00
        -11   -1    0    0    0    0  0.00000000000E+00  0.00000000000E+00  0.45593999997E+02  0.45594000000E+02  0.51100000000E-03 0. -1.
         11   -1    0    0    0    0 -0.00000000000E+00 -0.00000000000E+00 -0.45593999997E+02  0.45594000000E+02  0.51100000000E-03 0.  1.
    9900012    2    1    2    0    0  0.64918029127E+01 -0.30889968465E+02  0.29787386445E+02  0.47787285166E+02  0.20000064388E+02 0.  0.
        -12    1    1    2    0    0 -0.64918029127E+01  0.30889968465E+02 -0.29787386445E+02  0.43400714834E+02  0.00000000000E+00 0.  1.
         11    1    3    3    0    0 -0.16341428386E+01 -0.98921018754E-02  0.25125481717E+01  0.29972352672E+01  0.51100000000E-03 0. -1.
        -11    1    3    3    0    0  0.17958302359E+01  0.12571495024E+01  0.41064849062E-01  0.21925140115E+01  0.51100000000E-03 0.  1.
        -12    1    3    3    0    0  0.63301155154E+01 -0.32137225865E+02  0.27233773425E+02  0.42597535888E+02  0.00000000000E+00 0.  1.
</event>
<event>
 7    1  0.5022032E-011  0.4778728E+02  0.7816164E-02  0.1312668E+00
        -11   -1    0    0    0    0  0.00000000000E+00  0.00000000000E+00  0.45593999997E+02  0.45594000000E+02  0.51100000000E-03 0. -1.
         11   -1    0    0    0    0 -0.00000000000E+00 -0.00000000000E+00 -0.45593999997E+02  0.45594000000E+02  0.51100000000E-03 0.  1.
    9900012    2    1    2    0    0 -0.19468634273E+02 -0.74030589612E+01  0.38076102269E+02  0.47787279194E+02  0.20000037157E+02 0.  0.
        -12    1    1    2    0    0  0.19468634273E+02  0.74030589612E+01 -0.38076102269E+02  0.43400720806E+02  0.00000000000E+00 0.  1.
         11    1    3    3    0    0 -0.10240945356E+01 -0.22452112802E+01  0.14808814370E+01  0.28779773110E+01  0.51100000000E-03 0. -1.
        -11    1    3    3    0    0  0.85380663665E+00  0.31895109703E+01  0.80307683684E+00  0.33980727875E+01  0.51100000000E-03 0.  1.
         12    1    3    3    0    0 -0.19298346374E+02 -0.83473586512E+01  0.35792143995E+02  0.41511229096E+02  0.00000000000E+00 0. -1.
</event>
<event>
 7    1  0.5022032E-011  0.4778722E+02  0.7816164E-02  0.1312668E+00
        -11   -1    0    0    0    0  0.00000000000E+00  0.00000000000E+00  0.45593999997E+02  0.45594000000E+02  0.51100000000E-03 0. -1.
         11   -1    0    0    0    0 -0.00000000000E+00 -0.00000000000E+00 -0.45593999997E+02  0.45594000000E+02  0.51100000000E-03 0.  1.
    9900012    2    1    2    0    0 -0.15844652508E+02 -0.32585130535E+02 -0.23891091440E+02  0.47787216651E+02  0.19999751999E+02 0.  0.
         12    1    1    2    0    0  0.15844652508E+02  0.32585130535E+02  0.23891091440E+02  0.43400783349E+02  0.00000000000E+00 0. -1.
         11    1    3    3    0    0 -0.74346049405E+01 -0.25679825163E+02 -0.18463505350E+02  0.32490426299E+02  0.51100000000E-03 0. -1.
        -11    1    3    3    0    0 -0.37875316377E+01 -0.79750634015E+01 -0.11404073068E+01  0.89021099325E+01  0.51100000000E-03 0.  1.
         12    1    3    3    0    0 -0.46225159298E+01  0.10697580289E+01 -0.42871787825E+01  0.63946804201E+01  0.00000000000E+00 0. -1.
</event>
<event>
 7    1  0.5022032E-011  0.4778726E+02  0.7816164E-02  0.1312668E+00
        -11   -1    0    0    0    0  0.00000000000E+00  0.00000000000E+00  0.45593999997E+02  0.45594000000E+02  0.51100000000E-03 0. -1.
         11   -1    0    0    0    0 -0.00000000000E+00 -0.00000000000E+00 -0.45593999997E+02  0.45594000000E+02  0.51100000000E-03 0.  1.
    9900012    2    1    2    0    0  0.67061200554E+01  0.11468508114E+02 -0.41317371184E+02  0.47787263991E+02  0.19999967841E+02 0.  0.
         12    1    1    2    0    0 -0.67061200554E+01 -0.11468508114E+02  0.41317371184E+02  0.43400736009E+02  0.00000000000E+00 0. -1.
         11    1    3    3    0    0 -0.24416050284E+01  0.39026635610E+01 -0.56783815782E+01  0.73100092745E+01  0.51100000000E-03 0. -1.
        -11    1    3    3    0    0  0.12468291521E+01  0.74797257407E+01 -0.56272439833E+01  0.94428150040E+01  0.51100000000E-03 0.  1.
        -12    1    3    3    0    0  0.79008959317E+01  0.86118812485E-01 -0.30011745622E+02  0.31034439713E+02  0.00000000000E+00 0.  1.
</event>
<event>
 7    1  0.5022032E-011  0.4778727E+02  0.7816164E-02  0.1312668E+00
        -11   -1    0    0    0    0  0.00000000000E+00  0.00000000000E+00  0.45593999997E+02  0.45594000000E+02  0.51100000000E-03 0. -1.
         11   -1    0    0    0    0 -0.00000000000E+00 -0.00000000000E+00 -0.45593999997E+02  0.45594000000E+02  0.51100000000E-03 0.  1.
    9900012    2    1    2    0    0 -0.77054034092E+01  0.11145507596E+02 -0.41231390935E+02  0.47787272129E+02  0.20000004946E+02 0.  0.
         12    1    1    2    0    0  0.77054034092E+01 -0.11145507596E+02  0.41231390935E+02  0.43400727871E+02  0.00000000000E+00 0. -1.
         11    1    3    3    0    0 -0.60086576229E+01  0.15889017424E+02 -0.28362463681E+02  0.33060462602E+02  0.51100000000E-03 0. -1.
        -11    1    3    3    0    0 -0.23150971544E+01 -0.94886822434E+00 -0.87135199368E+01  0.90656194323E+01  0.51100000000E-03 0.  1.
         12    1    3    3    0    0  0.61835136817E+00 -0.37946416041E+01 -0.41554073170E+01  0.56611900947E+01  0.00000000000E+00 0. -1.
</event>
<event>
 7    1  0.5022032E-011  0.4778727E+02  0.7816164E-02  0.1312668E+00
        -11   -1    0    0    0    0  0.00000000000E+00  0.00000000000E+00  0.45593999997E+02  0.45594000000E+02  0.51100000000E-03 0. -1.
         11   -1    0    0    0    0 -0.00000000000E+00 -0.00000000000E+00 -0.45593999997E+02  0.45594000000E+02  0.51100000000E-03 0.  1.
    9900012    2    1    2    0    0 -0.12136738212E+02  0.58627967193E+01  0.41254702341E+02  0.47787271147E+02  0.20000000466E+02 0.  0.
        -12    1    1    2    0    0  0.12136738212E+02 -0.58627967193E+01 -0.41254702341E+02  0.43400728853E+02  0.00000000000E+00 0.  1.
         11    1    3    3    0    0  0.91693103874E+00 -0.15024284613E+01  0.63423491100E+00  0.18709110066E+01  0.51100000000E-03 0. -1.
        -11    1    3    3    0    0 -0.43810917358E+01 -0.35145833020E+01  0.21796654595E+02  0.22508674159E+02  0.51100000000E-03 0.  1.
         12    1    3    3    0    0 -0.86725775147E+01  0.10879808483E+02  0.18823812835E+02  0.23407685981E+02  0.00000000000E+00 0. -1.
</event>
<event>
 7    1  0.5022032E-011  0.4778727E+02  0.7816164E-02  0.1312668E+00
        -11   -1    0    0    0    0  0.00000000000E+00  0.00000000000E+00  0.45593999997E+02  0.45594000000E+02  0.51100000000E-03 0. -1.
         11   -1    0    0    0    0 -0.00000000000E+00 -0.00000000000E+00 -0.45593999997E+02  0.45594000000E+02  0.51100000000E-03 0.  1.
    9900012    2    1    2    0    0 -0.58790139626E+01  0.23120943641E+02  0.36255788742E+02  0.47787273539E+02  0.20000011374E+02 0.  0.
        -12    1    1    2    0    0  0.58790139626E+01 -0.23120943641E+02 -0.36255788742E+02  0.43400726461E+02  0.00000000000E+00 0.  1.
         11    1    3    3    0    0 -0.89561483213E+00  0.66150720238E+01  0.40998731169E+01  0.78339175158E+01  0.51100000000E-03 0. -1.
        -11    1    3    3    0    0 -0.81828677767E+01  0.15803645945E+01  0.13268465477E+02  0.15668728528E+02  0.51100000000E-03 0.  1.
         12    1    3    3    0    0  0.31994686463E+01  0.14925507022E+02  0.18887450148E+02  0.24284627495E+02  0.00000000000E+00 0. -1.
</event>
<event>
 7    1  0.5022032E-011  0.4778727E+02  0.7816164E-02  0.1312668E+00
        -11   -1    0    0    0    0  0.00000000000E+00  0.00000000000E+00  0.45593999997E+02  0.45594000000E+02  0.51100000000E-03 0. -1.
         11   -1    0    0    0    0 -0.00000000000E+00 -0.00000000000E+00 -0.45593999997E+02  0.45594000000E+02  0.51100000000E-03 0.  1.
    9900012    2    1    2    0    0 -0.27090546674E+01  0.32198862980E+01  0.43196258344E+02  0.47787269823E+02  0.19999994430E+02 0.  0.
        -12    1    1    2    0    0  0.27090546674E+01 -0.32198862980E+01 -0.43196258344E+02  0.43400730177E+02  0.00000000000E+00 0.  1.
         11    1    3    3    0    0 -0.52348772027E+01  0.29580514447E+01  0.23359620362E+02  0.24121066963E+02  0.51100000000E-03 0. -1.
        -11    1    3    3    0    0  0.13411871456E+01 -0.54946079438E+01  0.15078818232E+02  0.16104665751E+02  0.51100000000E-03 0.  1.
         12    1    3    3    0    0  0.11846353897E+01  0.57564427971E+01  0.47578197497E+01  0.75615371092E+01  0.00000000000E+00 0. -1.
</event>
<event>
 7    1  0.5022032E-011  0.4778727E+02  0.7816164E-02  0.1312668E+00
        -11   -1    0    0    0    0  0.00000000000E+00  0.00000000000E+00  0.45593999997E+02  0.45594000000E+02  0.51100000000E-03 0. -1.
         11   -1    0    0    0    0 -0.00000000000E+00 -0.00000000000E+00 -0.45593999997E+02  0.45594000000E+02  0.51100000000E-03 0.  1.
    9900012    2    1    2    0    0 -0.35875246743E+02 -0.91362473064E+01 -0.22652128892E+02  0.47787270893E+02  0.19999999308E+02 0.  0.
         12    1    1    2    0    0  0.35875246743E+02  0.91362473064E+01  0.22652128892E+02  0.43400729107E+02  0.00000000000E+00 0. -1.
         11    1    3    3    0    0 -0.17959431014E+01 -0.10793970628E+01 -0.51135216938E+01  0.55261753516E+01  0.51100000000E-03 0. -1.
        -11    1    3    3    0    0 -0.18756652735E+02  0.16077295465E+01 -0.14784555377E+02  0.23936998435E+02  0.51100000000E-03 0.  1.
        -12    1    3    3    0    0 -0.15322650906E+02 -0.96645797901E+01 -0.27540518212E+01  0.18324097106E+02  0.00000000000E+00 0.  1.
</event>
<event>
 7    1  0.5022032E-011  0.4778726E+02  0.7816164E-02  0.1312668E+00
        -11   -1    0    0    0    0  0.00000000000E+00  0.00000000000E+00  0.45593999997E+02  0.45594000000E+02  0.51100000000E-03 0. -1.
         11   -1    0    0    0    0 -0.00000000000E+00 -0.00000000000E+00 -0.45593999997E+02  0.45594000000E+02  0.51100000000E-03 0.  1.
    9900012    2    1    2    0    0 -0.18587127187E+02 -0.25732804414E+01  0.39134659431E+02  0.47787255328E+02  0.19999928341E+02 0.  0.
        -12    1    1    2    0    0  0.18587127187E+02  0.25732804414E+01 -0.39134659431E+02  0.43400744672E+02  0.00000000000E+00 0.  1.
         11    1    3    3    0    0  0.17293801230E+01 -0.47401985029E+00  0.10895338857E+02  0.11041913761E+02  0.51100000000E-03 0. -1.
        -11    1    3    3    0    0 -0.12333227880E+02 -0.21679548446E+01  0.76787425011E+01  0.14689166920E+02  0.51100000000E-03 0.  1.
         12    1    3    3    0    0 -0.79832794304E+01  0.68694253519E-01  0.20560578073E+02  0.22056174647E+02  0.00000000000E+00 0. -1.
</event>
<event>
 7    1  0.5022032E-011  0.4778726E+02  0.7816164E-02  0.1312668E+00
        -11   -1    0    0    0    0  0.00000000000E+00  0.00000000000E+00  0.45593999997E+02  0.45594000000E+02  0.51100000000E-03 0. -1.
         11   -1    0    0    0    0 -0.00000000000E+00 -0.00000000000E+00 -0.45593999997E+02  0.45594000000E+02  0.51100000000E-03 0.  1.
    9900012    2    1    2    0    0  0.19071854829E+02 -0.12653559604E+02 -0.36875135444E+02  0.47787264623E+02  0.19999970721E+02 0.  0.
         12    1    1    2    0    0 -0.19071854829E+02  0.12653559604E+02  0.36875135444E+02  0.43400735377E+02  0.00000000000E+00 0. -1.
         11    1    3    3    0    0 -0.53244892047E+00 -0.99452121904E+00 -0.10631654595E+02  0.10691335463E+02  0.51100000000E-03 0. -1.
        -11    1    3    3    0    0  0.37079077959E+01 -0.84396879743E+01 -0.53928864222E+01  0.10679894080E+02  0.51100000000E-03 0.  1.
        -12    1    3    3    0    0  0.15896395954E+02 -0.32193504109E+01 -0.20850594427E+02  0.26416035080E+02  0.00000000000E+00 0.  1.
</event>
<event>
 7    1  0.5022032E-011  0.4778727E+02  0.7816164E-02  0.1312668E+00
        -11   -1    0    0    0    0  0.00000000000E+00  0.00000000000E+00  0.45593999997E+02  0.45594000000E+02  0.51100000000E-03 0.  1.
         11   -1    0    0    0    0 -0.00000000000E+00 -0.00000000000E+00 -0.45593999997E+02  0.45594000000E+02  0.51100000000E-03 0. -1.
    9900012    2    1    2    0    0 -0.35253665277E+02  0.24097865851E+02 -0.77521075024E+01  0.47787271610E+02  0.20000002578E+02 0.  0.
         12    1    1    2    0    0  0.35253665277E+02 -0.24097865851E+02  0.77521075024E+01  0.43400728390E+02  0.00000000000E+00 0. -1.
         11    1    3    3    0    0 -0.14363112680E+02  0.21153592630E+02 -0.67284549272E+01  0.26439470362E+02  0.51100000000E-03 0. -1.
        -11    1    3    3    0    0 -0.47684208184E+01  0.19821321385E+01  0.92872554142E-02  0.51639879386E+01  0.51100000000E-03 0.  1.
         12    1    3    3    0    0 -0.16122131779E+02  0.96214108223E+00 -0.10329398306E+01  0.16183813310E+02  0.00000000000E+00 0. -1.
</event>
<event>
 7    1  0.5022032E-011  0.4778727E+02  0.7816164E-02  0.1312668E+00
        -11   -1    0    0    0    0  0.00000000000E+00  0.00000000000E+00  0.45593999997E+02  0.45594000000E+02  0.51100000000E-03 0. -1.
         11   -1    0    0    0    0 -0.00000000000E+00 -0.00000000000E+00 -0.45593999997E+02  0.45594000000E+02  0.51100000000E-03 0.  1.
    9900012    2    1    2    0    0  0.15521109664E+02  0.26131979865E+02  0.30981259990E+02  0.47787266280E+02  0.19999978279E+02 0.  0.
        -12    1    1    2    0    0 -0.15521109664E+02 -0.26131979865E+02 -0.30981259990E+02  0.43400733720E+02  0.00000000000E+00 0.  1.
         11    1    3    3    0    0  0.12844821997E+02  0.27475309392E+02  0.30929422422E+02  0.43318717085E+02  0.51100000000E-03 0. -1.
        -11    1    3    3    0    0 -0.33823410740E+00  0.51120116551E+00 -0.61351592364E+00  0.86725486030E+00  0.51100000000E-03 0.  1.
         12    1    3    3    0    0  0.30145217742E+01 -0.18545306928E+01  0.66535349177E+00  0.36012943349E+01  0.00000000000E+00 0. -1.
</event>
<event>
 7    1  0.5022032E-011  0.4778727E+02  0.7816164E-02  0.1312668E+00
        -11   -1    0    0    0    0  0.00000000000E+00  0.00000000000E+00  0.45593999997E+02  0.45594000000E+02  0.51100000000E-03 0. -1.
         11   -1    0    0    0    0 -0.00000000000E+00 -0.00000000000E+00 -0.45593999997E+02  0.45594000000E+02  0.51100000000E-03 0.  1.
    9900012    2    1    2    0    0  0.10729561291E+02 -0.62699972129E+01  0.41583493384E+02  0.47787271060E+02  0.20000000069E+02 0.  0.
        -12    1    1    2    0    0 -0.10729561291E+02  0.62699972129E+01 -0.41583493384E+02  0.43400728940E+02  0.00000000000E+00 0.  1.
         11    1    3    3    0    0  0.49872821037E+01 -0.70909389664E+01  0.59853088292E+01  0.10534624827E+02  0.51100000000E-03 0. -1.
        -11    1    3    3    0    0 -0.22674166193E+01 -0.33288265646E+00  0.14037199372E+02  0.14223043115E+02  0.51100000000E-03 0.  1.
        -12    1    3    3    0    0  0.80096958064E+01  0.11538244100E+01  0.21560985183E+02  0.23029603117E+02  0.00000000000E+00 0.  1.
</event>
<event>
 7    1  0.5022032E-011  0.4778727E+02  0.7816164E-02  0.1312668E+00
        -11   -1    0    0    0    0  0.00000000000E+00  0.00000000000E+00  0.45593999997E+02  0.45594000000E+02  0.51100000000E-03 0. -1.
         11   -1    0    0    0    0 -0.00000000000E+00 -0.00000000000E+00 -0.45593999997E+02  0.45594000000E+02  0.51100000000E-03 0.  1.
    9900012    2    1    2    0    0 -0.25143678853E+02 -0.16210716275E+02 -0.31442512396E+02  0.47787268507E+02  0.19999988429E+02 0.  0.
         12    1    1    2    0    0  0.25143678853E+02  0.16210716275E+02  0.31442512396E+02  0.43400731493E+02  0.00000000000E+00 0. -1.
         11    1    3    3    0    0 -0.14128192355E+02 -0.98052437544E+01 -0.91701887434E+01  0.19489509643E+02  0.51100000000E-03 0. -1.
        -11    1    3    3    0    0 -0.44022927304E+01 -0.84611697034E+01 -0.80578720743E+01  0.12486027257E+02  0.51100000000E-03 0.  1.
        -12    1    3    3    0    0 -0.66131937683E+01  0.20556971828E+01 -0.14214451578E+02  0.15811731606E+02  0.00000000000E+00 0.  1.
</event>
<event>
 7    1  0.5022032E-011  0.4778728E+02  0.7816164E-02  0.1312668E+00
        -11   -1    0    0    0    0  0.00000000000E+00  0.00000000000E+00  0.45593999997E+02  0.45594000000E+02  0.51100000000E-03 0.  1.
         11   -1    0    0    0    0 -0.00000000000E+00 -0.00000000000E+00 -0.45593999997E+02  0.45594000000E+02  0.51100000000E-03 0. -1.
    9900012    2    1    2    0    0 -0.27397749530E+02 -0.32757669366E+02  0.77408805943E+01  0.47787276343E+02  0.20000024158E+02 0.  0.
        -12    1    1    2    0    0  0.27397749530E+02  0.32757669366E+02 -0.77408805943E+01  0.43400723657E+02  0.00000000000E+00 0.  1.
         11    1    3    3    0    0 -0.17297974641E+02 -0.24806977764E+02  0.87584307199E+01  0.31485173994E+02  0.51100000000E-03 0. -1.
        -11    1    3    3    0    0 -0.20872099877E+01 -0.63083963116E+01  0.28797363486E+01  0.72419052227E+01  0.51100000000E-03 0.  1.
        -12    1    3    3    0    0 -0.80125649009E+01 -0.16422952900E+01 -0.38972864742E+01  0.90601971266E+01  0.00000000000E+00 0.  1.
</event>
<event>
 7    1  0.5022032E-011  0.4778726E+02  0.7816164E-02  0.1312668E+00
        -11   -1    0    0    0    0  0.00000000000E+00  0.00000000000E+00  0.45593999997E+02  0.45594000000E+02  0.51100000000E-03 0. -1.
         11   -1    0    0    0    0 -0.00000000000E+00 -0.00000000000E+00 -0.45593999997E+02  0.45594000000E+02  0.51100000000E-03 0.  1.
    9900012    2    1    2    0    0  0.68080959639E+01  0.54275675693E+01 -0.42518411002E+02  0.47787263434E+02  0.19999965301E+02 0.  0.
         12    1    1    2    0    0 -0.68080959639E+01 -0.54275675693E+01  0.42518411002E+02  0.43400736566E+02  0.00000000000E+00 0. -1.
         11    1    3    3    0    0 -0.47005544212E+00  0.15463919145E+01 -0.10979154299E+02  0.11097482123E+02  0.51100000000E-03 0. -1.
        -11    1    3    3    0    0 -0.15640396874E+01  0.41143754957E+01 -0.25738354552E+02  0.26112012583E+02  0.51100000000E-03 0.  1.
         12    1    3    3    0    0  0.88421910934E+01 -0.23319984091E+00 -0.58009021504E+01  0.10577768728E+02  0.00000000000E+00 0. -1.
</event>
<event>
 7    1  0.5022032E-011  0.4778727E+02  0.7816164E-02  0.1312668E+00
        -11   -1    0    0    0    0  0.00000000000E+00  0.00000000000E+00  0.45593999997E+02  0.45594000000E+02  0.51100000000E-03 0. -1.
         11   -1    0    0    0    0 -0.00000000000E+00 -0.00000000000E+00 -0.45593999997E+02  0.45594000000E+02  0.51100000000E-03 0.  1.
    9900012    2    1    2    0    0 -0.44206552849E+01 -0.41895386533E+01 -0.42971254093E+02  0.47787272983E+02  0.20000008839E+02 0.  0.
         12    1    1    2    0    0  0.44206552849E+01  0.41895386533E+01  0.42971254093E+02  0.43400727017E+02  0.00000000000E+00 0. -1.
         11    1    3    3    0    0  0.29846819030E+01 -0.56730345679E+01 -0.22468854302E+02  0.23365381683E+02  0.51100000000E-03 0. -1.
        -11    1    3    3    0    0 -0.85071625281E+00 -0.43233123870E+01 -0.83756539261E+01  0.94639488106E+01  0.51100000000E-03 0.  1.
        -12    1    3    3    0    0 -0.65546209352E+01  0.58068083016E+01 -0.12126745865E+02  0.14957942490E+02  0.00000000000E+00 0.  1.
</event>
<event>
 7    1  0.5022032E-011  0.4778724E+02  0.7816164E-02  0.1312668E+00
        -11   -1    0    0    0    0  0.00000000000E+00  0.00000000000E+00  0.45593999997E+02  0.45594000000E+02  0.51100000000E-03 0. -1.
         11   -1    0    0    0    0 -0.00000000000E+00 -0.00000000000E+00 -0.45593999997E+02  0.45594000000E+02  0.51100000000E-03 0.  1.
    9900012    2    1    2    0    0  0.21019523217E+02 -0.10526651291E+02 -0.36482801374E+02  0.47787244940E+02  0.19999880979E+02 0.  0.
         12    1    1    2    0    0 -0.21019523217E+02  0.10526651291E+02  0.36482801374E+02  0.43400755060E+02  0.00000000000E+00 0. -1.
         11    1    3    3    0    0  0.13485670339E+02  0.18315408168E+01 -0.79998149125E+01  0.15786541266E+02  0.51100000000E-03 0. -1.
        -11    1    3    3    0    0  0.27807586089E+01 -0.31668141686E+01 -0.74239141334E+01  0.85367342550E+01  0.51100000000E-03 0.  1.
         12    1    3    3    0    0  0.47530942689E+01 -0.91913779395E+01 -0.21059072328E+02  0.23463969419E+02  0.00000000000E+00 0. -1.
</event>
<event>
 7    1  0.5022032E-011  0.4778727E+02  0.7816164E-02  0.1312668E+00
        -11   -1    0    0    0    0  0.00000000000E+00  0.00000000000E+00  0.45593999997E+02  0.45594000000E+02  0.51100000000E-03 0.  1.
         11   -1    0    0    0    0 -0.00000000000E+00 -0.00000000000E+00 -0.45593999997E+02  0.45594000000E+02  0.51100000000E-03 0. -1.
    9900012    2    1    2    0    0 -0.12466835944E+02  0.39937083211E+02 -0.11542571317E+02  0.47787267674E+02  0.19999984632E+02 0.  0.
        -12    1    1    2    0    0  0.12466835944E+02 -0.39937083211E+02  0.11542571317E+02  0.43400732326E+02  0.00000000000E+00 0.  1.
         11    1    3    3    0    0 -0.99636239154E+01  0.16184642875E+02 -0.70911281230E+01  0.20285476697E+02  0.51100000000E-03 0. -1.
        -11    1    3    3    0    0 -0.76128435633E-01  0.11888263885E+02 -0.86307281777E+01  0.14691020485E+02  0.51100000000E-03 0.  1.
        -12    1    3    3    0    0 -0.24270835933E+01  0.11864176450E+02  0.41792849835E+01  0.12810770492E+02  0.00000000000E+00 0.  1.
</event>
<event>
 7    1  0.5022032E-011  0.4778727E+02  0.7816164E-02  0.1312668E+00
        -11   -1    0    0    0    0  0.00000000000E+00  0.00000000000E+00  0.45593999997E+02  0.45594000000E+02  0.51100000000E-03 0. -1.
         11   -1    0    0    0    0 -0.00000000000E+00 -0.00000000000E+00 -0.45593999997E+02  0.45594000000E+02  0.51100000000E-03 0.  1.
    9900012    2    1    2    0    0 -0.57726242295E+01 -0.58101057375E+01  0.42620924557E+02  0.47787265799E+02  0.19999976082E+02 0.  0.
        -12    1    1    2    0    0  0.57726242295E+01  0.58101057375E+01 -0.42620924557E+02  0.43400734201E+02  0.00000000000E+00 0.  1.
         11    1    3    3    0    0  0.45301870294E+01  0.20366842728E+01  0.50773696508E+01  0.71028416975E+01  0.51100000000E-03 0. -1.
        -11    1    3    3    0    0 -0.70377672496E+01 -0.74792627440E-01  0.20407445136E+02  0.21587023395E+02  0.51100000000E-03 0.  1.
        -12    1    3    3    0    0 -0.32650440093E+01 -0.77719973828E+01  0.17136109769E+02  0.19097400706E+02  0.00000000000E+00 0.  1.
</event>
<event>
 7    1  0.5022032E-011  0.4778727E+02  0.7816164E-02  0.1312668E+00
        -11   -1    0    0    0    0  0.00000000000E+00  0.00000000000E+00  0.45593999997E+02  0.45594000000E+02  0.51100000000E-03 0. -1.
         11   -1    0    0    0    0 -0.00000000000E+00 -0.00000000000E+00 -0.45593999997E+02  0.45594000000E+02  0.51100000000E-03 0.  1.
    9900012    2    1    2    0    0  0.38731843151E+02  0.17488490529E+02  0.88102412742E+01  0.47787270442E+02  0.19999997254E+02 0.  0.
        -12    1    1    2    0    0 -0.38731843151E+02 -0.17488490529E+02 -0.88102412742E+01  0.43400729558E+02  0.00000000000E+00 0.  1.
         11    1    3    3    0    0  0.74330086698E+01  0.68343339599E+01  0.71887939556E+01  0.12395019054E+02  0.51100000000E-03 0. -1.
        -11    1    3    3    0    0  0.49853996965E+01  0.18872608176E+01  0.51757757621E+01  0.74299810584E+01  0.51100000000E-03 0.  1.
        -12    1    3    3    0    0  0.26313434785E+02  0.87668957512E+01 -0.35543284435E+01  0.27962270329E+02  0.00000000000E+00 0.  1.
</event>
<event>
 7    1  0.5022032E-011  0.4778727E+02  0.7816164E-02  0.1312668E+00
        -11   -1    0    0    0    0  0.00000000000E+00  0.00000000000E+00  0.45593999997E+02  0.45594000000E+02  0.51100000000E-03 0. -1.
         11   -1    0    0    0    0 -0.00000000000E+00 -0.00000000000E+00 -0.45593999997E+02  0.45594000000E+02  0.51100000000E-03 0.  1.
    9900012    2    1    2    0    0  0.14789633872E+02 -0.52656570086E+01  0.40461868277E+02  0.47787271916E+02  0.20000003974E+02 0.  0.
        -12    1    1    2    0    0 -0.14789633872E+02  0.52656570086E+01 -0.40461868277E+02  0.43400728084E+02  0.00000000000E+00 0.  1.
         11    1    3    3    0    0  0.10634969883E+02 -0.66872731619E+01  0.36539239741E+02  0.38638559081E+02  0.51100000000E-03 0. -1.
        -11    1    3    3    0    0  0.42423857739E+01 -0.11951827886E+01 -0.29907840062E-01  0.44076290330E+01  0.51100000000E-03 0.  1.
         12    1    3    3    0    0 -0.87721785624E-01  0.26167989419E+01  0.39525363757E+01  0.47410838018E+01  0.00000000000E+00 0. -1.
</event>
<event>
 7    1  0.6332715E-011  0.4778727E+02  0.7816164E-02  0.1312668E+00
        -11   -1    0    0    0    0  0.00000000000E+00  0.00000000000E+00  0.45593999997E+02  0.45594000000E+02  0.51100000000E-03 0. -1.
         11   -1    0    0    0    0 -0.00000000000E+00 -0.00000000000E+00 -0.45593999997E+02  0.45594000000E+02  0.51100000000E-03 0.  1.
    9900012    2    1    2    0    0 -0.71033262572E+01  0.53018560029E+01 -0.42485954358E+02  0.47787271450E+02  0.20000001848E+02 0.  0.
         12    1    1    2    0    0  0.71033262572E+01 -0.53018560029E+01  0.42485954358E+02  0.43400728550E+02  0.00000000000E+00 0. -1.
         11    1    3    3    0    0  0.30850466673E+01 -0.29670306075E+01 -0.96167429344E+01  0.10526277998E+02  0.51100000000E-03 0. -1.
        -11    1    3    3    0    0 -0.54232565915E+01 -0.37173304916E+00 -0.39916818416E+01  0.67441398045E+01  0.51100000000E-03 0.  1.
        -12    1    3    3    0    0 -0.47651163330E+01  0.86406196596E+01 -0.28877529582E+02  0.30516853647E+02  0.00000000000E+00 0.  1.
</event>
<event>
 7    1  0.5022032E-011  0.4778727E+02  0.7816164E-02  0.1312668E+00
        -11   -1    0    0    0    0  0.00000000000E+00  0.00000000000E+00  0.45593999997E+02  0.45594000000E+02  0.51100000000E-03 0.  1.
         11   -1    0    0    0    0 -0.00000000000E+00 -0.00000000000E+00 -0.45593999997E+02  0.45594000000E+02  0.51100000000E-03 0. -1.
    9900012    2    1    2    0    0 -0.40532490640E+02 -0.24937152182E+01 -0.15314097784E+02  0.47787274154E+02  0.20000014176E+02 0.  0.
         12    1    1    2    0    0  0.40532490640E+02  0.24937152182E+01  0.15314097784E+02  0.43400725846E+02  0.00000000000E+00 0. -1.
         11    1    3    3    0    0 -0.20583569074E+02 -0.63863016649E+01 -0.46505040940E+01  0.22047570237E+02  0.51100000000E-03 0.  1.
        -11    1    3    3    0    0 -0.17601885959E+01 -0.33668317153E+01 -0.23274370016E+01  0.44554217477E+01  0.51100000000E-03 0. -1.
         12    1    3    3    0    0 -0.18188732970E+02  0.72594181620E+01 -0.83361566882E+01  0.21284282169E+02  0.00000000000E+00 0. -1.
</event>
<event>
 7    1  0.5022032E-011  0.4778726E+02  0.7816164E-02  0.1312668E+00
        -11   -1    0    0    0    0  0.00000000000E+00  0.00000000000E+00  0.45593999997E+02  0.45594000000E+02  0.51100000000E-03 0.  1.
         11   -1    0    0    0    0 -0.00000000000E+00 -0.00000000000E+00 -0.45593999997E+02  0.45594000000E+02  0.51100000000E-03 0. -1.
    9900012    2    1    2    0    0  0.39223454649E+02 -0.16346111387E+02 -0.88288804321E+01  0.47787264041E+02  0.19999968070E+02 0.  0.
         12    1    1    2    0    0 -0.39223454649E+02  0.16346111387E+02  0.88288804321E+01  0.43400735959E+02  0.00000000000E+00 0. -1.
         11    1    3    3    0    0  0.72704237548E+01 -0.84230511019E+01  0.29109403706E+01  0.11501322774E+02  0.51100000000E-03 0. -1.
        -11    1    3    3    0    0  0.17282408852E+02 -0.89586424115E+01 -0.49425704541E+01  0.20084021822E+02  0.51100000000E-03 0.  1.
         12    1    3    3    0    0  0.14670622042E+02  0.10355821260E+01 -0.67972503486E+01  0.16201919446E+02  0.00000000000E+00 0. -1.
</event>
<event>
 7    1  0.5022032E-011  0.4778727E+02  0.7816164E-02  0.1312668E+00
        -11   -1    0    0    0    0  0.00000000000E+00  0.00000000000E+00  0.45593999997E+02  0.45594000000E+02  0.51100000000E-03 0. -1.
         11   -1    0    0    0    0 -0.00000000000E+00 -0.00000000000E+00 -0.45593999997E+02  0.45594000000E+02  0.51100000000E-03 0.  1.
    9900012    2    1    2    0    0  0.37331998277E+02 -0.58406270870E+01  0.21350225425E+02  0.47787272520E+02  0.20000006727E+02 0.  0.
        -12    1    1    2    0    0 -0.37331998277E+02  0.58406270870E+01 -0.21350225425E+02  0.43400727480E+02  0.00000000000E+00 0.  1.
         11    1    3    3    0    0  0.13503222772E+02 -0.34657867704E+01  0.15328825765E+02  0.20720077287E+02  0.51100000000E-03 0. -1.
        -11    1    3    3    0    0  0.12837293527E+02 -0.64577489609E+01  0.53120183082E+01  0.15320449259E+02  0.51100000000E-03 0.  1.
        -12    1    3    3    0    0  0.10991481978E+02  0.40829086444E+01  0.70938135192E+00  0.11746745974E+02  0.00000000000E+00 0.  1.
</event>
<event>
 7    1  0.5022032E-011  0.4778727E+02  0.7816164E-02  0.1312668E+00
        -11   -1    0    0    0    0  0.00000000000E+00  0.00000000000E+00  0.45593999997E+02  0.45594000000E+02  0.51100000000E-03 0. -1.
         11   -1    0    0    0    0 -0.00000000000E+00 -0.00000000000E+00 -0.45593999997E+02  0.45594000000E+02  0.51100000000E-03 0.  1.
    9900012    2    1    2    0    0  0.69249091860E+01 -0.32361172052E+02 -0.28078879331E+02  0.47787270878E+02  0.19999999243E+02 0.  0.
         12    1    1    2    0    0 -0.69249091860E+01  0.32361172052E+02  0.28078879331E+02  0.43400729122E+02  0.00000000000E+00 0. -1.
         11    1    3    3    0    0  0.24504115582E+01  0.45178852809E+00 -0.46099720173E+01  0.52402740329E+01  0.51100000000E-03 0. -1.
        -11    1    3    3    0    0  0.87711308426E+01 -0.17410010588E+02 -0.12608860943E+02  0.23216902883E+02  0.51100000000E-03 0.  1.
        -12    1    3    3    0    0 -0.42966332148E+01 -0.15402949992E+02 -0.10860046371E+02  0.19330093963E+02  0.00000000000E+00 0.  1.
</event>
<event>
 7    1  0.5022032E-011  0.4778727E+02  0.7816164E-02  0.1312668E+00
        -11   -1    0    0    0    0  0.00000000000E+00  0.00000000000E+00  0.45593999997E+02  0.45594000000E+02  0.51100000000E-03 0. -1.
         11   -1    0    0    0    0 -0.00000000000E+00 -0.00000000000E+00 -0.45593999997E+02  0.45594000000E+02  0.51100000000E-03 0.  1.
    9900012    2    1    2    0    0 -0.85163419900E+01  0.10963339832E+02  0.41120559189E+02  0.47787270868E+02  0.19999999197E+02 0.  0.
        -12    1    1    2    0    0  0.85163419900E+01 -0.10963339832E+02 -0.41120559189E+02  0.43400729132E+02  0.00000000000E+00 0.  1.
         11    1    3    3    0    0 -0.67884644325E+01 -0.65819379174E+00  0.55672486406E+01  0.88040176116E+01  0.51100000000E-03 0. -1.
        -11    1    3    3    0    0 -0.10939271341E+01 -0.15036056553E+01  0.10794200031E+02  0.10953184976E+02  0.51100000000E-03 0.  1.
         12    1    3    3    0    0 -0.63395042342E+00  0.13125139279E+02  0.24759110517E+02  0.28030068281E+02  0.00000000000E+00 0. -1.
</event>
<event>
 7    1  0.5022032E-011  0.4778730E+02  0.7816164E-02  0.1312668E+00
        -11   -1    0    0    0    0  0.00000000000E+00  0.00000000000E+00  0.45593999997E+02  0.45594000000E+02  0.51100000000E-03 0. -1.
         11   -1    0    0    0    0 -0.00000000000E+00 -0.00000000000E+00 -0.45593999997E+02  0.45594000000E+02  0.51100000000E-03 0.  1.
    9900012    2    1    2    0    0 -0.82325583990E+01  0.28037342061E+01 -0.42520401850E+02  0.47787302808E+02  0.20000144822E+02 0.  0.
         12    1    1    2    0    0  0.82325583990E+01 -0.28037342061E+01  0.42520401850E+02  0.43400697192E+02  0.00000000000E+00 0. -1.
         11    1    3    3    0    0 -0.30063361009E+01  0.94112672577E+01 -0.28155159177E+02  0.29838280726E+02  0.51100000000E-03 0. -1.
        -11    1    3    3    0    0  0.48988791779E+00 -0.18096196868E+01 -0.77589376591E+01  0.79822194559E+01  0.51100000000E-03 0.  1.
        -12    1    3    3    0    0 -0.57161102158E+01 -0.47979133648E+01 -0.66063050140E+01  0.99668026264E+01  0.00000000000E+00 0.  1.
</event>
<event>
 7    1  0.5022032E-011  0.4778727E+02  0.7816164E-02  0.1312668E+00
        -11   -1    0    0    0    0  0.00000000000E+00  0.00000000000E+00  0.45593999997E+02  0.45594000000E+02  0.51100000000E-03 0. -1.
         11   -1    0    0    0    0 -0.00000000000E+00 -0.00000000000E+00 -0.45593999997E+02  0.45594000000E+02  0.51100000000E-03 0.  1.
    9900012    2    1    2    0    0  0.21287396885E+01  0.16183123971E+02 -0.40214406759E+02  0.47787267919E+02  0.19999985752E+02 0.  0.
         12    1    1    2    0    0 -0.21287396885E+01 -0.16183123971E+02  0.40214406759E+02  0.43400732081E+02  0.00000000000E+00 0. -1.
         11    1    3    3    0    0  0.31730095388E+01  0.62272303353E+01 -0.17230473399E+02  0.18593966790E+02  0.51100000000E-03 0. -1.
        -11    1    3    3    0    0 -0.33662032843E+01  0.80782630184E+01 -0.24375448936E+02  0.25898883548E+02  0.51100000000E-03 0.  1.
         12    1    3    3    0    0  0.23219334340E+01  0.18776306171E+01  0.13915155751E+01  0.32944175816E+01  0.00000000000E+00 0. -1.
</event>
<event>
 7    1  0.5022032E-011  0.4778727E+02  0.7816164E-02  0.1312668E+00
        -11   -1    0    0    0    0  0.00000000000E+00  0.00000000000E+00  0.45593999997E+02  0.45594000000E+02  0.51100000000E-03 0. -1.
         11   -1    0    0    0    0 -0.00000000000E+00 -0.00000000000E+00 -0.45593999997E+02  0.45594000000E+02  0.51100000000E-03 0.  1.
    9900012    2    1    2    0    0  0.33135109231E+01  0.40904450981E+02  0.14123377360E+02  0.47787271288E+02  0.20000001111E+02 0.  0.
        -12    1    1    2    0    0 -0.33135109231E+01 -0.40904450981E+02 -0.14123377360E+02  0.43400728712E+02  0.00000000000E+00 0.  1.
         11    1    3    3    0    0  0.38537234367E+01  0.19899486063E+02  0.93160290777E+01  0.22307602470E+02  0.51100000000E-03 0. -1.
        -11    1    3    3    0    0  0.66828879495E+00  0.18597003591E+01  0.59427820091E+01  0.62627273298E+01  0.51100000000E-03 0.  1.
         12    1    3    3    0    0 -0.12085013086E+01  0.19145264558E+02 -0.11354337270E+01  0.19216941489E+02  0.00000000000E+00 0. -1.
</event>
<event>
 7    1  0.6211156E-011  0.4778727E+02  0.7816164E-02  0.1312668E+00
        -11   -1    0    0    0    0  0.00000000000E+00  0.00000000000E+00  0.45593999997E+02  0.45594000000E+02  0.51100000000E-03 0. -1.
         11   -1    0    0    0    0 -0.00000000000E+00 -0.00000000000E+00 -0.45593999997E+02  0.45594000000E+02  0.51100000000E-03 0.  1.
    9900012    2    1    2    0    0 -0.15634363183E+02  0.69020777752E+00 -0.40481025072E+02  0.47787273166E+02  0.20000009672E+02 0.  0.
         12    1    1    2    0    0  0.15634363183E+02 -0.69020777752E+00  0.40481025072E+02  0.43400726834E+02  0.00000000000E+00 0. -1.
         11    1    3    3    0    0 -0.20111636454E+01  0.51522237333E+01 -0.95421898536E+01  0.11029214662E+02  0.51100000000E-03 0. -1.
        -11    1    3    3    0    0 -0.12087780409E+02  0.27309210308E+01 -0.21163141409E+02  0.24524496314E+02  0.51100000000E-03 0.  1.
        -12    1    3    3    0    0 -0.15354191282E+01 -0.71929369867E+01 -0.97756938086E+01  0.12233562189E+02  0.00000000000E+00 0.  1.
</event>
<event>
 7    1  0.5022032E-011  0.4778727E+02  0.7816164E-02  0.1312668E+00
        -11   -1    0    0    0    0  0.00000000000E+00  0.00000000000E+00  0.45593999997E+02  0.45594000000E+02  0.51100000000E-03 0. -1.
         11   -1    0    0    0    0 -0.00000000000E+00 -0.00000000000E+00 -0.45593999997E+02  0.45594000000E+02  0.51100000000E-03 0.  1.
    9900012    2    1    2    0    0 -0.29507988916E+00 -0.42449816256E+02  0.90304627745E+01  0.47787271547E+02  0.20000002293E+02 0.  0.
        -12    1    1    2    0    0  0.29507988916E+00  0.42449816256E+02 -0.90304627745E+01  0.43400728453E+02  0.00000000000E+00 0.  1.
         11    1    3    3    0    0  0.16094964981E+01 -0.74058839470E+00 -0.15760985260E+01  0.23712943665E+01  0.51100000000E-03 0. -1.
        -11    1    3    3    0    0  0.18160485736E+01 -0.41760757598E+01 -0.28478008874E+01  0.53709972378E+01  0.51100000000E-03 0.  1.
         12    1    3    3    0    0 -0.37206249609E+01 -0.37533152101E+02  0.13454362188E+02  0.40044979943E+02  0.00000000000E+00 0. -1.
</event>
<event>
 7    1  0.5022032E-011  0.4778727E+02  0.7816164E-02  0.1312668E+00
        -11   -1    0    0    0    0  0.00000000000E+00  0.00000000000E+00  0.45593999997E+02  0.45594000000E+02  0.51100000000E-03 0. -1.
         11   -1    0    0    0    0 -0.00000000000E+00 -0.00000000000E+00 -0.45593999997E+02  0.45594000000E+02  0.51100000000E-03 0.  1.
    9900012    2    1    2    0    0 -0.25387000669E+02  0.96471723824E+01  0.33853441622E+02  0.47787271347E+02  0.20000001379E+02 0.  0.
        -12    1    1    2    0    0  0.25387000669E+02 -0.96471723824E+01 -0.33853441622E+02  0.43400728653E+02  0.00000000000E+00 0.  1.
         11    1    3    3    0    0 -0.16273272765E+01  0.17314246589E+01  0.29135657041E+01  0.37596397151E+01  0.51100000000E-03 0. -1.
        -11    1    3    3    0    0 -0.13725041379E+01  0.68066066163E+01  0.16353520113E+01  0.71335851926E+01  0.51100000000E-03 0.  1.
         12    1    3    3    0    0 -0.22387169255E+02  0.11091411071E+01  0.29304523907E+02  0.36894046439E+02  0.00000000000E+00 0. -1.
</event>
<event>
 7    1  0.5022032E-011  0.4778727E+02  0.7816164E-02  0.1312668E+00
        -11   -1    0    0    0    0  0.00000000000E+00  0.00000000000E+00  0.45593999997E+02  0.45594000000E+02  0.51100000000E-03 0. -1.
         11   -1    0    0    0    0 -0.00000000000E+00 -0.00000000000E+00 -0.45593999997E+02  0.45594000000E+02  0.51100000000E-03 0.  1.
    9900012    2    1    2    0    0 -0.16624747915E+02  0.14505894420E+02  0.37374057818E+02  0.47787269431E+02  0.19999992642E+02 0.  0.
        -12    1    1    2    0    0  0.16624747915E+02 -0.14505894420E+02 -0.37374057818E+02  0.43400730569E+02  0.00000000000E+00 0.  1.
         11    1    3    3    0    0 -0.62136192119E+01  0.68190167702E+01  0.16466666307E+02  0.18874828555E+02  0.51100000000E-03 0. -1.
        -11    1    3    3    0    0 -0.80858135071E+01  0.38566295726E+01  0.22451678172E+02  0.24172956475E+02  0.51100000000E-03 0.  1.
        -12    1    3    3    0    0 -0.23253151961E+01  0.38302480771E+01 -0.15442866618E+01  0.47394844009E+01  0.00000000000E+00 0.  1.
</event>
<event>
 7    1  0.5022032E-011  0.4778727E+02  0.7816164E-02  0.1312668E+00
        -11   -1    0    0    0    0  0.00000000000E+00  0.00000000000E+00  0.45593999997E+02  0.45594000000E+02  0.51100000000E-03 0. -1.
         11   -1    0    0    0    0 -0.00000000000E+00 -0.00000000000E+00 -0.45593999997E+02  0.45594000000E+02  0.51100000000E-03 0.  1.
    9900012    2    1    2    0    0  0.35966709736E+02  0.21828499761E+02 -0.10655328012E+02  0.47787266987E+02  0.19999981501E+02 0.  0.
         12    1    1    2    0    0 -0.35966709736E+02 -0.21828499761E+02  0.10655328012E+02  0.43400733013E+02  0.00000000000E+00 0. -1.
         11    1    3    3    0    0  0.22901113562E+02  0.84959173844E+01 -0.25935779827E+01  0.24563555557E+02  0.51100000000E-03 0. -1.
        -11    1    3    3    0    0  0.11028716985E+02  0.81563998828E+01 -0.35820558291E+00  0.13721799040E+02  0.51100000000E-03 0.  1.
         12    1    3    3    0    0  0.20368791886E+01  0.51761824934E+01 -0.77035444469E+01  0.95019123906E+01  0.00000000000E+00 0. -1.
</event>
<event>
 7    1  0.5022032E-011  0.4778727E+02  0.7816164E-02  0.1312668E+00
        -11   -1    0    0    0    0  0.00000000000E+00  0.00000000000E+00  0.45593999997E+02  0.45594000000E+02  0.51100000000E-03 0. -1.
         11   -1    0    0    0    0 -0.00000000000E+00 -0.00000000000E+00 -0.45593999997E+02  0.45594000000E+02  0.51100000000E-03 0.  1.
    9900012    2    1    2    0    0 -0.40533365100E+01  0.38694235697E+02 -0.19234083536E+02  0.47787269793E+02  0.19999994293E+02 0.  0.
         12    1    1    2    0    0  0.40533365100E+01 -0.38694235697E+02  0.19234083536E+02  0.43400730207E+02  0.00000000000E+00 0. -1.
         11    1    3    3    0    0  0.75562068308E+00 -0.32172277859E-01  0.33745574759E+00  0.82817529235E+00  0.51100000000E-03 0. -1.
        -11    1    3    3    0    0 -0.15392876676E+01  0.37295208407E+02 -0.13082386452E+02  0.39553139094E+02  0.51100000000E-03 0.  1.
         12    1    3    3    0    0 -0.32696695255E+01  0.14311995681E+01 -0.64891528321E+01  0.74059554068E+01  0.00000000000E+00 0. -1.
</event>
<event>
 7    1  0.5022032E-011  0.4778727E+02  0.7816164E-02  0.1312668E+00
        -11   -1    0    0    0    0  0.00000000000E+00  0.00000000000E+00  0.45593999997E+02  0.45594000000E+02  0.51100000000E-03 0. -1.
         11   -1    0    0    0    0 -0.00000000000E+00 -0.00000000000E+00 -0.45593999997E+02  0.45594000000E+02  0.51100000000E-03 0.  1.
    9900012    2    1    2    0    0  0.61654989041E+01  0.15543380412E+02  0.40050134985E+02  0.47787270010E+02  0.19999995284E+02 0.  0.
        -12    1    1    2    0    0 -0.61654989041E+01 -0.15543380412E+02 -0.40050134985E+02  0.43400729990E+02  0.00000000000E+00 0.  1.
         11    1    3    3    0    0  0.21661144928E+01  0.46714407977E+01  0.31255468297E+02  0.31676785030E+02  0.51100000000E-03 0. -1.
        -11    1    3    3    0    0  0.32866289120E+01  0.12353586666E+01  0.40033233707E+01  0.53249074088E+01  0.51100000000E-03 0.  1.
        -12    1    3    3    0    0  0.71275549927E+00  0.96365809479E+01  0.47913433172E+01  0.10785577571E+02  0.00000000000E+00 0.  1.
</event>
<event>
 7    1  0.5022032E-011  0.4778727E+02  0.7816164E-02  0.1312668E+00
        -11   -1    0    0    0    0  0.00000000000E+00  0.00000000000E+00  0.45593999997E+02  0.45594000000E+02  0.51100000000E-03 0.  1.
         11   -1    0    0    0    0 -0.00000000000E+00 -0.00000000000E+00 -0.45593999997E+02  0.45594000000E+02  0.51100000000E-03 0. -1.
    9900012    2    1    2    0    0 -0.41781480765E+02  0.72335254680E+01  0.92524210150E+01  0.47787270510E+02  0.19999997563E+02 0.  0.
        -12    1    1    2    0    0  0.41781480765E+02 -0.72335254680E+01 -0.92524210150E+01  0.43400729490E+02  0.00000000000E+00 0.  1.
         11    1    3    3    0    0 -0.41067694666E+01  0.38122567626E+01  0.17889385061E+01  0.58821049222E+01  0.51100000000E-03 0. -1.
        -11    1    3    3    0    0 -0.31826722135E+02  0.29279099212E+01  0.12354181868E+02  0.34265707468E+02  0.51100000000E-03 0.  1.
        -12    1    3    3    0    0 -0.58479891633E+01  0.49335878417E+00 -0.48906993591E+01  0.76394581199E+01  0.00000000000E+00 0.  1.
</event>
<event>
 7    1  0.5022032E-011  0.4778727E+02  0.7816164E-02  0.1312668E+00
        -11   -1    0    0    0    0  0.00000000000E+00  0.00000000000E+00  0.45593999997E+02  0.45594000000E+02  0.51100000000E-03 0. -1.
         11   -1    0    0    0    0 -0.00000000000E+00 -0.00000000000E+00 -0.45593999997E+02  0.45594000000E+02  0.51100000000E-03 0.  1.
    9900012    2    1    2    0    0 -0.57123898567E+01 -0.79283011401E+01  0.42286335685E+02  0.47787267950E+02  0.19999985889E+02 0.  0.
        -12    1    1    2    0    0  0.57123898567E+01  0.79283011401E+01 -0.42286335685E+02  0.43400732050E+02  0.00000000000E+00 0.  1.
         11    1    3    3    0    0 -0.24545935089E+01  0.69298725970E+00  0.74189884659E+01  0.78451673503E+01  0.51100000000E-03 0. -1.
        -11    1    3    3    0    0  0.18177393081E+00 -0.10752333778E+02  0.97972283689E+01  0.14547556751E+02  0.51100000000E-03 0.  1.
        -12    1    3    3    0    0 -0.34395702787E+01  0.21310453786E+01  0.25070118850E+02  0.25394543849E+02  0.00000000000E+00 0.  1.
</event>
<event>
 7    1  0.5022032E-011  0.4778726E+02  0.7816164E-02  0.1312668E+00
        -11   -1    0    0    0    0  0.00000000000E+00  0.00000000000E+00  0.45593999997E+02  0.45594000000E+02  0.51100000000E-03 0. -1.
         11   -1    0    0    0    0 -0.00000000000E+00 -0.00000000000E+00 -0.45593999997E+02  0.45594000000E+02  0.51100000000E-03 0.  1.
    9900012    2    1    2    0    0 -0.13100453065E+02 -0.18025777151E+02 -0.37243436437E+02  0.47787261872E+02  0.19999958178E+02 0.  0.
         12    1    1    2    0    0  0.13100453065E+02  0.18025777151E+02  0.37243436437E+02  0.43400738128E+02  0.00000000000E+00 0. -1.
         11    1    3    3    0    0 -0.19752594391E+01 -0.71531796914E-01 -0.29091164951E+01  0.35170620826E+01  0.51100000000E-03 0. -1.
        -11    1    3    3    0    0 -0.47834888763E+01 -0.16771171578E+02 -0.33496827941E+02  0.37764949944E+02  0.51100000000E-03 0.  1.
         12    1    3    3    0    0 -0.63417047498E+01 -0.11830737759E+01 -0.83749200162E+00  0.65052498450E+01  0.00000000000E+00 0. -1.
</event>
<event>
 7    1  0.5022032E-011  0.4778727E+02  0.7816164E-02  0.1312668E+00
        -11   -1    0    0    0    0  0.00000000000E+00  0.00000000000E+00  0.45593999997E+02  0.45594000000E+02  0.51100000000E-03 0. -1.
         11   -1    0    0    0    0 -0.00000000000E+00 -0.00000000000E+00 -0.45593999997E+02  0.45594000000E+02  0.51100000000E-03 0.  1.
    9900012    2    1    2    0    0 -0.20433062921E+01  0.14513752668E+02  0.40850937639E+02  0.47787271630E+02  0.20000002668E+02 0.  0.
        -12    1    1    2    0    0  0.20433062921E+01 -0.14513752668E+02 -0.40850937639E+02  0.43400728370E+02  0.00000000000E+00 0.  1.
         11    1    3    3    0    0 -0.12591842382E+01  0.12045816680E+01  0.13173804037E+02  0.13288554286E+02  0.51100000000E-03 0. -1.
        -11    1    3    3    0    0  0.16603096372E+01  0.16102836237E+02  0.25472686433E+02  0.30181380309E+02  0.51100000000E-03 0.  1.
        -12    1    3    3    0    0 -0.24444316911E+01 -0.27936652372E+01  0.22044471679E+01  0.43173370341E+01  0.00000000000E+00 0.  1.
</event>
<event>
 7    1  0.5022032E-011  0.4778727E+02  0.7816164E-02  0.1312668E+00
        -11   -1    0    0    0    0  0.00000000000E+00  0.00000000000E+00  0.45593999997E+02  0.45594000000E+02  0.51100000000E-03 0. -1.
         11   -1    0    0    0    0 -0.00000000000E+00 -0.00000000000E+00 -0.45593999997E+02  0.45594000000E+02  0.51100000000E-03 0.  1.
    9900012    2    1    2    0    0 -0.16291176561E+02 -0.33649554783E+02 -0.22043781865E+02  0.47787270862E+02  0.19999999166E+02 0.  0.
         12    1    1    2    0    0  0.16291176561E+02  0.33649554783E+02  0.22043781865E+02  0.43400729138E+02  0.00000000000E+00 0. -1.
         11    1    3    3    0    0 -0.37491064012E+01 -0.92008720470E+01 -0.10836384403E+02  0.14701669036E+02  0.51100000000E-03 0. -1.
        -11    1    3    3    0    0 -0.15975215752E+01 -0.45422145480E+01 -0.90696223162E+01  0.10268487591E+02  0.51100000000E-03 0.  1.
         12    1    3    3    0    0 -0.10944548584E+02 -0.19906468188E+02 -0.21377751452E+01  0.22817114235E+02  0.00000000000E+00 0. -1.
</event>
<event>
 7    1  0.5022032E-011  0.4778727E+02  0.7816164E-02  0.1312668E+00
        -11   -1    0    0    0    0  0.00000000000E+00  0.00000000000E+00  0.45593999997E+02  0.45594000000E+02  0.51100000000E-03 0. -1.
         11   -1    0    0    0    0 -0.00000000000E+00 -0.00000000000E+00 -0.45593999997E+02  0.45594000000E+02  0.51100000000E-03 0.  1.
    9900012    2    1    2    0    0  0.27447476170E+02 -0.10744558682E+02  0.31856144880E+02  0.47787268947E+02  0.19999990436E+02 0.  0.
        -12    1    1    2    0    0 -0.27447476170E+02  0.10744558682E+02 -0.31856144880E+02  0.43400731053E+02  0.00000000000E+00 0.  1.
         11    1    3    3    0    0  0.21264453246E+02 -0.13203116901E+02  0.28114443073E+02  0.37642013460E+02  0.51100000000E-03 0. -1.
        -11    1    3    3    0    0  0.24455090637E+01 -0.22175704503E+01  0.21885771285E+01  0.39608084264E+01  0.51100000000E-03 0.  1.
        -12    1    3    3    0    0  0.37375138600E+01  0.46761286686E+01  0.15531246783E+01  0.61844470606E+01  0.00000000000E+00 0.  1.
</event>
<event>
 7    1  0.5022032E-011  0.4778727E+02  0.7816164E-02  0.1312668E+00
        -11   -1    0    0    0    0  0.00000000000E+00  0.00000000000E+00  0.45593999997E+02  0.45594000000E+02  0.51100000000E-03 0.  1.
         11   -1    0    0    0    0 -0.00000000000E+00 -0.00000000000E+00 -0.45593999997E+02  0.45594000000E+02  0.51100000000E-03 0. -1.
    9900012    2    1    2    0    0  0.22034080067E+01 -0.40842099119E+02  0.14515204695E+02  0.47787271497E+02  0.20000002062E+02 0.  0.
         12    1    1    2    0    0 -0.22034080067E+01  0.40842099119E+02 -0.14515204695E+02  0.43400728503E+02  0.00000000000E+00 0. -1.
         11    1    3    3    0    0  0.48537311830E+01 -0.11471146000E+02 -0.18582806075E+01  0.12593613620E+02  0.51100000000E-03 0. -1.
        -11    1    3    3    0    0 -0.19495804464E+01 -0.13854115327E+02  0.21927999392E+01  0.14161417558E+02  0.51100000000E-03 0.  1.
         12    1    3    3    0    0 -0.70074272991E+00 -0.15516837792E+02  0.14180685363E+02  0.21032240319E+02  0.00000000000E+00 0. -1.
</event>
<event>
 7    1  0.5022032E-011  0.4778727E+02  0.7816164E-02  0.1312668E+00
        -11   -1    0    0    0    0  0.00000000000E+00  0.00000000000E+00  0.45593999997E+02  0.45594000000E+02  0.51100000000E-03 0. -1.
         11   -1    0    0    0    0 -0.00000000000E+00 -0.00000000000E+00 -0.45593999997E+02  0.45594000000E+02  0.51100000000E-03 0.  1.
    9900012    2    1    2    0    0 -0.73165193333E+01 -0.14751077689E+02 -0.40155916018E+02  0.47787270290E+02  0.19999996560E+02 0.  0.
         12    1    1    2    0    0  0.73165193333E+01  0.14751077689E+02  0.40155916018E+02  0.43400729710E+02  0.00000000000E+00 0. -1.
         11    1    3    3    0    0 -0.42556963442E+01 -0.31977870585E+01 -0.50874164276E+00  0.53474864905E+01  0.51100000000E-03 0. -1.
        -11    1    3    3    0    0  0.24312465086E+01 -0.21106569946E+00 -0.83944402323E+01  0.87419754855E+01  0.51100000000E-03 0.  1.
        -12    1    3    3    0    0 -0.54920694977E+01 -0.11342224931E+02 -0.31252734143E+02  0.33697808314E+02  0.00000000000E+00 0.  1.
</event>
<event>
 7    1  0.5022032E-011  0.4778727E+02  0.7816164E-02  0.1312668E+00
        -11   -1    0    0    0    0  0.00000000000E+00  0.00000000000E+00  0.45593999997E+02  0.45594000000E+02  0.51100000000E-03 0. -1.
         11   -1    0    0    0    0 -0.00000000000E+00 -0.00000000000E+00 -0.45593999997E+02  0.45594000000E+02  0.51100000000E-03 0.  1.
    9900012    2    1    2    0    0  0.16775623062E+02 -0.40002194919E+02  0.14233271159E+01  0.47787274344E+02  0.20000015042E+02 0.  0.
        -12    1    1    2    0    0 -0.16775623062E+02  0.40002194919E+02 -0.14233271159E+01  0.43400725656E+02  0.00000000000E+00 0.  1.
         11    1    3    3    0    0  0.11387337356E+02 -0.28512549999E+02 -0.28965872975E+01  0.30838728536E+02  0.51100000000E-03 0. -1.
        -11    1    3    3    0    0 -0.31576865081E+00 -0.84504627023E+01 -0.10818077680E+01  0.85252764197E+01  0.51100000000E-03 0.  1.
         12    1    3    3    0    0  0.57040543565E+01 -0.30391822178E+01  0.54017221813E+01  0.84232693878E+01  0.00000000000E+00 0. -1.
</event>
<event>
 7    1  0.5022032E-011  0.4778725E+02  0.7816164E-02  0.1312668E+00
        -11   -1    0    0    0    0  0.00000000000E+00  0.00000000000E+00  0.45593999997E+02  0.45594000000E+02  0.51100000000E-03 0. -1.
         11   -1    0    0    0    0 -0.00000000000E+00 -0.00000000000E+00 -0.45593999997E+02  0.45594000000E+02  0.51100000000E-03 0.  1.
    9900012    2    1    2    0    0  0.26196789055E+02 -0.18843459581E+02 -0.29022013653E+02  0.47787251133E+02  0.19999909214E+02 0.  0.
         12    1    1    2    0    0 -0.26196789055E+02  0.18843459581E+02  0.29022013653E+02  0.43400748867E+02  0.00000000000E+00 0. -1.
         11    1    3    3    0    0  0.11274340010E+01 -0.30344569650E+01 -0.48025568778E+01  0.57916827714E+01  0.51100000000E-03 0. -1.
        -11    1    3    3    0    0  0.17507344726E+02 -0.18966246082E+02 -0.20659031984E+02  0.33060871322E+02  0.51100000000E-03 0.  1.
         12    1    3    3    0    0  0.75620103274E+01  0.31572434654E+01 -0.35604247912E+01  0.89346970394E+01  0.00000000000E+00 0. -1.
</event>
<event>
 7    1  0.5022032E-011  0.4778727E+02  0.7816164E-02  0.1312668E+00
        -11   -1    0    0    0    0  0.00000000000E+00  0.00000000000E+00  0.45593999997E+02  0.45594000000E+02  0.51100000000E-03 0. -1.
         11   -1    0    0    0    0 -0.00000000000E+00 -0.00000000000E+00 -0.45593999997E+02  0.45594000000E+02  0.51100000000E-03 0.  1.
    9900012    2    1    2    0    0  0.11481060720E+01 -0.50142214542E+01  0.43094808727E+02  0.47787273006E+02  0.20000008945E+02 0.  0.
        -12    1    1    2    0    0 -0.11481060720E+01  0.50142214542E+01 -0.43094808727E+02  0.43400726994E+02  0.00000000000E+00 0.  1.
         11    1    3    3    0    0  0.12664666670E+01 -0.45440661001E+01  0.13223795679E+02  0.14039987428E+02  0.51100000000E-03 0. -1.
        -11    1    3    3    0    0 -0.22588027381E+01 -0.72720430381E+01  0.95669828043E+01  0.12227508331E+02  0.51100000000E-03 0.  1.
        -12    1    3    3    0    0  0.21404421431E+01  0.68018876839E+01  0.20304030244E+02  0.21519777247E+02  0.00000000000E+00 0.  1.
</event>
<event>
 7    1  0.5022032E-011  0.4778727E+02  0.7816164E-02  0.1312668E+00
        -11   -1    0    0    0    0  0.00000000000E+00  0.00000000000E+00  0.45593999997E+02  0.45594000000E+02  0.51100000000E-03 0. -1.
         11   -1    0    0    0    0 -0.00000000000E+00 -0.00000000000E+00 -0.45593999997E+02  0.45594000000E+02  0.51100000000E-03 0.  1.
    9900012    2    1    2    0    0  0.75062402442E+01 -0.71274631390E+01  0.42148295543E+02  0.47787272004E+02  0.20000004373E+02 0.  0.
        -12    1    1    2    0    0 -0.75062402442E+01  0.71274631390E+01 -0.42148295543E+02  0.43400727996E+02  0.00000000000E+00 0.  1.
         11    1    3    3    0    0 -0.61055174867E+00 -0.11463556408E+01  0.53418750222E+01  0.54975024973E+01  0.51100000000E-03 0. -1.
        -11    1    3    3    0    0 -0.43361215801E+01  0.25218345575E+01  0.14683599617E+02  0.15516755391E+02  0.51100000000E-03 0.  1.
         12    1    3    3    0    0  0.12452913573E+02 -0.85029420557E+01  0.22122820904E+02  0.26773014115E+02  0.00000000000E+00 0. -1.
</event>
<event>
 7    1  0.5022032E-011  0.4778727E+02  0.7816164E-02  0.1312668E+00
        -11   -1    0    0    0    0  0.00000000000E+00  0.00000000000E+00  0.45593999997E+02  0.45594000000E+02  0.51100000000E-03 0. -1.
         11   -1    0    0    0    0 -0.00000000000E+00 -0.00000000000E+00 -0.45593999997E+02  0.45594000000E+02  0.51100000000E-03 0.  1.
    9900012    2    1    2    0    0  0.38154973323E+02  0.16110716247E+02 -0.12971754773E+02  0.47787267412E+02  0.19999983440E+02 0.  0.
         12    1    1    2    0    0 -0.38154973323E+02 -0.16110716247E+02  0.12971754773E+02  0.43400732588E+02  0.00000000000E+00 0. -1.
         11    1    3    3    0    0  0.11538990611E+02  0.10325169000E+02 -0.27785907212E+01  0.15731433051E+02  0.51100000000E-03 0. -1.
        -11    1    3    3    0    0  0.16805863728E+02  0.93953380212E+01 -0.97779919783E+01  0.21594410378E+02  0.51100000000E-03 0.  1.
         12    1    3    3    0    0  0.98101189836E+01 -0.36097907737E+01 -0.41517207392E+00  0.10461423983E+02  0.00000000000E+00 0. -1.
</event>
<event>
 7    1  0.5022032E-011  0.4778727E+02  0.7816164E-02  0.1312668E+00
        -11   -1    0    0    0    0  0.00000000000E+00  0.00000000000E+00  0.45593999997E+02  0.45594000000E+02  0.51100000000E-03 0. -1.
         11   -1    0    0    0    0 -0.00000000000E+00 -0.00000000000E+00 -0.45593999997E+02  0.45594000000E+02  0.51100000000E-03 0.  1.
    9900012    2    1    2    0    0  0.11258756692E+02  0.16299191905E+02 -0.38616057962E+02  0.47787271993E+02  0.20000004327E+02 0.  0.
         12    1    1    2    0    0 -0.11258756692E+02 -0.16299191905E+02  0.38616057962E+02  0.43400728007E+02  0.00000000000E+00 0. -1.
         11    1    3    3    0    0  0.70836949788E+00  0.11831168930E+02 -0.64434833199E+01  0.13490619821E+02  0.51100000000E-03 0. -1.
        -11    1    3    3    0    0  0.14327682130E+01 -0.23686500831E+00 -0.62727302715E+01  0.64386392277E+01  0.51100000000E-03 0.  1.
         12    1    3    3    0    0  0.91176189809E+01  0.47048879825E+01 -0.25899844370E+02  0.27858012945E+02  0.00000000000E+00 0. -1.
</event>
<event>
 7    1  0.5350089E-011  0.4778727E+02  0.7816164E-02  0.1312668E+00
        -11   -1    0    0    0    0  0.00000000000E+00  0.00000000000E+00  0.45593999997E+02  0.45594000000E+02  0.51100000000E-03 0. -1.
         11   -1    0    0    0    0 -0.00000000000E+00 -0.00000000000E+00 -0.45593999997E+02  0.45594000000E+02  0.51100000000E-03 0.  1.
    9900012    2    1    2    0    0 -0.36650374148E+02  0.45010210487E+01 -0.22806016021E+02  0.47787268642E+02  0.19999989044E+02 0.  0.
         12    1    1    2    0    0  0.36650374148E+02 -0.45010210487E+01  0.22806016021E+02  0.43400731358E+02  0.00000000000E+00 0. -1.
         11    1    3    3    0    0 -0.74093460608E+01 -0.49959878175E+01 -0.16504334855E+01  0.90874767825E+01  0.51100000000E-03 0. -1.
        -11    1    3    3    0    0 -0.53133371468E+01 -0.15842346338E+01 -0.64568070776E+01  0.85106820472E+01  0.51100000000E-03 0.  1.
        -12    1    3    3    0    0 -0.23927690941E+02  0.11081243500E+02 -0.14698775458E+02  0.30189109812E+02  0.00000000000E+00 0.  1.
</event>
<event>
 7    1  0.5022032E-011  0.4778727E+02  0.7816164E-02  0.1312668E+00
        -11   -1    0    0    0    0  0.00000000000E+00  0.00000000000E+00  0.45593999997E+02  0.45594000000E+02  0.51100000000E-03 0. -1.
         11   -1    0    0    0    0 -0.00000000000E+00 -0.00000000000E+00 -0.45593999997E+02  0.45594000000E+02  0.51100000000E-03 0.  1.
    9900012    2    1    2    0    0  0.85298444138E+01 -0.21170008423E+02  0.36914708687E+02  0.47787271667E+02  0.20000002840E+02 0.  0.
        -12    1    1    2    0    0 -0.85298444138E+01  0.21170008423E+02 -0.36914708687E+02  0.43400728333E+02  0.00000000000E+00 0.  1.
         11    1    3    3    0    0  0.41869682173E+01 -0.17634776592E+02  0.20608934728E+02  0.27445295393E+02  0.51100000000E-03 0. -1.
        -11    1    3    3    0    0  0.64589667494E+01 -0.53287095946E+01  0.15204043296E+02  0.17357313450E+02  0.51100000000E-03 0.  1.
        -12    1    3    3    0    0 -0.21160905529E+01  0.17934777640E+01  0.11017306632E+01  0.29846628239E+01  0.00000000000E+00 0.  1.
</event>
<event>
 7    1  0.5022032E-011  0.4778727E+02  0.7816164E-02  0.1312668E+00
        -11   -1    0    0    0    0  0.00000000000E+00  0.00000000000E+00  0.45593999997E+02  0.45594000000E+02  0.51100000000E-03 0. -1.
         11   -1    0    0    0    0 -0.00000000000E+00 -0.00000000000E+00 -0.45593999997E+02  0.45594000000E+02  0.51100000000E-03 0.  1.
    9900012    2    1    2    0    0  0.30445668788E+02 -0.96286387391E+01 -0.29393430325E+02  0.47787272147E+02  0.20000005027E+02 0.  0.
         12    1    1    2    0    0 -0.30445668788E+02  0.96286387391E+01  0.29393430325E+02  0.43400727853E+02  0.00000000000E+00 0. -1.
         11    1    3    3    0    0  0.14986141477E+02 -0.43621762789E+01 -0.38555643588E+01  0.16077263294E+02  0.51100000000E-03 0. -1.
        -11    1    3    3    0    0  0.13509034206E+02 -0.28916548165E+01 -0.13611368294E+02  0.19393942865E+02  0.51100000000E-03 0.  1.
         12    1    3    3    0    0  0.19504931055E+01 -0.23748076436E+01 -0.11926497672E+02  0.12316065988E+02  0.00000000000E+00 0. -1.
</event>
<event>
 7    1  0.5471488E-011  0.4778728E+02  0.7816164E-02  0.1312668E+00
        -11   -1    0    0    0    0  0.00000000000E+00  0.00000000000E+00  0.45593999997E+02  0.45594000000E+02  0.51100000000E-03 0. -1.
         11   -1    0    0    0    0 -0.00000000000E+00 -0.00000000000E+00 -0.45593999997E+02  0.45594000000E+02  0.51100000000E-03 0.  1.
    9900012    2    1    2    0    0  0.23227996872E+02 -0.30009652441E+02 -0.21059531057E+02  0.47787275045E+02  0.20000018238E+02 0.  0.
         12    1    1    2    0    0 -0.23227996872E+02  0.30009652441E+02  0.21059531057E+02  0.43400724955E+02  0.00000000000E+00 0. -1.
         11    1    3    3    0    0  0.35385080132E+01 -0.50251508290E+00 -0.62226056028E+01  0.71759585504E+01  0.51100000000E-03 0. -1.
        -11    1    3    3    0    0  0.49310963896E+01 -0.24874948890E+01  0.15472857344E+01  0.57356286344E+01  0.51100000000E-03 0.  1.
        -12    1    3    3    0    0  0.14758392469E+02 -0.27019642469E+02 -0.16384211188E+02  0.34875687860E+02  0.00000000000E+00 0.  1.
</event>
<event>
 7    1  0.5022032E-011  0.4778727E+02  0.7816164E-02  0.1312668E+00
        -11   -1    0    0    0    0  0.00000000000E+00  0.00000000000E+00  0.45593999997E+02  0.45594000000E+02  0.51100000000E-03 0. -1.
         11   -1    0    0    0    0 -0.00000000000E+00 -0.00000000000E+00 -0.45593999997E+02  0.45594000000E+02  0.51100000000E-03 0.  1.
    9900012    2    1    2    0    0  0.16673128738E+02 -0.49923064676E+01  0.39758103379E+02  0.47787272701E+02  0.20000007552E+02 0.  0.
        -12    1    1    2    0    0 -0.16673128738E+02  0.49923064676E+01 -0.39758103379E+02  0.43400727299E+02  0.00000000000E+00 0.  1.
         11    1    3    3    0    0  0.36521300776E+01 -0.57675572955E+01  0.45734144392E+01  0.82169879612E+01  0.51100000000E-03 0. -1.
        -11    1    3    3    0    0  0.53430298390E-01 -0.42121674539E+01  0.82954040695E+01  0.93037056270E+01  0.51100000000E-03 0.  1.
         12    1    3    3    0    0  0.12967568362E+02  0.49874182818E+01  0.26889284871E+02  0.30266579113E+02  0.00000000000E+00 0. -1.
</event>
<event>
 7    1  0.5022032E-011  0.4778728E+02  0.7816164E-02  0.1312668E+00
        -11   -1    0    0    0    0  0.00000000000E+00  0.00000000000E+00  0.45593999997E+02  0.45594000000E+02  0.51100000000E-03 0. -1.
         11   -1    0    0    0    0 -0.00000000000E+00 -0.00000000000E+00 -0.45593999997E+02  0.45594000000E+02  0.51100000000E-03 0.  1.
    9900012    2    1    2    0    0  0.14999266859E+02 -0.20366280919E+02 -0.35268391147E+02  0.47787276287E+02  0.20000023901E+02 0.  0.
         12    1    1    2    0    0 -0.14999266859E+02  0.20366280919E+02  0.35268391147E+02  0.43400723713E+02  0.00000000000E+00 0. -1.
         11    1    3    3    0    0  0.43407892869E+01 -0.26529507675E+01  0.36125731266E+00  0.51001084807E+01  0.51100000000E-03 0. -1.
        -11    1    3    3    0    0  0.68140226064E+01 -0.62889021931E+01 -0.69833692663E+01  0.11608128249E+02  0.51100000000E-03 0.  1.
         12    1    3    3    0    0  0.38444549655E+01 -0.11424427958E+02 -0.28646279193E+02  0.31079039557E+02  0.00000000000E+00 0. -1.
</event>
<event>
 7    1  0.5022032E-011  0.4778727E+02  0.7816164E-02  0.1312668E+00
        -11   -1    0    0    0    0  0.00000000000E+00  0.00000000000E+00  0.45593999997E+02  0.45594000000E+02  0.51100000000E-03 0. -1.
         11   -1    0    0    0    0 -0.00000000000E+00 -0.00000000000E+00 -0.45593999997E+02  0.45594000000E+02  0.51100000000E-03 0.  1.
    9900012    2    1    2    0    0 -0.17952375505E+02 -0.18334512147E+02 -0.35002585360E+02  0.47787273004E+02  0.20000008934E+02 0.  0.
         12    1    1    2    0    0  0.17952375505E+02  0.18334512147E+02  0.35002585360E+02  0.43400726996E+02  0.00000000000E+00 0. -1.
         11    1    3    3    0    0  0.10880566799E+01 -0.24639177376E+01 -0.85076579294E+01  0.89238445561E+01  0.51100000000E-03 0. -1.
        -11    1    3    3    0    0 -0.25338954362E+01 -0.94694114054E+01 -0.14408862194E+02  0.17427153767E+02  0.51100000000E-03 0.  1.
         12    1    3    3    0    0 -0.16506536748E+02 -0.64011830040E+01 -0.12086065237E+02  0.21436274681E+02  0.00000000000E+00 0. -1.
</event>
<event>
 7    1  0.5022032E-011  0.4778727E+02  0.7816164E-02  0.1312668E+00
        -11   -1    0    0    0    0  0.00000000000E+00  0.00000000000E+00  0.45593999997E+02  0.45594000000E+02  0.51100000000E-03 0. -1.
         11   -1    0    0    0    0 -0.00000000000E+00 -0.00000000000E+00 -0.45593999997E+02  0.45594000000E+02  0.51100000000E-03 0.  1.
    9900012    2    1    2    0    0 -0.94221510057E+01 -0.12332566000E+02 -0.40530901639E+02  0.47787273031E+02  0.20000009059E+02 0.  0.
         12    1    1    2    0    0  0.94221510057E+01  0.12332566000E+02  0.40530901639E+02  0.43400726969E+02  0.00000000000E+00 0. -1.
         11    1    3    3    0    0 -0.53485870798E+01 -0.43277338909E+01 -0.20093665502E+02  0.21238927890E+02  0.51100000000E-03 0. -1.
        -11    1    3    3    0    0  0.66507186163E+00 -0.22764635810E+01 -0.18783110169E+02  0.18932243261E+02  0.51100000000E-03 0.  1.
         12    1    3    3    0    0 -0.47386357876E+01 -0.57283685280E+01 -0.16541259684E+01  0.76161018796E+01  0.00000000000E+00 0. -1.
</event>
<event>
 7    1  0.5022032E-011  0.4778727E+02  0.7816164E-02  0.1312668E+00
        -11   -1    0    0    0    0  0.00000000000E+00  0.00000000000E+00  0.45593999997E+02  0.45594000000E+02  0.51100000000E-03 0. -1.
         11   -1    0    0    0    0 -0.00000000000E+00 -0.00000000000E+00 -0.45593999997E+02  0.45594000000E+02  0.51100000000E-03 0.  1.
    9900012    2    1    2    0    0  0.17580792182E+02  0.32690560855E+02  0.22491470817E+02  0.47787270948E+02  0.19999999558E+02 0.  0.
        -12    1    1    2    0    0 -0.17580792182E+02 -0.32690560855E+02 -0.22491470817E+02  0.43400729052E+02  0.00000000000E+00 0.  1.
         11    1    3    3    0    0  0.45950182134E+01  0.10754278939E+00  0.43046251027E+01  0.62972657057E+01  0.51100000000E-03 0. -1.
        -11    1    3    3    0    0 -0.64316599782E+00  0.71401205283E+01  0.83297500579E+01  0.10989982709E+02  0.51100000000E-03 0.  1.
         12    1    3    3    0    0  0.13628939967E+02  0.25442897537E+02  0.98570956567E+01  0.30500022533E+02  0.00000000000E+00 0. -1.
</event>
<event>
 7    1  0.5022032E-011  0.4778727E+02  0.7816164E-02  0.1312668E+00
        -11   -1    0    0    0    0  0.00000000000E+00  0.00000000000E+00  0.45593999997E+02  0.45594000000E+02  0.51100000000E-03 0.  1.
         11   -1    0    0    0    0 -0.00000000000E+00 -0.00000000000E+00 -0.45593999997E+02  0.45594000000E+02  0.51100000000E-03 0. -1.
    9900012    2    1    2    0    0 -0.32235680237E+02  0.25785171698E+02  0.13401824954E+02  0.47787273370E+02  0.20000010605E+02 0.  0.
        -12    1    1    2    0    0  0.32235680237E+02 -0.25785171698E+02 -0.13401824954E+02  0.43400726630E+02  0.00000000000E+00 0.  1.
         11    1    3    3    0    0 -0.18164231344E+02  0.11272975615E+02 -0.10455717249E+00  0.21378264944E+02  0.51100000000E-03 0. -1.
        -11    1    3    3    0    0 -0.93700072648E+01  0.26762653285E+01  0.40795165524E+01  0.10564179467E+02  0.51100000000E-03 0.  1.
        -12    1    3    3    0    0 -0.47014416288E+01  0.11835930755E+02  0.94268655737E+01  0.15844828960E+02  0.00000000000E+00 0.  1.
</event>
<event>
 7    1  0.5022032E-011  0.4778727E+02  0.7816164E-02  0.1312668E+00
        -11   -1    0    0    0    0  0.00000000000E+00  0.00000000000E+00  0.45593999997E+02  0.45594000000E+02  0.51100000000E-03 0. -1.
         11   -1    0    0    0    0 -0.00000000000E+00 -0.00000000000E+00 -0.45593999997E+02  0.45594000000E+02  0.51100000000E-03 0.  1.
    9900012    2    1    2    0    0  0.14988065962E+02  0.48053874932E+00  0.40727756610E+02  0.47787271927E+02  0.20000004025E+02 0.  0.
        -12    1    1    2    0    0 -0.14988065962E+02 -0.48053874932E+00 -0.40727756610E+02  0.43400728073E+02  0.00000000000E+00 0.  1.
         11    1    3    3    0    0  0.12391595943E+02  0.36285849135E+01  0.35196241716E+02  0.37489914773E+02  0.51100000000E-03 0. -1.
        -11    1    3    3    0    0 -0.69537626348E+00  0.20595282021E+01  0.26029139610E+00  0.21892821735E+01  0.51100000000E-03 0.  1.
        -12    1    3    3    0    0  0.32918462818E+01 -0.52075743663E+01  0.52712234976E+01  0.81080749802E+01  0.00000000000E+00 0.  1.
</event>
<event>
 7    1  0.5022032E-011  0.4778727E+02  0.7816164E-02  0.1312668E+00
        -11   -1    0    0    0    0  0.00000000000E+00  0.00000000000E+00  0.45593999997E+02  0.45594000000E+02  0.51100000000E-03 0. -1.
         11   -1    0    0    0    0 -0.00000000000E+00 -0.00000000000E+00 -0.45593999997E+02  0.45594000000E+02  0.51100000000E-03 0.  1.
    9900012    2    1    2    0    0  0.39069322395E+02 -0.37835384049E+01 -0.18517451424E+02  0.47787272788E+02  0.20000007951E+02 0.  0.
         12    1    1    2    0    0 -0.39069322395E+02  0.37835384049E+01  0.18517451424E+02  0.43400727212E+02  0.00000000000E+00 0. -1.
         11    1    3    3    0    0 -0.84856556859E+00 -0.17483183545E+01 -0.32277647514E+01  0.37676446415E+01  0.51100000000E-03 0. -1.
        -11    1    3    3    0    0  0.25800790889E+02 -0.12729089137E+01 -0.15015726687E+02  0.29879309828E+02  0.51100000000E-03 0.  1.
        -12    1    3    3    0    0  0.14117097074E+02 -0.76231113676E+00 -0.27395998507E+00  0.14140318318E+02  0.00000000000E+00 0.  1.
</event>
<event>
 7    1  0.5155787E-011  0.4778727E+02  0.7816164E-02  0.1312668E+00
        -11   -1    0    0    0    0  0.00000000000E+00  0.00000000000E+00  0.45593999997E+02  0.45594000000E+02  0.51100000000E-03 0.  1.
         11   -1    0    0    0    0 -0.00000000000E+00 -0.00000000000E+00 -0.45593999997E+02  0.45594000000E+02  0.51100000000E-03 0. -1.
    9900012    2    1    2    0    0 -0.21156947702E+02 -0.31861303889E+02 -0.20514977821E+02  0.47787269170E+02  0.19999991455E+02 0.  0.
         12    1    1    2    0    0  0.21156947702E+02  0.31861303889E+02  0.20514977821E+02  0.43400730830E+02  0.00000000000E+00 0. -1.
         11    1    3    3    0    0  0.91695282913E+00 -0.78980560884E+00  0.20442972446E+01  0.23756571462E+01  0.51100000000E-03 0. -1.
        -11    1    3    3    0    0 -0.12694137558E-01 -0.57129553852E+01 -0.22470946956E+01  0.61390109306E+01  0.51100000000E-03 0.  1.
        -12    1    3    3    0    0 -0.22061206393E+02 -0.25358542895E+02 -0.20312180370E+02  0.39272601094E+02  0.00000000000E+00 0.  1.
</event>
<event>
 7    1  0.5022032E-011  0.4778727E+02  0.7816164E-02  0.1312668E+00
        -11   -1    0    0    0    0  0.00000000000E+00  0.00000000000E+00  0.45593999997E+02  0.45594000000E+02  0.51100000000E-03 0. -1.
         11   -1    0    0    0    0 -0.00000000000E+00 -0.00000000000E+00 -0.45593999997E+02  0.45594000000E+02  0.51100000000E-03 0.  1.
    9900012    2    1    2    0    0  0.22487829593E+02 -0.37464948832E+01  0.36930805452E+02  0.47787273104E+02  0.20000009392E+02 0.  0.
        -12    1    1    2    0    0 -0.22487829593E+02  0.37464948832E+01 -0.36930805452E+02  0.43400726896E+02  0.00000000000E+00 0.  1.
         11    1    3    3    0    0  0.16875585551E+02 -0.87581084231E+01  0.27770633370E+02  0.33655577976E+02  0.51100000000E-03 0. -1.
        -11    1    3    3    0    0  0.75088269971E+00 -0.10488442080E+01 -0.78616757909E+00  0.15106153464E+01  0.51100000000E-03 0.  1.
         12    1    3    3    0    0  0.48613613417E+01  0.60604577479E+01  0.99463396615E+01  0.12621079782E+02  0.00000000000E+00 0. -1.
</event>
<event>
 7    1  0.5022032E-011  0.4778727E+02  0.7816164E-02  0.1312668E+00
        -11   -1    0    0    0    0  0.00000000000E+00  0.00000000000E+00  0.45593999997E+02  0.45594000000E+02  0.51100000000E-03 0. -1.
         11   -1    0    0    0    0 -0.00000000000E+00 -0.00000000000E+00 -0.45593999997E+02  0.45594000000E+02  0.51100000000E-03 0.  1.
    9900012    2    1    2    0    0  0.65866141903E+01  0.37319259445E+02  0.21154499541E+02  0.47787268867E+02  0.19999990072E+02 0.  0.
        -12    1    1    2    0    0 -0.65866141903E+01 -0.37319259445E+02 -0.21154499541E+02  0.43400731133E+02  0.00000000000E+00 0.  1.
         11    1    3    3    0    0 -0.27653817069E+01  0.32794516795E+01  0.53205657438E+01  0.68345123746E+01  0.51100000000E-03 0. -1.
        -11    1    3    3    0    0  0.56342055094E+01  0.42106659314E+01  0.62294141316E+01  0.93957213663E+01  0.51100000000E-03 0.  1.
         12    1    3    3    0    0  0.37177903878E+01  0.29829141834E+02  0.96045196660E+01  0.31557035126E+02  0.00000000000E+00 0. -1.
</event>
<event>
 7    1  0.5022032E-011  0.4778727E+02  0.7816164E-02  0.1312668E+00
        -11   -1    0    0    0    0  0.00000000000E+00  0.00000000000E+00  0.45593999997E+02  0.45594000000E+02  0.51100000000E-03 0. -1.
         11   -1    0    0    0    0 -0.00000000000E+00 -0.00000000000E+00 -0.45593999997E+02  0.45594000000E+02  0.51100000000E-03 0.  1.
    9900012    2    1    2    0    0 -0.35352494126E+01  0.18127188424E+02  0.39275060659E+02  0.47787270302E+02  0.19999996614E+02 0.  0.
        -12    1    1    2    0    0  0.35352494126E+01 -0.18127188424E+02 -0.39275060659E+02  0.43400729698E+02  0.00000000000E+00 0.  1.
         11    1    3    3    0    0  0.20098992084E+01  0.67289327312E+01  0.25728480110E+02  0.26669700403E+02  0.51100000000E-03 0.  1.
        -11    1    3    3    0    0 -0.32994910733E+01  0.76431775631E+01  0.14425029839E+02  0.16654917914E+02  0.51100000000E-03 0. -1.
        -12    1    3    3    0    0 -0.22456575477E+01  0.37550781297E+01 -0.87844929065E+00  0.44626519849E+01  0.00000000000E+00 0.  1.
</event>
<event>
 7    1  0.1135205E-010  0.4778727E+02  0.7816164E-02  0.1312668E+00
        -11   -1    0    0    0    0  0.00000000000E+00  0.00000000000E+00  0.45593999997E+02  0.45594000000E+02  0.51100000000E-03 0. -1.
         11   -1    0    0    0    0 -0.00000000000E+00 -0.00000000000E+00 -0.45593999997E+02  0.45594000000E+02  0.51100000000E-03 0.  1.
    9900012    2    1    2    0    0  0.45220367460E+01  0.55904177458E+01 -0.42800953957E+02  0.47787271359E+02  0.20000001435E+02 0.  0.
         12    1    1    2    0    0 -0.45220367460E+01 -0.55904177458E+01  0.42800953957E+02  0.43400728641E+02  0.00000000000E+00 0. -1.
         11    1    3    3    0    0  0.34870465158E+01  0.18671598247E+01 -0.17485783552E+01  0.43247318691E+01  0.51100000000E-03 0. -1.
        -11    1    3    3    0    0 -0.17178730775E+01 -0.51450204719E+00  0.28643879378E+00  0.18159977177E+01  0.51100000000E-03 0.  1.
        -12    1    3    3    0    0  0.27528633077E+01  0.42377599683E+01 -0.41338814396E+02  0.41646541772E+02  0.00000000000E+00 0.  1.
</event>
<event>
 7    1  0.5022032E-011  0.4778721E+02  0.7816164E-02  0.1312668E+00
        -11   -1    0    0    0    0  0.00000000000E+00  0.00000000000E+00  0.45593999997E+02  0.45594000000E+02  0.51100000000E-03 0. -1.
         11   -1    0    0    0    0 -0.00000000000E+00 -0.00000000000E+00 -0.45593999997E+02  0.45594000000E+02  0.51100000000E-03 0.  1.
    9900012    2    1    2    0    0 -0.18370885130E+02  0.25700530853E+02  0.29759405954E+02  0.47787205661E+02  0.19999701886E+02 0.  0.
        -12    1    1    2    0    0  0.18370885130E+02 -0.25700530853E+02 -0.29759405954E+02  0.43400794339E+02  0.00000000000E+00 0.  1.
         11    1    3    3    0    0 -0.82764408614E+01  0.12841193323E+02  0.83903235978E+01  0.17429665792E+02  0.51100000000E-03 0. -1.
        -11    1    3    3    0    0 -0.86424902451E+01  0.70355036766E+01  0.37722509940E+01  0.11765238095E+02  0.51100000000E-03 0.  1.
         12    1    3    3    0    0 -0.14519540234E+01  0.58238338537E+01  0.17596831362E+02  0.18592301773E+02  0.00000000000E+00 0. -1.
</event>
<event>
 7    1  0.5022032E-011  0.4778728E+02  0.7816164E-02  0.1312668E+00
        -11   -1    0    0    0    0  0.00000000000E+00  0.00000000000E+00  0.45593999997E+02  0.45594000000E+02  0.51100000000E-03 0. -1.
         11   -1    0    0    0    0 -0.00000000000E+00 -0.00000000000E+00 -0.45593999997E+02  0.45594000000E+02  0.51100000000E-03 0.  1.
    9900012    2    1    2    0    0  0.33303863165E+02 -0.98912114832E+01  0.26012284215E+02  0.47787282305E+02  0.20000051342E+02 0.  0.
        -12    1    1    2    0    0 -0.33303863165E+02  0.98912114832E+01 -0.26012284215E+02  0.43400717695E+02  0.00000000000E+00 0.  1.
         11    1    3    3    0    0  0.32712759021E+02 -0.76276576467E+01  0.26633586980E+02  0.42867863483E+02  0.51100000000E-03 0. -1.
        -11    1    3    3    0    0  0.23838166014E+01 -0.14152669748E+01 -0.90430495264E+00  0.29160469659E+01  0.51100000000E-03 0.  1.
         12    1    3    3    0    0 -0.17927124573E+01 -0.84828686174E+00  0.28300218800E+00  0.20033718558E+01  0.00000000000E+00 0. -1.
</event>
<event>
 7    1  0.5022032E-011  0.4778727E+02  0.7816164E-02  0.1312668E+00
        -11   -1    0    0    0    0  0.00000000000E+00  0.00000000000E+00  0.45593999997E+02  0.45594000000E+02  0.51100000000E-03 0. -1.
         11   -1    0    0    0    0 -0.00000000000E+00 -0.00000000000E+00 -0.45593999997E+02  0.45594000000E+02  0.51100000000E-03 0.  1.
    9900012    2    1    2    0    0 -0.14559498490E+01 -0.49966432032E+01  0.43087547564E+02  0.47787274334E+02  0.20000014999E+02 0.  0.
        -12    1    1    2    0    0  0.14559498490E+01  0.49966432032E+01 -0.43087547564E+02  0.43400725666E+02  0.00000000000E+00 0.  1.
         11    1    3    3    0    0  0.33228742663E+01  0.20490414305E+01  0.24439820217E+02  0.24749643971E+02  0.51100000000E-03 0. -1.
        -11    1    3    3    0    0  0.27622328406E+01 -0.12323334871E+01  0.13929031558E+01  0.33299783110E+01  0.51100000000E-03 0.  1.
         12    1    3    3    0    0 -0.75410569560E+01 -0.58133511466E+01  0.17254824191E+02  0.19707652053E+02  0.00000000000E+00 0. -1.
</event>
<event>
 7    1  0.5022032E-011  0.4778727E+02  0.7816164E-02  0.1312668E+00
        -11   -1    0    0    0    0  0.00000000000E+00  0.00000000000E+00  0.45593999997E+02  0.45594000000E+02  0.51100000000E-03 0. -1.
         11   -1    0    0    0    0 -0.00000000000E+00 -0.00000000000E+00 -0.45593999997E+02  0.45594000000E+02  0.51100000000E-03 0.  1.
    9900012    2    1    2    0    0 -0.16046832377E+02  0.28209046797E+02  0.28816181762E+02  0.47787268648E+02  0.19999989073E+02 0.  0.
        -12    1    1    2    0    0  0.16046832377E+02 -0.28209046797E+02 -0.28816181762E+02  0.43400731352E+02  0.00000000000E+00 0.  1.
         11    1    3    3    0    0 -0.10177756566E+02  0.11587685514E+02  0.47317454099E+01  0.16132284376E+02  0.51100000000E-03 0. -1.
        -11    1    3    3    0    0 -0.84492293982E+01  0.10520187805E+02  0.12968179447E+02  0.18714633507E+02  0.51100000000E-03 0.  1.
        -12    1    3    3    0    0  0.25801535868E+01  0.61011734785E+01  0.11116256905E+02  0.12940350766E+02  0.00000000000E+00 0.  1.
</event>
<event>
 7    1  0.5022032E-011  0.4778727E+02  0.7816164E-02  0.1312668E+00
        -11   -1    0    0    0    0  0.00000000000E+00  0.00000000000E+00  0.45593999997E+02  0.45594000000E+02  0.51100000000E-03 0.  1.
         11   -1    0    0    0    0 -0.00000000000E+00 -0.00000000000E+00 -0.45593999997E+02  0.45594000000E+02  0.51100000000E-03 0. -1.
    9900012    2    1    2    0    0  0.41177775572E+02 -0.13300567714E+02 -0.33330132313E+01  0.47787270976E+02  0.19999999689E+02 0.  0.
         12    1    1    2    0    0 -0.41177775572E+02  0.13300567714E+02  0.33330132313E+01  0.43400729024E+02  0.00000000000E+00 0. -1.
         11    1    3    3    0    0  0.19814909321E+02 -0.84900211108E+01  0.24118550601E+01  0.21691660494E+02  0.51100000000E-03 0. -1.
        -11    1    3    3    0    0  0.84973545755E+01  0.30394421130E+01  0.18600812596E+01  0.92142902978E+01  0.51100000000E-03 0.  1.
         12    1    3    3    0    0  0.12865511676E+02 -0.78499887158E+01 -0.76049495509E+01  0.16881320185E+02  0.00000000000E+00 0. -1.
</event>
<event>
 7    1  0.5022032E-011  0.4778726E+02  0.7816164E-02  0.1312668E+00
        -11   -1    0    0    0    0  0.00000000000E+00  0.00000000000E+00  0.45593999997E+02  0.45594000000E+02  0.51100000000E-03 0. -1.
         11   -1    0    0    0    0 -0.00000000000E+00 -0.00000000000E+00 -0.45593999997E+02  0.45594000000E+02  0.51100000000E-03 0.  1.
    9900012    2    1    2    0    0  0.49151009188E+01 -0.21394074682E+02  0.37440074564E+02  0.47787264616E+02  0.19999970688E+02 0.  0.
        -12    1    1    2    0    0 -0.49151009188E+01  0.21394074682E+02 -0.37440074564E+02  0.43400735384E+02  0.00000000000E+00 0.  1.
         11    1    3    3    0    0 -0.12888809545E+01 -0.11958441044E+01 -0.13005572500E+01  0.21869400217E+01  0.51100000000E-03 0. -1.
        -11    1    3    3    0    0  0.28132647111E+01 -0.73368581283E+01  0.49518569677E+01  0.92878863699E+01  0.51100000000E-03 0.  1.
         12    1    3    3    0    0  0.33907171621E+01 -0.12861372449E+02  0.33788774846E+02  0.36312438224E+02  0.00000000000E+00 0. -1.
</event>
<event>
 7    1  0.5022032E-011  0.4778727E+02  0.7816164E-02  0.1312668E+00
        -11   -1    0    0    0    0  0.00000000000E+00  0.00000000000E+00  0.45593999997E+02  0.45594000000E+02  0.51100000000E-03 0. -1.
         11   -1    0    0    0    0 -0.00000000000E+00 -0.00000000000E+00 -0.45593999997E+02  0.45594000000E+02  0.51100000000E-03 0.  1.
    9900012    2    1    2    0    0  0.58012696018E+01 -0.23617507591E+01  0.42946370226E+02  0.47787270614E+02  0.19999998039E+02 0.  0.
        -12    1    1    2    0    0 -0.58012696018E+01  0.23617507591E+01 -0.42946370226E+02  0.43400729386E+02  0.00000000000E+00 0.  1.
         11    1    3    3    0    0  0.48429478903E+00  0.33508677237E+01  0.13007097146E+01  0.36269411309E+01  0.51100000000E-03 0. -1.
        -11    1    3    3    0    0  0.69351975728E+01  0.14217334400E+01  0.16098123966E+02  0.17586013956E+02  0.51100000000E-03 0.  1.
        -12    1    3    3    0    0 -0.16182227600E+01 -0.71343519228E+01  0.25547536545E+02  0.26574315528E+02  0.00000000000E+00 0.  1.
</event>
<event>
 7    1  0.5022032E-011  0.4778727E+02  0.7816164E-02  0.1312668E+00
        -11   -1    0    0    0    0  0.00000000000E+00  0.00000000000E+00  0.45593999997E+02  0.45594000000E+02  0.51100000000E-03 0.  1.
         11   -1    0    0    0    0 -0.00000000000E+00 -0.00000000000E+00 -0.45593999997E+02  0.45594000000E+02  0.51100000000E-03 0. -1.
    9900012    2    1    2    0    0  0.25964279805E+02 -0.34057690723E+02  0.70394142340E+01  0.47787268716E+02  0.19999989386E+02 0.  0.
        -12    1    1    2    0    0 -0.25964279805E+02  0.34057690723E+02 -0.70394142340E+01  0.43400731284E+02  0.00000000000E+00 0.  1.
         11    1    3    3    0    0  0.11140767562E+02 -0.12145701977E+02 -0.43035924778E+01  0.17033956876E+02  0.51100000000E-03 0. -1.
        -11    1    3    3    0    0 -0.14759174037E+01 -0.46717876311E+00  0.12451385719E+01  0.19866953727E+01  0.51100000000E-03 0.  1.
         12    1    3    3    0    0  0.16299429647E+02 -0.21444809983E+02  0.10097868140E+02  0.28766616467E+02  0.00000000000E+00 0. -1.
</event>
<event>
 7    1  0.5022032E-011  0.4778727E+02  0.7816164E-02  0.1312668E+00
        -11   -1    0    0    0    0  0.00000000000E+00  0.00000000000E+00  0.45593999997E+02  0.45594000000E+02  0.51100000000E-03 0. -1.
         11   -1    0    0    0    0 -0.00000000000E+00 -0.00000000000E+00 -0.45593999997E+02  0.45594000000E+02  0.51100000000E-03 0.  1.
    9900012    2    1    2    0    0  0.12876285798E+02  0.45406687789E+00  0.41444158946E+02  0.47787271626E+02  0.20000002650E+02 0.  0.
        -12    1    1    2    0    0 -0.12876285798E+02 -0.45406687789E+00 -0.41444158946E+02  0.43400728374E+02  0.00000000000E+00 0.  1.
         11    1    3    3    0    0  0.12118421071E+02 -0.29412188647E+01  0.19209269888E+02  0.22902029333E+02  0.51100000000E-03 0. -1.
        -11    1    3    3    0    0  0.33504415219E+01  0.80188994015E+00  0.20572554077E+02  0.20859014056E+02  0.51100000000E-03 0.  1.
        -12    1    3    3    0    0 -0.25925767952E+01  0.25933958024E+01  0.16623349811E+01  0.40262282370E+01  0.00000000000E+00 0.  1.
</event>
<event>
 7    1  0.5022032E-011  0.4778727E+02  0.7816164E-02  0.1312668E+00
        -11   -1    0    0    0    0  0.00000000000E+00  0.00000000000E+00  0.45593999997E+02  0.45594000000E+02  0.51100000000E-03 0. -1.
         11   -1    0    0    0    0 -0.00000000000E+00 -0.00000000000E+00 -0.45593999997E+02  0.45594000000E+02  0.51100000000E-03 0.  1.
    9900012    2    1    2    0    0  0.36073822084E+02 -0.27382825140E+01  0.23975087855E+02  0.47787266498E+02  0.19999979269E+02 0.  0.
        -12    1    1    2    0    0 -0.36073822084E+02  0.27382825140E+01 -0.23975087855E+02  0.43400733502E+02  0.00000000000E+00 0.  1.
         11    1    3    3    0    0 -0.19876701323E+01  0.61201692531E-01  0.36103534124E+01  0.41217993918E+01  0.51100000000E-03 0.  1.
        -11    1    3    3    0    0  0.21157000963E+01  0.10604235481E+01  0.20866998038E+01  0.31551547238E+01  0.51100000000E-03 0. -1.
        -12    1    3    3    0    0  0.35945792120E+02 -0.38599077547E+01  0.18278034639E+02  0.40510312382E+02  0.00000000000E+00 0.  1.
</event>
<event>
 7    1  0.5022032E-011  0.4778727E+02  0.7816164E-02  0.1312668E+00
        -11   -1    0    0    0    0  0.00000000000E+00  0.00000000000E+00  0.45593999997E+02  0.45594000000E+02  0.51100000000E-03 0.  1.
         11   -1    0    0    0    0 -0.00000000000E+00 -0.00000000000E+00 -0.45593999997E+02  0.45594000000E+02  0.51100000000E-03 0. -1.
    9900012    2    1    2    0    0  0.98685987873E+01 -0.41530216545E+02  0.78405924862E+01  0.47787273983E+02  0.20000013398E+02 0.  0.
        -12    1    1    2    0    0 -0.98685987873E+01  0.41530216545E+02 -0.78405924862E+01  0.43400726017E+02  0.00000000000E+00 0.  1.
         11    1    3    3    0    0  0.70198467520E+01 -0.21499410028E+02  0.10638454708E+02  0.24993591155E+02  0.51100000000E-03 0. -1.
        -11    1    3    3    0    0  0.55934843370E+01 -0.12538504473E+02  0.13588642024E+01  0.13796654436E+02  0.51100000000E-03 0.  1.
        -12    1    3    3    0    0 -0.27447323018E+01 -0.74923020434E+01 -0.41567264243E+01  0.89970283919E+01  0.00000000000E+00 0.  1.
</event>
<event>
 7    1  0.5022032E-011  0.4778728E+02  0.7816164E-02  0.1312668E+00
        -11   -1    0    0    0    0  0.00000000000E+00  0.00000000000E+00  0.45593999997E+02  0.45594000000E+02  0.51100000000E-03 0. -1.
         11   -1    0    0    0    0 -0.00000000000E+00 -0.00000000000E+00 -0.45593999997E+02  0.45594000000E+02  0.51100000000E-03 0.  1.
    9900012    2    1    2    0    0 -0.27170517869E+02  0.41129307225E+01  0.33592700539E+02  0.47787276851E+02  0.20000026474E+02 0.  0.
        -12    1    1    2    0    0  0.27170517869E+02 -0.41129307225E+01 -0.33592700539E+02  0.43400723149E+02  0.00000000000E+00 0.  1.
         11    1    3    3    0    0 -0.80719323568E+01 -0.47100764501E+01  0.55275397770E+01  0.10857928365E+02  0.51100000000E-03 0. -1.
        -11    1    3    3    0    0 -0.55441874481E-01 -0.17850640352E+01  0.64179824717E+00  0.18977440982E+01  0.51100000000E-03 0.  1.
        -12    1    3    3    0    0 -0.19043143638E+02  0.10608071208E+02  0.27423362514E+02  0.35031604387E+02  0.00000000000E+00 0.  1.
</event>
<event>
 7    1  0.5022032E-011  0.4778727E+02  0.7816164E-02  0.1312668E+00
        -11   -1    0    0    0    0  0.00000000000E+00  0.00000000000E+00  0.45593999997E+02  0.45594000000E+02  0.51100000000E-03 0. -1.
         11   -1    0    0    0    0 -0.00000000000E+00 -0.00000000000E+00 -0.45593999997E+02  0.45594000000E+02  0.51100000000E-03 0.  1.
    9900012    2    1    2    0    0  0.67064918841E+01 -0.22827795506E+02  0.36297902854E+02  0.47787273824E+02  0.20000012671E+02 0.  0.
        -12    1    1    2    0    0 -0.67064918841E+01  0.22827795506E+02 -0.36297902854E+02  0.43400726176E+02  0.00000000000E+00 0.  1.
         11    1    3    3    0    0 -0.49530633679E+01 -0.73182496304E+01  0.36671506558E+01  0.95675288645E+01  0.51100000000E-03 0. -1.
        -11    1    3    3    0    0  0.16074162919E+01 -0.15534921371E+01  0.16269110173E+01  0.27647720837E+01  0.51100000000E-03 0.  1.
        -12    1    3    3    0    0  0.10052138960E+02 -0.13956053738E+02  0.31003841181E+02  0.35454972875E+02  0.00000000000E+00 0.  1.
</event>
<event>
 7    1  0.5022032E-011  0.4778727E+02  0.7816164E-02  0.1312668E+00
        -11   -1    0    0    0    0  0.00000000000E+00  0.00000000000E+00  0.45593999997E+02  0.45594000000E+02  0.51100000000E-03 0. -1.
         11   -1    0    0    0    0 -0.00000000000E+00 -0.00000000000E+00 -0.45593999997E+02  0.45594000000E+02  0.51100000000E-03 0.  1.
    9900012    2    1    2    0    0 -0.24698993778E+02  0.34131190677E+02 -0.10423286496E+02  0.47787269913E+02  0.19999994840E+02 0.  0.
         12    1    1    2    0    0  0.24698993778E+02 -0.34131190677E+02  0.10423286496E+02  0.43400730087E+02  0.00000000000E+00 0. -1.
         11    1    3    3    0    0 -0.14152300435E+02  0.12812222268E+02 -0.98460455742E+01  0.21479880371E+02  0.51100000000E-03 0. -1.
        -11    1    3    3    0    0 -0.12681890391E+02  0.15141132443E+02 -0.61325103359E-01  0.19750645472E+02  0.51100000000E-03 0.  1.
         12    1    3    3    0    0  0.21351970472E+01  0.61778359671E+01 -0.51591581848E+00  0.65567440699E+01  0.00000000000E+00 0. -1.
</event>
<event>
 7    1  0.5022032E-011  0.4778727E+02  0.7816164E-02  0.1312668E+00
        -11   -1    0    0    0    0  0.00000000000E+00  0.00000000000E+00  0.45593999997E+02  0.45594000000E+02  0.51100000000E-03 0. -1.
         11   -1    0    0    0    0 -0.00000000000E+00 -0.00000000000E+00 -0.45593999997E+02  0.45594000000E+02  0.51100000000E-03 0.  1.
    9900012    2    1    2    0    0 -0.35747141674E+01  0.24197271312E+02  0.35851595262E+02  0.47787269555E+02  0.19999993211E+02 0.  0.
        -12    1    1    2    0    0  0.35747141674E+01 -0.24197271312E+02 -0.35851595262E+02  0.43400730445E+02  0.00000000000E+00 0.  1.
         11    1    3    3    0    0 -0.65769361301E+01  0.84405010467E+01  0.19506206391E+02  0.22248376004E+02  0.51100000000E-03 0. -1.
        -11    1    3    3    0    0  0.39226050554E+01  0.79367434430E+01  0.15188486763E+02  0.17580354300E+02  0.51100000000E-03 0.  1.
        -12    1    3    3    0    0 -0.92038309273E+00  0.78200268220E+01  0.11569021078E+01  0.79585392517E+01  0.00000000000E+00 0.  1.
</event>
<event>
 7    1  0.5022032E-011  0.4778732E+02  0.7816164E-02  0.1312668E+00
        -11   -1    0    0    0    0  0.00000000000E+00  0.00000000000E+00  0.45593999997E+02  0.45594000000E+02  0.51100000000E-03 0. -1.
         11   -1    0    0    0    0 -0.00000000000E+00 -0.00000000000E+00 -0.45593999997E+02  0.45594000000E+02  0.51100000000E-03 0.  1.
    9900012    2    1    2    0    0  0.98575360099E+01 -0.52473970145E+01  0.41939391062E+02  0.47787323574E+02  0.20000239501E+02 0.  0.
        -12    1    1    2    0    0 -0.98575360099E+01  0.52473970145E+01 -0.41939391062E+02  0.43400676426E+02  0.00000000000E+00 0.  1.
         11    1    3    3    0    0  0.75182056339E+01  0.54293593345E+01  0.23504387555E+02  0.25267718404E+02  0.51100000000E-03 0. -1.
        -11    1    3    3    0    0  0.21644865080E+01 -0.51330853371E+00  0.12454102949E+01  0.25494184744E+01  0.51100000000E-03 0.  1.
         12    1    3    3    0    0  0.17484386794E+00 -0.10163447815E+02  0.17189593212E+02  0.19970186696E+02  0.00000000000E+00 0. -1.
</event>
<event>
 7    1  0.5022032E-011  0.4778727E+02  0.7816164E-02  0.1312668E+00
        -11   -1    0    0    0    0  0.00000000000E+00  0.00000000000E+00  0.45593999997E+02  0.45594000000E+02  0.51100000000E-03 0. -1.
         11   -1    0    0    0    0 -0.00000000000E+00 -0.00000000000E+00 -0.45593999997E+02  0.45594000000E+02  0.51100000000E-03 0.  1.
    9900012    2    1    2    0    0 -0.17952444798E+02 -0.68646679372E+01  0.38912844426E+02  0.47787269575E+02  0.19999993299E+02 0.  0.
        -12    1    1    2    0    0  0.17952444798E+02  0.68646679372E+01 -0.38912844426E+02  0.43400730425E+02  0.00000000000E+00 0.  1.
         11    1    3    3    0    0 -0.75819993872E+01  0.26613050084E+00  0.15188094053E+02  0.16977506925E+02  0.51100000000E-03 0. -1.
        -11    1    3    3    0    0 -0.51811389942E+01  0.39698892469E+01  0.12909666824E+02  0.14465950355E+02  0.51100000000E-03 0.  1.
         12    1    3    3    0    0 -0.51893064169E+01 -0.11100687685E+02  0.10815083549E+02  0.16343812295E+02  0.00000000000E+00 0. -1.
</event>
<event>
 7    1  0.5022032E-011  0.4778727E+02  0.7816164E-02  0.1312668E+00
        -11   -1    0    0    0    0  0.00000000000E+00  0.00000000000E+00  0.45593999997E+02  0.45594000000E+02  0.51100000000E-03 0. -1.
         11   -1    0    0    0    0 -0.00000000000E+00 -0.00000000000E+00 -0.45593999997E+02  0.45594000000E+02  0.51100000000E-03 0.  1.
    9900012    2    1    2    0    0  0.26828497208E+01 -0.25143610110E+02  0.35273566877E+02  0.47787270373E+02  0.19999996937E+02 0.  0.
        -12    1    1    2    0    0 -0.26828497208E+01  0.25143610110E+02 -0.35273566877E+02  0.43400729627E+02  0.00000000000E+00 0.  1.
         11    1    3    3    0    0  0.30912051652E+01 -0.84905401471E+01  0.50478410101E+01  0.10350145916E+02  0.51100000000E-03 0. -1.
        -11    1    3    3    0    0 -0.36116622462E+01 -0.15588126510E+02  0.15315184347E+02  0.22149236198E+02  0.51100000000E-03 0.  1.
         12    1    3    3    0    0  0.32033068017E+01 -0.10649434528E+01  0.14910541519E+02  0.15287888259E+02  0.00000000000E+00 0. -1.
</event>
<event>
 7    1  0.5022032E-011  0.4778727E+02  0.7816164E-02  0.1312668E+00
        -11   -1    0    0    0    0  0.00000000000E+00  0.00000000000E+00  0.45593999997E+02  0.45594000000E+02  0.51100000000E-03 0.  1.
         11   -1    0    0    0    0 -0.00000000000E+00 -0.00000000000E+00 -0.45593999997E+02  0.45594000000E+02  0.51100000000E-03 0. -1.
    9900012    2    1    2    0    0 -0.41791743284E+02  0.38120451478E+01  0.11069865236E+02  0.47787269461E+02  0.19999992781E+02 0.  0.
         12    1    1    2    0    0  0.41791743284E+02 -0.38120451478E+01 -0.11069865236E+02  0.43400730539E+02  0.00000000000E+00 0. -1.
         11    1    3    3    0    0 -0.37236029270E+01 -0.21288172191E+01  0.13601195782E+01  0.44996674364E+01  0.51100000000E-03 0. -1.
        -11    1    3    3    0    0 -0.27991670069E+02 -0.37042211490E+01  0.65734243531E+01  0.28990770179E+02  0.51100000000E-03 0.  1.
         12    1    3    3    0    0 -0.10076470288E+02  0.96450835159E+01  0.31363213052E+01  0.14296831846E+02  0.00000000000E+00 0. -1.
</event>
<event>
 7    1  0.5022032E-011  0.4778728E+02  0.7816164E-02  0.1312668E+00
        -11   -1    0    0    0    0  0.00000000000E+00  0.00000000000E+00  0.45593999997E+02  0.45594000000E+02  0.51100000000E-03 0. -1.
         11   -1    0    0    0    0 -0.00000000000E+00 -0.00000000000E+00 -0.45593999997E+02  0.45594000000E+02  0.51100000000E-03 0.  1.
    9900012    2    1    2    0    0 -0.32062128138E+02 -0.19268932860E+01  0.29187838459E+02  0.47787275440E+02  0.20000020039E+02 0.  0.
        -12    1    1    2    0    0  0.32062128138E+02  0.19268932860E+01 -0.29187838459E+02  0.43400724560E+02  0.00000000000E+00 0.  1.
         11    1    3    3    0    0 -0.26088912396E+02 -0.24290715569E+01  0.19253437203E+02  0.32515020883E+02  0.51100000000E-03 0. -1.
        -11    1    3    3    0    0 -0.58469139598E+01 -0.30350177859E+01  0.96993886245E+01  0.11725010694E+02  0.51100000000E-03 0.  1.
        -12    1    3    3    0    0 -0.12630178162E+00  0.35371960568E+01  0.23501263145E+00  0.35472438627E+01  0.00000000000E+00 0.  1.
</event>
<event>
 7    1  0.5022032E-011  0.4778727E+02  0.7816164E-02  0.1312668E+00
        -11   -1    0    0    0    0  0.00000000000E+00  0.00000000000E+00  0.45593999997E+02  0.45594000000E+02  0.51100000000E-03 0. -1.
         11   -1    0    0    0    0 -0.00000000000E+00 -0.00000000000E+00 -0.45593999997E+02  0.45594000000E+02  0.51100000000E-03 0.  1.
    9900012    2    1    2    0    0  0.68454129158E+01  0.13902938171E+02 -0.40539755393E+02  0.47787272643E+02  0.20000007288E+02 0.  0.
         12    1    1    2    0    0 -0.68454129158E+01 -0.13902938171E+02  0.40539755393E+02  0.43400727357E+02  0.00000000000E+00 0. -1.
         11    1    3    3    0    0 -0.16894085174E+01  0.52773330531E+01 -0.30653006115E+01  0.63324887202E+01  0.51100000000E-03 0. -1.
        -11    1    3    3    0    0 -0.17424269925E+01  0.58825309215E+01 -0.20717394095E+02  0.21606726736E+02  0.51100000000E-03 0.  1.
         12    1    3    3    0    0  0.10277248426E+02  0.27430741964E+01 -0.16757060687E+02  0.19848057187E+02  0.00000000000E+00 0. -1.
</event>
<event>
 7    1  0.5022032E-011  0.4778727E+02  0.7816164E-02  0.1312668E+00
        -11   -1    0    0    0    0  0.00000000000E+00  0.00000000000E+00  0.45593999997E+02  0.45594000000E+02  0.51100000000E-03 0. -1.
         11   -1    0    0    0    0 -0.00000000000E+00 -0.00000000000E+00 -0.45593999997E+02  0.45594000000E+02  0.51100000000E-03 0.  1.
    9900012    2    1    2    0    0 -0.27887687153E+02 -0.13192799106E+02  0.30526221315E+02  0.47787271541E+02  0.20000002263E+02 0.  0.
        -12    1    1    2    0    0  0.27887687153E+02  0.13192799106E+02 -0.30526221315E+02  0.43400728459E+02  0.00000000000E+00 0.  1.
         11    1    3    3    0    0 -0.62952960540E+01 -0.20835445559E+01 -0.59853793886E+00  0.66580896847E+01  0.51100000000E-03 0. -1.
        -11    1    3    3    0    0 -0.16017522405E+02 -0.12470676546E+02  0.19418386862E+02  0.28091859071E+02  0.51100000000E-03 0.  1.
         12    1    3    3    0    0 -0.55748686941E+01  0.13614219954E+01  0.11706372392E+02  0.13037322785E+02  0.00000000000E+00 0. -1.
</event>
<event>
 7    1  0.5022032E-011  0.4778728E+02  0.7816164E-02  0.1312668E+00
        -11   -1    0    0    0    0  0.00000000000E+00  0.00000000000E+00  0.45593999997E+02  0.45594000000E+02  0.51100000000E-03 0. -1.
         11   -1    0    0    0    0 -0.00000000000E+00 -0.00000000000E+00 -0.45593999997E+02  0.45594000000E+02  0.51100000000E-03 0.  1.
    9900012    2    1    2    0    0  0.81478701816E+01 -0.10615574992E+02 -0.41286132021E+02  0.47787275143E+02  0.20000018686E+02 0.  0.
         12    1    1    2    0    0 -0.81478701816E+01  0.10615574992E+02  0.41286132021E+02  0.43400724857E+02  0.00000000000E+00 0. -1.
         11    1    3    3    0    0  0.64467575812E+00 -0.34119398752E+01 -0.18021817834E+02  0.18353279240E+02  0.51100000000E-03 0. -1.
        -11    1    3    3    0    0  0.10716243006E+02 -0.78753785312E+01 -0.22382195898E+02  0.26035017662E+02  0.51100000000E-03 0.  1.
         12    1    3    3    0    0 -0.32130485827E+01  0.67174341412E+00 -0.88211828865E+00  0.33989782412E+01  0.00000000000E+00 0. -1.
</event>
<event>
 7    1  0.5022032E-011  0.4778728E+02  0.7816164E-02  0.1312668E+00
        -11   -1    0    0    0    0  0.00000000000E+00  0.00000000000E+00  0.45593999997E+02  0.45594000000E+02  0.51100000000E-03 0. -1.
         11   -1    0    0    0    0 -0.00000000000E+00 -0.00000000000E+00 -0.45593999997E+02  0.45594000000E+02  0.51100000000E-03 0.  1.
    9900012    2    1    2    0    0  0.21996679835E+02 -0.15220168206E+02 -0.34177698094E+02  0.47787280064E+02  0.20000041123E+02 0.  0.
         12    1    1    2    0    0 -0.21996679835E+02  0.15220168206E+02  0.34177698094E+02  0.43400719936E+02  0.00000000000E+00 0. -1.
         11    1    3    3    0    0  0.37525865944E+01  0.12287641940E+01 -0.35293181780E+01  0.52960225316E+01  0.51100000000E-03 0. -1.
        -11    1    3    3    0    0  0.10083364354E+02 -0.15337348250E+02 -0.11534414676E+02  0.21678358107E+02  0.51100000000E-03 0.  1.
        -12    1    3    3    0    0  0.81607288864E+01 -0.11115841493E+01 -0.19113965240E+02  0.20812899425E+02  0.00000000000E+00 0.  1.
</event>
<event>
 7    1  0.5022032E-011  0.4778727E+02  0.7816164E-02  0.1312668E+00
        -11   -1    0    0    0    0  0.00000000000E+00  0.00000000000E+00  0.45593999997E+02  0.45594000000E+02  0.51100000000E-03 0.  1.
         11   -1    0    0    0    0 -0.00000000000E+00 -0.00000000000E+00 -0.45593999997E+02  0.45594000000E+02  0.51100000000E-03 0. -1.
    9900012    2    1    2    0    0 -0.38052357555E+02  0.16289255533E+02  0.13049964792E+02  0.47787270256E+02  0.19999996404E+02 0.  0.
         12    1    1    2    0    0  0.38052357555E+02 -0.16289255533E+02 -0.13049964792E+02  0.43400729744E+02  0.00000000000E+00 0. -1.
         11    1    3    3    0    0 -0.72651448585E+01 -0.18533778080E+01 -0.11569849857E+01  0.75865640202E+01  0.51100000000E-03 0. -1.
        -11    1    3    3    0    0 -0.57940026795E+01  0.40125138019E+01 -0.18744686020E+01  0.72927612645E+01  0.51100000000E-03 0.  1.
        -12    1    3    3    0    0 -0.24993210017E+02  0.14130119539E+02  0.16081418380E+02  0.32907944971E+02  0.00000000000E+00 0.  1.
</event>
<event>
 7    1  0.5022032E-011  0.4778727E+02  0.7816164E-02  0.1312668E+00
        -11   -1    0    0    0    0  0.00000000000E+00  0.00000000000E+00  0.45593999997E+02  0.45594000000E+02  0.51100000000E-03 0. -1.
         11   -1    0    0    0    0 -0.00000000000E+00 -0.00000000000E+00 -0.45593999997E+02  0.45594000000E+02  0.51100000000E-03 0.  1.
    9900012    2    1    2    0    0  0.32335155760E+02  0.58852520642E+00  0.28943297526E+02  0.47787272683E+02  0.20000007471E+02 0.  0.
        -12    1    1    2    0    0 -0.32335155760E+02 -0.58852520642E+00 -0.28943297526E+02  0.43400727317E+02  0.00000000000E+00 0.  1.
         11    1    3    3    0    0  0.10495952270E+02  0.36137183795E+01  0.12895341810E+02  0.17015105501E+02  0.51100000000E-03 0. -1.
        -11    1    3    3    0    0  0.16340920240E+02  0.39185176985E+01  0.13501943619E+02  0.21556505676E+02  0.51100000000E-03 0.  1.
        -12    1    3    3    0    0  0.54982832510E+01 -0.69437108716E+01  0.25460120977E+01  0.92156615052E+01  0.00000000000E+00 0.  1.
</event>
<event>
 7    1  0.5022032E-011  0.4778727E+02  0.7816164E-02  0.1312668E+00
        -11   -1    0    0    0    0  0.00000000000E+00  0.00000000000E+00  0.45593999997E+02  0.45594000000E+02  0.51100000000E-03 0. -1.
         11   -1    0    0    0    0 -0.00000000000E+00 -0.00000000000E+00 -0.45593999997E+02  0.45594000000E+02  0.51100000000E-03 0.  1.
    9900012    2    1    2    0    0 -0.10094894048E+02  0.40193342005E+01  0.42018582720E+02  0.47787271584E+02  0.20000002459E+02 0.  0.
        -12    1    1    2    0    0  0.10094894048E+02 -0.40193342005E+01 -0.42018582720E+02  0.43400728416E+02  0.00000000000E+00 0.  1.
         11    1    3    3    0    0  0.27573838818E+01  0.65161414868E+01  0.17801317908E+02  0.19155943863E+02  0.51100000000E-03 0. -1.
        -11    1    3    3    0    0 -0.80440104760E+01  0.21353687946E+01  0.10705313732E+02  0.13559854232E+02  0.51100000000E-03 0.  1.
        -12    1    3    3    0    0 -0.48082674535E+01 -0.46321760809E+01  0.13511951080E+02  0.15071473490E+02  0.00000000000E+00 0.  1.
</event>
<event>
 7    1  0.5022032E-011  0.4778727E+02  0.7816164E-02  0.1312668E+00
        -11   -1    0    0    0    0  0.00000000000E+00  0.00000000000E+00  0.45593999997E+02  0.45594000000E+02  0.51100000000E-03 0. -1.
         11   -1    0    0    0    0 -0.00000000000E+00 -0.00000000000E+00 -0.45593999997E+02  0.45594000000E+02  0.51100000000E-03 0.  1.
    9900012    2    1    2    0    0 -0.17506389781E+02 -0.19270222539E+02 -0.34724746390E+02  0.47787272222E+02  0.20000005368E+02 0.  0.
         12    1    1    2    0    0  0.17506389781E+02  0.19270222539E+02  0.34724746390E+02  0.43400727778E+02  0.00000000000E+00 0. -1.
         11    1    3    3    0    0 -0.26214660231E+01  0.59770412784E+00 -0.18397782135E+01  0.32579316246E+01  0.51100000000E-03 0. -1.
        -11    1    3    3    0    0 -0.92742216691E+01 -0.16768226494E+02 -0.32952575405E+02  0.38118982586E+02  0.51100000000E-03 0.  1.
        -12    1    3    3    0    0 -0.56107020893E+01 -0.30997001722E+01  0.67607228667E-01  0.64103580110E+01  0.00000000000E+00 0.  1.
</event>
<event>
 7    1  0.5022032E-011  0.4778727E+02  0.7816164E-02  0.1312668E+00
        -11   -1    0    0    0    0  0.00000000000E+00  0.00000000000E+00  0.45593999997E+02  0.45594000000E+02  0.51100000000E-03 0. -1.
         11   -1    0    0    0    0 -0.00000000000E+00 -0.00000000000E+00 -0.45593999997E+02  0.45594000000E+02  0.51100000000E-03 0.  1.
    9900012    2    1    2    0    0  0.60020815587E+01 -0.28778660697E+02 -0.31927838347E+02  0.47787272402E+02  0.20000006189E+02 0.  0.
         12    1    1    2    0    0 -0.60020815587E+01  0.28778660697E+02  0.31927838347E+02  0.43400727598E+02  0.00000000000E+00 0. -1.
         11    1    3    3    0    0 -0.20908710174E+01  0.95868798178E+00 -0.15990606405E+01  0.28013959825E+01  0.51100000000E-03 0. -1.
        -11    1    3    3    0    0  0.68694137616E+01 -0.80719275290E+01 -0.52695528969E+01  0.11836935729E+02  0.51100000000E-03 0.  1.
        -12    1    3    3    0    0  0.12235388144E+01 -0.21665421150E+02 -0.25059224810E+02  0.33148940690E+02  0.00000000000E+00 0.  1.
</event>
<event>
 7    1  0.5022032E-011  0.4778728E+02  0.7816164E-02  0.1312668E+00
        -11   -1    0    0    0    0  0.00000000000E+00  0.00000000000E+00  0.45593999997E+02  0.45594000000E+02  0.51100000000E-03 0. -1.
         11   -1    0    0    0    0 -0.00000000000E+00 -0.00000000000E+00 -0.45593999997E+02  0.45594000000E+02  0.51100000000E-03 0.  1.
    9900012    2    1    2    0    0 -0.77125878298E+01 -0.13190918849E+02 -0.40621895550E+02  0.47787277089E+02  0.20000027560E+02 0.  0.
         12    1    1    2    0    0  0.77125878298E+01  0.13190918849E+02  0.40621895550E+02  0.43400722911E+02  0.00000000000E+00 0. -1.
         11    1    3    3    0    0 -0.47039190610E+01 -0.13744501690E+01 -0.60247420395E+01  0.77661756807E+01  0.51100000000E-03 0. -1.
        -11    1    3    3    0    0 -0.27897583990E+01  0.32382444342E+01 -0.37104763607E+01  0.56600895774E+01  0.51100000000E-03 0.  1.
         12    1    3    3    0    0 -0.21891036975E+00 -0.15054713114E+02 -0.30886677150E+02  0.34361011831E+02  0.00000000000E+00 0. -1.
</event>
<event>
 7    1  0.5022032E-011  0.4778727E+02  0.7816164E-02  0.1312668E+00
        -11   -1    0    0    0    0  0.00000000000E+00  0.00000000000E+00  0.45593999997E+02  0.45594000000E+02  0.51100000000E-03 0. -1.
         11   -1    0    0    0    0 -0.00000000000E+00 -0.00000000000E+00 -0.45593999997E+02  0.45594000000E+02  0.51100000000E-03 0.  1.
    9900012    2    1    2    0    0 -0.27344102193E+02 -0.26537950222E+02 -0.20776449030E+02  0.47787267736E+02  0.19999984917E+02 0.  0.
         12    1    1    2    0    0  0.27344102193E+02  0.26537950222E+02  0.20776449030E+02  0.43400732264E+02  0.00000000000E+00 0. -1.
         11    1    3    3    0    0 -0.29083834543E+01  0.21355932184E+01 -0.16486006264E+01  0.39670312575E+01  0.51100000000E-03 0. -1.
        -11    1    3    3    0    0 -0.16965061690E+02 -0.10952148624E+02 -0.97185122438E+01  0.22410095004E+02  0.51100000000E-03 0.  1.
         12    1    3    3    0    0 -0.74706570491E+01 -0.17721394816E+02 -0.94093361603E+01  0.21410141475E+02  0.00000000000E+00 0. -1.
</event>
<event>
 7    1  0.5022032E-011  0.4778727E+02  0.7816164E-02  0.1312668E+00
        -11   -1    0    0    0    0  0.00000000000E+00  0.00000000000E+00  0.45593999997E+02  0.45594000000E+02  0.51100000000E-03 0. -1.
         11   -1    0    0    0    0 -0.00000000000E+00 -0.00000000000E+00 -0.45593999997E+02  0.45594000000E+02  0.51100000000E-03 0.  1.
    9900012    2    1    2    0    0 -0.25159422850E+02  0.31798520565E+01  0.35220946272E+02  0.47787273352E+02  0.20000010520E+02 0.  0.
        -12    1    1    2    0    0  0.25159422850E+02 -0.31798520565E+01 -0.35220946272E+02  0.43400726648E+02  0.00000000000E+00 0.  1.
         11    1    3    3    0    0 -0.89045800546E+01  0.92872320163E+01  0.22984709756E+02  0.26340863830E+02  0.51100000000E-03 0. -1.
        -11    1    3    3    0    0 -0.29383574696E+01 -0.12520377958E+01  0.96317760522E+00  0.33360537498E+01  0.51100000000E-03 0.  1.
         12    1    3    3    0    0 -0.13316485326E+02 -0.48553421640E+01  0.11273058911E+02  0.18110355772E+02  0.00000000000E+00 0. -1.
</event>
<event>
 7    1  0.5022032E-011  0.4778724E+02  0.7816164E-02  0.1312668E+00
        -11   -1    0    0    0    0  0.00000000000E+00  0.00000000000E+00  0.45593999997E+02  0.45594000000E+02  0.51100000000E-03 0. -1.
         11   -1    0    0    0    0 -0.00000000000E+00 -0.00000000000E+00 -0.45593999997E+02  0.45594000000E+02  0.51100000000E-03 0.  1.
    9900012    2    1    2    0    0  0.67877290163E+01  0.17705194052E+02 -0.39039451985E+02  0.47787239951E+02  0.19999858230E+02 0.  0.
         12    1    1    2    0    0 -0.67877290163E+01 -0.17705194052E+02  0.39039451985E+02  0.43400760049E+02  0.00000000000E+00 0. -1.
         11    1    3    3    0    0  0.19931361256E+01  0.67651496955E+01 -0.12237796431E+02  0.14124570923E+02  0.51100000000E-03 0. -1.
        -11    1    3    3    0    0  0.91422112389E+01  0.10513785485E+02 -0.25577255553E+02  0.29125859875E+02  0.51100000000E-03 0.  1.
         12    1    3    3    0    0 -0.43476183482E+01  0.42625887124E+00 -0.12244000011E+01  0.45368091529E+01  0.00000000000E+00 0. -1.
</event>
<event>
 7    1  0.5022032E-011  0.4778727E+02  0.7816164E-02  0.1312668E+00
        -11   -1    0    0    0    0  0.00000000000E+00  0.00000000000E+00  0.45593999997E+02  0.45594000000E+02  0.51100000000E-03 0. -1.
         11   -1    0    0    0    0 -0.00000000000E+00 -0.00000000000E+00 -0.45593999997E+02  0.45594000000E+02  0.51100000000E-03 0.  1.
    9900012    2    1    2    0    0  0.27583429420E+01  0.27859773590E+02 -0.33163952309E+02  0.47787272206E+02  0.20000005298E+02 0.  0.
         12    1    1    2    0    0 -0.27583429420E+01 -0.27859773590E+02  0.33163952309E+02  0.43400727794E+02  0.00000000000E+00 0. -1.
         11    1    3    3    0    0 -0.48303897015E+01  0.11193946920E+02 -0.10282218103E+02  0.15948702822E+02  0.51100000000E-03 0. -1.
        -11    1    3    3    0    0 -0.54310723024E-01 -0.18371214359E+01 -0.36079733298E+01  0.40491278857E+01  0.51100000000E-03 0.  1.
        -12    1    3    3    0    0  0.76430433665E+01  0.18502948106E+02 -0.19273760876E+02  0.27789441499E+02  0.00000000000E+00 0.  1.
</event>
<event>
 7    1  0.5022032E-011  0.4778727E+02  0.7816164E-02  0.1312668E+00
        -11   -1    0    0    0    0  0.00000000000E+00  0.00000000000E+00  0.45593999997E+02  0.45594000000E+02  0.51100000000E-03 0. -1.
         11   -1    0    0    0    0 -0.00000000000E+00 -0.00000000000E+00 -0.45593999997E+02  0.45594000000E+02  0.51100000000E-03 0.  1.
    9900012    2    1    2    0    0  0.22307629683E+02 -0.19082532188E+02  0.31966387649E+02  0.47787270558E+02  0.19999997781E+02 0.  0.
        -12    1    1    2    0    0 -0.22307629683E+02  0.19082532188E+02 -0.31966387649E+02  0.43400729442E+02  0.00000000000E+00 0.  1.
         11    1    3    3    0    0  0.71686495888E+01 -0.10685071702E+02  0.13596875951E+02  0.18719918005E+02  0.51100000000E-03 0. -1.
        -11    1    3    3    0    0  0.10948733522E+02 -0.15498088465E+01  0.25810686269E+01  0.11355112889E+02  0.51100000000E-03 0.  1.
         12    1    3    3    0    0  0.41902465716E+01 -0.68476516392E+01  0.15788443071E+02  0.17712239664E+02  0.00000000000E+00 0. -1.
</event>
<event>
 7    1  0.5022032E-011  0.4778727E+02  0.7816164E-02  0.1312668E+00
        -11   -1    0    0    0    0  0.00000000000E+00  0.00000000000E+00  0.45593999997E+02  0.45594000000E+02  0.51100000000E-03 0. -1.
         11   -1    0    0    0    0 -0.00000000000E+00 -0.00000000000E+00 -0.45593999997E+02  0.45594000000E+02  0.51100000000E-03 0.  1.
    9900012    2    1    2    0    0 -0.17437388813E+02 -0.10061084974E+02  0.38449126016E+02  0.47787271309E+02  0.20000001208E+02 0.  0.
        -12    1    1    2    0    0  0.17437388813E+02  0.10061084974E+02 -0.38449126016E+02  0.43400728691E+02  0.00000000000E+00 0.  1.
         11    1    3    3    0    0  0.18977020564E+01 -0.24051664356E+01  0.37244114898E+01  0.48225864310E+01  0.51100000000E-03 0. -1.
        -11    1    3    3    0    0  0.23482410079E+01 -0.13923780813E+01  0.36046094074E+01  0.45217432250E+01  0.51100000000E-03 0.  1.
         12    1    3    3    0    0 -0.21683331877E+02 -0.62635404572E+01  0.31120105119E+02  0.38442941653E+02  0.00000000000E+00 0. -1.
</event>
<event>
 7    1  0.5022032E-011  0.4778727E+02  0.7816164E-02  0.1312668E+00
        -11   -1    0    0    0    0  0.00000000000E+00  0.00000000000E+00  0.45593999997E+02  0.45594000000E+02  0.51100000000E-03 0. -1.
         11   -1    0    0    0    0 -0.00000000000E+00 -0.00000000000E+00 -0.45593999997E+02  0.45594000000E+02  0.51100000000E-03 0.  1.
    9900012    2    1    2    0    0  0.24559925852E+02  0.27780901205E+02 -0.22553378229E+02  0.47787270753E+02  0.19999998672E+02 0.  0.
         12    1    1    2    0    0 -0.24559925852E+02 -0.27780901205E+02  0.22553378229E+02  0.43400729247E+02  0.00000000000E+00 0. -1.
         11    1    3    3    0    0  0.61373652752E+01  0.31678215865E+01 -0.13251588325E+01  0.70326660889E+01  0.51100000000E-03 0. -1.
        -11    1    3    3    0    0  0.10496594949E+02  0.33178944101E+01 -0.24519023697E+01  0.11278242520E+02  0.51100000000E-03 0.  1.
        -12    1    3    3    0    0  0.79259656278E+01  0.21295185208E+02 -0.18776317027E+02  0.29476362145E+02  0.00000000000E+00 0.  1.
</event>
<event>
 7    1  0.5022032E-011  0.4778727E+02  0.7816164E-02  0.1312668E+00
        -11   -1    0    0    0    0  0.00000000000E+00  0.00000000000E+00  0.45593999997E+02  0.45594000000E+02  0.51100000000E-03 0. -1.
         11   -1    0    0    0    0 -0.00000000000E+00 -0.00000000000E+00 -0.45593999997E+02  0.45594000000E+02  0.51100000000E-03 0.  1.
    9900012    2    1    2    0    0  0.18975671077E+00 -0.38929314861E+01 -0.43225366636E+02  0.47787271389E+02  0.20000001569E+02 0.  0.
         12    1    1    2    0    0 -0.18975671077E+00  0.38929314861E+01  0.43225366636E+02  0.43400728611E+02  0.00000000000E+00 0. -1.
         11    1    3    3    0    0 -0.27512990137E+01  0.10520598855E+01 -0.20900964724E+02  0.21107505843E+02  0.51100000000E-03 0. -1.
        -11    1    3    3    0    0 -0.44755595575E+01 -0.39306847079E+01 -0.15283041008E+02  0.16402812513E+02  0.51100000000E-03 0.  1.
         12    1    3    3    0    0  0.74166152819E+01 -0.10143066637E+01 -0.70413609047E+01  0.10276953033E+02  0.00000000000E+00 0. -1.
</event>
<event>
 7    1  0.5022032E-011  0.4778727E+02  0.7816164E-02  0.1312668E+00
        -11   -1    0    0    0    0  0.00000000000E+00  0.00000000000E+00  0.45593999997E+02  0.45594000000E+02  0.51100000000E-03 0. -1.
         11   -1    0    0    0    0 -0.00000000000E+00 -0.00000000000E+00 -0.45593999997E+02  0.45594000000E+02  0.51100000000E-03 0.  1.
    9900012    2    1    2    0    0  0.99212656539E+01 -0.19104969594E+02  0.37685429900E+02  0.47787274176E+02  0.20000014276E+02 0.  0.
        -12    1    1    2    0    0 -0.99212656539E+01  0.19104969594E+02 -0.37685429900E+02  0.43400725824E+02  0.00000000000E+00 0.  1.
         11    1    3    3    0    0  0.64829197030E+00  0.15060525560E+01  0.65085394673E+01  0.67118971266E+01  0.51100000000E-03 0.  1.
        -11    1    3    3    0    0  0.60863880471E+01 -0.20413798642E+01  0.14720512025E+02  0.16059415486E+02  0.51100000000E-03 0. -1.
        -12    1    3    3    0    0  0.31865856365E+01 -0.18569642286E+02  0.16456378408E+02  0.25015961563E+02  0.00000000000E+00 0.  1.
</event>
<event>
 7    1  0.5022032E-011  0.4778725E+02  0.7816164E-02  0.1312668E+00
        -11   -1    0    0    0    0  0.00000000000E+00  0.00000000000E+00  0.45593999997E+02  0.45594000000E+02  0.51100000000E-03 0. -1.
         11   -1    0    0    0    0 -0.00000000000E+00 -0.00000000000E+00 -0.45593999997E+02  0.45594000000E+02  0.51100000000E-03 0.  1.
    9900012    2    1    2    0    0 -0.35181851205E+01 -0.51418946942E+01  0.42951228883E+02  0.47787253806E+02  0.19999921403E+02 0.  0.
        -12    1    1    2    0    0  0.35181851205E+01  0.51418946942E+01 -0.42951228883E+02  0.43400746194E+02  0.00000000000E+00 0.  1.
         11    1    3    3    0    0  0.48329803738E+00  0.17395003484E+01  0.22047143920E+02  0.22120940165E+02  0.51100000000E-03 0. -1.
        -11    1    3    3    0    0  0.32799737477E+01 -0.62036171098E+01  0.13743830468E+02  0.15431654779E+02  0.51100000000E-03 0.  1.
        -12    1    3    3    0    0 -0.72814569055E+01 -0.67777793275E+00  0.71602544947E+01  0.10234658862E+02  0.00000000000E+00 0.  1.
</event>
<event>
 7    1  0.5022032E-011  0.4778727E+02  0.7816164E-02  0.1312668E+00
        -11   -1    0    0    0    0  0.00000000000E+00  0.00000000000E+00  0.45593999997E+02  0.45594000000E+02  0.51100000000E-03 0. -1.
         11   -1    0    0    0    0 -0.00000000000E+00 -0.00000000000E+00 -0.45593999997E+02  0.45594000000E+02  0.51100000000E-03 0.  1.
    9900012    2    1    2    0    0 -0.48533701161E+01 -0.23033584223E+02  0.36462608583E+02  0.47787273874E+02  0.20000012900E+02 0.  0.
        -12    1    1    2    0    0  0.48533701161E+01  0.23033584223E+02 -0.36462608583E+02  0.43400726126E+02  0.00000000000E+00 0.  1.
         11    1    3    3    0    0 -0.38662331001E+01 -0.37907819548E+01  0.61404126951E+01  0.81867242863E+01  0.51100000000E-03 0. -1.
        -11    1    3    3    0    0  0.55476761244E+01 -0.45894270650E+00  0.60583678555E+01  0.82274637722E+01  0.51100000000E-03 0.  1.
         12    1    3    3    0    0 -0.65348131403E+01 -0.18783859561E+02  0.24263828032E+02  0.31373085815E+02  0.00000000000E+00 0. -1.
</event>
<event>
 7    1  0.5022032E-011  0.4778731E+02  0.7816164E-02  0.1312668E+00
        -11   -1    0    0    0    0  0.00000000000E+00  0.00000000000E+00  0.45593999997E+02  0.45594000000E+02  0.51100000000E-03 0. -1.
         11   -1    0    0    0    0 -0.00000000000E+00 -0.00000000000E+00 -0.45593999997E+02  0.45594000000E+02  0.51100000000E-03 0.  1.
    9900012    2    1    2    0    0  0.27686502268E+02 -0.15633072754E+02 -0.29541239560E+02  0.47787306385E+02  0.20000161130E+02 0.  0.
         12    1    1    2    0    0 -0.27686502268E+02  0.15633072754E+02  0.29541239560E+02  0.43400693615E+02  0.00000000000E+00 0. -1.
         11    1    3    3    0    0  0.10884970013E+02 -0.59635944516E+00 -0.12233197544E+02  0.16385644302E+02  0.51100000000E-03 0. -1.
        -11    1    3    3    0    0  0.14789251342E+02 -0.55000246439E+01 -0.14042183823E+02  0.21122385119E+02  0.51100000000E-03 0.  1.
         12    1    3    3    0    0  0.20122809131E+01 -0.95366886649E+01 -0.32658581927E+01  0.10279276964E+02  0.00000000000E+00 0. -1.
</event>
<event>
 7    1  0.5022032E-011  0.4778727E+02  0.7816164E-02  0.1312668E+00
        -11   -1    0    0    0    0  0.00000000000E+00  0.00000000000E+00  0.45593999997E+02  0.45594000000E+02  0.51100000000E-03 0. -1.
         11   -1    0    0    0    0 -0.00000000000E+00 -0.00000000000E+00 -0.45593999997E+02  0.45594000000E+02  0.51100000000E-03 0.  1.
    9900012    2    1    2    0    0 -0.33140165376E+02  0.15853279235E+02  0.23109009978E+02  0.47787269985E+02  0.19999995172E+02 0.  0.
        -12    1    1    2    0    0  0.33140165376E+02 -0.15853279235E+02 -0.23109009978E+02  0.43400730015E+02  0.00000000000E+00 0.  1.
         11    1    3    3    0    0 -0.14357108772E+02  0.84385416765E+01  0.10183986323E+02  0.19520479902E+02  0.51100000000E-03 0. -1.
        -11    1    3    3    0    0 -0.15291900126E+02  0.56658883390E+01  0.16335558754E+02  0.23082352138E+02  0.51100000000E-03 0.  1.
        -12    1    3    3    0    0 -0.34911564778E+01  0.17488492191E+01 -0.34105350997E+01  0.51844379454E+01  0.00000000000E+00 0.  1.
</event>
<event>
 7    1  0.5022032E-011  0.4778727E+02  0.7816164E-02  0.1312668E+00
        -11   -1    0    0    0    0  0.00000000000E+00  0.00000000000E+00  0.45593999997E+02  0.45594000000E+02  0.51100000000E-03 0. -1.
         11   -1    0    0    0    0 -0.00000000000E+00 -0.00000000000E+00 -0.45593999997E+02  0.45594000000E+02  0.51100000000E-03 0.  1.
    9900012    2    1    2    0    0 -0.78117473905E+01  0.91651977671E+01  0.41696507102E+02  0.47787274754E+02  0.20000016912E+02 0.  0.
        -12    1    1    2    0    0  0.78117473905E+01 -0.91651977671E+01 -0.41696507102E+02  0.43400725246E+02  0.00000000000E+00 0.  1.
         11    1    3    3    0    0 -0.49752989728E+01  0.48785826173E+01  0.21068084594E+02  0.22190501503E+02  0.51100000000E-03 0. -1.
        -11    1    3    3    0    0 -0.13626866503E+01  0.50649983504E+01  0.22492662128E+02  0.23096124632E+02  0.51100000000E-03 0.  1.
        -12    1    3    3    0    0 -0.14737617674E+01 -0.77838320063E+00 -0.18642396195E+01  0.25006486184E+01  0.00000000000E+00 0.  1.
</event>
<event>
 7    1  0.5022032E-011  0.4778726E+02  0.7816164E-02  0.1312668E+00
        -11   -1    0    0    0    0  0.00000000000E+00  0.00000000000E+00  0.45593999997E+02  0.45594000000E+02  0.51100000000E-03 0. -1.
         11   -1    0    0    0    0 -0.00000000000E+00 -0.00000000000E+00 -0.45593999997E+02  0.45594000000E+02  0.51100000000E-03 0.  1.
    9900012    2    1    2    0    0  0.37720225138E+01  0.38686480335E+02 -0.19306788473E+02  0.47787262729E+02  0.19999962085E+02 0.  0.
         12    1    1    2    0    0 -0.37720225138E+01 -0.38686480335E+02  0.19306788473E+02  0.43400737271E+02  0.00000000000E+00 0. -1.
         11    1    3    3    0    0 -0.34555010202E+01  0.16361595152E+02  0.27338173445E+00  0.16724742780E+02  0.51100000000E-03 0. -1.
        -11    1    3    3    0    0 -0.37165073726E-01  0.77387095704E+01 -0.75118447018E+01  0.10785027498E+02  0.51100000000E-03 0.  1.
        -12    1    3    3    0    0  0.72646886077E+01  0.14586175613E+02 -0.12068325506E+02  0.20277492451E+02  0.00000000000E+00 0.  1.
</event>
<event>
 7    1  0.5022032E-011  0.4778727E+02  0.7816164E-02  0.1312668E+00
        -11   -1    0    0    0    0  0.00000000000E+00  0.00000000000E+00  0.45593999997E+02  0.45594000000E+02  0.51100000000E-03 0. -1.
         11   -1    0    0    0    0 -0.00000000000E+00 -0.00000000000E+00 -0.45593999997E+02  0.45594000000E+02  0.51100000000E-03 0.  1.
    9900012    2    1    2    0    0  0.34294851447E+02 -0.21845838893E+02 -0.15173856094E+02  0.47787269344E+02  0.19999992248E+02 0.  0.
         12    1    1    2    0    0 -0.34294851447E+02  0.21845838893E+02  0.15173856094E+02  0.43400730656E+02  0.00000000000E+00 0. -1.
         11    1    3    3    0    0  0.13945852383E+02 -0.38607088623E+01 -0.15969555979E+01  0.14558232689E+02  0.51100000000E-03 0. -1.
        -11    1    3    3    0    0  0.98357703299E+01 -0.17480577918E+01 -0.87794630029E+01  0.13299513333E+02  0.51100000000E-03 0.  1.
         12    1    3    3    0    0  0.10513228734E+02 -0.16237072239E+02 -0.47974374935E+01  0.19929523321E+02  0.00000000000E+00 0. -1.
</event>
<event>
 7    1  0.5022032E-011  0.4778727E+02  0.7816164E-02  0.1312668E+00
        -11   -1    0    0    0    0  0.00000000000E+00  0.00000000000E+00  0.45593999997E+02  0.45594000000E+02  0.51100000000E-03 0.  1.
         11   -1    0    0    0    0 -0.00000000000E+00 -0.00000000000E+00 -0.45593999997E+02  0.45594000000E+02  0.51100000000E-03 0. -1.
    9900012    2    1    2    0    0 -0.37547219562E+02 -0.20281877137E+02  0.79041199635E+01  0.47787270174E+02  0.19999996031E+02 0.  0.
         12    1    1    2    0    0  0.37547219562E+02  0.20281877137E+02 -0.79041199635E+01  0.43400729826E+02  0.00000000000E+00 0. -1.
         11    1    3    3    0    0 -0.60662485024E+01 -0.36331757984E+00 -0.53670753969E+01  0.81078276458E+01  0.51100000000E-03 0. -1.
        -11    1    3    3    0    0 -0.17059588958E+02 -0.89474697468E+01  0.73083647688E+01  0.20603373174E+02  0.51100000000E-03 0.  1.
        -12    1    3    3    0    0 -0.14421382101E+02 -0.10971089810E+02  0.59628305916E+01  0.19076069354E+02  0.00000000000E+00 0.  1.
</event>
<event>
 7    1  0.5022032E-011  0.4778727E+02  0.7816164E-02  0.1312668E+00
        -11   -1    0    0    0    0  0.00000000000E+00  0.00000000000E+00  0.45593999997E+02  0.45594000000E+02  0.51100000000E-03 0. -1.
         11   -1    0    0    0    0 -0.00000000000E+00 -0.00000000000E+00 -0.45593999997E+02  0.45594000000E+02  0.51100000000E-03 0.  1.
    9900012    2    1    2    0    0 -0.14821847779E+02 -0.22465029591E+02 -0.34047886283E+02  0.47787270899E+02  0.19999999339E+02 0.  0.
         12    1    1    2    0    0  0.14821847779E+02  0.22465029591E+02  0.34047886283E+02  0.43400729101E+02  0.00000000000E+00 0. -1.
         11    1    3    3    0    0  0.44787190078E+00 -0.65744242649E+01 -0.93279884741E+01  0.11420814896E+02  0.51100000000E-03 0. -1.
        -11    1    3    3    0    0 -0.10017336659E+02 -0.18217684124E+02 -0.17770599334E+02  0.27350050265E+02  0.51100000000E-03 0.  1.
         12    1    3    3    0    0 -0.52523830212E+01  0.23270787979E+01 -0.69492984755E+01  0.90164057382E+01  0.00000000000E+00 0. -1.
</event>
<event>
 7    1  0.5022032E-011  0.4778727E+02  0.7816164E-02  0.1312668E+00
        -11   -1    0    0    0    0  0.00000000000E+00  0.00000000000E+00  0.45593999997E+02  0.45594000000E+02  0.51100000000E-03 0. -1.
         11   -1    0    0    0    0 -0.00000000000E+00 -0.00000000000E+00 -0.45593999997E+02  0.45594000000E+02  0.51100000000E-03 0.  1.
    9900012    2    1    2    0    0 -0.52787297030E+01  0.25002177451E+02 -0.35080616119E+02  0.47787268533E+02  0.19999988548E+02 0.  0.
         12    1    1    2    0    0  0.52787297030E+01 -0.25002177451E+02  0.35080616119E+02  0.43400731467E+02  0.00000000000E+00 0. -1.
         11    1    3    3    0    0 -0.16871115774E+01  0.14520220694E+01 -0.13129867722E+01  0.25843080485E+01  0.51100000000E-03 0. -1.
        -11    1    3    3    0    0  0.22100265399E+01  0.24644933467E+01 -0.17849632375E+02  0.18153989120E+02  0.51100000000E-03 0.  1.
        -12    1    3    3    0    0 -0.58016446654E+01  0.21085662035E+02 -0.15917996972E+02  0.27048971364E+02  0.00000000000E+00 0.  1.
</event>
<event>
 7    1  0.5022032E-011  0.4778727E+02  0.7816164E-02  0.1312668E+00
        -11   -1    0    0    0    0  0.00000000000E+00  0.00000000000E+00  0.45593999997E+02  0.45594000000E+02  0.51100000000E-03 0. -1.
         11   -1    0    0    0    0 -0.00000000000E+00 -0.00000000000E+00 -0.45593999997E+02  0.45594000000E+02  0.51100000000E-03 0.  1.
    9900012    2    1    2    0    0 -0.10953343835E+01 -0.15607156237E+02  0.40482594420E+02  0.47787268045E+02  0.19999986325E+02 0.  0.
        -12    1    1    2    0    0  0.10953343835E+01  0.15607156237E+02 -0.40482594420E+02  0.43400731955E+02  0.00000000000E+00 0.  1.
         11    1    3    3    0    0  0.24071122556E+01 -0.10034177575E+02  0.13109577779E+02  0.16683522974E+02  0.51100000000E-03 0. -1.
        -11    1    3    3    0    0 -0.66569670274E+01 -0.81315647396E+01  0.21872717424E+02  0.24266300148E+02  0.51100000000E-03 0.  1.
        -12    1    3    3    0    0  0.31545203883E+01  0.25585860772E+01  0.55002992177E+01  0.68374449233E+01  0.00000000000E+00 0.  1.
</event>
<event>
 7    1  0.5022032E-011  0.4778728E+02  0.7816164E-02  0.1312668E+00
        -11   -1    0    0    0    0  0.00000000000E+00  0.00000000000E+00  0.45593999997E+02  0.45594000000E+02  0.51100000000E-03 0. -1.
         11   -1    0    0    0    0 -0.00000000000E+00 -0.00000000000E+00 -0.45593999997E+02  0.45594000000E+02  0.51100000000E-03 0.  1.
    9900012    2    1    2    0    0  0.30848348914E+02  0.22375334036E+02  0.20768874997E+02  0.47787281428E+02  0.20000047344E+02 0.  0.
        -12    1    1    2    0    0 -0.30848348914E+02 -0.22375334036E+02 -0.20768874997E+02  0.43400718572E+02  0.00000000000E+00 0.  1.
         11    1    3    3    0    0  0.35968889538E-02  0.36747158236E+01 -0.15626415503E+01  0.39931689418E+01  0.51100000000E-03 0. -1.
        -11    1    3    3    0    0  0.88322861611E+01  0.11423320857E+02  0.96615368451E+01  0.17373739744E+02  0.51100000000E-03 0.  1.
         12    1    3    3    0    0  0.22012465864E+02  0.72772973548E+01  0.12669979702E+02  0.26420372742E+02  0.00000000000E+00 0. -1.
</event>
<event>
 7    1  0.5022032E-011  0.4778727E+02  0.7816164E-02  0.1312668E+00
        -11   -1    0    0    0    0  0.00000000000E+00  0.00000000000E+00  0.45593999997E+02  0.45594000000E+02  0.51100000000E-03 0. -1.
         11   -1    0    0    0    0 -0.00000000000E+00 -0.00000000000E+00 -0.45593999997E+02  0.45594000000E+02  0.51100000000E-03 0.  1.
    9900012    2    1    2    0    0 -0.10536845179E+02 -0.15311718410E+01 -0.42074378889E+02  0.47787274748E+02  0.20000016884E+02 0.  0.
         12    1    1    2    0    0  0.10536845179E+02  0.15311718410E+01  0.42074378889E+02  0.43400725252E+02  0.00000000000E+00 0. -1.
         11    1    3    3    0    0 -0.60518991802E+01  0.69185478459E+01 -0.23269801664E+02  0.25019501548E+02  0.51100000000E-03 0. -1.
        -11    1    3    3    0    0 -0.58837161105E+01 -0.27145248592E+01 -0.68155498139E+01  0.94041735419E+01  0.51100000000E-03 0.  1.
         12    1    3    3    0    0  0.13987701116E+01 -0.57351948277E+01 -0.11989027411E+02  0.13363599657E+02  0.00000000000E+00 0. -1.
</event>
<event>
 7    1  0.5022032E-011  0.4778727E+02  0.7816164E-02  0.1312668E+00
        -11   -1    0    0    0    0  0.00000000000E+00  0.00000000000E+00  0.45593999997E+02  0.45594000000E+02  0.51100000000E-03 0. -1.
         11   -1    0    0    0    0 -0.00000000000E+00 -0.00000000000E+00 -0.45593999997E+02  0.45594000000E+02  0.51100000000E-03 0.  1.
    9900012    2    1    2    0    0  0.18567465216E+02 -0.21854034950E+02  0.32577195306E+02  0.47787271180E+02  0.20000000618E+02 0.  0.
        -12    1    1    2    0    0 -0.18567465216E+02  0.21854034950E+02 -0.32577195306E+02  0.43400728820E+02  0.00000000000E+00 0.  1.
         11    1    3    3    0    0 -0.28873543514E+01 -0.16566877118E+01  0.83599809896E+01  0.89983727269E+01  0.51100000000E-03 0. -1.
        -11    1    3    3    0    0  0.13920055602E+02 -0.85054644954E+01  0.14452010679E+02  0.21793840579E+02  0.51100000000E-03 0.  1.
        -12    1    3    3    0    0  0.75347639655E+01 -0.11691882743E+02  0.97652036370E+01  0.16995057874E+02  0.00000000000E+00 0.  1.
</event>
<event>
 7    1  0.5022032E-011  0.4778725E+02  0.7816164E-02  0.1312668E+00
        -11   -1    0    0    0    0  0.00000000000E+00  0.00000000000E+00  0.45593999997E+02  0.45594000000E+02  0.51100000000E-03 0. -1.
         11   -1    0    0    0    0 -0.00000000000E+00 -0.00000000000E+00 -0.45593999997E+02  0.45594000000E+02  0.51100000000E-03 0.  1.
    9900012    2    1    2    0    0  0.71446730374E+01  0.45007286724E+01  0.42571373925E+02  0.47787253586E+02  0.19999920402E+02 0.  0.
        -12    1    1    2    0    0 -0.71446730374E+01 -0.45007286724E+01 -0.42571373925E+02  0.43400746414E+02  0.00000000000E+00 0.  1.
         11    1    3    3    0    0 -0.17577697412E+01 -0.18413811811E+01  0.92510783542E+01  0.95949408593E+01  0.51100000000E-03 0.  1.
        -11    1    3    3    0    0 -0.24375597939E+01  0.33630207359E+00  0.18179051132E+02  0.18344827532E+02  0.51100000000E-03 0. -1.
        -12    1    3    3    0    0  0.11340002573E+02  0.60058077799E+01  0.15141244439E+02  0.19847485195E+02  0.00000000000E+00 0.  1.
</event>
<event>
 7    1  0.5022032E-011  0.4778726E+02  0.7816164E-02  0.1312668E+00
        -11   -1    0    0    0    0  0.00000000000E+00  0.00000000000E+00  0.45593999997E+02  0.45594000000E+02  0.51100000000E-03 0. -1.
         11   -1    0    0    0    0 -0.00000000000E+00 -0.00000000000E+00 -0.45593999997E+02  0.45594000000E+02  0.51100000000E-03 0.  1.
    9900012    2    1    2    0    0  0.12804641946E+02  0.52671907525E+01  0.41132976136E+02  0.47787264066E+02  0.19999968185E+02 0.  0.
        -12    1    1    2    0    0 -0.12804641946E+02 -0.52671907525E+01 -0.41132976136E+02  0.43400735934E+02  0.00000000000E+00 0.  1.
         11    1    3    3    0    0  0.38263807002E+01 -0.11790779486E+01  0.13786528157E+02  0.14356175430E+02  0.51100000000E-03 0. -1.
        -11    1    3    3    0    0 -0.17421027632E+01 -0.39372019450E+01  0.60262080165E+01  0.74061909584E+01  0.51100000000E-03 0.  1.
         12    1    3    3    0    0  0.10720364009E+02  0.10383470646E+02  0.21320239962E+02  0.26024897679E+02  0.00000000000E+00 0. -1.
</event>
<event>
 7    1  0.5022032E-011  0.4778727E+02  0.7816164E-02  0.1312668E+00
        -11   -1    0    0    0    0  0.00000000000E+00  0.00000000000E+00  0.45593999997E+02  0.45594000000E+02  0.51100000000E-03 0. -1.
         11   -1    0    0    0    0 -0.00000000000E+00 -0.00000000000E+00 -0.45593999997E+02  0.45594000000E+02  0.51100000000E-03 0.  1.
    9900012    2    1    2    0    0  0.29814975847E+02  0.26670839404E+02 -0.16833205953E+02  0.47787270952E+02  0.19999999577E+02 0.  0.
         12    1    1    2    0    0 -0.29814975847E+02 -0.26670839404E+02  0.16833205953E+02  0.43400729048E+02  0.00000000000E+00 0. -1.
         11    1    3    3    0    0 -0.17782379941E+01  0.33835451740E+01 -0.50447111150E+01  0.63292668456E+01  0.51100000000E-03 0. -1.
        -11    1    3    3    0    0  0.37128654279E+00  0.75706656260E+00 -0.13056243027E+01  0.15542388999E+01  0.51100000000E-03 0.  1.
        -12    1    3    3    0    0  0.31221927298E+02  0.22530227667E+02 -0.10482870535E+02  0.39903765206E+02  0.00000000000E+00 0.  1.
</event>
<event>
 7    1  0.5022032E-011  0.4778727E+02  0.7816164E-02  0.1312668E+00
        -11   -1    0    0    0    0  0.00000000000E+00  0.00000000000E+00  0.45593999997E+02  0.45594000000E+02  0.51100000000E-03 0. -1.
         11   -1    0    0    0    0 -0.00000000000E+00 -0.00000000000E+00 -0.45593999997E+02  0.45594000000E+02  0.51100000000E-03 0.  1.
    9900012    2    1    2    0    0  0.26329768780E+02  0.92095091678E+01 -0.33249832900E+02  0.47787272229E+02  0.20000005402E+02 0.  0.
         12    1    1    2    0    0 -0.26329768780E+02 -0.92095091678E+01  0.33249832900E+02  0.43400727771E+02  0.00000000000E+00 0. -1.
         11    1    3    3    0    0  0.13718459814E+02 -0.41649736132E+00 -0.84818417648E+01  0.16134164054E+02  0.51100000000E-03 0. -1.
        -11    1    3    3    0    0  0.89786876551E+01  0.81615925568E+01 -0.82394999991E+01  0.14666894203E+02  0.51100000000E-03 0.  1.
        -12    1    3    3    0    0  0.36326213110E+01  0.14644139724E+01 -0.16528491136E+02  0.16986213972E+02  0.00000000000E+00 0.  1.
</event>
<event>
 7    1  0.5022032E-011  0.4778727E+02  0.7816164E-02  0.1312668E+00
        -11   -1    0    0    0    0  0.00000000000E+00  0.00000000000E+00  0.45593999997E+02  0.45594000000E+02  0.51100000000E-03 0. -1.
         11   -1    0    0    0    0 -0.00000000000E+00 -0.00000000000E+00 -0.45593999997E+02  0.45594000000E+02  0.51100000000E-03 0.  1.
    9900012    2    1    2    0    0  0.25221690032E+02 -0.12091648234E+02 -0.33185570558E+02  0.47787266154E+02  0.19999977701E+02 0.  0.
         12    1    1    2    0    0 -0.25221690032E+02  0.12091648234E+02  0.33185570558E+02  0.43400733846E+02  0.00000000000E+00 0. -1.
         11    1    3    3    0    0  0.39227411969E+01 -0.21870252766E+01 -0.23233004551E+01  0.50565505361E+01  0.51100000000E-03 0. -1.
        -11    1    3    3    0    0  0.71641573791E+01 -0.11885439018E+02 -0.21739557782E+02  0.25791416875E+02  0.51100000000E-03 0.  1.
        -12    1    3    3    0    0  0.14134791456E+02  0.19808160604E+01 -0.91227123212E+01  0.16939298742E+02  0.00000000000E+00 0.  1.
</event>
<event>
 7    1  0.5022032E-011  0.4778727E+02  0.7816164E-02  0.1312668E+00
        -11   -1    0    0    0    0  0.00000000000E+00  0.00000000000E+00  0.45593999997E+02  0.45594000000E+02  0.51100000000E-03 0. -1.
         11   -1    0    0    0    0 -0.00000000000E+00 -0.00000000000E+00 -0.45593999997E+02  0.45594000000E+02  0.51100000000E-03 0.  1.
    9900012    2    1    2    0    0 -0.18307527217E+02 -0.38168517512E+02  0.95719564297E+01  0.47787266921E+02  0.19999981200E+02 0.  0.
        -12    1    1    2    0    0  0.18307527217E+02  0.38168517512E+02 -0.95719564297E+01  0.43400733079E+02  0.00000000000E+00 0.  1.
         11    1    3    3    0    0 -0.58571184488E+01 -0.16277411852E+02 -0.13336828422E+01  0.17350466372E+02  0.51100000000E-03 0. -1.
        -11    1    3    3    0    0 -0.71856636186E+01 -0.26086498973E+01 -0.46555068544E-01  0.76446702716E+01  0.51100000000E-03 0.  1.
         12    1    3    3    0    0 -0.52647451501E+01 -0.19282455762E+02  0.10952194340E+02  0.22792130278E+02  0.00000000000E+00 0. -1.
</event>
<event>
 7    1  0.5022032E-011  0.4778729E+02  0.7816164E-02  0.1312668E+00
        -11   -1    0    0    0    0  0.00000000000E+00  0.00000000000E+00  0.45593999997E+02  0.45594000000E+02  0.51100000000E-03 0. -1.
         11   -1    0    0    0    0 -0.00000000000E+00 -0.00000000000E+00 -0.45593999997E+02  0.45594000000E+02  0.51100000000E-03 0.  1.
    9900012    2    1    2    0    0 -0.53622133566E+01  0.28367490141E+02 -0.32406076832E+02  0.47787289814E+02  0.20000085578E+02 0.  0.
         12    1    1    2    0    0  0.53622133566E+01 -0.28367490141E+02  0.32406076832E+02  0.43400710186E+02  0.00000000000E+00 0. -1.
         11    1    3    3    0    0  0.44811164903E+01  0.13189013389E+02 -0.96915190535E+01  0.16969266956E+02  0.51100000000E-03 0. -1.
        -11    1    3    3    0    0 -0.12108899963E+01  0.63077992120E+01 -0.14780435219E+02  0.16115702002E+02  0.51100000000E-03 0.  1.
         12    1    3    3    0    0 -0.86324398506E+01  0.88706775402E+01 -0.79341225593E+01  0.14702320857E+02  0.00000000000E+00 0. -1.
</event>
<event>
 7    1  0.5022032E-011  0.4778727E+02  0.7816164E-02  0.1312668E+00
        -11   -1    0    0    0    0  0.00000000000E+00  0.00000000000E+00  0.45593999997E+02  0.45594000000E+02  0.51100000000E-03 0. -1.
         11   -1    0    0    0    0 -0.00000000000E+00 -0.00000000000E+00 -0.45593999997E+02  0.45594000000E+02  0.51100000000E-03 0.  1.
    9900012    2    1    2    0    0  0.19032489123E+02  0.30300900790E+02  0.24561009007E+02  0.47787269657E+02  0.19999993672E+02 0.  0.
        -12    1    1    2    0    0 -0.19032489123E+02 -0.30300900790E+02 -0.24561009007E+02  0.43400730343E+02  0.00000000000E+00 0.  1.
         11    1    3    3    0    0  0.18426132737E+02  0.14383363271E+02  0.90902429635E+01  0.25080590583E+02  0.51100000000E-03 0. -1.
        -11    1    3    3    0    0 -0.11592769557E+00  0.74607662455E+01  0.40887831647E+01  0.85085028195E+01  0.51100000000E-03 0.  1.
         12    1    3    3    0    0  0.72228408145E+00  0.84567712736E+01  0.11381982879E+02  0.14198176254E+02  0.00000000000E+00 0. -1.
</event>
<event>
 7    1  0.5022032E-011  0.4778728E+02  0.7816164E-02  0.1312668E+00
        -11   -1    0    0    0    0  0.00000000000E+00  0.00000000000E+00  0.45593999997E+02  0.45594000000E+02  0.51100000000E-03 0.  1.
         11   -1    0    0    0    0 -0.00000000000E+00 -0.00000000000E+00 -0.45593999997E+02  0.45594000000E+02  0.51100000000E-03 0. -1.
    9900012    2    1    2    0    0  0.69850938015E+01 -0.38420751638E+02  0.18938768258E+02  0.47787278405E+02  0.20000033560E+02 0.  0.
        -12    1    1    2    0    0 -0.69850938015E+01  0.38420751638E+02 -0.18938768258E+02  0.43400721595E+02  0.00000000000E+00 0.  1.
         11    1    3    3    0    0  0.80349601590E+00 -0.17934000566E+02  0.41189868017E+01  0.18418469933E+02  0.51100000000E-03 0. -1.
        -11    1    3    3    0    0  0.77733461298E+01 -0.15364730677E+02  0.45936049969E+01  0.17821365434E+02  0.51100000000E-03 0.  1.
         12    1    3    3    0    0 -0.15917483442E+01 -0.51220203953E+01  0.10226176460E+02  0.11547443038E+02  0.00000000000E+00 0. -1.
</event>
<event>
 7    1  0.5022032E-011  0.4778726E+02  0.7816164E-02  0.1312668E+00
        -11   -1    0    0    0    0  0.00000000000E+00  0.00000000000E+00  0.45593999997E+02  0.45594000000E+02  0.51100000000E-03 0. -1.
         11   -1    0    0    0    0 -0.00000000000E+00 -0.00000000000E+00 -0.45593999997E+02  0.45594000000E+02  0.51100000000E-03 0.  1.
    9900012    2    1    2    0    0  0.14421578437E+02 -0.14573572613E+02  0.38252490438E+02  0.47787263048E+02  0.19999963540E+02 0.  0.
        -12    1    1    2    0    0 -0.14421578437E+02  0.14573572613E+02 -0.38252490438E+02  0.43400736952E+02  0.00000000000E+00 0.  1.
         11    1    3    3    0    0 -0.11221157316E+01 -0.88912393849E+00  0.82033011048E+01  0.83272945408E+01  0.51100000000E-03 0. -1.
        -11    1    3    3    0    0 -0.66468471283E+00  0.25090883588E+01  0.40007721039E+01  0.47690153961E+01  0.51100000000E-03 0.  1.
         12    1    3    3    0    0  0.16208378882E+02 -0.16193537033E+02  0.26048417229E+02  0.34690953111E+02  0.00000000000E+00 0. -1.
</event>
<event>
 7    1  0.5022032E-011  0.4778727E+02  0.7816164E-02  0.1312668E+00
        -11   -1    0    0    0    0  0.00000000000E+00  0.00000000000E+00  0.45593999997E+02  0.45594000000E+02  0.51100000000E-03 0. -1.
         11   -1    0    0    0    0 -0.00000000000E+00 -0.00000000000E+00 -0.45593999997E+02  0.45594000000E+02  0.51100000000E-03 0.  1.
    9900012    2    1    2    0    0 -0.13146710674E+02  0.24037664128E+02 -0.33659734849E+02  0.47787273643E+02  0.20000011846E+02 0.  0.
         12    1    1    2    0    0  0.13146710674E+02 -0.24037664128E+02  0.33659734849E+02  0.43400726357E+02  0.00000000000E+00 0. -1.
         11    1    3    3    0    0 -0.40210590455E+01  0.44736856080E+01 -0.14057994326E+01  0.61773012774E+01  0.51100000000E-03 0. -1.
        -11    1    3    3    0    0 -0.18740126903E+01  0.18083180694E+02 -0.26932642737E+02  0.32494316313E+02  0.51100000000E-03 0.  1.
        -12    1    3    3    0    0 -0.72516389381E+01  0.14807978259E+01 -0.53212926789E+01  0.91156560523E+01  0.00000000000E+00 0.  1.
</event>
<event>
 7    1  0.5022032E-011  0.4778728E+02  0.7816164E-02  0.1312668E+00
        -11   -1    0    0    0    0  0.00000000000E+00  0.00000000000E+00  0.45593999997E+02  0.45594000000E+02  0.51100000000E-03 0. -1.
         11   -1    0    0    0    0 -0.00000000000E+00 -0.00000000000E+00 -0.45593999997E+02  0.45594000000E+02  0.51100000000E-03 0.  1.
    9900012    2    1    2    0    0 -0.13002197086E+02 -0.23121137053E+02  0.34350815639E+02  0.47787278315E+02  0.20000033150E+02 0.  0.
        -12    1    1    2    0    0  0.13002197086E+02  0.23121137053E+02 -0.34350815639E+02  0.43400721685E+02  0.00000000000E+00 0.  1.
         11    1    3    3    0    0 -0.60911417386E+01 -0.62767892568E+01  0.21290079649E+02  0.23016680533E+02  0.51100000000E-03 0. -1.
        -11    1    3    3    0    0 -0.63940609049E+01 -0.33914776420E+01  0.67700790796E+01  0.99106057563E+01  0.51100000000E-03 0.  1.
         12    1    3    3    0    0 -0.51699444285E+00 -0.13452870154E+02  0.62906569108E+01  0.14859992026E+02  0.00000000000E+00 0. -1.
</event>
<event>
 7    1  0.5022032E-011  0.4778727E+02  0.7816164E-02  0.1312668E+00
        -11   -1    0    0    0    0  0.00000000000E+00  0.00000000000E+00  0.45593999997E+02  0.45594000000E+02  0.51100000000E-03 0.  1.
         11   -1    0    0    0    0 -0.00000000000E+00 -0.00000000000E+00 -0.45593999997E+02  0.45594000000E+02  0.51100000000E-03 0. -1.
    9900012    2    1    2    0    0 -0.39144847091E+02 -0.18430359254E+02 -0.34097331262E+01  0.47787268716E+02  0.19999989386E+02 0.  0.
         12    1    1    2    0    0  0.39144847091E+02  0.18430359254E+02  0.34097331262E+01  0.43400731284E+02  0.00000000000E+00 0. -1.
         11    1    3    3    0    0 -0.24664832706E+02 -0.10867952959E+02  0.10011388039E+01  0.26971626816E+02  0.51100000000E-03 0.  1.
        -11    1    3    3    0    0  0.21514676207E+00 -0.53554982026E+01 -0.21929345303E+01  0.57910803174E+01  0.51100000000E-03 0. -1.
         12    1    3    3    0    0 -0.14695161147E+02 -0.22069080918E+01 -0.22179373999E+01  0.15024561583E+02  0.00000000000E+00 0. -1.
</event>
<event>
 7    1  0.5022032E-011  0.4778727E+02  0.7816164E-02  0.1312668E+00
        -11   -1    0    0    0    0  0.00000000000E+00  0.00000000000E+00  0.45593999997E+02  0.45594000000E+02  0.51100000000E-03 0. -1.
         11   -1    0    0    0    0 -0.00000000000E+00 -0.00000000000E+00 -0.45593999997E+02  0.45594000000E+02  0.51100000000E-03 0.  1.
    9900012    2    1    2    0    0 -0.31731307867E+02 -0.25576588755E+02  0.14919303055E+02  0.47787269649E+02  0.19999993640E+02 0.  0.
        -12    1    1    2    0    0  0.31731307867E+02  0.25576588755E+02 -0.14919303055E+02  0.43400730351E+02  0.00000000000E+00 0.  1.
         11    1    3    3    0    0 -0.29645911250E+02 -0.27041386738E+02  0.17068121054E+02  0.43605474509E+02  0.51100000000E-03 0. -1.
        -11    1    3    3    0    0 -0.18754081374E+01  0.47526541172E+00 -0.14866752754E+00  0.19403956267E+01  0.51100000000E-03 0.  1.
         12    1    3    3    0    0 -0.20998847947E+00  0.98953257120E+00 -0.20001504716E+01  0.22413995137E+01  0.00000000000E+00 0. -1.
</event>
<event>
 7    1  0.5022032E-011  0.4778727E+02  0.7816164E-02  0.1312668E+00
        -11   -1    0    0    0    0  0.00000000000E+00  0.00000000000E+00  0.45593999997E+02  0.45594000000E+02  0.51100000000E-03 0. -1.
         11   -1    0    0    0    0 -0.00000000000E+00 -0.00000000000E+00 -0.45593999997E+02  0.45594000000E+02  0.51100000000E-03 0.  1.
    9900012    2    1    2    0    0  0.18151086134E+02  0.10114501577E+02  0.38103255666E+02  0.47787272329E+02  0.20000005859E+02 0.  0.
        -12    1    1    2    0    0 -0.18151086134E+02 -0.10114501577E+02 -0.38103255666E+02  0.43400727671E+02  0.00000000000E+00 0.  1.
         11    1    3    3    0    0  0.41677956826E+01  0.38267303114E+01  0.12099329674E+02  0.13356951918E+02  0.51100000000E-03 0. -1.
        -11    1    3    3    0    0  0.22774653242E+01 -0.28109906610E+01  0.16333025864E+02  0.16728904655E+02  0.51100000000E-03 0.  1.
         12    1    3    3    0    0  0.11705825127E+02  0.90987619266E+01  0.96709001276E+01  0.17701415756E+02  0.00000000000E+00 0. -1.
</event>
<event>
 7    1  0.5022032E-011  0.4778727E+02  0.7816164E-02  0.1312668E+00
        -11   -1    0    0    0    0  0.00000000000E+00  0.00000000000E+00  0.45593999997E+02  0.45594000000E+02  0.51100000000E-03 0. -1.
         11   -1    0    0    0    0 -0.00000000000E+00 -0.00000000000E+00 -0.45593999997E+02  0.45594000000E+02  0.51100000000E-03 0.  1.
    9900012    2    1    2    0    0 -0.32487804625E+02 -0.17078390630E+02  0.23162349432E+02  0.47787270662E+02  0.19999998258E+02 0.  0.
        -12    1    1    2    0    0  0.32487804625E+02  0.17078390630E+02 -0.23162349432E+02  0.43400729338E+02  0.00000000000E+00 0.  1.
         11    1    3    3    0    0 -0.33625025672E+01  0.10377459983E+01  0.95995422720E+00  0.36475817538E+01  0.51100000000E-03 0. -1.
        -11    1    3    3    0    0 -0.23685300332E+02 -0.18141189361E+02  0.11202976103E+02  0.31868524865E+02  0.51100000000E-03 0.  1.
         12    1    3    3    0    0 -0.54400017250E+01  0.25052732477E-01  0.10999419102E+02  0.12271164043E+02  0.00000000000E+00 0. -1.
</event>
<event>
 7    1  0.5022032E-011  0.4778727E+02  0.7816164E-02  0.1312668E+00
        -11   -1    0    0    0    0  0.00000000000E+00  0.00000000000E+00  0.45593999997E+02  0.45594000000E+02  0.51100000000E-03 0. -1.
         11   -1    0    0    0    0 -0.00000000000E+00 -0.00000000000E+00 -0.45593999997E+02  0.45594000000E+02  0.51100000000E-03 0.  1.
    9900012    2    1    2    0    0 -0.87148179483E+00  0.68283622780E+01 -0.42851341657E+02  0.47787268511E+02  0.19999988450E+02 0.  0.
         12    1    1    2    0    0  0.87148179483E+00 -0.68283622780E+01  0.42851341657E+02  0.43400731489E+02  0.00000000000E+00 0. -1.
         11    1    3    3    0    0  0.28196824377E+01  0.50199502671E+01 -0.19865481385E+02  0.20683033159E+02  0.51100000000E-03 0. -1.
        -11    1    3    3    0    0 -0.11722937169E+01  0.77790521179E+01 -0.11971105258E+02  0.14324639115E+02  0.51100000000E-03 0.  1.
        -12    1    3    3    0    0 -0.25188705157E+01 -0.59706401070E+01 -0.11014755014E+02  0.12779596237E+02  0.00000000000E+00 0.  1.
</event>
<event>
 7    1  0.5022032E-011  0.4778727E+02  0.7816164E-02  0.1312668E+00
        -11   -1    0    0    0    0  0.00000000000E+00  0.00000000000E+00  0.45593999997E+02  0.45594000000E+02  0.51100000000E-03 0. -1.
         11   -1    0    0    0    0 -0.00000000000E+00 -0.00000000000E+00 -0.45593999997E+02  0.45594000000E+02  0.51100000000E-03 0.  1.
    9900012    2    1    2    0    0  0.13868665362E+02  0.37419638846E+01 -0.40954620764E+02  0.47787272650E+02  0.20000007318E+02 0.  0.
         12    1    1    2    0    0 -0.13868665362E+02 -0.37419638846E+01  0.40954620764E+02  0.43400727350E+02  0.00000000000E+00 0. -1.
         11    1    3    3    0    0  0.39239508824E+00  0.30576600865E+01 -0.25017885206E+01  0.39701643760E+01  0.51100000000E-03 0. -1.
        -11    1    3    3    0    0  0.67965919650E+01  0.78744154452E+01 -0.13789017501E+02  0.17272437142E+02  0.51100000000E-03 0.  1.
        -12    1    3    3    0    0  0.66796783083E+01 -0.71901116470E+01 -0.24663814743E+02  0.26544671131E+02  0.00000000000E+00 0.  1.
</event>
<event>
 7    1  0.5022032E-011  0.4778727E+02  0.7816164E-02  0.1312668E+00
        -11   -1    0    0    0    0  0.00000000000E+00  0.00000000000E+00  0.45593999997E+02  0.45594000000E+02  0.51100000000E-03 0. -1.
         11   -1    0    0    0    0 -0.00000000000E+00 -0.00000000000E+00 -0.45593999997E+02  0.45594000000E+02  0.51100000000E-03 0.  1.
    9900012    2    1    2    0    0  0.86742701906E+01  0.14347927982E+02  0.40031452601E+02  0.47787271918E+02  0.20000003984E+02 0.  0.
        -12    1    1    2    0    0 -0.86742701906E+01 -0.14347927982E+02 -0.40031452601E+02  0.43400728082E+02  0.00000000000E+00 0.  1.
         11    1    3    3    0    0  0.63683454434E+01  0.72076014026E+01  0.31957651826E+02  0.33373595134E+02  0.51100000000E-03 0. -1.
        -11    1    3    3    0    0  0.47069479241E+01  0.47527040345E+01  0.86958333832E+01  0.10970919419E+02  0.51100000000E-03 0.  1.
        -12    1    3    3    0    0 -0.24010231769E+01  0.23876225449E+01 -0.62203260853E+00  0.34427573657E+01  0.00000000000E+00 0.  1.
</event>
<event>
 7    1  0.5022032E-011  0.4778724E+02  0.7816164E-02  0.1312668E+00
        -11   -1    0    0    0    0  0.00000000000E+00  0.00000000000E+00  0.45593999997E+02  0.45594000000E+02  0.51100000000E-03 0.  1.
         11   -1    0    0    0    0 -0.00000000000E+00 -0.00000000000E+00 -0.45593999997E+02  0.45594000000E+02  0.51100000000E-03 0. -1.
    9900012    2    1    2    0    0 -0.14170377579E+02 -0.40856561704E+02  0.36834478535E+01  0.47787239372E+02  0.19999855590E+02 0.  0.
        -12    1    1    2    0    0  0.14170377579E+02  0.40856561704E+02 -0.36834478535E+01  0.43400760628E+02  0.00000000000E+00 0.  1.
         11    1    3    3    0    0 -0.47707400725E+01 -0.19211278132E+02 -0.10752196808E+00  0.19795068313E+02  0.51100000000E-03 0. -1.
        -11    1    3    3    0    0 -0.10125815111E+02 -0.12099168056E+02 -0.32494802928E+01  0.16108417730E+02  0.51100000000E-03 0.  1.
         12    1    3    3    0    0  0.72617760435E+00 -0.95461155163E+01  0.70404501144E+01  0.11883753329E+02  0.00000000000E+00 0. -1.
</event>
<event>
 7    1  0.5022032E-011  0.4778727E+02  0.7816164E-02  0.1312668E+00
        -11   -1    0    0    0    0  0.00000000000E+00  0.00000000000E+00  0.45593999997E+02  0.45594000000E+02  0.51100000000E-03 0. -1.
         11   -1    0    0    0    0 -0.00000000000E+00 -0.00000000000E+00 -0.45593999997E+02  0.45594000000E+02  0.51100000000E-03 0.  1.
    9900012    2    1    2    0    0 -0.24956031842E+02 -0.75345614165E+01  0.34699425647E+02  0.47787270959E+02  0.19999999611E+02 0.  0.
        -12    1    1    2    0    0  0.24956031842E+02  0.75345614165E+01 -0.34699425647E+02  0.43400729041E+02  0.00000000000E+00 0.  1.
         11    1    3    3    0    0 -0.52895923525E+01  0.22920739826E+01  0.12026021577E+01  0.58889424015E+01  0.51100000000E-03 0. -1.
        -11    1    3    3    0    0  0.70879362045E+00  0.14102151579E+01  0.41916058737E+01  0.44789122842E+01  0.51100000000E-03 0.  1.
         12    1    3    3    0    0 -0.20375233110E+02 -0.11236850557E+02  0.29305217616E+02  0.37419416273E+02  0.00000000000E+00 0. -1.
</event>
<event>
 7    1  0.5022032E-011  0.4778727E+02  0.7816164E-02  0.1312668E+00
        -11   -1    0    0    0    0  0.00000000000E+00  0.00000000000E+00  0.45593999997E+02  0.45594000000E+02  0.51100000000E-03 0.  1.
         11   -1    0    0    0    0 -0.00000000000E+00 -0.00000000000E+00 -0.45593999997E+02  0.45594000000E+02  0.51100000000E-03 0. -1.
    9900012    2    1    2    0    0  0.30614430315E+02  0.18202296837E+02 -0.24800333438E+02  0.47787268529E+02  0.19999988529E+02 0.  0.
         12    1    1    2    0    0 -0.30614430315E+02 -0.18202296837E+02  0.24800333438E+02  0.43400731471E+02  0.00000000000E+00 0. -1.
         11    1    3    3    0    0  0.74397051181E+01  0.12126576731E+01 -0.13445455038E+02  0.15414279494E+02  0.51100000000E-03 0. -1.
        -11    1    3    3    0    0  0.74014859826E+01  0.51957815856E+00 -0.17203450888E+01  0.76165309492E+01  0.51100000000E-03 0.  1.
         12    1    3    3    0    0  0.15773239214E+02  0.16470061005E+02 -0.96345333109E+01  0.24756458086E+02  0.00000000000E+00 0. -1.
</event>
<event>
 7    1  0.5022032E-011  0.4778722E+02  0.7816164E-02  0.1312668E+00
        -11   -1    0    0    0    0  0.00000000000E+00  0.00000000000E+00  0.45593999997E+02  0.45594000000E+02  0.51100000000E-03 0. -1.
         11   -1    0    0    0    0 -0.00000000000E+00 -0.00000000000E+00 -0.45593999997E+02  0.45594000000E+02  0.51100000000E-03 0.  1.
    9900012    2    1    2    0    0  0.34126787056E+02  0.14711540354E+02 -0.22417857836E+02  0.47787223920E+02  0.19999785142E+02 0.  0.
         12    1    1    2    0    0 -0.34126787056E+02 -0.14711540354E+02  0.22417857836E+02  0.43400776080E+02  0.00000000000E+00 0. -1.
         11    1    3    3    0    0  0.79531949105E+01  0.13030153014E+01  0.26463234380E+00  0.80635717085E+01  0.51100000000E-03 0. -1.
        -11    1    3    3    0    0  0.15269063429E+02  0.11864940084E+02 -0.70098162386E+01  0.20568388978E+02  0.51100000000E-03 0.  1.
         12    1    3    3    0    0  0.10904528716E+02  0.15435849686E+01 -0.15672673941E+02  0.19155263234E+02  0.00000000000E+00 0. -1.
</event>
<event>
 7    1  0.5022032E-011  0.4778727E+02  0.7816164E-02  0.1312668E+00
        -11   -1    0    0    0    0  0.00000000000E+00  0.00000000000E+00  0.45593999997E+02  0.45594000000E+02  0.51100000000E-03 0. -1.
         11   -1    0    0    0    0 -0.00000000000E+00 -0.00000000000E+00 -0.45593999997E+02  0.45594000000E+02  0.51100000000E-03 0.  1.
    9900012    2    1    2    0    0 -0.57454696870E+01 -0.73657381820E+01 -0.42383470674E+02  0.47787272964E+02  0.20000008752E+02 0.  0.
         12    1    1    2    0    0  0.57454696870E+01  0.73657381820E+01  0.42383470674E+02  0.43400727036E+02  0.00000000000E+00 0. -1.
         11    1    3    3    0    0 -0.73924917463E+01 -0.12121434406E+02 -0.37099713070E+02  0.39723630453E+02  0.51100000000E-03 0. -1.
        -11    1    3    3    0    0 -0.10105255831E+01  0.11447765145E+01 -0.19492424408E+01  0.24761303634E+01  0.51100000000E-03 0.  1.
         12    1    3    3    0    0  0.26575476424E+01  0.36109197095E+01 -0.33345151633E+01  0.55875121471E+01  0.00000000000E+00 0. -1.
</event>
<event>
 7    1  0.5022032E-011  0.4778727E+02  0.7816164E-02  0.1312668E+00
        -11   -1    0    0    0    0  0.00000000000E+00  0.00000000000E+00  0.45593999997E+02  0.45594000000E+02  0.51100000000E-03 0. -1.
         11   -1    0    0    0    0 -0.00000000000E+00 -0.00000000000E+00 -0.45593999997E+02  0.45594000000E+02  0.51100000000E-03 0.  1.
    9900012    2    1    2    0    0 -0.26217816659E+01  0.11963324415E+02 -0.41636866887E+02  0.47787267813E+02  0.19999985267E+02 0.  0.
         12    1    1    2    0    0  0.26217816659E+01 -0.11963324415E+02  0.41636866887E+02  0.43400732187E+02  0.00000000000E+00 0. -1.
         11    1    3    3    0    0  0.48326177887E+01  0.82258741073E+01 -0.76504052913E+01  0.12228977917E+02  0.51100000000E-03 0. -1.
        -11    1    3    3    0    0 -0.18075011569E+01  0.42955948422E+01 -0.12685739654E+02  0.13514702598E+02  0.51100000000E-03 0.  1.
        -12    1    3    3    0    0 -0.56468982977E+01 -0.55814453453E+00 -0.21300721942E+02  0.22043587298E+02  0.00000000000E+00 0.  1.
</event>
<event>
 7    1  0.5022032E-011  0.4778727E+02  0.7816164E-02  0.1312668E+00
        -11   -1    0    0    0    0  0.00000000000E+00  0.00000000000E+00  0.45593999997E+02  0.45594000000E+02  0.51100000000E-03 0. -1.
         11   -1    0    0    0    0 -0.00000000000E+00 -0.00000000000E+00 -0.45593999997E+02  0.45594000000E+02  0.51100000000E-03 0.  1.
    9900012    2    1    2    0    0 -0.34359999064E+02 -0.36524274726E+01 -0.26261636967E+02  0.47787270302E+02  0.19999996614E+02 0.  0.
         12    1    1    2    0    0  0.34359999064E+02  0.36524274726E+01  0.26261636967E+02  0.43400729698E+02  0.00000000000E+00 0. -1.
         11    1    3    3    0    0 -0.11868976611E+02 -0.82596663624E+00 -0.19687784506E+01  0.12059474098E+02  0.51100000000E-03 0. -1.
        -11    1    3    3    0    0 -0.23789141426E+02 -0.28992909150E+01 -0.19911555777E+02  0.31157650606E+02  0.51100000000E-03 0.  1.
        -12    1    3    3    0    0  0.12981189721E+01  0.72830078666E-01 -0.43813027398E+01  0.45701455977E+01  0.00000000000E+00 0.  1.
</event>
<event>
 7    1  0.5022032E-011  0.4778727E+02  0.7816164E-02  0.1312668E+00
        -11   -1    0    0    0    0  0.00000000000E+00  0.00000000000E+00  0.45593999997E+02  0.45594000000E+02  0.51100000000E-03 0. -1.
         11   -1    0    0    0    0 -0.00000000000E+00 -0.00000000000E+00 -0.45593999997E+02  0.45594000000E+02  0.51100000000E-03 0.  1.
    9900012    2    1    2    0    0 -0.24810884142E+02  0.23843219171E+00  0.35608794670E+02  0.47787273282E+02  0.20000010203E+02 0.  0.
        -12    1    1    2    0    0  0.24810884142E+02 -0.23843219171E+00 -0.35608794670E+02  0.43400726718E+02  0.00000000000E+00 0.  1.
         11    1    3    3    0    0 -0.82427803229E+01  0.36902021120E+01  0.41516698670E+01  0.99396872196E+01  0.51100000000E-03 0. -1.
        -11    1    3    3    0    0 -0.72375662920E+00 -0.13583259482E+01 -0.88264081097E+00  0.17742401478E+01  0.51100000000E-03 0.  1.
         12    1    3    3    0    0 -0.15844347190E+02 -0.20934439721E+01  0.32339765614E+02  0.36073345915E+02  0.00000000000E+00 0. -1.
</event>
<event>
 7    1  0.5022032E-011  0.4778727E+02  0.7816164E-02  0.1312668E+00
        -11   -1    0    0    0    0  0.00000000000E+00  0.00000000000E+00  0.45593999997E+02  0.45594000000E+02  0.51100000000E-03 0. -1.
         11   -1    0    0    0    0 -0.00000000000E+00 -0.00000000000E+00 -0.45593999997E+02  0.45594000000E+02  0.51100000000E-03 0.  1.
    9900012    2    1    2    0    0 -0.58976849766E+01  0.26438215164E+02 -0.33909606769E+02  0.47787270278E+02  0.19999996505E+02 0.  0.
         12    1    1    2    0    0  0.58976849766E+01 -0.26438215164E+02  0.33909606769E+02  0.43400729722E+02  0.00000000000E+00 0. -1.
         11    1    3    3    0    0  0.29566032663E+01  0.20350464555E+02 -0.15215637164E+02  0.25581214300E+02  0.51100000000E-03 0. -1.
        -11    1    3    3    0    0 -0.39175690324E+01  0.35647169775E+01 -0.44386006786E+01  0.69105521124E+01  0.51100000000E-03 0.  1.
         12    1    3    3    0    0 -0.49367192106E+01  0.25230336316E+01 -0.14255368927E+02  0.15295503866E+02  0.00000000000E+00 0. -1.
</event>
<event>
 7    1  0.5022032E-011  0.4778728E+02  0.7816164E-02  0.1312668E+00
        -11   -1    0    0    0    0  0.00000000000E+00  0.00000000000E+00  0.45593999997E+02  0.45594000000E+02  0.51100000000E-03 0. -1.
         11   -1    0    0    0    0 -0.00000000000E+00 -0.00000000000E+00 -0.45593999997E+02  0.45594000000E+02  0.51100000000E-03 0.  1.
    9900012    2    1    2    0    0 -0.19125234460E+02  0.49912022141E+01  0.38638527966E+02  0.47787279544E+02  0.20000038753E+02 0.  0.
        -12    1    1    2    0    0  0.19125234460E+02 -0.49912022141E+01 -0.38638527966E+02  0.43400720456E+02  0.00000000000E+00 0.  1.
         11    1    3    3    0    0  0.13830764849E+01 -0.44143317543E+00  0.11876726988E+01  0.18757213311E+01  0.51100000000E-03 0. -1.
        -11    1    3    3    0    0 -0.30923430892E+01  0.81239141999E+01  0.95724878949E+01  0.12930316797E+02  0.51100000000E-03 0.  1.
         12    1    3    3    0    0 -0.17415967856E+02 -0.26912788103E+01  0.27878367372E+02  0.32981241416E+02  0.00000000000E+00 0. -1.
</event>
<event>
 7    1  0.5022032E-011  0.4778728E+02  0.7816164E-02  0.1312668E+00
        -11   -1    0    0    0    0  0.00000000000E+00  0.00000000000E+00  0.45593999997E+02  0.45594000000E+02  0.51100000000E-03 0. -1.
         11   -1    0    0    0    0 -0.00000000000E+00 -0.00000000000E+00 -0.45593999997E+02  0.45594000000E+02  0.51100000000E-03 0.  1.
    9900012    2    1    2    0    0  0.28972361282E+02  0.10145314316E+01  0.32298536051E+02  0.47787280843E+02  0.20000044676E+02 0.  0.
        -12    1    1    2    0    0 -0.28972361282E+02 -0.10145314316E+01 -0.32298536051E+02  0.43400719157E+02  0.00000000000E+00 0.  1.
         11    1    3    3    0    0  0.12742788565E+02 -0.31547532523E+01  0.24691816935E+02  0.27964566013E+02  0.51100000000E-03 0. -1.
        -11    1    3    3    0    0  0.61517651291E+01 -0.20195574944E+01  0.28882525856E+01  0.70897693853E+01  0.51100000000E-03 0.  1.
        -12    1    3    3    0    0  0.10077807588E+02  0.61888421784E+01  0.47184665301E+01  0.12732945445E+02  0.00000000000E+00 0.  1.
</event>
<event>
 7    1  0.5022032E-011  0.4778729E+02  0.7816164E-02  0.1312668E+00
        -11   -1    0    0    0    0  0.00000000000E+00  0.00000000000E+00  0.45593999997E+02  0.45594000000E+02  0.51100000000E-03 0. -1.
         11   -1    0    0    0    0 -0.00000000000E+00 -0.00000000000E+00 -0.45593999997E+02  0.45594000000E+02  0.51100000000E-03 0.  1.
    9900012    2    1    2    0    0 -0.75484037965E+01  0.30999918036E+02 -0.29421906358E+02  0.47787286966E+02  0.20000072593E+02 0.  0.
         12    1    1    2    0    0  0.75484037965E+01 -0.30999918036E+02  0.29421906358E+02  0.43400713034E+02  0.00000000000E+00 0. -1.
         11    1    3    3    0    0 -0.14686320376E+00  0.18580161060E+02 -0.12973489119E+02  0.22661760170E+02  0.51100000000E-03 0. -1.
        -11    1    3    3    0    0 -0.32928320205E+01  0.91189300408E+01 -0.17256508104E+02  0.19793551980E+02  0.51100000000E-03 0.  1.
        -12    1    3    3    0    0 -0.41087085722E+01  0.33008269348E+01  0.80809086481E+00  0.53319748152E+01  0.00000000000E+00 0.  1.
</event>
<event>
 7    1  0.5022032E-011  0.4778727E+02  0.7816164E-02  0.1312668E+00
        -11   -1    0    0    0    0  0.00000000000E+00  0.00000000000E+00  0.45593999997E+02  0.45594000000E+02  0.51100000000E-03 0. -1.
         11   -1    0    0    0    0 -0.00000000000E+00 -0.00000000000E+00 -0.45593999997E+02  0.45594000000E+02  0.51100000000E-03 0.  1.
    9900012    2    1    2    0    0 -0.17309549033E+01 -0.24525982922E+02  0.35764552728E+02  0.47787271032E+02  0.19999999943E+02 0.  0.
        -12    1    1    2    0    0  0.17309549033E+01  0.24525982922E+02 -0.35764552728E+02  0.43400728968E+02  0.00000000000E+00 0.  1.
         11    1    3    3    0    0  0.36539731160E+01 -0.13998368548E+02  0.13615990569E+02  0.19867084360E+02  0.51100000000E-03 0. -1.
        -11    1    3    3    0    0  0.36547347566E+01 -0.35532430286E+01  0.10146747343E+02  0.11355135581E+02  0.51100000000E-03 0.  1.
        -12    1    3    3    0    0 -0.90396627759E+01 -0.69743713448E+01  0.12001814817E+02  0.16565051091E+02  0.00000000000E+00 0.  1.
</event>
<event>
 7    1  0.5022032E-011  0.4778727E+02  0.7816164E-02  0.1312668E+00
        -11   -1    0    0    0    0  0.00000000000E+00  0.00000000000E+00  0.45593999997E+02  0.45594000000E+02  0.51100000000E-03 0. -1.
         11   -1    0    0    0    0 -0.00000000000E+00 -0.00000000000E+00 -0.45593999997E+02  0.45594000000E+02  0.51100000000E-03 0.  1.
    9900012    2    1    2    0    0 -0.69698491873E+01 -0.39007886003E+02  0.17703929955E+02  0.47787273002E+02  0.20000008924E+02 0.  0.
        -12    1    1    2    0    0  0.69698491873E+01  0.39007886003E+02 -0.17703929955E+02  0.43400726998E+02  0.00000000000E+00 0.  1.
         11    1    3    3    0    0 -0.52069562058E+01 -0.93676604200E+01 -0.26721605221E+01  0.11045627949E+02  0.51100000000E-03 0. -1.
        -11    1    3    3    0    0 -0.25964313598E+01 -0.14342924295E+02  0.60997958909E+01  0.15800900079E+02  0.51100000000E-03 0.  1.
         12    1    3    3    0    0  0.83353837831E+00 -0.15297301288E+02  0.14276294586E+02  0.20940744973E+02  0.00000000000E+00 0. -1.
</event>
<event>
 7    1  0.5022032E-011  0.4778727E+02  0.7816164E-02  0.1312668E+00
        -11   -1    0    0    0    0  0.00000000000E+00  0.00000000000E+00  0.45593999997E+02  0.45594000000E+02  0.51100000000E-03 0. -1.
         11   -1    0    0    0    0 -0.00000000000E+00 -0.00000000000E+00 -0.45593999997E+02  0.45594000000E+02  0.51100000000E-03 0.  1.
    9900012    2    1    2    0    0  0.33930083251E+02 -0.23653234173E+02  0.13149037315E+02  0.47787271682E+02  0.20000002906E+02 0.  0.
        -12    1    1    2    0    0 -0.33930083251E+02  0.23653234173E+02 -0.13149037315E+02  0.43400728318E+02  0.00000000000E+00 0.  1.
         11    1    3    3    0    0  0.29054514188E+02 -0.12717833105E+02  0.94027193085E+01  0.33080495828E+02  0.51100000000E-03 0. -1.
        -11    1    3    3    0    0  0.18107424334E+00  0.88565540447E+00 -0.79241293999E+00  0.12021197551E+01  0.51100000000E-03 0.  1.
         12    1    3    3    0    0  0.46944948191E+01 -0.11821056472E+02  0.45387309468E+01  0.13504656098E+02  0.00000000000E+00 0. -1.
</event>
<event>
 7    1  0.5022032E-011  0.4778728E+02  0.7816164E-02  0.1312668E+00
        -11   -1    0    0    0    0  0.00000000000E+00  0.00000000000E+00  0.45593999997E+02  0.45594000000E+02  0.51100000000E-03 0. -1.
         11   -1    0    0    0    0 -0.00000000000E+00 -0.00000000000E+00 -0.45593999997E+02  0.45594000000E+02  0.51100000000E-03 0.  1.
    9900012    2    1    2    0    0  0.12454004141E+02 -0.38189417551E+01 -0.41399710742E+02  0.47787278983E+02  0.20000036196E+02 0.  0.
         12    1    1    2    0    0 -0.12454004141E+02  0.38189417551E+01  0.41399710742E+02  0.43400721017E+02  0.00000000000E+00 0. -1.
         11    1    3    3    0    0  0.22241773239E+01 -0.98964089352E+00 -0.19019189114E+02  0.19174355496E+02  0.51100000000E-03 0. -1.
        -11    1    3    3    0    0  0.12223289690E+02  0.21189169957E+01 -0.16902995408E+02  0.20966875640E+02  0.51100000000E-03 0.  1.
         12    1    3    3    0    0 -0.19934628733E+01 -0.49482178573E+01 -0.54775262201E+01  0.76460478472E+01  0.00000000000E+00 0. -1.
</event>
<event>
 7    1  0.5022032E-011  0.4778727E+02  0.7816164E-02  0.1312668E+00
        -11   -1    0    0    0    0  0.00000000000E+00  0.00000000000E+00  0.45593999997E+02  0.45594000000E+02  0.51100000000E-03 0. -1.
         11   -1    0    0    0    0 -0.00000000000E+00 -0.00000000000E+00 -0.45593999997E+02  0.45594000000E+02  0.51100000000E-03 0.  1.
    9900012    2    1    2    0    0 -0.17561480194E+02 -0.23312871743E+02  0.32120517424E+02  0.47787271721E+02  0.20000003084E+02 0.  0.
        -12    1    1    2    0    0  0.17561480194E+02  0.23312871743E+02 -0.32120517424E+02  0.43400728279E+02  0.00000000000E+00 0.  1.
         11    1    3    3    0    0  0.19659389469E+00 -0.29816072080E+01  0.35879234155E+01  0.46692424866E+01  0.51100000000E-03 0. -1.
        -11    1    3    3    0    0 -0.16304670465E+02 -0.64335312454E+01  0.10982611257E+02  0.20684543832E+02  0.51100000000E-03 0.  1.
        -12    1    3    3    0    0 -0.14534036240E+01 -0.13897733290E+02  0.17549982752E+02  0.22433485402E+02  0.00000000000E+00 0.  1.
</event>
<event>
 7    1  0.5022032E-011  0.4778727E+02  0.7816164E-02  0.1312668E+00
        -11   -1    0    0    0    0  0.00000000000E+00  0.00000000000E+00  0.45593999997E+02  0.45594000000E+02  0.51100000000E-03 0. -1.
         11   -1    0    0    0    0 -0.00000000000E+00 -0.00000000000E+00 -0.45593999997E+02  0.45594000000E+02  0.51100000000E-03 0.  1.
    9900012    2    1    2    0    0  0.34907759956E+02  0.17370589679E+02  0.19061326759E+02  0.47787271104E+02  0.20000000271E+02 0.  0.
        -12    1    1    2    0    0 -0.34907759956E+02 -0.17370589679E+02 -0.19061326759E+02  0.43400728896E+02  0.00000000000E+00 0.  1.
         11    1    3    3    0    0  0.25865697369E+02  0.14940044776E+02  0.89688178511E+01  0.31187801016E+02  0.51100000000E-03 0. -1.
        -11    1    3    3    0    0  0.67324362593E+00  0.41119289920E+01  0.13478203601E+01  0.43792507349E+01  0.51100000000E-03 0.  1.
        -12    1    3    3    0    0  0.83688189603E+01 -0.16813840885E+01  0.87446885476E+01  0.12220219353E+02  0.00000000000E+00 0.  1.
</event>
<event>
 7    1  0.5022032E-011  0.4778727E+02  0.7816164E-02  0.1312668E+00
        -11   -1    0    0    0    0  0.00000000000E+00  0.00000000000E+00  0.45593999997E+02  0.45594000000E+02  0.51100000000E-03 0. -1.
         11   -1    0    0    0    0 -0.00000000000E+00 -0.00000000000E+00 -0.45593999997E+02  0.45594000000E+02  0.51100000000E-03 0.  1.
    9900012    2    1    2    0    0  0.15225337231E+02  0.35038367276E+02 -0.20594298243E+02  0.47787271950E+02  0.20000004128E+02 0.  0.
         12    1    1    2    0    0 -0.15225337231E+02 -0.35038367276E+02  0.20594298243E+02  0.43400728050E+02  0.00000000000E+00 0. -1.
         11    1    3    3    0    0  0.43537867981E+01  0.17878923406E+02 -0.81178075157E+01  0.20112437962E+02  0.51100000000E-03 0. -1.
        -11    1    3    3    0    0  0.10285834309E+02  0.10652122815E+02 -0.14768914370E+01  0.14881106023E+02  0.51100000000E-03 0.  1.
         12    1    3    3    0    0  0.58571612390E+00  0.65073210548E+01 -0.10999599290E+02  0.12793727965E+02  0.00000000000E+00 0. -1.
</event>
<event>
 7    1  0.5022032E-011  0.4778727E+02  0.7816164E-02  0.1312668E+00
        -11   -1    0    0    0    0  0.00000000000E+00  0.00000000000E+00  0.45593999997E+02  0.45594000000E+02  0.51100000000E-03 0. -1.
         11   -1    0    0    0    0 -0.00000000000E+00 -0.00000000000E+00 -0.45593999997E+02  0.45594000000E+02  0.51100000000E-03 0.  1.
    9900012    2    1    2    0    0  0.56303790189E+01  0.98615248417E-01  0.43033851933E+02  0.47787270685E+02  0.19999998362E+02 0.  0.
        -12    1    1    2    0    0 -0.56303790189E+01 -0.98615248417E-01 -0.43033851933E+02  0.43400729315E+02  0.00000000000E+00 0.  1.
         11    1    3    3    0    0 -0.41020102887E+01 -0.20092700359E+01  0.33077329815E+02  0.33391217445E+02  0.51100000000E-03 0. -1.
        -11    1    3    3    0    0  0.10336742291E+01 -0.53858125117E+00  0.47269490243E+00  0.12577729954E+01  0.51100000000E-03 0.  1.
        -12    1    3    3    0    0  0.86987150785E+01  0.26464665355E+01  0.94838272158E+01  0.13138280245E+02  0.00000000000E+00 0.  1.
</event>
<event>
 7    1  0.5022032E-011  0.4778727E+02  0.7816164E-02  0.1312668E+00
        -11   -1    0    0    0    0  0.00000000000E+00  0.00000000000E+00  0.45593999997E+02  0.45594000000E+02  0.51100000000E-03 0. -1.
         11   -1    0    0    0    0 -0.00000000000E+00 -0.00000000000E+00 -0.45593999997E+02  0.45594000000E+02  0.51100000000E-03 0.  1.
    9900012    2    1    2    0    0 -0.37095352024E+02 -0.12992418286E+02  0.18405306052E+02  0.47787269989E+02  0.19999995186E+02 0.  0.
        -12    1    1    2    0    0  0.37095352024E+02  0.12992418286E+02 -0.18405306052E+02  0.43400730011E+02  0.00000000000E+00 0.  1.
         11    1    3    3    0    0 -0.20589825028E+02 -0.14003342460E+02  0.15777369822E+02  0.29478125679E+02  0.51100000000E-03 0. -1.
        -11    1    3    3    0    0 -0.99695420340E+01 -0.19930209265E+01  0.41077040394E+01  0.10965269423E+02  0.51100000000E-03 0.  1.
        -12    1    3    3    0    0 -0.65359849612E+01  0.30039451009E+01 -0.14797678103E+01  0.73438748869E+01  0.00000000000E+00 0.  1.
</event>
<event>
 7    1  0.5022032E-011  0.4778728E+02  0.7816164E-02  0.1312668E+00
        -11   -1    0    0    0    0  0.00000000000E+00  0.00000000000E+00  0.45593999997E+02  0.45594000000E+02  0.51100000000E-03 0. -1.
         11   -1    0    0    0    0 -0.00000000000E+00 -0.00000000000E+00 -0.45593999997E+02  0.45594000000E+02  0.51100000000E-03 0.  1.
    9900012    2    1    2    0    0  0.18513379129E+02 -0.57806920923E+01  0.38826036980E+02  0.47787277018E+02  0.20000027235E+02 0.  0.
        -12    1    1    2    0    0 -0.18513379129E+02  0.57806920923E+01 -0.38826036980E+02  0.43400722982E+02  0.00000000000E+00 0.  1.
         11    1    3    3    0    0  0.68173809959E+01 -0.97865455472E+01  0.12078230920E+02  0.16974593362E+02  0.51100000000E-03 0. -1.
        -11    1    3    3    0    0 -0.14895242173E+01  0.14812032336E+00  0.18885849368E+01  0.24098496527E+01  0.51100000000E-03 0.  1.
        -12    1    3    3    0    0  0.13185522351E+02  0.38577331316E+01  0.24859221122E+02  0.28402834003E+02  0.00000000000E+00 0.  1.
</event>
<event>
 7    1  0.5022032E-011  0.4778727E+02  0.7816164E-02  0.1312668E+00
        -11   -1    0    0    0    0  0.00000000000E+00  0.00000000000E+00  0.45593999997E+02  0.45594000000E+02  0.51100000000E-03 0. -1.
         11   -1    0    0    0    0 -0.00000000000E+00 -0.00000000000E+00 -0.45593999997E+02  0.45594000000E+02  0.51100000000E-03 0.  1.
    9900012    2    1    2    0    0  0.24763345799E+02 -0.10696872298E+02  0.33999656021E+02  0.47787274410E+02  0.20000015346E+02 0.  0.
        -12    1    1    2    0    0 -0.24763345799E+02  0.10696872298E+02 -0.33999656021E+02  0.43400725590E+02  0.00000000000E+00 0.  1.
         11    1    3    3    0    0  0.12480367113E+01  0.82501440345E+00  0.27298268231E+01  0.31129084702E+01  0.51100000000E-03 0. -1.
        -11    1    3    3    0    0  0.15703983588E+02  0.47467969884E+00  0.87327122037E+01  0.17975001643E+02  0.51100000000E-03 0.  1.
         12    1    3    3    0    0  0.78113254998E+01 -0.11996566400E+02  0.22537116995E+02  0.26699364297E+02  0.00000000000E+00 0. -1.
</event>
<event>
 7    1  0.5022032E-011  0.4778727E+02  0.7816164E-02  0.1312668E+00
        -11   -1    0    0    0    0  0.00000000000E+00  0.00000000000E+00  0.45593999997E+02  0.45594000000E+02  0.51100000000E-03 0.  1.
         11   -1    0    0    0    0 -0.00000000000E+00 -0.00000000000E+00 -0.45593999997E+02  0.45594000000E+02  0.51100000000E-03 0. -1.
    9900012    2    1    2    0    0  0.34377615799E+02 -0.20692537407E+02 -0.16541518618E+02  0.47787269470E+02  0.19999992820E+02 0.  0.
         12    1    1    2    0    0 -0.34377615799E+02  0.20692537407E+02  0.16541518618E+02  0.43400730530E+02  0.00000000000E+00 0. -1.
         11    1    3    3    0    0  0.95468870670E+01 -0.82511039016E+00 -0.22259825122E+01  0.98376246235E+01  0.51100000000E-03 0. -1.
        -11    1    3    3    0    0 -0.11278904168E+01 -0.15663387469E+01 -0.41902988490E+01  0.46134757578E+01  0.51100000000E-03 0.  1.
        -12    1    3    3    0    0  0.25958619149E+02 -0.18301088270E+02 -0.10125237257E+02  0.33336169088E+02  0.00000000000E+00 0.  1.
</event>
<event>
 7    1  0.5022032E-011  0.4778727E+02  0.7816164E-02  0.1312668E+00
        -11   -1    0    0    0    0  0.00000000000E+00  0.00000000000E+00  0.45593999997E+02  0.45594000000E+02  0.51100000000E-03 0. -1.
         11   -1    0    0    0    0 -0.00000000000E+00 -0.00000000000E+00 -0.45593999997E+02  0.45594000000E+02  0.51100000000E-03 0.  1.
    9900012    2    1    2    0    0 -0.21066830455E+02  0.34909198642E+01  0.37783934729E+02  0.47787267397E+02  0.19999983368E+02 0.  0.
        -12    1    1    2    0    0  0.21066830455E+02 -0.34909198642E+01 -0.37783934729E+02  0.43400732603E+02  0.00000000000E+00 0.  1.
         11    1    3    3    0    0 -0.38983889095E+01  0.66992851459E+01  0.68988898801E+01  0.10376537929E+02  0.51100000000E-03 0. -1.
        -11    1    3    3    0    0  0.17042416608E+01 -0.11272041588E+01  0.40702606058E+01  0.45543441366E+01  0.51100000000E-03 0.  1.
        -12    1    3    3    0    0 -0.18872683207E+02 -0.20811611230E+01  0.26814784243E+02  0.32856385331E+02  0.00000000000E+00 0.  1.
</event>
<event>
 7    1  0.5022032E-011  0.4778727E+02  0.7816164E-02  0.1312668E+00
        -11   -1    0    0    0    0  0.00000000000E+00  0.00000000000E+00  0.45593999997E+02  0.45594000000E+02  0.51100000000E-03 0.  1.
         11   -1    0    0    0    0 -0.00000000000E+00 -0.00000000000E+00 -0.45593999997E+02  0.45594000000E+02  0.51100000000E-03 0. -1.
    9900012    2    1    2    0    0  0.39004668816E+02 -0.18690686771E+02  0.35940833437E+01  0.47787269632E+02  0.19999993561E+02 0.  0.
        -12    1    1    2    0    0 -0.39004668816E+02  0.18690686771E+02 -0.35940833437E+01  0.43400730368E+02  0.00000000000E+00 0.  1.
         11    1    3    3    0    0  0.12132212050E+02 -0.78651400411E+01 -0.19474616155E+01  0.14589160500E+02  0.51100000000E-03 0. -1.
        -11    1    3    3    0    0  0.62825907802E+01 -0.10306312966E+02  0.10358427620E+01  0.12114619447E+02  0.51100000000E-03 0.  1.
        -12    1    3    3    0    0  0.20589865986E+02 -0.51923376342E+00  0.45057021972E+01  0.21083489685E+02  0.00000000000E+00 0.  1.
</event>
<event>
 7    1  0.5022032E-011  0.4778727E+02  0.7816164E-02  0.1312668E+00
        -11   -1    0    0    0    0  0.00000000000E+00  0.00000000000E+00  0.45593999997E+02  0.45594000000E+02  0.51100000000E-03 0. -1.
         11   -1    0    0    0    0 -0.00000000000E+00 -0.00000000000E+00 -0.45593999997E+02  0.45594000000E+02  0.51100000000E-03 0.  1.
    9900012    2    1    2    0    0 -0.73133329519E+01 -0.36962583193E+01 -0.42620134892E+02  0.47787273478E+02  0.20000011094E+02 0.  0.
         12    1    1    2    0    0  0.73133329519E+01  0.36962583193E+01  0.42620134892E+02  0.43400726522E+02  0.00000000000E+00 0. -1.
         11    1    3    3    0    0  0.42537140830E+01  0.19066573986E+01 -0.81982548246E+01  0.94308434599E+01  0.51100000000E-03 0. -1.
        -11    1    3    3    0    0 -0.37172651715E+01  0.26990813939E+01 -0.16286838710E+02  0.16922299375E+02  0.51100000000E-03 0.  1.
        -12    1    3    3    0    0 -0.78497818633E+01 -0.83019971118E+01 -0.18135041358E+02  0.21434130642E+02  0.00000000000E+00 0.  1.
</event>
<event>
 7    1 -0.1317799E-010  0.4778727E+02  0.7816164E-02  0.1312668E+00
        -11   -1    0    0    0    0  0.00000000000E+00  0.00000000000E+00  0.45593999997E+02  0.45594000000E+02  0.51100000000E-03 0.  1.
         11   -1    0    0    0    0 -0.00000000000E+00 -0.00000000000E+00 -0.45593999997E+02  0.45594000000E+02  0.51100000000E-03 0. -1.
    9900012    2    1    2    0    0 -0.20713044481E+02  0.31981306643E+02 -0.20779536734E+02  0.47787270362E+02  0.19999996888E+02 0.  0.
         12    1    1    2    0    0  0.20713044481E+02 -0.31981306643E+02  0.20779536734E+02  0.43400729638E+02  0.00000000000E+00 0. -1.
         11    1    3    3    0    0 -0.19742793087E+02  0.23733354743E+02 -0.14943296115E+02  0.34297989814E+02  0.51100000000E-03 0. -1.
        -11    1    3    3    0    0 -0.17547173511E+01  0.74257231430E+01 -0.88984213528E-01  0.76307480387E+01  0.51100000000E-03 0.  1.
         12    1    3    3    0    0  0.78446595765E+00  0.82222875652E+00 -0.57472564056E+01  0.58585325090E+01  0.00000000000E+00 0. -1.
</event>
<event>
 7    1  0.5022032E-011  0.4778727E+02  0.7816164E-02  0.1312668E+00
        -11   -1    0    0    0    0  0.00000000000E+00  0.00000000000E+00  0.45593999997E+02  0.45594000000E+02  0.51100000000E-03 0. -1.
         11   -1    0    0    0    0 -0.00000000000E+00 -0.00000000000E+00 -0.45593999997E+02  0.45594000000E+02  0.51100000000E-03 0.  1.
    9900012    2    1    2    0    0 -0.38012742833E+02 -0.63750653573E+01 -0.19950274909E+02  0.47787267922E+02  0.19999985762E+02 0.  0.
         12    1    1    2    0    0  0.38012742833E+02  0.63750653573E+01  0.19950274909E+02  0.43400732078E+02  0.00000000000E+00 0. -1.
         11    1    3    3    0    0 -0.25839297501E+01 -0.34273464258E+01 -0.32960712901E+01  0.54117910793E+01  0.51100000000E-03 0. -1.
        -11    1    3    3    0    0 -0.27808501244E+02 -0.70636776829E+01 -0.17605613217E+02  0.33662529626E+02  0.51100000000E-03 0.  1.
         12    1    3    3    0    0 -0.76203118388E+01  0.41159587514E+01  0.95140959783E+00  0.87129472159E+01  0.00000000000E+00 0. -1.
</event>
<event>
 7    1  0.5022032E-011  0.4778726E+02  0.7816164E-02  0.1312668E+00
        -11   -1    0    0    0    0  0.00000000000E+00  0.00000000000E+00  0.45593999997E+02  0.45594000000E+02  0.51100000000E-03 0. -1.
         11   -1    0    0    0    0 -0.00000000000E+00 -0.00000000000E+00 -0.45593999997E+02  0.45594000000E+02  0.51100000000E-03 0.  1.
    9900012    2    1    2    0    0 -0.43299559591E+01 -0.94745639526E+01  0.42132032228E+02  0.47787262445E+02  0.19999960791E+02 0.  0.
        -12    1    1    2    0    0  0.43299559591E+01  0.94745639526E+01 -0.42132032228E+02  0.43400737555E+02  0.00000000000E+00 0.  1.
         11    1    3    3    0    0 -0.51029013731E+01 -0.39760425426E+01  0.14083604410E+02  0.15498271845E+02  0.51100000000E-03 0. -1.
        -11    1    3    3    0    0 -0.25828043282E+00 -0.15017380435E+01 -0.16841950510E+01  0.22712197525E+01  0.51100000000E-03 0.  1.
         12    1    3    3    0    0  0.10312258468E+01 -0.39967833666E+01  0.29732622868E+02  0.30017770848E+02  0.00000000000E+00 0. -1.
</event>
<event>
 7    1  0.5022032E-011  0.4778727E+02  0.7816164E-02  0.1312668E+00
        -11   -1    0    0    0    0  0.00000000000E+00  0.00000000000E+00  0.45593999997E+02  0.45594000000E+02  0.51100000000E-03 0. -1.
         11   -1    0    0    0    0 -0.00000000000E+00 -0.00000000000E+00 -0.45593999997E+02  0.45594000000E+02  0.51100000000E-03 0.  1.
    9900012    2    1    2    0    0  0.29713950443E+02  0.17968422795E+02 -0.26035362095E+02  0.47787272493E+02  0.20000006605E+02 0.  0.
         12    1    1    2    0    0 -0.29713950443E+02 -0.17968422795E+02  0.26035362095E+02  0.43400727507E+02  0.00000000000E+00 0. -1.
         11    1    3    3    0    0  0.24652072504E+02  0.10642278631E+02 -0.15688747907E+02  0.31098546338E+02  0.51100000000E-03 0. -1.
        -11    1    3    3    0    0  0.63560609778E+01  0.60831268594E+01 -0.32665317755E+01  0.93847841554E+01  0.51100000000E-03 0.  1.
        -12    1    3    3    0    0 -0.12941830384E+01  0.12430173055E+01 -0.70800824131E+01  0.73039419997E+01  0.00000000000E+00 0.  1.
</event>
<event>
 7    1  0.5022032E-011  0.4778727E+02  0.7816164E-02  0.1312668E+00
        -11   -1    0    0    0    0  0.00000000000E+00  0.00000000000E+00  0.45593999997E+02  0.45594000000E+02  0.51100000000E-03 0. -1.
         11   -1    0    0    0    0 -0.00000000000E+00 -0.00000000000E+00 -0.45593999997E+02  0.45594000000E+02  0.51100000000E-03 0.  1.
    9900012    2    1    2    0    0 -0.21878701906E+02 -0.72036614756E+01 -0.36783864743E+02  0.47787273725E+02  0.20000012222E+02 0.  0.
         12    1    1    2    0    0  0.21878701906E+02  0.72036614756E+01  0.36783864743E+02  0.43400726275E+02  0.00000000000E+00 0. -1.
         11    1    3    3    0    0 -0.61818018246E+01  0.31725321770E+01 -0.19436699858E+01  0.72150874899E+01  0.51100000000E-03 0. -1.
        -11    1    3    3    0    0  0.29564122592E+00  0.97296379851E+00 -0.82697715143E+00  0.13107073502E+01  0.51100000000E-03 0.  1.
        -12    1    3    3    0    0 -0.15992541307E+02 -0.11349157451E+02 -0.34013217606E+02  0.39261478885E+02  0.00000000000E+00 0.  1.
</event>
<event>
 7    1  0.5022032E-011  0.4778726E+02  0.7816164E-02  0.1312668E+00
        -11   -1    0    0    0    0  0.00000000000E+00  0.00000000000E+00  0.45593999997E+02  0.45594000000E+02  0.51100000000E-03 0. -1.
         11   -1    0    0    0    0 -0.00000000000E+00 -0.00000000000E+00 -0.45593999997E+02  0.45594000000E+02  0.51100000000E-03 0.  1.
    9900012    2    1    2    0    0 -0.39267442273E+02  0.12486509836E+02  0.13630074999E+02  0.47787263888E+02  0.19999967372E+02 0.  0.
        -12    1    1    2    0    0  0.39267442273E+02 -0.12486509836E+02 -0.13630074999E+02  0.43400736112E+02  0.00000000000E+00 0.  1.
         11    1    3    3    0    0 -0.58149301467E+00  0.54162688359E+01  0.50423941259E+01  0.74229267147E+01  0.51100000000E-03 0.  1.
        -11    1    3    3    0    0 -0.64684450832E+01  0.76531854698E+00  0.24952710558E+01  0.69751610860E+01  0.51100000000E-03 0. -1.
         12    1    3    3    0    0 -0.32217504175E+02  0.63049224531E+01  0.60924098174E+01  0.33389176088E+02  0.00000000000E+00 0. -1.
</event>
<event>
 7    1  0.5022032E-011  0.4778728E+02  0.7816164E-02  0.1312668E+00
        -11   -1    0    0    0    0  0.00000000000E+00  0.00000000000E+00  0.45593999997E+02  0.45594000000E+02  0.51100000000E-03 0. -1.
         11   -1    0    0    0    0 -0.00000000000E+00 -0.00000000000E+00 -0.45593999997E+02  0.45594000000E+02  0.51100000000E-03 0.  1.
    9900012    2    1    2    0    0 -0.46029991493E+01  0.10255784292E+02 -0.41919615152E+02  0.47787275961E+02  0.20000022416E+02 0.  0.
         12    1    1    2    0    0  0.46029991493E+01 -0.10255784292E+02  0.41919615152E+02  0.43400724039E+02  0.00000000000E+00 0. -1.
         11    1    3    3    0    0 -0.54624948300E+01  0.15267046729E+01 -0.20059880016E+02  0.20846305751E+02  0.51100000000E-03 0. -1.
        -11    1    3    3    0    0 -0.47868988835E+01 -0.46919347690E+00 -0.51331299582E+01  0.70344556910E+01  0.51100000000E-03 0.  1.
         12    1    3    3    0    0  0.56463945642E+01  0.91982730962E+01 -0.16726605178E+02  0.19906514519E+02  0.00000000000E+00 0. -1.
</event>
<event>
 7    1  0.5022032E-011  0.4778727E+02  0.7816164E-02  0.1312668E+00
        -11   -1    0    0    0    0  0.00000000000E+00  0.00000000000E+00  0.45593999997E+02  0.45594000000E+02  0.51100000000E-03 0. -1.
         11   -1    0    0    0    0 -0.00000000000E+00 -0.00000000000E+00 -0.45593999997E+02  0.45594000000E+02  0.51100000000E-03 0.  1.
    9900012    2    1    2    0    0  0.27662068850E+02  0.10161232975E+02 -0.31861926675E+02  0.47787273277E+02  0.20000010178E+02 0.  0.
         12    1    1    2    0    0 -0.27662068850E+02 -0.10161232975E+02  0.31861926675E+02  0.43400726723E+02  0.00000000000E+00 0. -1.
         11    1    3    3    0    0  0.46348629789E+01  0.45904958025E+01 -0.25953204986E+01  0.70207047579E+01  0.51100000000E-03 0. -1.
        -11    1    3    3    0    0  0.81646830797E+01  0.88632390133E+01 -0.74625106183E+01  0.14174206171E+02  0.51100000000E-03 0.  1.
         12    1    3    3    0    0  0.14862522791E+02 -0.32925018408E+01 -0.21804095558E+02  0.26592362347E+02  0.00000000000E+00 0. -1.
</event>
<event>
 7    1  0.5022032E-011  0.4778727E+02  0.7816164E-02  0.1312668E+00
        -11   -1    0    0    0    0  0.00000000000E+00  0.00000000000E+00  0.45593999997E+02  0.45594000000E+02  0.51100000000E-03 0. -1.
         11   -1    0    0    0    0 -0.00000000000E+00 -0.00000000000E+00 -0.45593999997E+02  0.45594000000E+02  0.51100000000E-03 0.  1.
    9900012    2    1    2    0    0  0.25299703987E+02 -0.10711374607E+02 -0.33597841194E+02  0.47787268431E+02  0.19999988085E+02 0.  0.
         12    1    1    2    0    0 -0.25299703987E+02  0.10711374607E+02  0.33597841194E+02  0.43400731569E+02  0.00000000000E+00 0. -1.
         11    1    3    3    0    0  0.94164665427E+01 -0.19906137907E+01 -0.11016128488E+02  0.14628310652E+02  0.51100000000E-03 0. -1.
        -11    1    3    3    0    0  0.36527537577E+01 -0.50762229878E+01 -0.18853382072E+02  0.19863551184E+02  0.51100000000E-03 0.  1.
         12    1    3    3    0    0  0.12230483687E+02 -0.36445378285E+01 -0.37283306342E+01  0.13295406595E+02  0.00000000000E+00 0. -1.
</event>
<event>
 7    1  0.5022032E-011  0.4778729E+02  0.7816164E-02  0.1312668E+00
        -11   -1    0    0    0    0  0.00000000000E+00  0.00000000000E+00  0.45593999997E+02  0.45594000000E+02  0.51100000000E-03 0. -1.
         11   -1    0    0    0    0 -0.00000000000E+00 -0.00000000000E+00 -0.45593999997E+02  0.45594000000E+02  0.51100000000E-03 0.  1.
    9900012    2    1    2    0    0 -0.12330409407E+02 -0.12283360016E+02  0.39758039955E+02  0.47787289516E+02  0.20000084221E+02 0.  0.
        -12    1    1    2    0    0  0.12330409407E+02  0.12283360016E+02 -0.39758039955E+02  0.43400710484E+02  0.00000000000E+00 0.  1.
         11    1    3    3    0    0 -0.47493890704E+01 -0.32425792962E+01  0.22834488221E+02  0.23547502407E+02  0.51100000000E-03 0. -1.
        -11    1    3    3    0    0 -0.10389476489E+02 -0.37499479944E+01  0.13092526449E+02  0.17129436090E+02  0.51100000000E-03 0.  1.
        -12    1    3    3    0    0  0.28084561519E+01 -0.52908327257E+01  0.38310252850E+01  0.71103510197E+01  0.00000000000E+00 0.  1.
</event>
<event>
 7    1  0.5022032E-011  0.4778727E+02  0.7816164E-02  0.1312668E+00
        -11   -1    0    0    0    0  0.00000000000E+00  0.00000000000E+00  0.45593999997E+02  0.45594000000E+02  0.51100000000E-03 0. -1.
         11   -1    0    0    0    0 -0.00000000000E+00 -0.00000000000E+00 -0.45593999997E+02  0.45594000000E+02  0.51100000000E-03 0.  1.
    9900012    2    1    2    0    0 -0.90641416234E+01  0.25520649180E+02  0.33914026572E+02  0.47787269634E+02  0.19999993571E+02 0.  0.
        -12    1    1    2    0    0  0.90641416234E+01 -0.25520649180E+02 -0.33914026572E+02  0.43400730366E+02  0.00000000000E+00 0.  1.
         11    1    3    3    0    0 -0.59033867867E+01  0.21380578881E+02  0.23905452091E+02  0.32610577560E+02  0.51100000000E-03 0. -1.
        -11    1    3    3    0    0 -0.27196844194E+01  0.73296614248E+01  0.87119172657E+01  0.11705474046E+02  0.51100000000E-03 0.  1.
        -12    1    3    3    0    0 -0.44107041727E+00 -0.31895911259E+01  0.12966572150E+01  0.34712180279E+01  0.00000000000E+00 0.  1.
</event>
<event>
 7    1  0.5022032E-011  0.4778727E+02  0.7816164E-02  0.1312668E+00
        -11   -1    0    0    0    0  0.00000000000E+00  0.00000000000E+00  0.45593999997E+02  0.45594000000E+02  0.51100000000E-03 0. -1.
         11   -1    0    0    0    0 -0.00000000000E+00 -0.00000000000E+00 -0.45593999997E+02  0.45594000000E+02  0.51100000000E-03 0.  1.
    9900012    2    1    2    0    0  0.24521269310E+02 -0.26215577484E+02  0.24394137865E+02  0.47787272891E+02  0.20000008421E+02 0.  0.
        -12    1    1    2    0    0 -0.24521269310E+02  0.26215577484E+02 -0.24394137865E+02  0.43400727109E+02  0.00000000000E+00 0.  1.
         11    1    3    3    0    0  0.66259673196E+01 -0.80657864242E+01  0.55165493442E+01  0.11806467316E+02  0.51100000000E-03 0. -1.
        -11    1    3    3    0    0  0.12969267810E+02 -0.21091153481E+02  0.16592107982E+02  0.29804977944E+02  0.51100000000E-03 0.  1.
        -12    1    3    3    0    0  0.49260341801E+01  0.29413624215E+01  0.22854805386E+01  0.61758276312E+01  0.00000000000E+00 0.  1.
</event>
<event>
 7    1  0.5022032E-011  0.4778726E+02  0.7816164E-02  0.1312668E+00
        -11   -1    0    0    0    0  0.00000000000E+00  0.00000000000E+00  0.45593999997E+02  0.45594000000E+02  0.51100000000E-03 0.  1.
         11   -1    0    0    0    0 -0.00000000000E+00 -0.00000000000E+00 -0.45593999997E+02  0.45594000000E+02  0.51100000000E-03 0. -1.
    9900012    2    1    2    0    0 -0.39283694164E+02  0.12034290581E+02 -0.13985388840E+02  0.47787264084E+02  0.19999968267E+02 0.  0.
         12    1    1    2    0    0  0.39283694164E+02 -0.12034290581E+02  0.13985388840E+02  0.43400735916E+02  0.00000000000E+00 0. -1.
         11    1    3    3    0    0 -0.11323701961E+02 -0.45295811222E+01 -0.16359451738E+00  0.12197134691E+02  0.51100000000E-03 0. -1.
        -11    1    3    3    0    0 -0.22596018277E+01  0.12165873792E+01 -0.25109595750E+01  0.35903765151E+01  0.51100000000E-03 0.  1.
        -12    1    3    3    0    0 -0.25700390376E+02  0.15347284324E+02 -0.11310834748E+02  0.31999752878E+02  0.00000000000E+00 0.  1.
</event>
<event>
 7    1  0.5022032E-011  0.4778726E+02  0.7816164E-02  0.1312668E+00
        -11   -1    0    0    0    0  0.00000000000E+00  0.00000000000E+00  0.45593999997E+02  0.45594000000E+02  0.51100000000E-03 0. -1.
         11   -1    0    0    0    0 -0.00000000000E+00 -0.00000000000E+00 -0.45593999997E+02  0.45594000000E+02  0.51100000000E-03 0.  1.
    9900012    2    1    2    0    0  0.32977451283E+02  0.38479030335E+01 -0.27951851493E+02  0.47787255158E+02  0.19999927569E+02 0.  0.
         12    1    1    2    0    0 -0.32977451283E+02 -0.38479030335E+01  0.27951851493E+02  0.43400744842E+02  0.00000000000E+00 0. -1.
         11    1    3    3    0    0  0.18584438489E+02  0.58707249592E+01 -0.18712959227E+02  0.27018912058E+02  0.51100000000E-03 0.  1.
        -11    1    3    3    0    0  0.11769691037E+02 -0.61117661287E+00 -0.11918452476E+02  0.16761523608E+02  0.51100000000E-03 0. -1.
         12    1    3    3    0    0  0.26233217577E+01 -0.14116453128E+01  0.26795602096E+01  0.40068194931E+01  0.00000000000E+00 0. -1.
</event>
<event>
 7    1  0.5619411E-011  0.4778727E+02  0.7816164E-02  0.1312668E+00
        -11   -1    0    0    0    0  0.00000000000E+00  0.00000000000E+00  0.45593999997E+02  0.45594000000E+02  0.51100000000E-03 0. -1.
         11   -1    0    0    0    0 -0.00000000000E+00 -0.00000000000E+00 -0.45593999997E+02  0.45594000000E+02  0.51100000000E-03 0.  1.
    9900012    2    1    2    0    0 -0.17539260930E+02  0.27441610105E+02 -0.28687205242E+02  0.47787269779E+02  0.19999994230E+02 0.  0.
         12    1    1    2    0    0  0.17539260930E+02 -0.27441610105E+02  0.28687205242E+02  0.43400730221E+02  0.00000000000E+00 0. -1.
         11    1    3    3    0    0 -0.22155000894E+01  0.51929560287E+01  0.13763837118E+00  0.56474930318E+01  0.51100000000E-03 0. -1.
        -11    1    3    3    0    0 -0.84822917611E+01  0.28975024654E+01 -0.37002651521E+01  0.96972551020E+01  0.51100000000E-03 0.  1.
        -12    1    3    3    0    0 -0.68414690793E+01  0.19351151611E+02 -0.25124578461E+02  0.32442521645E+02  0.00000000000E+00 0.  1.
</event>
<event>
 7    1  0.5022032E-011  0.4778729E+02  0.7816164E-02  0.1312668E+00
        -11   -1    0    0    0    0  0.00000000000E+00  0.00000000000E+00  0.45593999997E+02  0.45594000000E+02  0.51100000000E-03 0. -1.
         11   -1    0    0    0    0 -0.00000000000E+00 -0.00000000000E+00 -0.45593999997E+02  0.45594000000E+02  0.51100000000E-03 0.  1.
    9900012    2    1    2    0    0  0.31209193846E+02 -0.75804179925E+01 -0.29191525701E+02  0.47787289289E+02  0.20000083186E+02 0.  0.
         12    1    1    2    0    0 -0.31209193846E+02  0.75804179925E+01  0.29191525701E+02  0.43400710711E+02  0.00000000000E+00 0. -1.
         11    1    3    3    0    0 -0.99182909351E+00 -0.15936921442E+01 -0.46097456334E+01  0.49772818553E+01  0.51100000000E-03 0. -1.
        -11    1    3    3    0    0  0.88756380249E+01 -0.66529875322E+01 -0.11835080356E+02  0.16220614068E+02  0.51100000000E-03 0.  1.
        -12    1    3    3    0    0  0.23325384914E+02  0.66626168386E+00 -0.12746699711E+02  0.26589393366E+02  0.00000000000E+00 0.  1.
</event>
<event>
 7    1  0.5022032E-011  0.4778727E+02  0.7816164E-02  0.1312668E+00
        -11   -1    0    0    0    0  0.00000000000E+00  0.00000000000E+00  0.45593999997E+02  0.45594000000E+02  0.51100000000E-03 0. -1.
         11   -1    0    0    0    0 -0.00000000000E+00 -0.00000000000E+00 -0.45593999997E+02  0.45594000000E+02  0.51100000000E-03 0.  1.
    9900012    2    1    2    0    0  0.36362738162E+01 -0.25237506209E+02  0.35120776259E+02  0.47787272679E+02  0.20000007454E+02 0.  0.
        -12    1    1    2    0    0 -0.36362738162E+01  0.25237506209E+02 -0.35120776259E+02  0.43400727321E+02  0.00000000000E+00 0.  1.
         11    1    3    3    0    0  0.75920352380E+01 -0.86738656165E+01  0.15108362387E+02  0.19003619604E+02  0.51100000000E-03 0. -1.
        -11    1    3    3    0    0  0.37819484317E+01 -0.81259489078E+01  0.11149644818E+02  0.14305549952E+02  0.51100000000E-03 0.  1.
        -12    1    3    3    0    0 -0.77377098535E+01 -0.84376916845E+01  0.88627690546E+01  0.14478103124E+02  0.00000000000E+00 0.  1.
</event>
<event>
 7    1  0.5022032E-011  0.4778727E+02  0.7816164E-02  0.1312668E+00
        -11   -1    0    0    0    0  0.00000000000E+00  0.00000000000E+00  0.45593999997E+02  0.45594000000E+02  0.51100000000E-03 0. -1.
         11   -1    0    0    0    0 -0.00000000000E+00 -0.00000000000E+00 -0.45593999997E+02  0.45594000000E+02  0.51100000000E-03 0.  1.
    9900012    2    1    2    0    0 -0.43864655088E+01 -0.23502071083E+02 -0.36222016873E+02  0.47787274992E+02  0.20000017998E+02 0.  0.
         12    1    1    2    0    0  0.43864655088E+01  0.23502071083E+02  0.36222016873E+02  0.43400725008E+02  0.00000000000E+00 0. -1.
         11    1    3    3    0    0 -0.37222683280E+01 -0.25815277391E+01 -0.83682010988E+01  0.95155849460E+01  0.51100000000E-03 0. -1.
        -11    1    3    3    0    0  0.26673237991E+01 -0.17573436833E+02 -0.28414478668E+02  0.33516009557E+02  0.51100000000E-03 0.  1.
         12    1    3    3    0    0 -0.33315209799E+01 -0.33471065108E+01  0.56066289334E+00  0.47556804890E+01  0.00000000000E+00 0. -1.
</event>
<event>
 7    1  0.5022032E-011  0.4778727E+02  0.7816164E-02  0.1312668E+00
        -11   -1    0    0    0    0  0.00000000000E+00  0.00000000000E+00  0.45593999997E+02  0.45594000000E+02  0.51100000000E-03 0. -1.
         11   -1    0    0    0    0 -0.00000000000E+00 -0.00000000000E+00 -0.45593999997E+02  0.45594000000E+02  0.51100000000E-03 0.  1.
    9900012    2    1    2    0    0 -0.12406490073E+01 -0.57198867114E+01  0.43004265948E+02  0.47787271853E+02  0.20000003685E+02 0.  0.
        -12    1    1    2    0    0  0.12406490073E+01  0.57198867114E+01 -0.43004265948E+02  0.43400728147E+02  0.00000000000E+00 0.  1.
         11    1    3    3    0    0  0.12768854896E+01  0.28389640131E-01  0.74139962317E+00  0.14767925337E+01  0.51100000000E-03 0. -1.
        -11    1    3    3    0    0  0.25398884287E+00 -0.62804348257E+01  0.30327161012E+01  0.69789497164E+01  0.51100000000E-03 0.  1.
         12    1    3    3    0    0 -0.27715233399E+01  0.53215847425E+00  0.39230150224E+02  0.39331529603E+02  0.00000000000E+00 0. -1.
</event>
<event>
 7    1  0.5022032E-011  0.4778726E+02  0.7816164E-02  0.1312668E+00
        -11   -1    0    0    0    0  0.00000000000E+00  0.00000000000E+00  0.45593999997E+02  0.45594000000E+02  0.51100000000E-03 0. -1.
         11   -1    0    0    0    0 -0.00000000000E+00 -0.00000000000E+00 -0.45593999997E+02  0.45594000000E+02  0.51100000000E-03 0.  1.
    9900012    2    1    2    0    0  0.20961068350E+02 -0.15563417067E+02 -0.34670412652E+02  0.47787264400E+02  0.19999969704E+02 0.  0.
         12    1    1    2    0    0 -0.20961068350E+02  0.15563417067E+02  0.34670412652E+02  0.43400735600E+02  0.00000000000E+00 0. -1.
         11    1    3    3    0    0 -0.11052980115E+01 -0.36821231850E+00 -0.11779127781E+01  0.16567265253E+01  0.51100000000E-03 0.  1.
        -11    1    3    3    0    0  0.75369950282E+01 -0.10177760145E+02 -0.26235284532E+02  0.29132168652E+02  0.51100000000E-03 0. -1.
         12    1    3    3    0    0  0.14529371334E+02 -0.50174446030E+01 -0.72572153415E+01  0.16998369222E+02  0.00000000000E+00 0. -1.
</event>
<event>
 7    1  0.5022032E-011  0.4778728E+02  0.7816164E-02  0.1312668E+00
        -11   -1    0    0    0    0  0.00000000000E+00  0.00000000000E+00  0.45593999997E+02  0.45594000000E+02  0.51100000000E-03 0. -1.
         11   -1    0    0    0    0 -0.00000000000E+00 -0.00000000000E+00 -0.45593999997E+02  0.45594000000E+02  0.51100000000E-03 0.  1.
    9900012    2    1    2    0    0 -0.80046166425E+01 -0.29419970056E+02  0.30887123096E+02  0.47787275365E+02  0.20000019701E+02 0.  0.
        -12    1    1    2    0    0  0.80046166425E+01  0.29419970056E+02 -0.30887123096E+02  0.43400724635E+02  0.00000000000E+00 0.  1.
         11    1    3    3    0    0 -0.34167753364E+01 -0.43818715456E+01  0.81103820744E+01  0.98312486285E+01  0.51100000000E-03 0. -1.
        -11    1    3    3    0    0 -0.33753710898E+01 -0.22586207481E+01  0.12111383812E+02  0.12774197265E+02  0.51100000000E-03 0.  1.
         12    1    3    3    0    0 -0.12124702163E+01 -0.22779477762E+02  0.10665357210E+02  0.25181829472E+02  0.00000000000E+00 0. -1.
</event>
<event>
 7    1  0.5022032E-011  0.4778727E+02  0.7816164E-02  0.1312668E+00
        -11   -1    0    0    0    0  0.00000000000E+00  0.00000000000E+00  0.45593999997E+02  0.45594000000E+02  0.51100000000E-03 0. -1.
         11   -1    0    0    0    0 -0.00000000000E+00 -0.00000000000E+00 -0.45593999997E+02  0.45594000000E+02  0.51100000000E-03 0.  1.
    9900012    2    1    2    0    0 -0.30958848550E+02 -0.27966027433E+02  0.11961363747E+02  0.47787271704E+02  0.20000003008E+02 0.  0.
        -12    1    1    2    0    0  0.30958848550E+02  0.27966027433E+02 -0.11961363747E+02  0.43400728296E+02  0.00000000000E+00 0.  1.
         11    1    3    3    0    0 -0.68118173131E+01 -0.10076661611E+02  0.59089694499E+01  0.13522421549E+02  0.51100000000E-03 0. -1.
        -11    1    3    3    0    0  0.19307102909E+01 -0.13863775403E+01  0.20626307597E+01  0.31470829070E+01  0.51100000000E-03 0.  1.
         12    1    3    3    0    0 -0.26077741528E+02 -0.16502988281E+02  0.39897635376E+01  0.31117767248E+02  0.00000000000E+00 0. -1.
</event>
<event>
 7    1  0.5022032E-011  0.4778727E+02  0.7816164E-02  0.1312668E+00
        -11   -1    0    0    0    0  0.00000000000E+00  0.00000000000E+00  0.45593999997E+02  0.45594000000E+02  0.51100000000E-03 0. -1.
         11   -1    0    0    0    0 -0.00000000000E+00 -0.00000000000E+00 -0.45593999997E+02  0.45594000000E+02  0.51100000000E-03 0.  1.
    9900012    2    1    2    0    0  0.36047583369E+02 -0.23792025103E+02 -0.42584985654E+01  0.47787268033E+02  0.19999986270E+02 0.  0.
         12    1    1    2    0    0 -0.36047583369E+02  0.23792025103E+02  0.42584985654E+01  0.43400731967E+02  0.00000000000E+00 0. -1.
         11    1    3    3    0    0  0.22777797672E+01 -0.69653044722E+01 -0.66244915924E+01  0.98786454627E+01  0.51100000000E-03 0. -1.
        -11    1    3    3    0    0  0.41698748592E+01 -0.30796818668E+01 -0.35268201466E-01  0.51839696035E+01  0.51100000000E-03 0.  1.
         12    1    3    3    0    0  0.29599928742E+02 -0.13747038764E+02  0.24012612285E+01  0.32724652967E+02  0.00000000000E+00 0. -1.
</event>
<event>
 7    1  0.5022032E-011  0.4778729E+02  0.7816164E-02  0.1312668E+00
        -11   -1    0    0    0    0  0.00000000000E+00  0.00000000000E+00  0.45593999997E+02  0.45594000000E+02  0.51100000000E-03 0. -1.
         11   -1    0    0    0    0 -0.00000000000E+00 -0.00000000000E+00 -0.45593999997E+02  0.45594000000E+02  0.51100000000E-03 0.  1.
    9900012    2    1    2    0    0  0.17787112376E+02  0.95544137443E+01  0.38418141956E+02  0.47787287794E+02  0.20000076367E+02 0.  0.
        -12    1    1    2    0    0 -0.17787112376E+02 -0.95544137443E+01 -0.38418141956E+02  0.43400712206E+02  0.00000000000E+00 0.  1.
         11    1    3    3    0    0  0.56790983715E+01  0.73085575665E+01  0.51389049593E+01  0.10586572460E+02  0.51100000000E-03 0. -1.
        -11    1    3    3    0    0  0.79280289787E+01  0.49993958141E+01  0.11410305265E+02  0.14766267927E+02  0.51100000000E-03 0.  1.
         12    1    3    3    0    0  0.41799850254E+01 -0.27535396363E+01  0.21868931731E+02  0.22434447406E+02  0.00000000000E+00 0. -1.
</event>
<event>
 7    1  0.5022032E-011  0.4778727E+02  0.7816164E-02  0.1312668E+00
        -11   -1    0    0    0    0  0.00000000000E+00  0.00000000000E+00  0.45593999997E+02  0.45594000000E+02  0.51100000000E-03 0. -1.
         11   -1    0    0    0    0 -0.00000000000E+00 -0.00000000000E+00 -0.45593999997E+02  0.45594000000E+02  0.51100000000E-03 0.  1.
    9900012    2    1    2    0    0  0.30556474164E+02 -0.10323538480E+02 -0.29040486642E+02  0.47787269310E+02  0.19999992090E+02 0.  0.
         12    1    1    2    0    0 -0.30556474164E+02  0.10323538480E+02  0.29040486642E+02  0.43400730690E+02  0.00000000000E+00 0. -1.
         11    1    3    3    0    0  0.57711623754E+01 -0.68497569591E+01 -0.14836293319E+02  0.17330351562E+02  0.51100000000E-03 0. -1.
        -11    1    3    3    0    0  0.55447324078E+01  0.30705096063E+01 -0.53277986092E+01  0.82799471615E+01  0.51100000000E-03 0.  1.
        -12    1    3    3    0    0  0.19240579380E+02 -0.65442911269E+01 -0.88763947141E+01  0.22176970586E+02  0.00000000000E+00 0.  1.
</event>
<event>
 7    1  0.5022032E-011  0.4778727E+02  0.7816164E-02  0.1312668E+00
        -11   -1    0    0    0    0  0.00000000000E+00  0.00000000000E+00  0.45593999997E+02  0.45594000000E+02  0.51100000000E-03 0. -1.
         11   -1    0    0    0    0 -0.00000000000E+00 -0.00000000000E+00 -0.45593999997E+02  0.45594000000E+02  0.51100000000E-03 0.  1.
    9900012    2    1    2    0    0  0.34717591879E+02  0.41436110623E+01 -0.25712690905E+02  0.47787272217E+02  0.20000005346E+02 0.  0.
         12    1    1    2    0    0 -0.34717591879E+02 -0.41436110623E+01  0.25712690905E+02  0.43400727783E+02  0.00000000000E+00 0. -1.
         11    1    3    3    0    0  0.16165559037E+02  0.13726482238E+01 -0.91714764550E+01  0.18636669304E+02  0.51100000000E-03 0. -1.
        -11    1    3    3    0    0  0.20609404510E+02  0.23222659035E+01 -0.11563080128E+02  0.23745426833E+02  0.51100000000E-03 0.  1.
        -12    1    3    3    0    0 -0.20573716680E+01  0.44869693503E+00 -0.49781343226E+01  0.54051760798E+01  0.00000000000E+00 0.  1.
</event>
<event>
 7    1  0.5022032E-011  0.4778727E+02  0.7816164E-02  0.1312668E+00
        -11   -1    0    0    0    0  0.00000000000E+00  0.00000000000E+00  0.45593999997E+02  0.45594000000E+02  0.51100000000E-03 0.  1.
         11   -1    0    0    0    0 -0.00000000000E+00 -0.00000000000E+00 -0.45593999997E+02  0.45594000000E+02  0.51100000000E-03 0. -1.
    9900012    2    1    2    0    0  0.34614588005E+02  0.25630238862E+02  0.53427096541E+01  0.47787269668E+02  0.19999993725E+02 0.  0.
         12    1    1    2    0    0 -0.34614588005E+02 -0.25630238862E+02 -0.53427096541E+01  0.43400730332E+02  0.00000000000E+00 0. -1.
         11    1    3    3    0    0  0.72977409851E+01  0.10176016885E+01 -0.25825186231E+01  0.78078127143E+01  0.51100000000E-03 0. -1.
        -11    1    3    3    0    0  0.15692681200E+02  0.12716430172E+02  0.11099026242E+02  0.23046826752E+02  0.51100000000E-03 0.  1.
         12    1    3    3    0    0  0.11624165821E+02  0.11896207001E+02 -0.31737979644E+01  0.16932630202E+02  0.00000000000E+00 0. -1.
</event>
<event>
 7    1  0.5022032E-011  0.4778727E+02  0.7816164E-02  0.1312668E+00
        -11   -1    0    0    0    0  0.00000000000E+00  0.00000000000E+00  0.45593999997E+02  0.45594000000E+02  0.51100000000E-03 0. -1.
         11   -1    0    0    0    0 -0.00000000000E+00 -0.00000000000E+00 -0.45593999997E+02  0.45594000000E+02  0.51100000000E-03 0.  1.
    9900012    2    1    2    0    0 -0.23417671499E+02  0.24198680160E+01  0.36460661926E+02  0.47787274571E+02  0.20000016081E+02 0.  0.
        -12    1    1    2    0    0  0.23417671499E+02 -0.24198680160E+01 -0.36460661926E+02  0.43400725429E+02  0.00000000000E+00 0.  1.
         11    1    3    3    0    0 -0.27236790292E+01  0.17919673777E+01  0.72427688308E+01  0.79427498472E+01  0.51100000000E-03 0. -1.
        -11    1    3    3    0    0 -0.19963366500E+02 -0.30400599425E+01  0.15032746001E+02  0.25174618549E+02  0.51100000000E-03 0.  1.
        -12    1    3    3    0    0 -0.73062596996E+00  0.36679605807E+01  0.14185147094E+02  0.14669906175E+02  0.00000000000E+00 0.  1.
</event>
<event>
 7    1  0.8282296E-011  0.4778727E+02  0.7816164E-02  0.1312668E+00
        -11   -1    0    0    0    0  0.00000000000E+00  0.00000000000E+00  0.45593999997E+02  0.45594000000E+02  0.51100000000E-03 0. -1.
         11   -1    0    0    0    0 -0.00000000000E+00 -0.00000000000E+00 -0.45593999997E+02  0.45594000000E+02  0.51100000000E-03 0.  1.
    9900012    2    1    2    0    0  0.80334637145E+01  0.25109299616E+02 -0.34476219681E+02  0.47787272011E+02  0.20000004407E+02 0.  0.
         12    1    1    2    0    0 -0.80334637145E+01 -0.25109299616E+02  0.34476219681E+02  0.43400727989E+02  0.00000000000E+00 0. -1.
         11    1    3    3    0    0 -0.31625129358E+01  0.43589046184E+01 -0.90137123697E+01  0.10499930880E+02  0.51100000000E-03 0. -1.
        -11    1    3    3    0    0 -0.47927116956E+00 -0.61647971550E+00  0.10383152613E+01  0.12991716347E+01  0.51100000000E-03 0.  1.
        -12    1    3    3    0    0  0.11675247820E+02  0.21366874713E+02 -0.26500822573E+02  0.35988169496E+02  0.00000000000E+00 0.  1.
</event>
<event>
 7    1  0.5022032E-011  0.4778727E+02  0.7816164E-02  0.1312668E+00
        -11   -1    0    0    0    0  0.00000000000E+00  0.00000000000E+00  0.45593999997E+02  0.45594000000E+02  0.51100000000E-03 0. -1.
         11   -1    0    0    0    0 -0.00000000000E+00 -0.00000000000E+00 -0.45593999997E+02  0.45594000000E+02  0.51100000000E-03 0.  1.
    9900012    2    1    2    0    0  0.43390241469E+01 -0.15613362398E+02 -0.40261881666E+02  0.47787270384E+02  0.19999996991E+02 0.  0.
         12    1    1    2    0    0 -0.43390241469E+01  0.15613362398E+02  0.40261881666E+02  0.43400729616E+02  0.00000000000E+00 0. -1.
         11    1    3    3    0    0 -0.30508538026E+01  0.29530284440E+01 -0.28469810180E+01  0.51120824616E+01  0.51100000000E-03 0. -1.
        -11    1    3    3    0    0  0.35332273268E+01 -0.86931272612E+01 -0.22491063535E+02  0.24370106609E+02  0.51100000000E-03 0.  1.
         12    1    3    3    0    0  0.38566506227E+01 -0.98732635804E+01 -0.14923837113E+02  0.18305081314E+02  0.00000000000E+00 0. -1.
</event>
<event>
 7    1  0.5022032E-011  0.4778727E+02  0.7816164E-02  0.1312668E+00
        -11   -1    0    0    0    0  0.00000000000E+00  0.00000000000E+00  0.45593999997E+02  0.45594000000E+02  0.51100000000E-03 0. -1.
         11   -1    0    0    0    0 -0.00000000000E+00 -0.00000000000E+00 -0.45593999997E+02  0.45594000000E+02  0.51100000000E-03 0.  1.
    9900012    2    1    2    0    0 -0.67369733927E+01  0.36479148900E+02 -0.22527944020E+02  0.47787269860E+02  0.19999994597E+02 0.  0.
         12    1    1    2    0    0  0.67369733927E+01 -0.36479148900E+02  0.22527944020E+02  0.43400730140E+02  0.00000000000E+00 0. -1.
         11    1    3    3    0    0 -0.47391867382E+01  0.13462383017E+01 -0.66784232945E+01  0.82990111740E+01  0.51100000000E-03 0. -1.
        -11    1    3    3    0    0  0.29423925977E+01  0.69599587063E+01 -0.36665564907E+01  0.83989485148E+01  0.51100000000E-03 0.  1.
        -12    1    3    3    0    0 -0.49401792523E+01  0.28172951892E+02 -0.12182964235E+02  0.31089310171E+02  0.00000000000E+00 0.  1.
</event>
<event>
 7    1  0.5022032E-011  0.4778727E+02  0.7816164E-02  0.1312668E+00
        -11   -1    0    0    0    0  0.00000000000E+00  0.00000000000E+00  0.45593999997E+02  0.45594000000E+02  0.51100000000E-03 0. -1.
         11   -1    0    0    0    0 -0.00000000000E+00 -0.00000000000E+00 -0.45593999997E+02  0.45594000000E+02  0.51100000000E-03 0.  1.
    9900012    2    1    2    0    0  0.11602065712E+02  0.52681749896E+01  0.41488091944E+02  0.47787269941E+02  0.19999994970E+02 0.  0.
        -12    1    1    2    0    0 -0.11602065712E+02 -0.52681749896E+01 -0.41488091944E+02  0.43400730059E+02  0.00000000000E+00 0.  1.
         11    1    3    3    0    0  0.37217289286E+01  0.10471480954E+01  0.21890827272E+02  0.22229622225E+02  0.51100000000E-03 0. -1.
        -11    1    3    3    0    0  0.77007176879E+01  0.77491802477E+01  0.19081327439E+02  0.21987448795E+02  0.51100000000E-03 0.  1.
        -12    1    3    3    0    0  0.17961909578E+00 -0.35281533535E+01  0.51593723201E+00  0.35701989206E+01  0.00000000000E+00 0.  1.
</event>
<event>
 7    1  0.5022032E-011  0.4778728E+02  0.7816164E-02  0.1312668E+00
        -11   -1    0    0    0    0  0.00000000000E+00  0.00000000000E+00  0.45593999997E+02  0.45594000000E+02  0.51100000000E-03 0. -1.
         11   -1    0    0    0    0 -0.00000000000E+00 -0.00000000000E+00 -0.45593999997E+02  0.45594000000E+02  0.51100000000E-03 0.  1.
    9900012    2    1    2    0    0 -0.61727424013E+01 -0.24396033989E+01 -0.42890189755E+02  0.47787276611E+02  0.20000025380E+02 0.  0.
         12    1    1    2    0    0  0.61727424013E+01  0.24396033989E+01  0.42890189755E+02  0.43400723389E+02  0.00000000000E+00 0. -1.
         11    1    3    3    0    0 -0.63599494206E+01 -0.64693106558E+01 -0.12451887818E+02  0.15406182119E+02  0.51100000000E-03 0. -1.
        -11    1    3    3    0    0 -0.45893972694E+01 -0.50152916967E-01 -0.15768972630E+02  0.16423324289E+02  0.51100000000E-03 0.  1.
         12    1    3    3    0    0  0.47766042887E+01  0.40798601738E+01 -0.14669329306E+02  0.15957770203E+02  0.00000000000E+00 0. -1.
</event>
<event>
 7    1  0.5022032E-011  0.4778726E+02  0.7816164E-02  0.1312668E+00
        -11   -1    0    0    0    0  0.00000000000E+00  0.00000000000E+00  0.45593999997E+02  0.45594000000E+02  0.51100000000E-03 0.  1.
         11   -1    0    0    0    0 -0.00000000000E+00 -0.00000000000E+00 -0.45593999997E+02  0.45594000000E+02  0.51100000000E-03 0. -1.
    9900012    2    1    2    0    0  0.43276410886E+01  0.14018648304E+02 -0.40845721946E+02  0.47787262922E+02  0.19999962965E+02 0.  0.
         12    1    1    2    0    0 -0.43276410886E+01 -0.14018648304E+02  0.40845721946E+02  0.43400737078E+02  0.00000000000E+00 0. -1.
         11    1    3    3    0    0 -0.32775665082E+01  0.22220250762E+01 -0.12007518404E+02  0.12643588737E+02  0.51100000000E-03 0. -1.
        -11    1    3    3    0    0  0.42240108516E+01  0.54098253893E+01 -0.26757121228E+02  0.27623396154E+02  0.51100000000E-03 0.  1.
        -12    1    3    3    0    0  0.33811967452E+01  0.63867978385E+01 -0.20810823132E+01  0.75202780304E+01  0.00000000000E+00 0.  1.
</event>
<event>
 7    1  0.5022032E-011  0.4778727E+02  0.7816164E-02  0.1312668E+00
        -11   -1    0    0    0    0  0.00000000000E+00  0.00000000000E+00  0.45593999997E+02  0.45594000000E+02  0.51100000000E-03 0.  1.
         11   -1    0    0    0    0 -0.00000000000E+00 -0.00000000000E+00 -0.45593999997E+02  0.45594000000E+02  0.51100000000E-03 0. -1.
    9900012    2    1    2    0    0  0.34032146192E+02 -0.90552460735E+01  0.25366090473E+02  0.47787274179E+02  0.20000014293E+02 0.  0.
        -12    1    1    2    0    0 -0.34032146192E+02  0.90552460735E+01 -0.25366090473E+02  0.43400725821E+02  0.00000000000E+00 0.  1.
         11    1    3    3    0    0  0.67390929486E+01  0.45239844809E+00 -0.95328589015E-01  0.67549334509E+01  0.51100000000E-03 0. -1.
        -11    1    3    3    0    0  0.91660146319E+01 -0.44768589541E+01  0.11104932684E+01  0.10261154218E+02  0.51100000000E-03 0.  1.
        -12    1    3    3    0    0  0.18127038612E+02 -0.50307855676E+01  0.24350925793E+02  0.30771186510E+02  0.00000000000E+00 0.  1.
</event>
<event>
 7    1  0.5022032E-011  0.4778728E+02  0.7816164E-02  0.1312668E+00
        -11   -1    0    0    0    0  0.00000000000E+00  0.00000000000E+00  0.45593999997E+02  0.45594000000E+02  0.51100000000E-03 0. -1.
         11   -1    0    0    0    0 -0.00000000000E+00 -0.00000000000E+00 -0.45593999997E+02  0.45594000000E+02  0.51100000000E-03 0.  1.
    9900012    2    1    2    0    0 -0.12122374577E+02  0.36995370551E+02  0.19183678159E+02  0.47787275175E+02  0.20000018834E+02 0.  0.
        -12    1    1    2    0    0  0.12122374577E+02 -0.36995370551E+02 -0.19183678159E+02  0.43400724825E+02  0.00000000000E+00 0.  1.
         11    1    3    3    0    0  0.47061382643E+00  0.32242749449E+01 -0.34915328467E+01  0.47757960776E+01  0.51100000000E-03 0.  1.
        -11    1    3    3    0    0 -0.14932978750E+01  0.79719108084E+01  0.76971491632E+01  0.11181565453E+02  0.51100000000E-03 0. -1.
        -12    1    3    3    0    0 -0.11099690528E+02  0.25799184798E+02  0.14978061842E+02  0.31829913645E+02  0.00000000000E+00 0.  1.
</event>
<event>
 7    1  0.5022032E-011  0.4778727E+02  0.7816164E-02  0.1312668E+00
        -11   -1    0    0    0    0  0.00000000000E+00  0.00000000000E+00  0.45593999997E+02  0.45594000000E+02  0.51100000000E-03 0. -1.
         11   -1    0    0    0    0 -0.00000000000E+00 -0.00000000000E+00 -0.45593999997E+02  0.45594000000E+02  0.51100000000E-03 0.  1.
    9900012    2    1    2    0    0 -0.64862013793E+01  0.22033527175E+02 -0.36824936494E+02  0.47787273325E+02  0.20000010399E+02 0.  0.
         12    1    1    2    0    0  0.64862013793E+01 -0.22033527175E+02  0.36824936494E+02  0.43400726675E+02  0.00000000000E+00 0. -1.
         11    1    3    3    0    0 -0.20203001499E+01  0.12878172925E+02 -0.10687370359E+02  0.16856714865E+02  0.51100000000E-03 0. -1.
        -11    1    3    3    0    0 -0.88928470366E+01  0.51263525193E+01 -0.13614378994E+02  0.17050323581E+02  0.51100000000E-03 0.  1.
         12    1    3    3    0    0  0.44269458071E+01  0.40290017299E+01 -0.12523187141E+02  0.13880234879E+02  0.00000000000E+00 0. -1.
</event>
<event>
 7    1  0.5022032E-011  0.4778727E+02  0.7816164E-02  0.1312668E+00
        -11   -1    0    0    0    0  0.00000000000E+00  0.00000000000E+00  0.45593999997E+02  0.45594000000E+02  0.51100000000E-03 0. -1.
         11   -1    0    0    0    0 -0.00000000000E+00 -0.00000000000E+00 -0.45593999997E+02  0.45594000000E+02  0.51100000000E-03 0.  1.
    9900012    2    1    2    0    0  0.48257038132E+01  0.24466221806E+02 -0.35520972880E+02  0.47787274878E+02  0.20000017478E+02 0.  0.
         12    1    1    2    0    0 -0.48257038132E+01 -0.24466221806E+02  0.35520972880E+02  0.43400725122E+02  0.00000000000E+00 0. -1.
         11    1    3    3    0    0  0.35803382009E+01  0.39750232691E+01 -0.37406043308E+01  0.65277678147E+01  0.51100000000E-03 0.  1.
        -11    1    3    3    0    0 -0.70459887053E+00  0.23013294603E+02 -0.29007316746E+02  0.37034208688E+02  0.51100000000E-03 0. -1.
         12    1    3    3    0    0  0.19499644829E+01 -0.25220960666E+01 -0.27730518033E+01  0.42252983750E+01  0.00000000000E+00 0. -1.
</event>
<event>
 7    1  0.5022032E-011  0.4778726E+02  0.7816164E-02  0.1312668E+00
        -11   -1    0    0    0    0  0.00000000000E+00  0.00000000000E+00  0.45593999997E+02  0.45594000000E+02  0.51100000000E-03 0. -1.
         11   -1    0    0    0    0 -0.00000000000E+00 -0.00000000000E+00 -0.45593999997E+02  0.45594000000E+02  0.51100000000E-03 0.  1.
    9900012    2    1    2    0    0  0.16653258312E+02  0.82757457148E+01  0.39214863912E+02  0.47787256559E+02  0.19999933956E+02 0.  0.
        -12    1    1    2    0    0 -0.16653258312E+02 -0.82757457148E+01 -0.39214863912E+02  0.43400743441E+02  0.00000000000E+00 0.  1.
         11    1    3    3    0    0  0.15657662021E+01  0.11851034467E+01  0.16523809306E+02  0.16640083179E+02  0.51100000000E-03 0. -1.
        -11    1    3    3    0    0  0.11922761418E+02  0.39745160574E+01  0.23484116274E+02  0.26635553968E+02  0.51100000000E-03 0.  1.
        -12    1    3    3    0    0  0.31647306916E+01  0.31161262107E+01 -0.79306166760E+00  0.45116194122E+01  0.00000000000E+00 0.  1.
</event>
<event>
 7    1  0.5022032E-011  0.4778727E+02  0.7816164E-02  0.1312668E+00
        -11   -1    0    0    0    0  0.00000000000E+00  0.00000000000E+00  0.45593999997E+02  0.45594000000E+02  0.51100000000E-03 0. -1.
         11   -1    0    0    0    0 -0.00000000000E+00 -0.00000000000E+00 -0.45593999997E+02  0.45594000000E+02  0.51100000000E-03 0.  1.
    9900012    2    1    2    0    0  0.11486751326E+02 -0.10357090098E+02 -0.40551306614E+02  0.47787271441E+02  0.20000001808E+02 0.  0.
         12    1    1    2    0    0 -0.11486751326E+02  0.10357090098E+02  0.40551306614E+02  0.43400728559E+02  0.00000000000E+00 0. -1.
         11    1    3    3    0    0 -0.37939356127E+01 -0.36002029386E-01 -0.58161237822E+01  0.69442450771E+01  0.51100000000E-03 0. -1.
        -11    1    3    3    0    0  0.47076059088E+01 -0.40685189195E+01 -0.23101585858E+02  0.23924833730E+02  0.51100000000E-03 0.  1.
         12    1    3    3    0    0  0.10573081030E+02 -0.62525691497E+01 -0.11633596974E+02  0.16918192634E+02  0.00000000000E+00 0. -1.
</event>
<event>
 7    1  0.5022032E-011  0.4778729E+02  0.7816164E-02  0.1312668E+00
        -11   -1    0    0    0    0  0.00000000000E+00  0.00000000000E+00  0.45593999997E+02  0.45594000000E+02  0.51100000000E-03 0. -1.
         11   -1    0    0    0    0 -0.00000000000E+00 -0.00000000000E+00 -0.45593999997E+02  0.45594000000E+02  0.51100000000E-03 0.  1.
    9900012    2    1    2    0    0  0.24451309732E+01 -0.23011335255E+02  0.36716778352E+02  0.47787285395E+02  0.20000065431E+02 0.  0.
        -12    1    1    2    0    0 -0.24451309732E+01  0.23011335255E+02 -0.36716778352E+02  0.43400714605E+02  0.00000000000E+00 0.  1.
         11    1    3    3    0    0  0.22999123217E-02 -0.13995605295E+01  0.35879720322E+01  0.38512749227E+01  0.51100000000E-03 0. -1.
        -11    1    3    3    0    0  0.12318133835E+01  0.24954086807E+00  0.16229039733E+02  0.16277633912E+02  0.51100000000E-03 0.  1.
         12    1    3    3    0    0  0.12110176774E+01 -0.21861315593E+02  0.16899766586E+02  0.27658376560E+02  0.00000000000E+00 0. -1.
</event>
<event>
 7    1  0.5022032E-011  0.4778726E+02  0.7816164E-02  0.1312668E+00
        -11   -1    0    0    0    0  0.00000000000E+00  0.00000000000E+00  0.45593999997E+02  0.45594000000E+02  0.51100000000E-03 0. -1.
         11   -1    0    0    0    0 -0.00000000000E+00 -0.00000000000E+00 -0.45593999997E+02  0.45594000000E+02  0.51100000000E-03 0.  1.
    9900012    2    1    2    0    0  0.29249280309E+02  0.25086311492E+02 -0.19969486233E+02  0.47787264945E+02  0.19999972192E+02 0.  0.
         12    1    1    2    0    0 -0.29249280309E+02 -0.25086311492E+02  0.19969486233E+02  0.43400735055E+02  0.00000000000E+00 0. -1.
         11    1    3    3    0    0  0.16427041478E+02  0.78685469876E+01 -0.94185693727E+01  0.20505393746E+02  0.51100000000E-03 0. -1.
        -11    1    3    3    0    0  0.14301480080E+02  0.11874177397E+02 -0.11196276197E+02  0.21699885305E+02  0.51100000000E-03 0.  1.
         12    1    3    3    0    0 -0.14792412480E+01  0.53435871073E+01  0.64535933708E+00  0.55819858937E+01  0.00000000000E+00 0. -1.
</event>
<event>
 7    1  0.5022032E-011  0.4778728E+02  0.7816164E-02  0.1312668E+00
        -11   -1    0    0    0    0  0.00000000000E+00  0.00000000000E+00  0.45593999997E+02  0.45594000000E+02  0.51100000000E-03 0. -1.
         11   -1    0    0    0    0 -0.00000000000E+00 -0.00000000000E+00 -0.45593999997E+02  0.45594000000E+02  0.51100000000E-03 0.  1.
    9900012    2    1    2    0    0  0.14811187308E+02 -0.35449989718E+02 -0.20187849260E+02  0.47787282285E+02  0.20000051249E+02 0.  0.
         12    1    1    2    0    0 -0.14811187308E+02  0.35449989718E+02  0.20187849260E+02  0.43400717715E+02  0.00000000000E+00 0. -1.
         11    1    3    3    0    0  0.17676121919E+01 -0.83717820510E+01 -0.86670174760E+01  0.12179013908E+02  0.51100000000E-03 0. -1.
        -11    1    3    3    0    0 -0.70891463023E+00 -0.16032459554E+02 -0.58167564651E+01  0.17069767876E+02  0.51100000000E-03 0.  1.
         12    1    3    3    0    0  0.13752489746E+02 -0.11045748113E+02 -0.57040753185E+01  0.18538500501E+02  0.00000000000E+00 0. -1.
</event>
<event>
 7    1  0.5022032E-011  0.4778727E+02  0.7816164E-02  0.1312668E+00
        -11   -1    0    0    0    0  0.00000000000E+00  0.00000000000E+00  0.45593999997E+02  0.45594000000E+02  0.51100000000E-03 0. -1.
         11   -1    0    0    0    0 -0.00000000000E+00 -0.00000000000E+00 -0.45593999997E+02  0.45594000000E+02  0.51100000000E-03 0.  1.
    9900012    2    1    2    0    0  0.30564462235E+02  0.30811463001E+02  0.30106514053E+00  0.47787271386E+02  0.20000001557E+02 0.  0.
         12    1    1    2    0    0 -0.30564462235E+02 -0.30811463001E+02 -0.30106514053E+00  0.43400728614E+02  0.00000000000E+00 0. -1.
         11    1    3    3    0    0  0.11474930680E+02  0.18172163942E+02 -0.19308123241E+01  0.21578452515E+02  0.51100000000E-03 0. -1.
        -11    1    3    3    0    0  0.12869978476E+01  0.62480128203E+01 -0.22600811375E+01  0.67677170945E+01  0.51100000000E-03 0.  1.
         12    1    3    3    0    0  0.17802533708E+02  0.63912862384E+01  0.44919586021E+01  0.19441101776E+02  0.00000000000E+00 0. -1.
</event>
<event>
 7    1  0.5022032E-011  0.4778727E+02  0.7816164E-02  0.1312668E+00
        -11   -1    0    0    0    0  0.00000000000E+00  0.00000000000E+00  0.45593999997E+02  0.45594000000E+02  0.51100000000E-03 0. -1.
         11   -1    0    0    0    0 -0.00000000000E+00 -0.00000000000E+00 -0.45593999997E+02  0.45594000000E+02  0.51100000000E-03 0.  1.
    9900012    2    1    2    0    0 -0.43194945474E+01 -0.87827723951E+01 -0.42282717377E+02  0.47787270595E+02  0.19999997950E+02 0.  0.
         12    1    1    2    0    0  0.43194945474E+01  0.87827723951E+01  0.42282717377E+02  0.43400729405E+02  0.00000000000E+00 0. -1.
         11    1    3    3    0    0 -0.73164294029E+00  0.11383806003E+01  0.25297018206E+00  0.13766647948E+01  0.51100000000E-03 0. -1.
        -11    1    3    3    0    0  0.50791756694E+01 -0.14723392808E+01 -0.21504472480E+02  0.22145160766E+02  0.51100000000E-03 0.  1.
         12    1    3    3    0    0 -0.86670272766E+01 -0.84488137146E+01 -0.21031215079E+02  0.24265445034E+02  0.00000000000E+00 0. -1.
</event>
<event>
 7    1  0.5022032E-011  0.4778727E+02  0.7816164E-02  0.1312668E+00
        -11   -1    0    0    0    0  0.00000000000E+00  0.00000000000E+00  0.45593999997E+02  0.45594000000E+02  0.51100000000E-03 0.  1.
         11   -1    0    0    0    0 -0.00000000000E+00 -0.00000000000E+00 -0.45593999997E+02  0.45594000000E+02  0.51100000000E-03 0. -1.
    9900012    2    1    2    0    0 -0.24282910090E+02  0.23938744903E+02 -0.26849579989E+02  0.47787272177E+02  0.20000005165E+02 0.  0.
         12    1    1    2    0    0  0.24282910090E+02 -0.23938744903E+02  0.26849579989E+02  0.43400727823E+02  0.00000000000E+00 0. -1.
         11    1    3    3    0    0 -0.26528640574E+01  0.55254037360E+01  0.13009844465E+01  0.62658068071E+01  0.51100000000E-03 0. -1.
        -11    1    3    3    0    0 -0.90554652908E+01  0.13925173448E+02 -0.11615977408E+02  0.20269258462E+02  0.51100000000E-03 0.  1.
        -12    1    3    3    0    0 -0.12574580742E+02  0.44881677186E+01 -0.16534587027E+02  0.21252206908E+02  0.00000000000E+00 0.  1.
</event>
<event>
 7    1  0.5022032E-011  0.4778728E+02  0.7816164E-02  0.1312668E+00
        -11   -1    0    0    0    0  0.00000000000E+00  0.00000000000E+00  0.45593999997E+02  0.45594000000E+02  0.51100000000E-03 0.  1.
         11   -1    0    0    0    0 -0.00000000000E+00 -0.00000000000E+00 -0.45593999997E+02  0.45594000000E+02  0.51100000000E-03 0. -1.
    9900012    2    1    2    0    0 -0.32101294240E+00 -0.43026873273E+02  0.56751971296E+01  0.47787277248E+02  0.20000028284E+02 0.  0.
         12    1    1    2    0    0  0.32101294240E+00  0.43026873273E+02 -0.56751971296E+01  0.43400722752E+02  0.00000000000E+00 0. -1.
         11    1    3    3    0    0 -0.60192379801E+00 -0.25679093800E+02  0.76217550006E+00  0.25697452839E+02  0.51100000000E-03 0. -1.
        -11    1    3    3    0    0  0.55078087624E+01 -0.14586146483E+02  0.30084752802E+01  0.15878997145E+02  0.51100000000E-03 0.  1.
         12    1    3    3    0    0 -0.52268979068E+01 -0.27616329902E+01  0.19045463494E+01  0.62108272635E+01  0.00000000000E+00 0. -1.
</event>
<event>
 7    1  0.5022032E-011  0.4778727E+02  0.7816164E-02  0.1312668E+00
        -11   -1    0    0    0    0  0.00000000000E+00  0.00000000000E+00  0.45593999997E+02  0.45594000000E+02  0.51100000000E-03 0.  1.
         11   -1    0    0    0    0 -0.00000000000E+00 -0.00000000000E+00 -0.45593999997E+02  0.45594000000E+02  0.51100000000E-03 0. -1.
    9900012    2    1    2    0    0  0.25003053353E+02  0.34715774820E+02 -0.72996974162E+01  0.47787270966E+02  0.19999999642E+02 0.  0.
         12    1    1    2    0    0 -0.25003053353E+02 -0.34715774820E+02  0.72996974162E+01  0.43400729034E+02  0.00000000000E+00 0. -1.
         11    1    3    3    0    0  0.47303433800E+01  0.89959488768E+01 -0.94817454040E+00  0.10207951798E+02  0.51100000000E-03 0.  1.
        -11    1    3    3    0    0  0.19480780968E+02  0.11148848616E+02 -0.39663121788E+01  0.22793185059E+02  0.51100000000E-03 0. -1.
         12    1    3    3    0    0  0.79192900514E+00  0.14570977327E+02 -0.23852106970E+01  0.14786134109E+02  0.00000000000E+00 0. -1.
</event>
<event>
 7    1  0.5022032E-011  0.4778726E+02  0.7816164E-02  0.1312668E+00
        -11   -1    0    0    0    0  0.00000000000E+00  0.00000000000E+00  0.45593999997E+02  0.45594000000E+02  0.51100000000E-03 0. -1.
         11   -1    0    0    0    0 -0.00000000000E+00 -0.00000000000E+00 -0.45593999997E+02  0.45594000000E+02  0.51100000000E-03 0.  1.
    9900012    2    1    2    0    0  0.87316672359E+01  0.38514649529E+02  0.18000109545E+02  0.47787260552E+02  0.19999952159E+02 0.  0.
        -12    1    1    2    0    0 -0.87316672359E+01 -0.38514649529E+02 -0.18000109545E+02  0.43400739448E+02  0.00000000000E+00 0.  1.
         11    1    3    3    0    0  0.62356114192E+01  0.42686192600E+01  0.17712027573E+00  0.75587917031E+01  0.51100000000E-03 0.  1.
        -11    1    3    3    0    0  0.63705706802E+01  0.13307021613E+02  0.79035432573E+01  0.16736994691E+02  0.51100000000E-03 0. -1.
        -12    1    3    3    0    0 -0.38745148635E+01  0.20939008656E+02  0.99194460118E+01  0.23491474157E+02  0.00000000000E+00 0.  1.
</event>
<event>
 7    1  0.5022032E-011  0.4778727E+02  0.7816164E-02  0.1312668E+00
        -11   -1    0    0    0    0  0.00000000000E+00  0.00000000000E+00  0.45593999997E+02  0.45594000000E+02  0.51100000000E-03 0.  1.
         11   -1    0    0    0    0 -0.00000000000E+00 -0.00000000000E+00 -0.45593999997E+02  0.45594000000E+02  0.51100000000E-03 0. -1.
    9900012    2    1    2    0    0 -0.24838740358E+02 -0.18872075118E+02 -0.30174570945E+02  0.47787274504E+02  0.20000015775E+02 0.  0.
         12    1    1    2    0    0  0.24838740358E+02  0.18872075118E+02  0.30174570945E+02  0.43400725496E+02  0.00000000000E+00 0. -1.
         11    1    3    3    0    0  0.27644089896E+01 -0.41735967559E+00 -0.96788317006E+00  0.29585375192E+01  0.51100000000E-03 0. -1.
        -11    1    3    3    0    0 -0.86121826250E+01 -0.27983090350E+01 -0.51761079261E+01  0.10430355533E+02  0.51100000000E-03 0.  1.
        -12    1    3    3    0    0 -0.18990966722E+02 -0.15656406407E+02 -0.24030579849E+02  0.34398381452E+02  0.00000000000E+00 0.  1.
</event>
<event>
 7    1  0.5022032E-011  0.4778727E+02  0.7816164E-02  0.1312668E+00
        -11   -1    0    0    0    0  0.00000000000E+00  0.00000000000E+00  0.45593999997E+02  0.45594000000E+02  0.51100000000E-03 0. -1.
         11   -1    0    0    0    0 -0.00000000000E+00 -0.00000000000E+00 -0.45593999997E+02  0.45594000000E+02  0.51100000000E-03 0.  1.
    9900012    2    1    2    0    0 -0.18225455269E+02 -0.11594403262E+02  0.37643403848E+02  0.47787271204E+02  0.20000000726E+02 0.  0.
        -12    1    1    2    0    0  0.18225455269E+02  0.11594403262E+02 -0.37643403848E+02  0.43400728796E+02  0.00000000000E+00 0.  1.
         11    1    3    3    0    0  0.17023861825E+01 -0.46272437760E+01  0.94150976270E+01  0.10627961576E+02  0.51100000000E-03 0. -1.
        -11    1    3    3    0    0 -0.38707532571E+01  0.32246470103E+01  0.45467576848E+01  0.67863159979E+01  0.51100000000E-03 0.  1.
        -12    1    3    3    0    0 -0.16057088194E+02 -0.10191806496E+02  0.23681548536E+02  0.30372993630E+02  0.00000000000E+00 0.  1.
</event>
<event>
 7    1  0.5022032E-011  0.4778727E+02  0.7816164E-02  0.1312668E+00
        -11   -1    0    0    0    0  0.00000000000E+00  0.00000000000E+00  0.45593999997E+02  0.45594000000E+02  0.51100000000E-03 0. -1.
         11   -1    0    0    0    0 -0.00000000000E+00 -0.00000000000E+00 -0.45593999997E+02  0.45594000000E+02  0.51100000000E-03 0.  1.
    9900012    2    1    2    0    0  0.45073197552E+01 -0.35687324841E+01 -0.43018268141E+02  0.47787272163E+02  0.20000005100E+02 0.  0.
         12    1    1    2    0    0 -0.45073197552E+01  0.35687324841E+01  0.43018268141E+02  0.43400727837E+02  0.00000000000E+00 0. -1.
         11    1    3    3    0    0  0.45713101746E+01 -0.31368098891E+00 -0.18210783078E+02  0.18778388990E+02  0.51100000000E-03 0. -1.
        -11    1    3    3    0    0  0.43266909720E+01  0.17565027549E+01 -0.20613816685E+02  0.21136106436E+02  0.51100000000E-03 0.  1.
         12    1    3    3    0    0 -0.43906813914E+01 -0.50115542501E+01 -0.41936683776E+01  0.78727767366E+01  0.00000000000E+00 0. -1.
</event>
<event>
 7    1  0.5022032E-011  0.4778727E+02  0.7816164E-02  0.1312668E+00
        -11   -1    0    0    0    0  0.00000000000E+00  0.00000000000E+00  0.45593999997E+02  0.45594000000E+02  0.51100000000E-03 0. -1.
         11   -1    0    0    0    0 -0.00000000000E+00 -0.00000000000E+00 -0.45593999997E+02  0.45594000000E+02  0.51100000000E-03 0.  1.
    9900012    2    1    2    0    0  0.45273452369E+00  0.25627720613E+02  0.35023393190E+02  0.47787273014E+02  0.20000008981E+02 0.  0.
        -12    1    1    2    0    0 -0.45273452369E+00 -0.25627720613E+02 -0.35023393190E+02  0.43400726986E+02  0.00000000000E+00 0.  1.
         11    1    3    3    0    0  0.57335196849E+00  0.17463485113E+01 -0.26215631658E+00  0.18566614657E+01  0.51100000000E-03 0. -1.
        -11    1    3    3    0    0 -0.42839358230E+01  0.22086531345E+01  0.65250897278E+00  0.48637457813E+01  0.51100000000E-03 0.  1.
         12    1    3    3    0    0  0.41633183782E+01  0.21672718967E+02  0.34633040533E+02  0.41066865767E+02  0.00000000000E+00 0. -1.
</event>
<event>
 7    1  0.5022032E-011  0.4778727E+02  0.7816164E-02  0.1312668E+00
        -11   -1    0    0    0    0  0.00000000000E+00  0.00000000000E+00  0.45593999997E+02  0.45594000000E+02  0.51100000000E-03 0. -1.
         11   -1    0    0    0    0 -0.00000000000E+00 -0.00000000000E+00 -0.45593999997E+02  0.45594000000E+02  0.51100000000E-03 0.  1.
    9900012    2    1    2    0    0 -0.32427893232E+02 -0.20105701954E+02  0.20683701293E+02  0.47787274088E+02  0.20000013876E+02 0.  0.
        -12    1    1    2    0    0  0.32427893232E+02  0.20105701954E+02 -0.20683701293E+02  0.43400725912E+02  0.00000000000E+00 0.  1.
         11    1    3    3    0    0 -0.47657070603E+01  0.19248868756E+01  0.58429130830E+01  0.77818241323E+01  0.51100000000E-03 0. -1.
        -11    1    3    3    0    0 -0.26309897164E+01  0.12819875361E+01  0.83662705451E+00  0.30439356136E+01  0.51100000000E-03 0.  1.
         12    1    3    3    0    0 -0.25031196455E+02 -0.23312576366E+02  0.14004161155E+02  0.36961514342E+02  0.00000000000E+00 0. -1.
</event>
<event>
 7    1  0.5022032E-011  0.4778726E+02  0.7816164E-02  0.1312668E+00
        -11   -1    0    0    0    0  0.00000000000E+00  0.00000000000E+00  0.45593999997E+02  0.45594000000E+02  0.51100000000E-03 0. -1.
         11   -1    0    0    0    0 -0.00000000000E+00 -0.00000000000E+00 -0.45593999997E+02  0.45594000000E+02  0.51100000000E-03 0.  1.
    9900012    2    1    2    0    0 -0.32348306908E+02  0.25623539572E+02  0.13440450385E+02  0.47787257534E+02  0.19999938402E+02 0.  0.
        -12    1    1    2    0    0  0.32348306908E+02 -0.25623539572E+02 -0.13440450385E+02  0.43400742466E+02  0.00000000000E+00 0.  1.
         11    1    3    3    0    0 -0.25541384258E+02  0.17054408219E+02  0.11599695392E+02  0.32829378352E+02  0.51100000000E-03 0. -1.
        -11    1    3    3    0    0 -0.85506597756E+01  0.45949045799E+01 -0.10190816321E+01  0.97604025701E+01  0.51100000000E-03 0.  1.
         12    1    3    3    0    0  0.17437371263E+01  0.39742267738E+01  0.28598366249E+01  0.51974766124E+01  0.00000000000E+00 0. -1.
</event>
<event>
 7    1  0.5022032E-011  0.4778726E+02  0.7816164E-02  0.1312668E+00
        -11   -1    0    0    0    0  0.00000000000E+00  0.00000000000E+00  0.45593999997E+02  0.45594000000E+02  0.51100000000E-03 0. -1.
         11   -1    0    0    0    0 -0.00000000000E+00 -0.00000000000E+00 -0.45593999997E+02  0.45594000000E+02  0.51100000000E-03 0.  1.
    9900012    2    1    2    0    0 -0.83170370650E+01  0.15414641132E+02  0.39709446546E+02  0.47787257936E+02  0.19999940232E+02 0.  0.
        -12    1    1    2    0    0  0.83170370650E+01 -0.15414641132E+02 -0.39709446546E+02  0.43400742064E+02  0.00000000000E+00 0.  1.
         11    1    3    3    0    0 -0.23603277461E+01 -0.33772427475E+01  0.59906571518E+01  0.72708245073E+01  0.51100000000E-03 0. -1.
        -11    1    3    3    0    0 -0.24075933619E+01 -0.75970276316E+00  0.48819153281E+01  0.54960669224E+01  0.51100000000E-03 0.  1.
        -12    1    3    3    0    0 -0.35491159570E+01  0.19551586643E+02  0.28836874066E+02  0.35020366506E+02  0.00000000000E+00 0.  1.
</event>
<event>
 7    1  0.5022032E-011  0.4778727E+02  0.7816164E-02  0.1312668E+00
        -11   -1    0    0    0    0  0.00000000000E+00  0.00000000000E+00  0.45593999997E+02  0.45594000000E+02  0.51100000000E-03 0. -1.
         11   -1    0    0    0    0 -0.00000000000E+00 -0.00000000000E+00 -0.45593999997E+02  0.45594000000E+02  0.51100000000E-03 0.  1.
    9900012    2    1    2    0    0 -0.13728137372E+02  0.34818775235E+02 -0.21973035283E+02  0.47787272539E+02  0.20000006815E+02 0.  0.
         12    1    1    2    0    0  0.13728137372E+02 -0.34818775235E+02  0.21973035283E+02  0.43400727461E+02  0.00000000000E+00 0. -1.
         11    1    3    3    0    0  0.25535278966E+01  0.25959143699E+00 -0.12482073042E+01  0.28541047928E+01  0.51100000000E-03 0. -1.
        -11    1    3    3    0    0 -0.87168538735E+01  0.14788305746E+02 -0.15501635042E+02  0.23129596138E+02  0.51100000000E-03 0.  1.
        -12    1    3    3    0    0 -0.75648113950E+01  0.19770878052E+02 -0.52231929369E+01  0.21803571608E+02  0.00000000000E+00 0.  1.
</event>
<event>
 7    1  0.5022032E-011  0.4778727E+02  0.7816164E-02  0.1312668E+00
        -11   -1    0    0    0    0  0.00000000000E+00  0.00000000000E+00  0.45593999997E+02  0.45594000000E+02  0.51100000000E-03 0. -1.
         11   -1    0    0    0    0 -0.00000000000E+00 -0.00000000000E+00 -0.45593999997E+02  0.45594000000E+02  0.51100000000E-03 0.  1.
    9900012    2    1    2    0    0  0.24450596451E+02 -0.27279966670E+02  0.23272189445E+02  0.47787273625E+02  0.20000011766E+02 0.  0.
        -12    1    1    2    0    0 -0.24450596451E+02  0.27279966670E+02 -0.23272189445E+02  0.43400726375E+02  0.00000000000E+00 0.  1.
         11    1    3    3    0    0  0.19387223550E+02 -0.20764251225E+02  0.14840091297E+02  0.32050692284E+02  0.51100000000E-03 0. -1.
        -11    1    3    3    0    0  0.71581417821E+01 -0.56569824356E+01  0.95534153304E+01  0.13210154760E+02  0.51100000000E-03 0.  1.
        -12    1    3    3    0    0 -0.20947688810E+01 -0.85873300938E+00 -0.11213171826E+01  0.25264265812E+01  0.00000000000E+00 0.  1.
</event>
<event>
 7    1  0.5022032E-011  0.4778727E+02  0.7816164E-02  0.1312668E+00
        -11   -1    0    0    0    0  0.00000000000E+00  0.00000000000E+00  0.45593999997E+02  0.45594000000E+02  0.51100000000E-03 0. -1.
         11   -1    0    0    0    0 -0.00000000000E+00 -0.00000000000E+00 -0.45593999997E+02  0.45594000000E+02  0.51100000000E-03 0.  1.
    9900012    2    1    2    0    0 -0.42834738883E+01 -0.46837876014E+01 -0.42934104505E+02  0.47787270231E+02  0.19999996289E+02 0.  0.
         12    1    1    2    0    0  0.42834738883E+01  0.46837876014E+01  0.42934104505E+02  0.43400729769E+02  0.00000000000E+00 0. -1.
         11    1    3    3    0    0 -0.12025399052E+01  0.75262281576E+01 -0.10646342505E+02  0.13093312091E+02  0.51100000000E-03 0. -1.
        -11    1    3    3    0    0 -0.62585095868E+00 -0.28831752713E+01 -0.58481101273E+01  0.65501741496E+01  0.51100000000E-03 0.  1.
         12    1    3    3    0    0 -0.24550830245E+01 -0.93268404878E+01 -0.26439651873E+02  0.28143783991E+02  0.00000000000E+00 0. -1.
</event>
<event>
 7    1  0.5022032E-011  0.4778726E+02  0.7816164E-02  0.1312668E+00
        -11   -1    0    0    0    0  0.00000000000E+00  0.00000000000E+00  0.45593999997E+02  0.45594000000E+02  0.51100000000E-03 0. -1.
         11   -1    0    0    0    0 -0.00000000000E+00 -0.00000000000E+00 -0.45593999997E+02  0.45594000000E+02  0.51100000000E-03 0.  1.
    9900012    2    1    2    0    0 -0.11861880974E+02 -0.12948439246E+02  0.39689520232E+02  0.47787259045E+02  0.19999945291E+02 0.  0.
        -12    1    1    2    0    0  0.11861880974E+02  0.12948439246E+02 -0.39689520232E+02  0.43400740955E+02  0.00000000000E+00 0.  1.
         11    1    3    3    0    0 -0.79584915772E+01 -0.10037821725E+01  0.95264659258E+01  0.12453863663E+02  0.51100000000E-03 0. -1.
        -11    1    3    3    0    0 -0.88749691867E+00 -0.87614542404E+01  0.57217871026E+01  0.10501884550E+02  0.51100000000E-03 0.  1.
        -12    1    3    3    0    0 -0.30158924784E+01 -0.31832028332E+01  0.24441267204E+02  0.24831510833E+02  0.00000000000E+00 0.  1.
</event>
<event>
 7    1  0.5022032E-011  0.4778727E+02  0.7816164E-02  0.1312668E+00
        -11   -1    0    0    0    0  0.00000000000E+00  0.00000000000E+00  0.45593999997E+02  0.45594000000E+02  0.51100000000E-03 0. -1.
         11   -1    0    0    0    0 -0.00000000000E+00 -0.00000000000E+00 -0.45593999997E+02  0.45594000000E+02  0.51100000000E-03 0.  1.
    9900012    2    1    2    0    0  0.26869052504E+02 -0.33462283553E+02  0.64770944137E+01  0.47787272413E+02  0.20000006240E+02 0.  0.
         12    1    1    2    0    0 -0.26869052504E+02  0.33462283553E+02 -0.64770944137E+01  0.43400727587E+02  0.00000000000E+00 0. -1.
         11    1    3    3    0    0  0.40754919014E+01 -0.64879140463E+01  0.50215855997E+01  0.91607305989E+01  0.51100000000E-03 0. -1.
        -11    1    3    3    0    0  0.19206688720E+01 -0.55717393787E+01  0.59735016059E+01  0.83914224252E+01  0.51100000000E-03 0.  1.
        -12    1    3    3    0    0  0.20872891730E+02 -0.21402630128E+02 -0.45179927919E+01  0.30235119389E+02  0.00000000000E+00 0.  1.
</event>
<event>
 7    1  0.5022032E-011  0.4778727E+02  0.7816164E-02  0.1312668E+00
        -11   -1    0    0    0    0  0.00000000000E+00  0.00000000000E+00  0.45593999997E+02  0.45594000000E+02  0.51100000000E-03 0.  1.
         11   -1    0    0    0    0 -0.00000000000E+00 -0.00000000000E+00 -0.45593999997E+02  0.45594000000E+02  0.51100000000E-03 0. -1.
    9900012    2    1    2    0    0 -0.33209855566E+01  0.33151546509E+02 -0.27813117458E+02  0.47787268626E+02  0.19999988976E+02 0.  0.
         12    1    1    2    0    0  0.33209855566E+01 -0.33151546509E+02  0.27813117458E+02  0.43400731374E+02  0.00000000000E+00 0. -1.
         11    1    3    3    0    0  0.63381666024E-01  0.61204329026E+01 -0.10493143635E+02  0.12147830249E+02  0.51100000000E-03 0. -1.
        -11    1    3    3    0    0 -0.79894672144E+00  0.23185904033E+02 -0.19695415172E+02  0.30432447169E+02  0.51100000000E-03 0.  1.
        -12    1    3    3    0    0 -0.25854205012E+01  0.38452095740E+01  0.23754413490E+01  0.52069912078E+01  0.00000000000E+00 0.  1.
</event>
<event>
 7    1  0.5022032E-011  0.4778727E+02  0.7816164E-02  0.1312668E+00
        -11   -1    0    0    0    0  0.00000000000E+00  0.00000000000E+00  0.45593999997E+02  0.45594000000E+02  0.51100000000E-03 0. -1.
         11   -1    0    0    0    0 -0.00000000000E+00 -0.00000000000E+00 -0.45593999997E+02  0.45594000000E+02  0.51100000000E-03 0.  1.
    9900012    2    1    2    0    0  0.30806586074E+02  0.11998539303E+02  0.28117831261E+02  0.47787272750E+02  0.20000007778E+02 0.  0.
        -12    1    1    2    0    0 -0.30806586074E+02 -0.11998539303E+02 -0.28117831261E+02  0.43400727250E+02  0.00000000000E+00 0.  1.
         11    1    3    3    0    0  0.11031841012E+02  0.54724955912E+01  0.49725712447E+01  0.13280669756E+02  0.51100000000E-03 0. -1.
        -11    1    3    3    0    0  0.18346502262E+02  0.96833174611E+01  0.23090590681E+02  0.31040878863E+02  0.51100000000E-03 0.  1.
        -12    1    3    3    0    0  0.14282428001E+01 -0.31572737494E+01  0.54669335694E-01  0.34657241322E+01  0.00000000000E+00 0.  1.
</event>
<event>
 7    1  0.5022032E-011  0.4778727E+02  0.7816164E-02  0.1312668E+00
        -11   -1    0    0    0    0  0.00000000000E+00  0.00000000000E+00  0.45593999997E+02  0.45594000000E+02  0.51100000000E-03 0.  1.
         11   -1    0    0    0    0 -0.00000000000E+00 -0.00000000000E+00 -0.45593999997E+02  0.45594000000E+02  0.51100000000E-03 0. -1.
    9900012    2    1    2    0    0  0.11458849141E+02 -0.41854604046E+02  0.71425751759E+00  0.47787271120E+02  0.20000000347E+02 0.  0.
        -12    1    1    2    0    0 -0.11458849141E+02  0.41854604046E+02 -0.71425751759E+00  0.43400728880E+02  0.00000000000E+00 0.  1.
         11    1    3    3    0    0  0.74327281869E+01 -0.37648519655E+01 -0.10628758398E+01  0.83993609242E+01  0.51100000000E-03 0. -1.
        -11    1    3    3    0    0 -0.71598047596E+00 -0.36266908676E+00  0.10952658298E+01  0.13578528666E+01  0.51100000000E-03 0.  1.
        -12    1    3    3    0    0  0.47421014305E+01 -0.37727082993E+02  0.68186752761E+00  0.38030057330E+02  0.00000000000E+00 0.  1.
</event>
<event>
 7    1  0.5022032E-011  0.4778727E+02  0.7816164E-02  0.1312668E+00
        -11   -1    0    0    0    0  0.00000000000E+00  0.00000000000E+00  0.45593999997E+02  0.45594000000E+02  0.51100000000E-03 0. -1.
         11   -1    0    0    0    0 -0.00000000000E+00 -0.00000000000E+00 -0.45593999997E+02  0.45594000000E+02  0.51100000000E-03 0.  1.
    9900012    2    1    2    0    0 -0.22347389856E+02 -0.27084229801E+02 -0.25508077061E+02  0.47787270367E+02  0.19999996913E+02 0.  0.
         12    1    1    2    0    0  0.22347389856E+02  0.27084229801E+02  0.25508077061E+02  0.43400729633E+02  0.00000000000E+00 0. -1.
         11    1    3    3    0    0 -0.34782705744E+01 -0.85419675663E+01 -0.86871348852E+01  0.12670039024E+02  0.51100000000E-03 0. -1.
        -11    1    3    3    0    0 -0.14457144040E+02 -0.15523843912E+02 -0.19782525773E+02  0.29005983345E+02  0.51100000000E-03 0.  1.
         12    1    3    3    0    0 -0.44119752416E+01 -0.30184183230E+01  0.29615835966E+01  0.61112479990E+01  0.00000000000E+00 0. -1.
</event>
<event>
 7    1  0.5022032E-011  0.4778727E+02  0.7816164E-02  0.1312668E+00
        -11   -1    0    0    0    0  0.00000000000E+00  0.00000000000E+00  0.45593999997E+02  0.45594000000E+02  0.51100000000E-03 0.  1.
         11   -1    0    0    0    0 -0.00000000000E+00 -0.00000000000E+00 -0.45593999997E+02  0.45594000000E+02  0.51100000000E-03 0. -1.
    9900012    2    1    2    0    0  0.41031009512E+02  0.39116187196E+01  0.13593336216E+02  0.47787270835E+02  0.19999999044E+02 0.  0.
        -12    1    1    2    0    0 -0.41031009512E+02 -0.39116187196E+01 -0.13593336216E+02  0.43400729165E+02  0.00000000000E+00 0.  1.
         11    1    3    3    0    0  0.25037125757E+02  0.30851299713E+01  0.51324296209E+01  0.25743300628E+02  0.51100000000E-03 0.  1.
        -11    1    3    3    0    0  0.16269224528E+02  0.35427510750E+01  0.45259867669E+01  0.17254660484E+02  0.51100000000E-03 0. -1.
        -12    1    3    3    0    0 -0.27534077366E+00 -0.27162623268E+01  0.39349198283E+01  0.47893097232E+01  0.00000000000E+00 0.  1.
</event>
<event>
 7    1  0.5022032E-011  0.4778727E+02  0.7816164E-02  0.1312668E+00
        -11   -1    0    0    0    0  0.00000000000E+00  0.00000000000E+00  0.45593999997E+02  0.45594000000E+02  0.51100000000E-03 0. -1.
         11   -1    0    0    0    0 -0.00000000000E+00 -0.00000000000E+00 -0.45593999997E+02  0.45594000000E+02  0.51100000000E-03 0.  1.
    9900012    2    1    2    0    0  0.31299839343E+02 -0.55051729132E+01  0.29557345357E+02  0.47787268022E+02  0.19999986219E+02 0.  0.
        -12    1    1    2    0    0 -0.31299839343E+02  0.55051729132E+01 -0.29557345357E+02  0.43400731978E+02  0.00000000000E+00 0.  1.
         11    1    3    3    0    0  0.76114901757E+01  0.26823909812E+01  0.61314529530E+01  0.10135320402E+02  0.51100000000E-03 0. -1.
        -11    1    3    3    0    0  0.32455447468E+01  0.10969826072E+01  0.11960549397E+02  0.12441530199E+02  0.51100000000E-03 0.  1.
        -12    1    3    3    0    0  0.20442804420E+02 -0.92845465017E+01  0.11465343007E+02  0.25210417422E+02  0.00000000000E+00 0.  1.
</event>
<event>
 7    1  0.5022032E-011  0.4778727E+02  0.7816164E-02  0.1312668E+00
        -11   -1    0    0    0    0  0.00000000000E+00  0.00000000000E+00  0.45593999997E+02  0.45594000000E+02  0.51100000000E-03 0.  1.
         11   -1    0    0    0    0 -0.00000000000E+00 -0.00000000000E+00 -0.45593999997E+02  0.45594000000E+02  0.51100000000E-03 0. -1.
    9900012    2    1    2    0    0 -0.28362036431E+02 -0.11972267918E+02  0.30592201554E+02  0.47787272984E+02  0.20000008844E+02 0.  0.
        -12    1    1    2    0    0  0.28362036431E+02  0.11972267918E+02 -0.30592201554E+02  0.43400727016E+02  0.00000000000E+00 0.  1.
         11    1    3    3    0    0 -0.70329461469E+01 -0.85466499077E+01  0.61826783444E+01  0.12678054580E+02  0.51100000000E-03 0. -1.
        -11    1    3    3    0    0 -0.14461953346E+02 -0.73145948870E+01  0.11125489012E+02  0.19657769430E+02  0.51100000000E-03 0.  1.
        -12    1    3    3    0    0 -0.68671369377E+01  0.38889768764E+01  0.13284034197E+02  0.15451448974E+02  0.00000000000E+00 0.  1.
</event>
<event>
 7    1  0.5022032E-011  0.4778729E+02  0.7816164E-02  0.1312668E+00
        -11   -1    0    0    0    0  0.00000000000E+00  0.00000000000E+00  0.45593999997E+02  0.45594000000E+02  0.51100000000E-03 0. -1.
         11   -1    0    0    0    0 -0.00000000000E+00 -0.00000000000E+00 -0.45593999997E+02  0.45594000000E+02  0.51100000000E-03 0.  1.
    9900012    2    1    2    0    0 -0.13282252906E+02  0.24098865324E+02  0.33562604055E+02  0.47787286375E+02  0.20000069900E+02 0.  0.
        -12    1    1    2    0    0  0.13282252906E+02 -0.24098865324E+02 -0.33562604055E+02  0.43400713625E+02  0.00000000000E+00 0.  1.
         11    1    3    3    0    0 -0.30076213050E+01 -0.15356046490E+01  0.22305993377E+01  0.40471522357E+01  0.51100000000E-03 0. -1.
        -11    1    3    3    0    0 -0.18647831475E+01  0.98295265251E+01  0.34071842344E+01  0.10569101786E+02  0.51100000000E-03 0.  1.
         12    1    3    3    0    0 -0.84098484531E+01  0.15804943448E+02  0.27924820483E+02  0.33171032354E+02  0.00000000000E+00 0. -1.
</event>
<event>
 7    1  0.5022032E-011  0.4778727E+02  0.7816164E-02  0.1312668E+00
        -11   -1    0    0    0    0  0.00000000000E+00  0.00000000000E+00  0.45593999997E+02  0.45594000000E+02  0.51100000000E-03 0. -1.
         11   -1    0    0    0    0 -0.00000000000E+00 -0.00000000000E+00 -0.45593999997E+02  0.45594000000E+02  0.51100000000E-03 0.  1.
    9900012    2    1    2    0    0 -0.17643735205E+02 -0.26141548056E+02  0.29815119286E+02  0.47787271149E+02  0.20000000478E+02 0.  0.
        -12    1    1    2    0    0  0.17643735205E+02  0.26141548056E+02 -0.29815119286E+02  0.43400728851E+02  0.00000000000E+00 0.  1.
         11    1    3    3    0    0 -0.29268782382E+01 -0.36992515121E+01  0.98984422262E+00  0.48198412647E+01  0.51100000000E-03 0. -1.
        -11    1    3    3    0    0 -0.33114783787E+01  0.26816474067E+01  0.34767449876E+01  0.54995343291E+01  0.51100000000E-03 0.  1.
         12    1    3    3    0    0 -0.11405378589E+02 -0.25123943950E+02  0.25348530076E+02  0.37467895555E+02  0.00000000000E+00 0. -1.
</event>
<event>
 7    1  0.5022032E-011  0.4778727E+02  0.7816164E-02  0.1312668E+00
        -11   -1    0    0    0    0  0.00000000000E+00  0.00000000000E+00  0.45593999997E+02  0.45594000000E+02  0.51100000000E-03 0. -1.
         11   -1    0    0    0    0 -0.00000000000E+00 -0.00000000000E+00 -0.45593999997E+02  0.45594000000E+02  0.51100000000E-03 0.  1.
    9900012    2    1    2    0    0 -0.62260956200E+01  0.13185345866E+01  0.42931579022E+02  0.47787271003E+02  0.19999999813E+02 0.  0.
        -12    1    1    2    0    0  0.62260956200E+01 -0.13185345866E+01 -0.42931579022E+02  0.43400728997E+02  0.00000000000E+00 0.  1.
         11    1    3    3    0    0 -0.91223022377E+00 -0.47454138142E+01  0.26371507904E+02  0.26810586447E+02  0.51100000000E-03 0. -1.
        -11    1    3    3    0    0 -0.51807389019E+01 -0.11608827265E+00  0.12629745055E+02  0.13651519786E+02  0.51100000000E-03 0.  1.
        -12    1    3    3    0    0 -0.13312649435E+00  0.61800366734E+01  0.39303260632E+01  0.73251647702E+01  0.00000000000E+00 0.  1.
</event>
<event>
 7    1  0.5022032E-011  0.4778728E+02  0.7816164E-02  0.1312668E+00
        -11   -1    0    0    0    0  0.00000000000E+00  0.00000000000E+00  0.45593999997E+02  0.45594000000E+02  0.51100000000E-03 0. -1.
         11   -1    0    0    0    0 -0.00000000000E+00 -0.00000000000E+00 -0.45593999997E+02  0.45594000000E+02  0.51100000000E-03 0.  1.
    9900012    2    1    2    0    0  0.23043919579E+02  0.28428757246E+02 -0.23332515364E+02  0.47787277180E+02  0.20000027973E+02 0.  0.
         12    1    1    2    0    0 -0.23043919579E+02 -0.28428757246E+02  0.23332515364E+02  0.43400722820E+02  0.00000000000E+00 0. -1.
         11    1    3    3    0    0 -0.12806785966E+01  0.10552606747E+01 -0.98922741940E+00  0.19319119824E+01  0.51100000000E-03 0. -1.
        -11    1    3    3    0    0  0.15924101345E+02  0.77153587874E+01 -0.15166407110E+02  0.23305013833E+02  0.51100000000E-03 0.  1.
        -12    1    3    3    0    0  0.84004968302E+01  0.19658137784E+02 -0.71768808346E+01  0.22550351364E+02  0.00000000000E+00 0.  1.
</event>
<event>
 7    1  0.5022032E-011  0.4778728E+02  0.7816164E-02  0.1312668E+00
        -11   -1    0    0    0    0  0.00000000000E+00  0.00000000000E+00  0.45593999997E+02  0.45594000000E+02  0.51100000000E-03 0. -1.
         11   -1    0    0    0    0 -0.00000000000E+00 -0.00000000000E+00 -0.45593999997E+02  0.45594000000E+02  0.51100000000E-03 0.  1.
    9900012    2    1    2    0    0  0.23518029844E+02  0.29064518193E+01 -0.36360381269E+02  0.47787279776E+02  0.20000039812E+02 0.  0.
         12    1    1    2    0    0 -0.23518029844E+02 -0.29064518193E+01  0.36360381269E+02  0.43400720224E+02  0.00000000000E+00 0. -1.
         11    1    3    3    0    0 -0.76355039673E+00  0.17580619733E+01 -0.43129809515E+01  0.47197029630E+01  0.51100000000E-03 0. -1.
        -11    1    3    3    0    0  0.59478163094E+00 -0.43118751041E+01 -0.35945112350E+01  0.56450459149E+01  0.51100000000E-03 0.  1.
        -12    1    3    3    0    0  0.23686798610E+02  0.54602649501E+01 -0.28452889082E+02  0.37422530898E+02  0.00000000000E+00 0.  1.
</event>
<event>
 7    1  0.5022032E-011  0.4778728E+02  0.7816164E-02  0.1312668E+00
        -11   -1    0    0    0    0  0.00000000000E+00  0.00000000000E+00  0.45593999997E+02  0.45594000000E+02  0.51100000000E-03 0. -1.
         11   -1    0    0    0    0 -0.00000000000E+00 -0.00000000000E+00 -0.45593999997E+02  0.45594000000E+02  0.51100000000E-03 0.  1.
    9900012    2    1    2    0    0  0.17270022811E+02 -0.50527099550E+01 -0.39494801070E+02  0.47787275612E+02  0.20000020826E+02 0.  0.
         12    1    1    2    0    0 -0.17270022811E+02  0.50527099550E+01  0.39494801070E+02  0.43400724388E+02  0.00000000000E+00 0. -1.
         11    1    3    3    0    0  0.56391517859E+01  0.16863729666E+01 -0.87358369176E+01  0.10533695152E+02  0.51100000000E-03 0. -1.
        -11    1    3    3    0    0  0.15826207577E+01  0.13273006681E+01 -0.20970209243E+02  0.21071689336E+02  0.51100000000E-03 0.  1.
         12    1    3    3    0    0  0.10048250268E+02 -0.80663835897E+01 -0.97887549099E+01  0.16181891124E+02  0.00000000000E+00 0. -1.
</event>
<event>
 7    1  0.5022032E-011  0.4778728E+02  0.7816164E-02  0.1312668E+00
        -11   -1    0    0    0    0  0.00000000000E+00  0.00000000000E+00  0.45593999997E+02  0.45594000000E+02  0.51100000000E-03 0. -1.
         11   -1    0    0    0    0 -0.00000000000E+00 -0.00000000000E+00 -0.45593999997E+02  0.45594000000E+02  0.51100000000E-03 0.  1.
    9900012    2    1    2    0    0 -0.40534114374E+02 -0.56160739457E+01  0.14459179097E+02  0.47787279098E+02  0.20000036720E+02 0.  0.
        -12    1    1    2    0    0  0.40534114374E+02  0.56160739457E+01 -0.14459179097E+02  0.43400720902E+02  0.00000000000E+00 0.  1.
         11    1    3    3    0    0 -0.15159605643E+02  0.72271941694E-01  0.20803226808E+01  0.15301849862E+02  0.51100000000E-03 0. -1.
        -11    1    3    3    0    0 -0.51005426650E+01 -0.57690068583E+01 -0.15926425060E+01  0.78634271168E+01  0.51100000000E-03 0.  1.
         12    1    3    3    0    0 -0.20273966066E+02  0.80660970921E-01  0.13971498922E+02  0.24622002120E+02  0.00000000000E+00 0. -1.
</event>
<event>
 7    1  0.5022032E-011  0.4778727E+02  0.7816164E-02  0.1312668E+00
        -11   -1    0    0    0    0  0.00000000000E+00  0.00000000000E+00  0.45593999997E+02  0.45594000000E+02  0.51100000000E-03 0. -1.
         11   -1    0    0    0    0 -0.00000000000E+00 -0.00000000000E+00 -0.45593999997E+02  0.45594000000E+02  0.51100000000E-03 0.  1.
    9900012    2    1    2    0    0 -0.24712315585E+02 -0.13542217003E+02 -0.33008080033E+02  0.47787268089E+02  0.19999986523E+02 0.  0.
         12    1    1    2    0    0  0.24712315585E+02  0.13542217003E+02  0.33008080033E+02  0.43400731911E+02  0.00000000000E+00 0. -1.
         11    1    3    3    0    0 -0.17833439449E+01 -0.20222286225E+01 -0.13360142443E+01  0.30090959688E+01  0.51100000000E-03 0. -1.
        -11    1    3    3    0    0 -0.21650158236E+02 -0.13831970098E+02 -0.19316079207E+02  0.32142863354E+02  0.51100000000E-03 0.  1.
         12    1    3    3    0    0 -0.12788134046E+01  0.23119817167E+01 -0.12355986582E+02  0.12635308765E+02  0.00000000000E+00 0. -1.
</event>
<event>
 7    1  0.5022032E-011  0.4778727E+02  0.7816164E-02  0.1312668E+00
        -11   -1    0    0    0    0  0.00000000000E+00  0.00000000000E+00  0.45593999997E+02  0.45594000000E+02  0.51100000000E-03 0. -1.
         11   -1    0    0    0    0 -0.00000000000E+00 -0.00000000000E+00 -0.45593999997E+02  0.45594000000E+02  0.51100000000E-03 0.  1.
    9900012    2    1    2    0    0 -0.19895887661E+02  0.37744206479E+02  0.79468094472E+01  0.47787271332E+02  0.20000001311E+02 0.  0.
        -12    1    1    2    0    0  0.19895887661E+02 -0.37744206479E+02 -0.79468094472E+01  0.43400728668E+02  0.00000000000E+00 0.  1.
         11    1    3    3    0    0 -0.15894949419E+02  0.12221265696E+02  0.40844307096E+01  0.20461948263E+02  0.51100000000E-03 0. -1.
        -11    1    3    3    0    0  0.96075800918E+00  0.38101520344E+00  0.11642710131E+01  0.15568416074E+01  0.51100000000E-03 0.  1.
         12    1    3    3    0    0 -0.49616962508E+01  0.25141925579E+02  0.26981077245E+01  0.25768481461E+02  0.00000000000E+00 0. -1.
</event>
<event>
 7    1  0.5022032E-011  0.4778727E+02  0.7816164E-02  0.1312668E+00
        -11   -1    0    0    0    0  0.00000000000E+00  0.00000000000E+00  0.45593999997E+02  0.45594000000E+02  0.51100000000E-03 0. -1.
         11   -1    0    0    0    0 -0.00000000000E+00 -0.00000000000E+00 -0.45593999997E+02  0.45594000000E+02  0.51100000000E-03 0.  1.
    9900012    2    1    2    0    0  0.19522644686E+02  0.27254980758E+02 -0.27561859505E+02  0.47787265777E+02  0.19999975985E+02 0.  0.
         12    1    1    2    0    0 -0.19522644686E+02 -0.27254980758E+02  0.27561859505E+02  0.43400734223E+02  0.00000000000E+00 0. -1.
         11    1    3    3    0    0  0.35834069112E+00  0.11647056618E+02 -0.79162014618E+01  0.14087177920E+02  0.51100000000E-03 0. -1.
        -11    1    3    3    0    0  0.10754786937E+02  0.12518674481E+02 -0.18296130099E+02  0.24640029012E+02  0.51100000000E-03 0.  1.
         12    1    3    3    0    0  0.84095170583E+01  0.30892496593E+01 -0.13495279439E+01  0.90600588455E+01  0.00000000000E+00 0. -1.
</event>
<event>
 7    1  0.5022032E-011  0.4778727E+02  0.7816164E-02  0.1312668E+00
        -11   -1    0    0    0    0  0.00000000000E+00  0.00000000000E+00  0.45593999997E+02  0.45594000000E+02  0.51100000000E-03 0. -1.
         11   -1    0    0    0    0 -0.00000000000E+00 -0.00000000000E+00 -0.45593999997E+02  0.45594000000E+02  0.51100000000E-03 0.  1.
    9900012    2    1    2    0    0 -0.36925425820E+01  0.38235274145E+02  0.20200303954E+02  0.47787270288E+02  0.19999996551E+02 0.  0.
        -12    1    1    2    0    0  0.36925425820E+01 -0.38235274145E+02 -0.20200303954E+02  0.43400729712E+02  0.00000000000E+00 0.  1.
         11    1    3    3    0    0 -0.15509328333E+01  0.32607433639E+00 -0.22399952843E-01  0.15849981531E+01  0.51100000000E-03 0. -1.
        -11    1    3    3    0    0  0.29514785416E+01  0.18941942113E+02  0.17663714204E+01  0.19251713296E+02  0.51100000000E-03 0.  1.
         12    1    3    3    0    0 -0.50930882903E+01  0.18967257696E+02  0.18456332487E+02  0.26950558838E+02  0.00000000000E+00 0. -1.
</event>
<event>
 7    1  0.5022032E-011  0.4778727E+02  0.7816164E-02  0.1312668E+00
        -11   -1    0    0    0    0  0.00000000000E+00  0.00000000000E+00  0.45593999997E+02  0.45594000000E+02  0.51100000000E-03 0. -1.
         11   -1    0    0    0    0 -0.00000000000E+00 -0.00000000000E+00 -0.45593999997E+02  0.45594000000E+02  0.51100000000E-03 0.  1.
    9900012    2    1    2    0    0  0.88286120030E+01  0.19348367837E+02  0.37832783152E+02  0.47787271793E+02  0.20000003413E+02 0.  0.
        -12    1    1    2    0    0 -0.88286120030E+01 -0.19348367837E+02 -0.37832783152E+02  0.43400728207E+02  0.00000000000E+00 0.  1.
         11    1    3    3    0    0  0.70422566490E-01  0.23834938128E-01 -0.14487884114E+01  0.14506948556E+01  0.51100000000E-03 0. -1.
        -11    1    3    3    0    0  0.72899759831E+01  0.63461680690E+01  0.83956967955E+01  0.12802551462E+02  0.51100000000E-03 0.  1.
         12    1    3    3    0    0  0.14682134534E+01  0.12978364830E+02  0.30885874768E+02  0.33534025475E+02  0.00000000000E+00 0. -1.
</event>
<event>
 7    1  0.5022032E-011  0.4778727E+02  0.7816164E-02  0.1312668E+00
        -11   -1    0    0    0    0  0.00000000000E+00  0.00000000000E+00  0.45593999997E+02  0.45594000000E+02  0.51100000000E-03 0. -1.
         11   -1    0    0    0    0 -0.00000000000E+00 -0.00000000000E+00 -0.45593999997E+02  0.45594000000E+02  0.51100000000E-03 0.  1.
    9900012    2    1    2    0    0  0.64590923621E+01  0.10960366682E+02 -0.41494259913E+02  0.47787272844E+02  0.20000008206E+02 0.  0.
         12    1    1    2    0    0 -0.64590923621E+01 -0.10960366682E+02  0.41494259913E+02  0.43400727156E+02  0.00000000000E+00 0. -1.
         11    1    3    3    0    0  0.54435074041E+01 -0.20423354386E+01 -0.13147805712E+02  0.14375941785E+02  0.51100000000E-03 0. -1.
        -11    1    3    3    0    0  0.96683926214E+00 -0.17210094206E+01 -0.83426581075E+01  0.85730155805E+01  0.51100000000E-03 0.  1.
         12    1    3    3    0    0  0.48745695899E-01  0.14723711541E+02 -0.20003796093E+02  0.24838315479E+02  0.00000000000E+00 0. -1.
</event>
<event>
 7    1  0.5022032E-011  0.4778727E+02  0.7816164E-02  0.1312668E+00
        -11   -1    0    0    0    0  0.00000000000E+00  0.00000000000E+00  0.45593999997E+02  0.45594000000E+02  0.51100000000E-03 0.  1.
         11   -1    0    0    0    0 -0.00000000000E+00 -0.00000000000E+00 -0.45593999997E+02  0.45594000000E+02  0.51100000000E-03 0. -1.
    9900012    2    1    2    0    0  0.20033527389E+02  0.38500126409E+02 -0.14531505329E+00  0.47787273398E+02  0.20000010731E+02 0.  0.
         12    1    1    2    0    0 -0.20033527389E+02 -0.38500126409E+02  0.14531505329E+00  0.43400726602E+02  0.00000000000E+00 0. -1.
         11    1    3    3    0    0  0.40424349998E+00  0.10877516113E+02 -0.35586550431E+01  0.11451977802E+02  0.51100000000E-03 0. -1.
        -11    1    3    3    0    0 -0.69577199170E+00  0.25733611850E+01 -0.23653557907E+01  0.35638735570E+01  0.51100000000E-03 0.  1.
        -12    1    3    3    0    0  0.20325055881E+02  0.25049249110E+02  0.57786957805E+01  0.32771422039E+02  0.00000000000E+00 0.  1.
</event>
<event>
 7    1  0.5022032E-011  0.4778727E+02  0.7816164E-02  0.1312668E+00
        -11   -1    0    0    0    0  0.00000000000E+00  0.00000000000E+00  0.45593999997E+02  0.45594000000E+02  0.51100000000E-03 0. -1.
         11   -1    0    0    0    0 -0.00000000000E+00 -0.00000000000E+00 -0.45593999997E+02  0.45594000000E+02  0.51100000000E-03 0.  1.
    9900012    2    1    2    0    0  0.53564293969E+01  0.24270999680E+02 -0.35578791868E+02  0.47787271986E+02  0.20000004294E+02 0.  0.
         12    1    1    2    0    0 -0.53564293969E+01 -0.24270999680E+02  0.35578791868E+02  0.43400728014E+02  0.00000000000E+00 0. -1.
         11    1    3    3    0    0 -0.34328053528E+01  0.41215872768E+01 -0.14076849626E+01  0.55455578156E+01  0.51100000000E-03 0. -1.
        -11    1    3    3    0    0  0.94663509399E+00  0.16353307295E+01 -0.12646550196E+02  0.12786933046E+02  0.51100000000E-03 0.  1.
         12    1    3    3    0    0  0.78425996557E+01  0.18514081674E+02 -0.21524556709E+02  0.29454781125E+02  0.00000000000E+00 0. -1.
</event>
<event>
 7    1  0.5022032E-011  0.4778727E+02  0.7816164E-02  0.1312668E+00
        -11   -1    0    0    0    0  0.00000000000E+00  0.00000000000E+00  0.45593999997E+02  0.45594000000E+02  0.51100000000E-03 0.  1.
         11   -1    0    0    0    0 -0.00000000000E+00 -0.00000000000E+00 -0.45593999997E+02  0.45594000000E+02  0.51100000000E-03 0. -1.
    9900012    2    1    2    0    0  0.10330194110E+02 -0.37723155083E+02 -0.18811538956E+02  0.47787270310E+02  0.19999996652E+02 0.  0.
         12    1    1    2    0    0 -0.10330194110E+02  0.37723155083E+02  0.18811538956E+02  0.43400729690E+02  0.00000000000E+00 0. -1.
         11    1    3    3    0    0  0.84653836667E+01 -0.13996054199E+02 -0.18957372540E+01  0.16466513710E+02  0.51100000000E-03 0. -1.
        -11    1    3    3    0    0  0.23824679379E+01 -0.97844974359E+01 -0.94609033148E+00  0.10114723463E+02  0.51100000000E-03 0.  1.
         12    1    3    3    0    0 -0.51765749481E+00 -0.13942603448E+02 -0.15969711370E+02  0.21206033138E+02  0.00000000000E+00 0. -1.
</event>
<event>
 7    1  0.5022032E-011  0.4778726E+02  0.7816164E-02  0.1312668E+00
        -11   -1    0    0    0    0  0.00000000000E+00  0.00000000000E+00  0.45593999997E+02  0.45594000000E+02  0.51100000000E-03 0.  1.
         11   -1    0    0    0    0 -0.00000000000E+00 -0.00000000000E+00 -0.45593999997E+02  0.45594000000E+02  0.51100000000E-03 0. -1.
    9900012    2    1    2    0    0 -0.39245502068E+02  0.12379562013E+02 -0.13789891708E+02  0.47787261509E+02  0.19999956525E+02 0.  0.
         12    1    1    2    0    0  0.39245502068E+02 -0.12379562013E+02  0.13789891708E+02  0.43400738491E+02  0.00000000000E+00 0. -1.
         11    1    3    3    0    0 -0.96163744085E+01  0.19356825027E+01 -0.78175981276E+01  0.12543379300E+02  0.51100000000E-03 0. -1.
        -11    1    3    3    0    0 -0.22244237182E+02  0.77598486671E+00 -0.60962360253E+01  0.23077528773E+02  0.51100000000E-03 0.  1.
        -12    1    3    3    0    0 -0.73848904781E+01  0.96678946437E+01  0.12394244481E+00  0.12166353437E+02  0.00000000000E+00 0.  1.
</event>
<event>
 7    1  0.5022032E-011  0.4778726E+02  0.7816164E-02  0.1312668E+00
        -11   -1    0    0    0    0  0.00000000000E+00  0.00000000000E+00  0.45593999997E+02  0.45594000000E+02  0.51100000000E-03 0. -1.
         11   -1    0    0    0    0 -0.00000000000E+00 -0.00000000000E+00 -0.45593999997E+02  0.45594000000E+02  0.51100000000E-03 0.  1.
    9900012    2    1    2    0    0 -0.14540524957E+02  0.79189087098E+01 -0.40118423528E+02  0.47787263975E+02  0.19999967765E+02 0.  0.
         12    1    1    2    0    0  0.14540524957E+02 -0.79189087098E+01  0.40118423528E+02  0.43400736025E+02  0.00000000000E+00 0. -1.
         11    1    3    3    0    0 -0.57507178208E+01  0.37392149764E+01 -0.43569027433E+01  0.81261975037E+01  0.51100000000E-03 0. -1.
        -11    1    3    3    0    0 -0.11916099509E+02  0.61223351032E+01 -0.29465976057E+02  0.32368505679E+02  0.51100000000E-03 0.  1.
        -12    1    3    3    0    0  0.31262923722E+01 -0.19426413699E+01 -0.62955447274E+01  0.72925607919E+01  0.00000000000E+00 0.  1.
</event>
<event>
 7    1  0.5022032E-011  0.4778727E+02  0.7816164E-02  0.1312668E+00
        -11   -1    0    0    0    0  0.00000000000E+00  0.00000000000E+00  0.45593999997E+02  0.45594000000E+02  0.51100000000E-03 0. -1.
         11   -1    0    0    0    0 -0.00000000000E+00 -0.00000000000E+00 -0.45593999997E+02  0.45594000000E+02  0.51100000000E-03 0.  1.
    9900012    2    1    2    0    0 -0.47158028439E+01  0.39661659639E+02  0.16980488605E+02  0.47787273796E+02  0.20000012545E+02 0.  0.
        -12    1    1    2    0    0  0.47158028439E+01 -0.39661659639E+02 -0.16980488605E+02  0.43400726204E+02  0.00000000000E+00 0.  1.
         11    1    3    3    0    0  0.12477592665E+01  0.12079541005E+02  0.16115886316E+01  0.12250282946E+02  0.51100000000E-03 0. -1.
        -11    1    3    3    0    0  0.48248924213E+01  0.12394502037E+02  0.78737185458E+01  0.15456348587E+02  0.51100000000E-03 0.  1.
         12    1    3    3    0    0 -0.10788454532E+02  0.15187616596E+02  0.74951814278E+01  0.20080642263E+02  0.00000000000E+00 0. -1.
</event>
<event>
 7    1  0.5022032E-011  0.4778727E+02  0.7816164E-02  0.1312668E+00
        -11   -1    0    0    0    0  0.00000000000E+00  0.00000000000E+00  0.45593999997E+02  0.45594000000E+02  0.51100000000E-03 0.  1.
         11   -1    0    0    0    0 -0.00000000000E+00 -0.00000000000E+00 -0.45593999997E+02  0.45594000000E+02  0.51100000000E-03 0. -1.
    9900012    2    1    2    0    0  0.24392139981E+02 -0.25457132294E+02 -0.25309698823E+02  0.47787274983E+02  0.20000017959E+02 0.  0.
         12    1    1    2    0    0 -0.24392139981E+02  0.25457132294E+02  0.25309698823E+02  0.43400725017E+02  0.00000000000E+00 0. -1.
         11    1    3    3    0    0  0.96944424923E+01 -0.16342834576E+01 -0.41691828360E+01  0.10678725740E+02  0.51100000000E-03 0. -1.
        -11    1    3    3    0    0  0.10568899620E+02 -0.14280830813E+02 -0.60203011573E+01  0.18758672505E+02  0.51100000000E-03 0.  1.
        -12    1    3    3    0    0  0.41287978690E+01 -0.95420180236E+01 -0.15120214829E+02  0.18349876738E+02  0.00000000000E+00 0.  1.
</event>
<event>
 7    1  0.5022032E-011  0.4778727E+02  0.7816164E-02  0.1312668E+00
        -11   -1    0    0    0    0  0.00000000000E+00  0.00000000000E+00  0.45593999997E+02  0.45594000000E+02  0.51100000000E-03 0. -1.
         11   -1    0    0    0    0 -0.00000000000E+00 -0.00000000000E+00 -0.45593999997E+02  0.45594000000E+02  0.51100000000E-03 0.  1.
    9900012    2    1    2    0    0 -0.36810921341E+02  0.12067322064E+02  0.19569338395E+02  0.47787271930E+02  0.20000004039E+02 0.  0.
        -12    1    1    2    0    0  0.36810921341E+02 -0.12067322064E+02 -0.19569338395E+02  0.43400728070E+02  0.00000000000E+00 0.  1.
         11    1    3    3    0    0 -0.16074130901E+02  0.56116620150E+01  0.76509611146E+01  0.18665627260E+02  0.51100000000E-03 0. -1.
        -11    1    3    3    0    0 -0.13071413639E+02  0.77276258592E+01  0.35355420187E+00  0.15188912297E+02  0.51100000000E-03 0.  1.
         12    1    3    3    0    0 -0.76653768015E+01 -0.12719658102E+01  0.11564823079E+02  0.13932732373E+02  0.00000000000E+00 0. -1.
</event>
<event>
 7    1  0.5022032E-011  0.4778726E+02  0.7816164E-02  0.1312668E+00
        -11   -1    0    0    0    0  0.00000000000E+00  0.00000000000E+00  0.45593999997E+02  0.45594000000E+02  0.51100000000E-03 0. -1.
         11   -1    0    0    0    0 -0.00000000000E+00 -0.00000000000E+00 -0.45593999997E+02  0.45594000000E+02  0.51100000000E-03 0.  1.
    9900012    2    1    2    0    0  0.77770230420E+01  0.17100154883E+02  0.39124503978E+02  0.47787260422E+02  0.19999951566E+02 0.  0.
        -12    1    1    2    0    0 -0.77770230420E+01 -0.17100154883E+02 -0.39124503978E+02  0.43400739578E+02  0.00000000000E+00 0.  1.
         11    1    3    3    0    0  0.67480622636E+01  0.86106510077E+01  0.21552933517E+02  0.24170407496E+02  0.51100000000E-03 0. -1.
        -11    1    3    3    0    0  0.99541041107E+00  0.28494885490E+01  0.17719562188E+02  0.17974796557E+02  0.51100000000E-03 0.  1.
        -12    1    3    3    0    0  0.33550367392E-01  0.56400153266E+01 -0.14799172672E+00  0.56420563683E+01  0.00000000000E+00 0.  1.
</event>
<event>
 7    1  0.5022032E-011  0.4778727E+02  0.7816164E-02  0.1312668E+00
        -11   -1    0    0    0    0  0.00000000000E+00  0.00000000000E+00  0.45593999997E+02  0.45594000000E+02  0.51100000000E-03 0. -1.
         11   -1    0    0    0    0 -0.00000000000E+00 -0.00000000000E+00 -0.45593999997E+02  0.45594000000E+02  0.51100000000E-03 0.  1.
    9900012    2    1    2    0    0  0.50533096075E+01 -0.11319151637E+02 -0.41592839211E+02  0.47787269529E+02  0.19999993089E+02 0.  0.
         12    1    1    2    0    0 -0.50533096075E+01  0.11319151637E+02  0.41592839211E+02  0.43400730471E+02  0.00000000000E+00 0. -1.
         11    1    3    3    0    0  0.44604381472E+01 -0.28385489030E+01 -0.10475974564E+02  0.11734517956E+02  0.51100000000E-03 0. -1.
        -11    1    3    3    0    0  0.81125362120E+01 -0.22651674184E+01 -0.13396988492E+02  0.15824775769E+02  0.51100000000E-03 0.  1.
         12    1    3    3    0    0 -0.75196647518E+01 -0.62154353157E+01 -0.17719876155E+02  0.20227975803E+02  0.00000000000E+00 0. -1.
</event>
<event>
 7    1  0.5546584E-011  0.4778727E+02  0.7816164E-02  0.1312668E+00
        -11   -1    0    0    0    0  0.00000000000E+00  0.00000000000E+00  0.45593999997E+02  0.45594000000E+02  0.51100000000E-03 0. -1.
         11   -1    0    0    0    0 -0.00000000000E+00 -0.00000000000E+00 -0.45593999997E+02  0.45594000000E+02  0.51100000000E-03 0.  1.
    9900012    2    1    2    0    0  0.10818135765E+02 -0.20369054675E+02 -0.36765374261E+02  0.47787271961E+02  0.20000004177E+02 0.  0.
         12    1    1    2    0    0 -0.10818135765E+02  0.20369054675E+02  0.36765374261E+02  0.43400728039E+02  0.00000000000E+00 0. -1.
         11    1    3    3    0    0  0.53274923723E+00  0.17768799207E+01 -0.91031819623E+01  0.92902662019E+01  0.51100000000E-03 0. -1.
        -11    1    3    3    0    0  0.50414236244E+00 -0.50616958852E+01 -0.73271987424E+00  0.51392415229E+01  0.51100000000E-03 0.  1.
        -12    1    3    3    0    0  0.97812441649E+01 -0.17084238711E+02 -0.26929472425E+02  0.33357764236E+02  0.00000000000E+00 0.  1.
</event>
<event>
 7    1  0.5022032E-011  0.4778727E+02  0.7816164E-02  0.1312668E+00
        -11   -1    0    0    0    0  0.00000000000E+00  0.00000000000E+00  0.45593999997E+02  0.45594000000E+02  0.51100000000E-03 0. -1.
         11   -1    0    0    0    0 -0.00000000000E+00 -0.00000000000E+00 -0.45593999997E+02  0.45594000000E+02  0.51100000000E-03 0.  1.
    9900012    2    1    2    0    0 -0.71497911899E+01 -0.36525010852E+01 -0.42651648124E+02  0.47787269984E+02  0.19999995166E+02 0.  0.
         12    1    1    2    0    0  0.71497911899E+01  0.36525010852E+01  0.42651648124E+02  0.43400730016E+02  0.00000000000E+00 0. -1.
         11    1    3    3    0    0 -0.58072820388E+00 -0.17911067326E+01 -0.18338150315E+00  0.18918080270E+01  0.51100000000E-03 0. -1.
        -11    1    3    3    0    0 -0.84766596376E+00 -0.82818859779E+01 -0.15571156107E+02  0.17656983766E+02  0.51100000000E-03 0.  1.
         12    1    3    3    0    0 -0.57213970222E+01  0.64204916253E+01 -0.26897110513E+02  0.28238478191E+02  0.00000000000E+00 0. -1.
</event>
<event>
 7    1  0.5022032E-011  0.4778727E+02  0.7816164E-02  0.1312668E+00
        -11   -1    0    0    0    0  0.00000000000E+00  0.00000000000E+00  0.45593999997E+02  0.45594000000E+02  0.51100000000E-03 0. -1.
         11   -1    0    0    0    0 -0.00000000000E+00 -0.00000000000E+00 -0.45593999997E+02  0.45594000000E+02  0.51100000000E-03 0.  1.
    9900012    2    1    2    0    0 -0.21214614918E+02  0.10001913621E+02 -0.36517465418E+02  0.47787269099E+02  0.19999991128E+02 0.  0.
         12    1    1    2    0    0  0.21214614918E+02 -0.10001913621E+02  0.36517465418E+02  0.43400730901E+02  0.00000000000E+00 0. -1.
         11    1    3    3    0    0  0.33285235924E+00  0.36347437177E+01  0.13580668152E+00  0.36524781043E+01  0.51100000000E-03 0. -1.
        -11    1    3    3    0    0  0.24534337097E+00 -0.13295855201E+01 -0.32024830109E+01  0.34761888212E+01  0.51100000000E-03 0.  1.
        -12    1    3    3    0    0 -0.21792810648E+02  0.76967554237E+01 -0.33450789089E+02  0.40658602173E+02  0.00000000000E+00 0.  1.
</event>
<event>
 7    1  0.5022032E-011  0.4778726E+02  0.7816164E-02  0.1312668E+00
        -11   -1    0    0    0    0  0.00000000000E+00  0.00000000000E+00  0.45593999997E+02  0.45594000000E+02  0.51100000000E-03 0. -1.
         11   -1    0    0    0    0 -0.00000000000E+00 -0.00000000000E+00 -0.45593999997E+02  0.45594000000E+02  0.51100000000E-03 0.  1.
    9900012    2    1    2    0    0  0.20327683767E+02  0.19671952996E+01 -0.38295426879E+02  0.47787259171E+02  0.19999945862E+02 0.  0.
         12    1    1    2    0    0 -0.20327683767E+02 -0.19671952996E+01  0.38295426879E+02  0.43400740829E+02  0.00000000000E+00 0. -1.
         11    1    3    3    0    0  0.83525807244E+01 -0.12947015355E+01 -0.95147167928E+01  0.12726809998E+02  0.51100000000E-03 0.  1.
        -11    1    3    3    0    0  0.11693968646E+02  0.82226096937E+01 -0.25068777321E+02  0.28858340380E+02  0.51100000000E-03 0. -1.
         12    1    3    3    0    0  0.28113439656E+00 -0.49607128586E+01 -0.37119327655E+01  0.62021087922E+01  0.00000000000E+00 0. -1.
</event>
<event>
 7    1  0.5022032E-011  0.4778727E+02  0.7816164E-02  0.1312668E+00
        -11   -1    0    0    0    0  0.00000000000E+00  0.00000000000E+00  0.45593999997E+02  0.45594000000E+02  0.51100000000E-03 0. -1.
         11   -1    0    0    0    0 -0.00000000000E+00 -0.00000000000E+00 -0.45593999997E+02  0.45594000000E+02  0.51100000000E-03 0.  1.
    9900012    2    1    2    0    0  0.17858706343E+01 -0.29475568483E+02 -0.31806048978E+02  0.47787271632E+02  0.20000002677E+02 0.  0.
         12    1    1    2    0    0 -0.17858706343E+01  0.29475568483E+02  0.31806048978E+02  0.43400728368E+02  0.00000000000E+00 0. -1.
         11    1    3    3    0    0 -0.19560564669E+01 -0.94425231004E+00 -0.86591414514E+00  0.23382850328E+01  0.51100000000E-03 0. -1.
        -11    1    3    3    0    0 -0.48636558499E+01 -0.16888734946E+02 -0.22969917412E+02  0.28922337777E+02  0.51100000000E-03 0.  1.
         12    1    3    3    0    0  0.86055829511E+01 -0.11642581226E+02 -0.79702174213E+01  0.16526648822E+02  0.00000000000E+00 0. -1.
</event>
<event>
 7    1  0.5022032E-011  0.4778727E+02  0.7816164E-02  0.1312668E+00
        -11   -1    0    0    0    0  0.00000000000E+00  0.00000000000E+00  0.45593999997E+02  0.45594000000E+02  0.51100000000E-03 0. -1.
         11   -1    0    0    0    0 -0.00000000000E+00 -0.00000000000E+00 -0.45593999997E+02  0.45594000000E+02  0.51100000000E-03 0.  1.
    9900012    2    1    2    0    0 -0.12383201012E+02 -0.67760564530E+00 -0.41591114697E+02  0.47787266844E+02  0.19999980850E+02 0.  0.
         12    1    1    2    0    0  0.12383201012E+02  0.67760564530E+00  0.41591114697E+02  0.43400733156E+02  0.00000000000E+00 0. -1.
         11    1    3    3    0    0 -0.88431815240E+01 -0.30261629910E+01 -0.12627351649E+02  0.15710172878E+02  0.51100000000E-03 0. -1.
        -11    1    3    3    0    0 -0.81794415152E+01  0.79342214901E+00 -0.22612973810E+02  0.24059912032E+02  0.51100000000E-03 0.  1.
         12    1    3    3    0    0  0.46394220272E+01  0.15551351967E+01 -0.63507892377E+01  0.80171819343E+01  0.00000000000E+00 0. -1.
</event>
<event>
 7    1  0.5022032E-011  0.4778729E+02  0.7816164E-02  0.1312668E+00
        -11   -1    0    0    0    0  0.00000000000E+00  0.00000000000E+00  0.45593999997E+02  0.45594000000E+02  0.51100000000E-03 0. -1.
         11   -1    0    0    0    0 -0.00000000000E+00 -0.00000000000E+00 -0.45593999997E+02  0.45594000000E+02  0.51100000000E-03 0.  1.
    9900012    2    1    2    0    0 -0.12109658310E+02  0.35589750979E+02  0.21687502988E+02  0.47787285893E+02  0.20000067699E+02 0.  0.
        -12    1    1    2    0    0  0.12109658310E+02 -0.35589750979E+02 -0.21687502988E+02  0.43400714107E+02  0.00000000000E+00 0.  1.
         11    1    3    3    0    0 -0.94992024505E+01  0.21114199806E+02  0.11441774366E+02  0.25825539327E+02  0.51100000000E-03 0. -1.
        -11    1    3    3    0    0 -0.52416532847E+01  0.51948500395E+01  0.98490406406E+01  0.12307111680E+02  0.51100000000E-03 0.  1.
         12    1    3    3    0    0  0.26311974250E+01  0.92807011341E+01  0.39668798135E+00  0.96546348861E+01  0.00000000000E+00 0. -1.
</event>
<event>
 7    1  0.5022032E-011  0.4778727E+02  0.7816164E-02  0.1312668E+00
        -11   -1    0    0    0    0  0.00000000000E+00  0.00000000000E+00  0.45593999997E+02  0.45594000000E+02  0.51100000000E-03 0.  1.
         11   -1    0    0    0    0 -0.00000000000E+00 -0.00000000000E+00 -0.45593999997E+02  0.45594000000E+02  0.51100000000E-03 0. -1.
    9900012    2    1    2    0    0  0.33190731038E+02  0.27945867235E+02  0.10136305067E+01  0.47787267643E+02  0.19999984490E+02 0.  0.
         12    1    1    2    0    0 -0.33190731038E+02 -0.27945867235E+02 -0.10136305067E+01  0.43400732357E+02  0.00000000000E+00 0. -1.
         11    1    3    3    0    0  0.33368732593E+01 -0.69258448584E-01 -0.28350915276E+01  0.43791853251E+01  0.51100000000E-03 0. -1.
        -11    1    3    3    0    0  0.25487048383E+01  0.87404409310E+01 -0.23786731773E+01  0.94100632499E+01  0.51100000000E-03 0.  1.
         12    1    3    3    0    0  0.27305152941E+02  0.19274684752E+02  0.62273952116E+01  0.33998019068E+02  0.00000000000E+00 0. -1.
</event>
<event>
 7    1  0.5022032E-011  0.4778727E+02  0.7816164E-02  0.1312668E+00
        -11   -1    0    0    0    0  0.00000000000E+00  0.00000000000E+00  0.45593999997E+02  0.45594000000E+02  0.51100000000E-03 0. -1.
         11   -1    0    0    0    0 -0.00000000000E+00 -0.00000000000E+00 -0.45593999997E+02  0.45594000000E+02  0.51100000000E-03 0.  1.
    9900012    2    1    2    0    0  0.12179788421E+01  0.22595303718E+02 -0.37035012083E+02  0.47787270253E+02  0.19999996393E+02 0.  0.
         12    1    1    2    0    0 -0.12179788421E+01 -0.22595303718E+02  0.37035012083E+02  0.43400729747E+02  0.00000000000E+00 0. -1.
         11    1    3    3    0    0 -0.58501644721E+00  0.70158852242E+01 -0.65167539390E+01  0.95933816709E+01  0.51100000000E-03 0. -1.
        -11    1    3    3    0    0 -0.55860784039E+00 -0.34975843357E+01 -0.67726145047E+01  0.76428689898E+01  0.51100000000E-03 0.  1.
        -12    1    3    3    0    0  0.23616031297E+01  0.19077002829E+02 -0.23745643639E+02  0.30551019593E+02  0.00000000000E+00 0.  1.
</event>
<event>
 7    1  0.5022032E-011  0.4778729E+02  0.7816164E-02  0.1312668E+00
        -11   -1    0    0    0    0  0.00000000000E+00  0.00000000000E+00  0.45593999997E+02  0.45594000000E+02  0.51100000000E-03 0. -1.
         11   -1    0    0    0    0 -0.00000000000E+00 -0.00000000000E+00 -0.45593999997E+02  0.45594000000E+02  0.51100000000E-03 0.  1.
    9900012    2    1    2    0    0  0.16301407242E+01 -0.13208801143E+02 -0.41309709797E+02  0.47787286758E+02  0.20000071644E+02 0.  0.
         12    1    1    2    0    0 -0.16301407242E+01  0.13208801143E+02  0.41309709797E+02  0.43400713242E+02  0.00000000000E+00 0. -1.
         11    1    3    3    0    0 -0.73894674490E+00 -0.84373072135E+01 -0.22864704977E+02  0.24382963914E+02  0.51100000000E-03 0. -1.
        -11    1    3    3    0    0  0.56557530448E+01 -0.74558390435E+01 -0.15918670277E+02  0.18465674696E+02  0.51100000000E-03 0.  1.
         12    1    3    3    0    0 -0.32866655756E+01  0.26843451141E+01 -0.25263345432E+01  0.49386481472E+01  0.00000000000E+00 0. -1.
</event>
<event>
 7    1  0.5022032E-011  0.4778727E+02  0.7816164E-02  0.1312668E+00
        -11   -1    0    0    0    0  0.00000000000E+00  0.00000000000E+00  0.45593999997E+02  0.45594000000E+02  0.51100000000E-03 0. -1.
         11   -1    0    0    0    0 -0.00000000000E+00 -0.00000000000E+00 -0.45593999997E+02  0.45594000000E+02  0.51100000000E-03 0.  1.
    9900012    2    1    2    0    0  0.10736652675E+02  0.12776476500E+02  0.40063816355E+02  0.47787269092E+02  0.19999991098E+02 0.  0.
        -12    1    1    2    0    0 -0.10736652675E+02 -0.12776476500E+02 -0.40063816355E+02  0.43400730908E+02  0.00000000000E+00 0.  1.
         11    1    3    3    0    0  0.77655068321E+01  0.13966057812E+02  0.28642578198E+02  0.32798645601E+02  0.51100000000E-03 0. -1.
        -11    1    3    3    0    0  0.42767920654E+01  0.17849214393E+01  0.20447314820E+01  0.50653550724E+01  0.51100000000E-03 0.  1.
        -12    1    3    3    0    0 -0.13056462226E+01 -0.29745027516E+01  0.93765066753E+01  0.99232684187E+01  0.00000000000E+00 0.  1.
</event>
<event>
 7    1  0.5022032E-011  0.4778727E+02  0.7816164E-02  0.1312668E+00
        -11   -1    0    0    0    0  0.00000000000E+00  0.00000000000E+00  0.45593999997E+02  0.45594000000E+02  0.51100000000E-03 0.  1.
         11   -1    0    0    0    0 -0.00000000000E+00 -0.00000000000E+00 -0.45593999997E+02  0.45594000000E+02  0.51100000000E-03 0. -1.
    9900012    2    1    2    0    0 -0.27411676173E+02  0.32964651742E+02 -0.67494806507E+01  0.47787265626E+02  0.19999975297E+02 0.  0.
        -12    1    1    2    0    0  0.27411676173E+02 -0.32964651742E+02  0.67494806507E+01  0.43400734374E+02  0.00000000000E+00 0.  1.
         11    1    3    3    0    0  0.48444649333E+00 -0.19015468080E+00 -0.20155808940E+01  0.20816853289E+01  0.51100000000E-03 0.  1.
        -11    1    3    3    0    0 -0.56835514054E+01  0.37923517368E+00  0.70777198335E+00  0.57399927993E+01  0.51100000000E-03 0. -1.
         12    1    3    3    0    0 -0.22212571261E+02  0.32775571250E+02 -0.54416717401E+01  0.39965587498E+02  0.00000000000E+00 0. -1.
</event>
<event>
 7    1  0.5022032E-011  0.4778727E+02  0.7816164E-02  0.1312668E+00
        -11   -1    0    0    0    0  0.00000000000E+00  0.00000000000E+00  0.45593999997E+02  0.45594000000E+02  0.51100000000E-03 0. -1.
         11   -1    0    0    0    0 -0.00000000000E+00 -0.00000000000E+00 -0.45593999997E+02  0.45594000000E+02  0.51100000000E-03 0.  1.
    9900012    2    1    2    0    0  0.39511280568E+01  0.10780095589E+02  0.41854529865E+02  0.47787267931E+02  0.19999985807E+02 0.  0.
        -12    1    1    2    0    0 -0.39511280568E+01 -0.10780095589E+02 -0.41854529865E+02  0.43400732069E+02  0.00000000000E+00 0.  1.
         11    1    3    3    0    0  0.18023358590E+01  0.10204947638E+02  0.13169772017E+02  0.16758050784E+02  0.51100000000E-03 0.  1.
        -11    1    3    3    0    0 -0.25872082105E+01  0.43090044449E+01  0.77010860853E+01  0.91960802947E+01  0.51100000000E-03 0. -1.
         12    1    3    3    0    0  0.47360004083E+01 -0.37338564933E+01  0.20983671763E+02  0.21833136853E+02  0.00000000000E+00 0. -1.
</event>
<event>
 7    1  0.5022032E-011  0.4778727E+02  0.7816164E-02  0.1312668E+00
        -11   -1    0    0    0    0  0.00000000000E+00  0.00000000000E+00  0.45593999997E+02  0.45594000000E+02  0.51100000000E-03 0. -1.
         11   -1    0    0    0    0 -0.00000000000E+00 -0.00000000000E+00 -0.45593999997E+02  0.45594000000E+02  0.51100000000E-03 0.  1.
    9900012    2    1    2    0    0  0.30797139330E+02 -0.26269261550E+02 -0.15655205384E+02  0.47787270181E+02  0.19999996061E+02 0.  0.
         12    1    1    2    0    0 -0.30797139330E+02  0.26269261550E+02  0.15655205384E+02  0.43400729819E+02  0.00000000000E+00 0. -1.
         11    1    3    3    0    0  0.11188966759E+02 -0.78625576814E+01 -0.13136748268E+02  0.18962777902E+02  0.51100000000E-03 0. -1.
        -11    1    3    3    0    0  0.47437541114E+01 -0.56043913377E+01 -0.52378868281E+01  0.90193050742E+01  0.51100000000E-03 0.  1.
        -12    1    3    3    0    0  0.14864418459E+02 -0.12802312531E+02  0.27194297124E+01  0.19805187205E+02  0.00000000000E+00 0.  1.
</event>
<event>
 7    1  0.5022032E-011  0.4778727E+02  0.7816164E-02  0.1312668E+00
        -11   -1    0    0    0    0  0.00000000000E+00  0.00000000000E+00  0.45593999997E+02  0.45594000000E+02  0.51100000000E-03 0. -1.
         11   -1    0    0    0    0 -0.00000000000E+00 -0.00000000000E+00 -0.45593999997E+02  0.45594000000E+02  0.51100000000E-03 0.  1.
    9900012    2    1    2    0    0  0.10324275168E+02  0.24280765738E+02  0.34459785080E+02  0.47787273850E+02  0.20000012792E+02 0.  0.
        -12    1    1    2    0    0 -0.10324275168E+02 -0.24280765738E+02 -0.34459785080E+02  0.43400726150E+02  0.00000000000E+00 0.  1.
         11    1    3    3    0    0  0.60319301010E+01  0.13386799610E+02  0.61165304259E+01  0.15906053227E+02  0.51100000000E-03 0.  1.
        -11    1    3    3    0    0 -0.22970180659E+01  0.43780296065E+01  0.66075189527E+01  0.82524385609E+01  0.51100000000E-03 0. -1.
         12    1    3    3    0    0  0.65893631333E+01  0.65159365209E+01  0.21735735702E+02  0.23628782062E+02  0.00000000000E+00 0. -1.
</event>
<event>
 7    1  0.5022032E-011  0.4778727E+02  0.7816164E-02  0.1312668E+00
        -11   -1    0    0    0    0  0.00000000000E+00  0.00000000000E+00  0.45593999997E+02  0.45594000000E+02  0.51100000000E-03 0. -1.
         11   -1    0    0    0    0 -0.00000000000E+00 -0.00000000000E+00 -0.45593999997E+02  0.45594000000E+02  0.51100000000E-03 0.  1.
    9900012    2    1    2    0    0  0.13901849809E+02 -0.21933673966E+02 -0.34774649136E+02  0.47787266086E+02  0.19999977392E+02 0.  0.
         12    1    1    2    0    0 -0.13901849809E+02  0.21933673966E+02  0.34774649136E+02  0.43400733914E+02  0.00000000000E+00 0. -1.
         11    1    3    3    0    0  0.38828097632E+01 -0.23006624502E+01  0.21658656421E+00  0.45184255408E+01  0.51100000000E-03 0. -1.
        -11    1    3    3    0    0  0.46856067664E+01 -0.81180045533E-01 -0.10368883430E+02  0.11378718944E+02  0.51100000000E-03 0.  1.
         12    1    3    3    0    0  0.53334332791E+01 -0.19551831470E+02 -0.24622352271E+02  0.31890121601E+02  0.00000000000E+00 0. -1.
</event>
<event>
 7    1  0.5022032E-011  0.4778727E+02  0.7816164E-02  0.1312668E+00
        -11   -1    0    0    0    0  0.00000000000E+00  0.00000000000E+00  0.45593999997E+02  0.45594000000E+02  0.51100000000E-03 0. -1.
         11   -1    0    0    0    0 -0.00000000000E+00 -0.00000000000E+00 -0.45593999997E+02  0.45594000000E+02  0.51100000000E-03 0.  1.
    9900012    2    1    2    0    0 -0.38775498246E+02  0.11076782167E+02 -0.16043360180E+02  0.47787265291E+02  0.19999973769E+02 0.  0.
         12    1    1    2    0    0  0.38775498246E+02 -0.11076782167E+02  0.16043360180E+02  0.43400734709E+02  0.00000000000E+00 0. -1.
         11    1    3    3    0    0 -0.32932639750E+01  0.15481693328E+01 -0.46737478378E+01  0.59233719286E+01  0.51100000000E-03 0. -1.
        -11    1    3    3    0    0 -0.26183316392E+02 -0.49334153485E+00 -0.45296272523E+01  0.26576812571E+02  0.51100000000E-03 0.  1.
         12    1    3    3    0    0 -0.92989178791E+01  0.10021954369E+02 -0.68399850902E+01  0.15287080792E+02  0.00000000000E+00 0. -1.
</event>
<event>
 7    1  0.5022032E-011  0.4778727E+02  0.7816164E-02  0.1312668E+00
        -11   -1    0    0    0    0  0.00000000000E+00  0.00000000000E+00  0.45593999997E+02  0.45594000000E+02  0.51100000000E-03 0. -1.
         11   -1    0    0    0    0 -0.00000000000E+00 -0.00000000000E+00 -0.45593999997E+02  0.45594000000E+02  0.51100000000E-03 0.  1.
    9900012    2    1    2    0    0  0.17851151204E+02 -0.10377794296E+02  0.38174085526E+02  0.47787273975E+02  0.20000013360E+02 0.  0.
        -12    1    1    2    0    0 -0.17851151204E+02  0.10377794296E+02 -0.38174085526E+02  0.43400726025E+02  0.00000000000E+00 0.  1.
         11    1    3    3    0    0  0.13968523076E+02 -0.39236136668E+01  0.14857628611E+02  0.20766884921E+02  0.51100000000E-03 0. -1.
        -11    1    3    3    0    0  0.29922984762E+01 -0.33903213729E+01  0.12047782509E+01  0.46797029902E+01  0.51100000000E-03 0.  1.
         12    1    3    3    0    0  0.89032965241E+00 -0.30638592560E+01  0.22111678664E+02  0.22340686063E+02  0.00000000000E+00 0. -1.
</event>
<event>
 7    1  0.5022032E-011  0.4778727E+02  0.7816164E-02  0.1312668E+00
        -11   -1    0    0    0    0  0.00000000000E+00  0.00000000000E+00  0.45593999997E+02  0.45594000000E+02  0.51100000000E-03 0. -1.
         11   -1    0    0    0    0 -0.00000000000E+00 -0.00000000000E+00 -0.45593999997E+02  0.45594000000E+02  0.51100000000E-03 0.  1.
    9900012    2    1    2    0    0 -0.58018676178E+01 -0.16465599759E+01  0.42979651415E+02  0.47787271165E+02  0.20000000552E+02 0.  0.
        -12    1    1    2    0    0  0.58018676178E+01  0.16465599759E+01 -0.42979651415E+02  0.43400728835E+02  0.00000000000E+00 0.  1.
         11    1    3    3    0    0  0.10649439570E+01  0.28410921495E+01  0.39056067856E+01  0.49456723363E+01  0.51100000000E-03 0. -1.
        -11    1    3    3    0    0 -0.73927112250E+01 -0.10634064801E+01  0.59830208114E+01  0.95697205231E+01  0.51100000000E-03 0.  1.
        -12    1    3    3    0    0  0.52589965027E+00 -0.34242456453E+01  0.33091023818E+02  0.33271878306E+02  0.00000000000E+00 0.  1.
</event>
<event>
 7    1  0.5022032E-011  0.4778727E+02  0.7816164E-02  0.1312668E+00
        -11   -1    0    0    0    0  0.00000000000E+00  0.00000000000E+00  0.45593999997E+02  0.45594000000E+02  0.51100000000E-03 0. -1.
         11   -1    0    0    0    0 -0.00000000000E+00 -0.00000000000E+00 -0.45593999997E+02  0.45594000000E+02  0.51100000000E-03 0.  1.
    9900012    2    1    2    0    0  0.20190994041E+02 -0.16321434564E+02  0.34778693845E+02  0.47787274060E+02  0.20000013749E+02 0.  0.
        -12    1    1    2    0    0 -0.20190994041E+02  0.16321434564E+02 -0.34778693845E+02  0.43400725940E+02  0.00000000000E+00 0.  1.
         11    1    3    3    0    0  0.93132075916E+01 -0.12540807564E+02  0.21684930170E+02  0.26725341658E+02  0.51100000000E-03 0. -1.
        -11    1    3    3    0    0 -0.12399822389E+01 -0.14444841897E+01  0.70842982173E+01  0.73356234923E+01  0.51100000000E-03 0.  1.
         12    1    3    3    0    0  0.12117768688E+02 -0.23361428105E+01  0.60094654579E+01  0.13726308910E+02  0.00000000000E+00 0. -1.
</event>
<event>
 7    1  0.5022032E-011  0.4778727E+02  0.7816164E-02  0.1312668E+00
        -11   -1    0    0    0    0  0.00000000000E+00  0.00000000000E+00  0.45593999997E+02  0.45594000000E+02  0.51100000000E-03 0. -1.
         11   -1    0    0    0    0 -0.00000000000E+00 -0.00000000000E+00 -0.45593999997E+02  0.45594000000E+02  0.51100000000E-03 0.  1.
    9900012    2    1    2    0    0 -0.26857094326E+02  0.13676676703E+02 -0.31229287970E+02  0.47787269265E+02  0.19999991885E+02 0.  0.
         12    1    1    2    0    0  0.26857094326E+02 -0.13676676703E+02  0.31229287970E+02  0.43400730735E+02  0.00000000000E+00 0. -1.
         11    1    3    3    0    0 -0.13903946209E+01  0.54877910932E+01 -0.67796376274E+01  0.88324704870E+01  0.51100000000E-03 0. -1.
        -11    1    3    3    0    0 -0.14584405466E+02  0.81881169568E+01 -0.22278151428E+02  0.27857964272E+02  0.51100000000E-03 0.  1.
         12    1    3    3    0    0 -0.10882294239E+02  0.76865287401E-03 -0.21714989146E+01  0.11096834505E+02  0.00000000000E+00 0. -1.
</event>
<event>
 7    1  0.5022032E-011  0.4778729E+02  0.7816164E-02  0.1312668E+00
        -11   -1    0    0    0    0  0.00000000000E+00  0.00000000000E+00  0.45593999997E+02  0.45594000000E+02  0.51100000000E-03 0. -1.
         11   -1    0    0    0    0 -0.00000000000E+00 -0.00000000000E+00 -0.45593999997E+02  0.45594000000E+02  0.51100000000E-03 0.  1.
    9900012    2    1    2    0    0  0.25566778518E+02  0.18291321955E+02  0.29923049595E+02  0.47787291253E+02  0.20000092140E+02 0.  0.
        -12    1    1    2    0    0 -0.25566778518E+02 -0.18291321955E+02 -0.29923049595E+02  0.43400708747E+02  0.00000000000E+00 0.  1.
         11    1    3    3    0    0  0.24204910588E+01 -0.21912364543E+00  0.47431480337E+01  0.53295633656E+01  0.51100000000E-03 0. -1.
        -11    1    3    3    0    0 -0.24682617645E+01  0.22915659158E+00  0.66440233194E+00  0.25663709009E+01  0.51100000000E-03 0.  1.
         12    1    3    3    0    0  0.25614549224E+02  0.18281289009E+02  0.24515499229E+02  0.39891356987E+02  0.00000000000E+00 0. -1.
</event>
<event>
 7    1  0.5022032E-011  0.4778728E+02  0.7816164E-02  0.1312668E+00
        -11   -1    0    0    0    0  0.00000000000E+00  0.00000000000E+00  0.45593999997E+02  0.45594000000E+02  0.51100000000E-03 0. -1.
         11   -1    0    0    0    0 -0.00000000000E+00 -0.00000000000E+00 -0.45593999997E+02  0.45594000000E+02  0.51100000000E-03 0.  1.
    9900012    2    1    2    0    0 -0.12632878595E+02  0.22455162195E+01  0.41460710054E+02  0.47787280618E+02  0.20000043651E+02 0.  0.
        -12    1    1    2    0    0  0.12632878595E+02 -0.22455162195E+01 -0.41460710054E+02  0.43400719382E+02  0.00000000000E+00 0.  1.
         11    1    3    3    0    0  0.25197334999E+01  0.21735953681E+01  0.78362594086E+01  0.85135501123E+01  0.51100000000E-03 0.  1.
        -11    1    3    3    0    0 -0.10378637146E+02  0.59985402622E+01  0.25291962518E+02  0.27988961441E+02  0.51100000000E-03 0. -1.
         12    1    3    3    0    0 -0.47739749490E+01 -0.59266194108E+01  0.83324881274E+01  0.11284769065E+02  0.00000000000E+00 0. -1.
</event>
<event>
 7    1  0.5022032E-011  0.4778727E+02  0.7816164E-02  0.1312668E+00
        -11   -1    0    0    0    0  0.00000000000E+00  0.00000000000E+00  0.45593999997E+02  0.45594000000E+02  0.51100000000E-03 0. -1.
         11   -1    0    0    0    0 -0.00000000000E+00 -0.00000000000E+00 -0.45593999997E+02  0.45594000000E+02  0.51100000000E-03 0.  1.
    9900012    2    1    2    0    0  0.49970819537E+01  0.54426881662E+01 -0.42767159804E+02  0.47787266824E+02  0.19999980757E+02 0.  0.
         12    1    1    2    0    0 -0.49970819537E+01 -0.54426881662E+01  0.42767159804E+02  0.43400733176E+02  0.00000000000E+00 0. -1.
         11    1    3    3    0    0 -0.26188493023E+01 -0.26992349953E+01 -0.67538165517E+01  0.77303479549E+01  0.51100000000E-03 0. -1.
        -11    1    3    3    0    0  0.89742696635E+00  0.63507945234E+01 -0.46245845731E+01  0.79072592581E+01  0.51100000000E-03 0.  1.
         12    1    3    3    0    0  0.67185042896E+01  0.17911286381E+01 -0.31388758679E+02  0.32149659611E+02  0.00000000000E+00 0. -1.
</event>
<event>
 7    1  0.5022032E-011  0.4778727E+02  0.7816164E-02  0.1312668E+00
        -11   -1    0    0    0    0  0.00000000000E+00  0.00000000000E+00  0.45593999997E+02  0.45594000000E+02  0.51100000000E-03 0. -1.
         11   -1    0    0    0    0 -0.00000000000E+00 -0.00000000000E+00 -0.45593999997E+02  0.45594000000E+02  0.51100000000E-03 0.  1.
    9900012    2    1    2    0    0  0.21246262417E+02  0.33677015750E+02  0.17264942392E+02  0.47787270833E+02  0.19999999034E+02 0.  0.
        -12    1    1    2    0    0 -0.21246262417E+02 -0.33677015750E+02 -0.17264942392E+02  0.43400729167E+02  0.00000000000E+00 0.  1.
         11    1    3    3    0    0 -0.10523220868E+01  0.38593873189E+00  0.30260624009E+01  0.32269775944E+01  0.51100000000E-03 0. -1.
        -11    1    3    3    0    0  0.85728378317E+01  0.43986973492E+01  0.22477408431E+00  0.96380812670E+01  0.51100000000E-03 0.  1.
         12    1    3    3    0    0  0.13725746672E+02  0.28892379669E+02  0.14014105906E+02  0.34922211971E+02  0.00000000000E+00 0. -1.
</event>
<event>
 7    1  0.5022032E-011  0.4778727E+02  0.7816164E-02  0.1312668E+00
        -11   -1    0    0    0    0  0.00000000000E+00  0.00000000000E+00  0.45593999997E+02  0.45594000000E+02  0.51100000000E-03 0. -1.
         11   -1    0    0    0    0 -0.00000000000E+00 -0.00000000000E+00 -0.45593999997E+02  0.45594000000E+02  0.51100000000E-03 0.  1.
    9900012    2    1    2    0    0 -0.38045893189E+02  0.41951886926E+01 -0.20458091504E+02  0.47787272993E+02  0.20000008886E+02 0.  0.
         12    1    1    2    0    0  0.38045893189E+02 -0.41951886926E+01  0.20458091504E+02  0.43400727007E+02  0.00000000000E+00 0. -1.
         11    1    3    3    0    0 -0.56563135018E+01  0.48742549955E+01  0.18137104620E+01  0.76838655697E+01  0.51100000000E-03 0.  1.
        -11    1    3    3    0    0 -0.10739230293E+02  0.34865972629E+01 -0.80530422692E+01  0.13868630711E+02  0.51100000000E-03 0. -1.
         12    1    3    3    0    0 -0.21650349395E+02 -0.41656635658E+01 -0.14218759696E+02  0.26234776712E+02  0.00000000000E+00 0. -1.
</event>
<event>
 7    1  0.5022032E-011  0.4778728E+02  0.7816164E-02  0.1312668E+00
        -11   -1    0    0    0    0  0.00000000000E+00  0.00000000000E+00  0.45593999997E+02  0.45594000000E+02  0.51100000000E-03 0. -1.
         11   -1    0    0    0    0 -0.00000000000E+00 -0.00000000000E+00 -0.45593999997E+02  0.45594000000E+02  0.51100000000E-03 0.  1.
    9900012    2    1    2    0    0 -0.28260053749E+02  0.23894682371E+02 -0.22672368653E+02  0.47787276690E+02  0.20000025740E+02 0.  0.
         12    1    1    2    0    0  0.28260053749E+02 -0.23894682371E+02  0.22672368653E+02  0.43400723310E+02  0.00000000000E+00 0. -1.
         11    1    3    3    0    0 -0.16599342736E+02  0.69393877480E+01 -0.10876240310E+02  0.21023460351E+02  0.51100000000E-03 0. -1.
        -11    1    3    3    0    0 -0.11578768163E+02  0.90041230732E+01 -0.11779514414E+02  0.18812205202E+02  0.51100000000E-03 0.  1.
         12    1    3    3    0    0 -0.81942849129E-01  0.79511715495E+01 -0.16613929773E-01  0.79516111363E+01  0.00000000000E+00 0. -1.
</event>
<event>
 7    1  0.5022032E-011  0.4778724E+02  0.7816164E-02  0.1312668E+00
        -11   -1    0    0    0    0  0.00000000000E+00  0.00000000000E+00  0.45593999997E+02  0.45594000000E+02  0.51100000000E-03 0. -1.
         11   -1    0    0    0    0 -0.00000000000E+00 -0.00000000000E+00 -0.45593999997E+02  0.45594000000E+02  0.51100000000E-03 0.  1.
    9900012    2    1    2    0    0  0.87008134674E+01  0.33239100114E+02 -0.26515726750E+02  0.47787243134E+02  0.19999872747E+02 0.  0.
         12    1    1    2    0    0 -0.87008134674E+01 -0.33239100114E+02  0.26515726750E+02  0.43400756866E+02  0.00000000000E+00 0. -1.
         11    1    3    3    0    0 -0.14422307139E+01  0.93868102659E+01 -0.46737395128E+01  0.10584709618E+02  0.51100000000E-03 0. -1.
        -11    1    3    3    0    0  0.23340531487E+01 -0.19732418831E+01 -0.14503153202E+01  0.33830315428E+01  0.51100000000E-03 0.  1.
         12    1    3    3    0    0  0.78089910326E+01  0.25825531732E+02 -0.20391671917E+02  0.33819501974E+02  0.00000000000E+00 0. -1.
</event>
<event>
 7    1  0.5022032E-011  0.4778727E+02  0.7816164E-02  0.1312668E+00
        -11   -1    0    0    0    0  0.00000000000E+00  0.00000000000E+00  0.45593999997E+02  0.45594000000E+02  0.51100000000E-03 0. -1.
         11   -1    0    0    0    0 -0.00000000000E+00 -0.00000000000E+00 -0.45593999997E+02  0.45594000000E+02  0.51100000000E-03 0.  1.
    9900012    2    1    2    0    0 -0.14976559934E+02 -0.63827680295E+01  0.40231660032E+02  0.47787267932E+02  0.19999985808E+02 0.  0.
        -12    1    1    2    0    0  0.14976559934E+02  0.63827680295E+01 -0.40231660032E+02  0.43400732068E+02  0.00000000000E+00 0.  1.
         11    1    3    3    0    0 -0.18414378156E+02 -0.74620645224E+01  0.34110226739E+02  0.39475046526E+02  0.51100000000E-03 0. -1.
        -11    1    3    3    0    0  0.13571503102E+00 -0.12734976829E+01  0.48611334475E+00  0.13698618043E+01  0.51100000000E-03 0.  1.
         12    1    3    3    0    0  0.33021031911E+01  0.23527941758E+01  0.56353199483E+01  0.69423596016E+01  0.00000000000E+00 0. -1.
</event>
<event>
 7    1  0.5022032E-011  0.4778728E+02  0.7816164E-02  0.1312668E+00
        -11   -1    0    0    0    0  0.00000000000E+00  0.00000000000E+00  0.45593999997E+02  0.45594000000E+02  0.51100000000E-03 0. -1.
         11   -1    0    0    0    0 -0.00000000000E+00 -0.00000000000E+00 -0.45593999997E+02  0.45594000000E+02  0.51100000000E-03 0.  1.
    9900012    2    1    2    0    0 -0.18758062207E+02 -0.16241696047E+02  0.35608498578E+02  0.47787276974E+02  0.20000027034E+02 0.  0.
        -12    1    1    2    0    0  0.18758062207E+02  0.16241696047E+02 -0.35608498578E+02  0.43400723026E+02  0.00000000000E+00 0.  1.
         11    1    3    3    0    0 -0.12230414253E+02 -0.63452683481E+01  0.23438039208E+02  0.27187996347E+02  0.51100000000E-03 0. -1.
        -11    1    3    3    0    0 -0.31620336921E+00  0.25308994531E+01  0.30681936035E+01  0.39898933397E+01  0.51100000000E-03 0.  1.
        -12    1    3    3    0    0 -0.62114445851E+01 -0.12427327152E+02  0.91022657664E+01  0.16609387287E+02  0.00000000000E+00 0.  1.
</event>
<event>
 7    1  0.5022032E-011  0.4778727E+02  0.7816164E-02  0.1312668E+00
        -11   -1    0    0    0    0  0.00000000000E+00  0.00000000000E+00  0.45593999997E+02  0.45594000000E+02  0.51100000000E-03 0. -1.
         11   -1    0    0    0    0 -0.00000000000E+00 -0.00000000000E+00 -0.45593999997E+02  0.45594000000E+02  0.51100000000E-03 0.  1.
    9900012    2    1    2    0    0  0.49828982195E+01  0.21589865903E+02 -0.37318516796E+02  0.47787270972E+02  0.19999999668E+02 0.  0.
         12    1    1    2    0    0 -0.49828982195E+01 -0.21589865903E+02  0.37318516796E+02  0.43400729028E+02  0.00000000000E+00 0. -1.
         11    1    3    3    0    0  0.16258551834E+01  0.71312528169E+00 -0.52832855168E+01  0.55736037586E+01  0.51100000000E-03 0. -1.
        -11    1    3    3    0    0 -0.62399079231E+01  0.14695862498E+02 -0.16799611163E+02  0.23176103230E+02  0.51100000000E-03 0.  1.
         12    1    3    3    0    0  0.95969509593E+01  0.61808781235E+01 -0.15235620116E+02  0.19037563983E+02  0.00000000000E+00 0. -1.
</event>
<event>
 7    1  0.5022032E-011  0.4778727E+02  0.7816164E-02  0.1312668E+00
        -11   -1    0    0    0    0  0.00000000000E+00  0.00000000000E+00  0.45593999997E+02  0.45594000000E+02  0.51100000000E-03 0. -1.
         11   -1    0    0    0    0 -0.00000000000E+00 -0.00000000000E+00 -0.45593999997E+02  0.45594000000E+02  0.51100000000E-03 0.  1.
    9900012    2    1    2    0    0  0.23314497085E+02 -0.30296612058E+02 -0.20546841951E+02  0.47787272003E+02  0.20000004369E+02 0.  0.
         12    1    1    2    0    0 -0.23314497085E+02  0.30296612058E+02  0.20546841951E+02  0.43400727997E+02  0.00000000000E+00 0. -1.
         11    1    3    3    0    0  0.85618709091E+01 -0.91588765972E+01 -0.98645055534E+01  0.15953028680E+02  0.51100000000E-03 0. -1.
        -11    1    3    3    0    0  0.17486260297E+02 -0.14409538729E+02 -0.89944076319E+01  0.24378340273E+02  0.51100000000E-03 0.  1.
         12    1    3    3    0    0 -0.27336341208E+01 -0.67281967319E+01 -0.16879287662E+01  0.74559030499E+01  0.00000000000E+00 0. -1.
</event>
<event>
 7    1  0.5022032E-011  0.4778727E+02  0.7816164E-02  0.1312668E+00
        -11   -1    0    0    0    0  0.00000000000E+00  0.00000000000E+00  0.45593999997E+02  0.45594000000E+02  0.51100000000E-03 0. -1.
         11   -1    0    0    0    0 -0.00000000000E+00 -0.00000000000E+00 -0.45593999997E+02  0.45594000000E+02  0.51100000000E-03 0.  1.
    9900012    2    1    2    0    0  0.24545369066E+02 -0.22554082827E+02 -0.27793198502E+02  0.47787266392E+02  0.19999978788E+02 0.  0.
         12    1    1    2    0    0 -0.24545369066E+02  0.22554082827E+02  0.27793198502E+02  0.43400733608E+02  0.00000000000E+00 0. -1.
         11    1    3    3    0    0  0.11182414900E+02 -0.58388639426E+01 -0.55669166706E+01  0.13788738036E+02  0.51100000000E-03 0. -1.
        -11    1    3    3    0    0  0.16057672803E+02 -0.15573455927E+02 -0.17340454613E+02  0.28303228646E+02  0.51100000000E-03 0.  1.
        -12    1    3    3    0    0 -0.26947186369E+01 -0.11417629574E+01 -0.48858272179E+01  0.56952997100E+01  0.00000000000E+00 0.  1.
</event>
<event>
 7    1  0.5022032E-011  0.4778727E+02  0.7816164E-02  0.1312668E+00
        -11   -1    0    0    0    0  0.00000000000E+00  0.00000000000E+00  0.45593999997E+02  0.45594000000E+02  0.51100000000E-03 0. -1.
         11   -1    0    0    0    0 -0.00000000000E+00 -0.00000000000E+00 -0.45593999997E+02  0.45594000000E+02  0.51100000000E-03 0.  1.
    9900012    2    1    2    0    0  0.21033851896E+02 -0.33021411224E+01  0.37819253934E+02  0.47787273858E+02  0.20000012827E+02 0.  0.
        -12    1    1    2    0    0 -0.21033851896E+02  0.33021411224E+01 -0.37819253934E+02  0.43400726142E+02  0.00000000000E+00 0.  1.
         11    1    3    3    0    0  0.42363289751E+01  0.24520303201E+01  0.25416217377E+01  0.55153220390E+01  0.51100000000E-03 0. -1.
        -11    1    3    3    0    0  0.16870679899E+02 -0.17750635439E+01  0.18807046993E+02  0.25327370723E+02  0.51100000000E-03 0.  1.
         12    1    3    3    0    0 -0.73156978020E-01 -0.39791078987E+01  0.16470585202E+02  0.16944581096E+02  0.00000000000E+00 0. -1.
</event>
<event>
 7    1  0.5022032E-011  0.4778727E+02  0.7816164E-02  0.1312668E+00
        -11   -1    0    0    0    0  0.00000000000E+00  0.00000000000E+00  0.45593999997E+02  0.45594000000E+02  0.51100000000E-03 0. -1.
         11   -1    0    0    0    0 -0.00000000000E+00 -0.00000000000E+00 -0.45593999997E+02  0.45594000000E+02  0.51100000000E-03 0.  1.
    9900012    2    1    2    0    0  0.14449606579E+02  0.27946148415E+02  0.29897236256E+02  0.47787273310E+02  0.20000010328E+02 0.  0.
        -12    1    1    2    0    0 -0.14449606579E+02 -0.27946148415E+02 -0.29897236256E+02  0.43400726690E+02  0.00000000000E+00 0.  1.
         11    1    3    3    0    0  0.45184911724E+01  0.12428248427E+01  0.72847800334E+00  0.47425791008E+01  0.51100000000E-03 0.  1.
        -11    1    3    3    0    0  0.11063120310E+02  0.21632073090E+02  0.16549948833E+02  0.29397959518E+02  0.51100000000E-03 0. -1.
        -12    1    3    3    0    0 -0.11320049039E+01  0.50712504819E+01  0.12618809420E+02  0.13646734691E+02  0.00000000000E+00 0.  1.
</event>
<event>
 7    1  0.5022032E-011  0.4778727E+02  0.7816164E-02  0.1312668E+00
        -11   -1    0    0    0    0  0.00000000000E+00  0.00000000000E+00  0.45593999997E+02  0.45594000000E+02  0.51100000000E-03 0. -1.
         11   -1    0    0    0    0 -0.00000000000E+00 -0.00000000000E+00 -0.45593999997E+02  0.45594000000E+02  0.51100000000E-03 0.  1.
    9900012    2    1    2    0    0 -0.17969508060E+02  0.31936599636E+02  0.23254535523E+02  0.47787273754E+02  0.20000012356E+02 0.  0.
        -12    1    1    2    0    0  0.17969508060E+02 -0.31936599636E+02 -0.23254535523E+02  0.43400726246E+02  0.00000000000E+00 0.  1.
         11    1    3    3    0    0 -0.15395288792E+02  0.28303198208E+02  0.13553929252E+02  0.34954183501E+02  0.51100000000E-03 0. -1.
        -11    1    3    3    0    0 -0.40667305538E+00  0.27603596112E+01 -0.65890193160E-01  0.27909335240E+01  0.51100000000E-03 0.  1.
        -12    1    3    3    0    0 -0.21675462124E+01  0.87304181726E+00  0.97664964640E+01  0.10042156729E+02  0.00000000000E+00 0.  1.
</event>
<event>
 7    1  0.5022032E-011  0.4778725E+02  0.7816164E-02  0.1312668E+00
        -11   -1    0    0    0    0  0.00000000000E+00  0.00000000000E+00  0.45593999997E+02  0.45594000000E+02  0.51100000000E-03 0. -1.
         11   -1    0    0    0    0 -0.00000000000E+00 -0.00000000000E+00 -0.45593999997E+02  0.45594000000E+02  0.51100000000E-03 0.  1.
    9900012    2    1    2    0    0  0.14156327220E+02  0.13454749183E+02  0.38758140353E+02  0.47787247477E+02  0.19999892545E+02 0.  0.
        -12    1    1    2    0    0 -0.14156327220E+02 -0.13454749183E+02 -0.38758140353E+02  0.43400752523E+02  0.00000000000E+00 0.  1.
         11    1    3    3    0    0 -0.42457773910E+01  0.48476472515E+01  0.10864831768E+02  0.12632136760E+02  0.51100000000E-03 0.  1.
        -11    1    3    3    0    0  0.29160862792E+01  0.33320377359E+01  0.98491875791E+01  0.10798728207E+02  0.51100000000E-03 0. -1.
         12    1    3    3    0    0  0.15486018332E+02  0.52750641957E+01  0.18044121006E+02  0.24356382509E+02  0.00000000000E+00 0. -1.
</event>
<event>
 7    1  0.5022032E-011  0.4778727E+02  0.7816164E-02  0.1312668E+00
        -11   -1    0    0    0    0  0.00000000000E+00  0.00000000000E+00  0.45593999997E+02  0.45594000000E+02  0.51100000000E-03 0. -1.
         11   -1    0    0    0    0 -0.00000000000E+00 -0.00000000000E+00 -0.45593999997E+02  0.45594000000E+02  0.51100000000E-03 0.  1.
    9900012    2    1    2    0    0  0.16082682208E+02  0.61026492386E+01 -0.39846306323E+02  0.47787272790E+02  0.20000007958E+02 0.  0.
         12    1    1    2    0    0 -0.16082682208E+02 -0.61026492386E+01  0.39846306323E+02  0.43400727210E+02  0.00000000000E+00 0. -1.
         11    1    3    3    0    0  0.38936281563E-01 -0.45526965131E+00 -0.33651472171E+00  0.56747591004E+00  0.51100000000E-03 0. -1.
        -11    1    3    3    0    0  0.12598842423E+02 -0.51546694088E+01 -0.22098681725E+02  0.25954829635E+02  0.51100000000E-03 0.  1.
         12    1    3    3    0    0  0.34449035036E+01  0.11712588299E+02 -0.17411109877E+02  0.21264967245E+02  0.00000000000E+00 0. -1.
</event>
<event>
 7    1  0.5022032E-011  0.4778727E+02  0.7816164E-02  0.1312668E+00
        -11   -1    0    0    0    0  0.00000000000E+00  0.00000000000E+00  0.45593999997E+02  0.45594000000E+02  0.51100000000E-03 0. -1.
         11   -1    0    0    0    0 -0.00000000000E+00 -0.00000000000E+00 -0.45593999997E+02  0.45594000000E+02  0.51100000000E-03 0.  1.
    9900012    2    1    2    0    0  0.11644591970E+02  0.25537719420E+01  0.41731346251E+02  0.47787268056E+02  0.19999986377E+02 0.  0.
        -12    1    1    2    0    0 -0.11644591970E+02 -0.25537719420E+01 -0.41731346251E+02  0.43400731944E+02  0.00000000000E+00 0.  1.
         11    1    3    3    0    0 -0.19153825946E+01 -0.11569967505E+01  0.10839630876E+01  0.24864247828E+01  0.51100000000E-03 0. -1.
        -11    1    3    3    0    0  0.14528851145E+00 -0.19703531534E+01 -0.14908930527E+00  0.19813198083E+01  0.51100000000E-03 0.  1.
         12    1    3    3    0    0  0.13414686053E+02  0.56811218460E+01  0.40796472469E+02  0.43319523465E+02  0.00000000000E+00 0. -1.
</event>
<event>
 7    1  0.5022032E-011  0.4778727E+02  0.7816164E-02  0.1312668E+00
        -11   -1    0    0    0    0  0.00000000000E+00  0.00000000000E+00  0.45593999997E+02  0.45594000000E+02  0.51100000000E-03 0.  1.
         11   -1    0    0    0    0 -0.00000000000E+00 -0.00000000000E+00 -0.45593999997E+02  0.45594000000E+02  0.51100000000E-03 0. -1.
    9900012    2    1    2    0    0 -0.26239274541E+02 -0.23255554721E+02  0.25579346436E+02  0.47787270537E+02  0.19999997685E+02 0.  0.
        -12    1    1    2    0    0  0.26239274541E+02  0.23255554721E+02 -0.25579346436E+02  0.43400729463E+02  0.00000000000E+00 0.  1.
         11    1    3    3    0    0 -0.85239453004E+01 -0.63280023853E+01 -0.32568928116E+00  0.10621079580E+02  0.51100000000E-03 0. -1.
        -11    1    3    3    0    0 -0.38497866223E+01 -0.20111748251E+01  0.16858040862E+00  0.43467345018E+01  0.51100000000E-03 0.  1.
        -12    1    3    3    0    0 -0.13865542618E+02 -0.14916377511E+02  0.25736455309E+02  0.32819456455E+02  0.00000000000E+00 0.  1.
</event>
<event>
 7    1  0.5022032E-011  0.4778727E+02  0.7816164E-02  0.1312668E+00
        -11   -1    0    0    0    0  0.00000000000E+00  0.00000000000E+00  0.45593999997E+02  0.45594000000E+02  0.51100000000E-03 0. -1.
         11   -1    0    0    0    0 -0.00000000000E+00 -0.00000000000E+00 -0.45593999997E+02  0.45594000000E+02  0.51100000000E-03 0.  1.
    9900012    2    1    2    0    0 -0.19276012539E+02 -0.29983872068E+02  0.24759362689E+02  0.47787270923E+02  0.19999999448E+02 0.  0.
        -12    1    1    2    0    0  0.19276012539E+02  0.29983872068E+02 -0.24759362689E+02  0.43400729077E+02  0.00000000000E+00 0.  1.
         11    1    3    3    0    0 -0.33885187933E+01 -0.12111842980E+02  0.92534221299E+01  0.15614244182E+02  0.51100000000E-03 0. -1.
        -11    1    3    3    0    0 -0.55990342267E+01 -0.93465535038E+01 -0.99493809346E+00  0.10940619212E+02  0.51100000000E-03 0.  1.
         12    1    3    3    0    0 -0.10288459519E+02 -0.85254755846E+01  0.16500878652E+02  0.21232407530E+02  0.00000000000E+00 0. -1.
</event>
<event>
 7    1  0.5022032E-011  0.4778727E+02  0.7816164E-02  0.1312668E+00
        -11   -1    0    0    0    0  0.00000000000E+00  0.00000000000E+00  0.45593999997E+02  0.45594000000E+02  0.51100000000E-03 0. -1.
         11   -1    0    0    0    0 -0.00000000000E+00 -0.00000000000E+00 -0.45593999997E+02  0.45594000000E+02  0.51100000000E-03 0.  1.
    9900012    2    1    2    0    0  0.26599326746E+01 -0.55755026104E-01 -0.43319104660E+02  0.47787272137E+02  0.20000004981E+02 0.  0.
         12    1    1    2    0    0 -0.26599326746E+01  0.55755026104E-01  0.43319104660E+02  0.43400727863E+02  0.00000000000E+00 0. -1.
         11    1    3    3    0    0 -0.30103744845E+01 -0.21656547446E+01 -0.41373838187E+01  0.55561101622E+01  0.51100000000E-03 0. -1.
        -11    1    3    3    0    0 -0.38199767692E+01 -0.30883034984E+01 -0.13324411751E+02  0.14201048897E+02  0.51100000000E-03 0.  1.
        -12    1    3    3    0    0  0.94902839282E+01  0.51982032168E+01 -0.25857309091E+02  0.28030113078E+02  0.00000000000E+00 0.  1.
</event>
<event>
 7    1  0.5022032E-011  0.4778727E+02  0.7816164E-02  0.1312668E+00
        -11   -1    0    0    0    0  0.00000000000E+00  0.00000000000E+00  0.45593999997E+02  0.45594000000E+02  0.51100000000E-03 0.  1.
         11   -1    0    0    0    0 -0.00000000000E+00 -0.00000000000E+00 -0.45593999997E+02  0.45594000000E+02  0.51100000000E-03 0. -1.
    9900012    2    1    2    0    0  0.46399961183E+01 -0.42040895808E+02 -0.97291764786E+01  0.47787270060E+02  0.19999995514E+02 0.  0.
         12    1    1    2    0    0 -0.46399961183E+01  0.42040895808E+02  0.97291764786E+01  0.43400729940E+02  0.00000000000E+00 0. -1.
         11    1    3    3    0    0 -0.49887511205E+01 -0.74495943080E+01 -0.23975383460E+01  0.92807480021E+01  0.51100000000E-03 0. -1.
        -11    1    3    3    0    0 -0.10202860357E+01 -0.61415814076E-01 -0.16311783869E+01  0.19249671914E+01  0.51100000000E-03 0.  1.
        -12    1    3    3    0    0  0.10649033275E+02 -0.34529885686E+02 -0.57004597457E+01  0.36581554867E+02  0.00000000000E+00 0.  1.
</event>
<event>
 7    1  0.5022032E-011  0.4778727E+02  0.7816164E-02  0.1312668E+00
        -11   -1    0    0    0    0  0.00000000000E+00  0.00000000000E+00  0.45593999997E+02  0.45594000000E+02  0.51100000000E-03 0. -1.
         11   -1    0    0    0    0 -0.00000000000E+00 -0.00000000000E+00 -0.45593999997E+02  0.45594000000E+02  0.51100000000E-03 0.  1.
    9900012    2    1    2    0    0  0.71531040361E+01 -0.64549287046E+01  0.42317726788E+02  0.47787274172E+02  0.20000014260E+02 0.  0.
        -12    1    1    2    0    0 -0.71531040361E+01  0.64549287046E+01 -0.42317726788E+02  0.43400725828E+02  0.00000000000E+00 0.  1.
         11    1    3    3    0    0  0.86013392079E+01 -0.33603553891E+00  0.14497660453E+02  0.16860549069E+02  0.51100000000E-03 0. -1.
        -11    1    3    3    0    0  0.36180417084E+01 -0.71618686298E+01  0.13542634848E+02  0.15741205385E+02  0.51100000000E-03 0.  1.
        -12    1    3    3    0    0 -0.50662768802E+01  0.10429754641E+01  0.14277431487E+02  0.15185519718E+02  0.00000000000E+00 0.  1.
</event>
<event>
 7    1  0.5022032E-011  0.4778727E+02  0.7816164E-02  0.1312668E+00
        -11   -1    0    0    0    0  0.00000000000E+00  0.00000000000E+00  0.45593999997E+02  0.45594000000E+02  0.51100000000E-03 0. -1.
         11   -1    0    0    0    0 -0.00000000000E+00 -0.00000000000E+00 -0.45593999997E+02  0.45594000000E+02  0.51100000000E-03 0.  1.
    9900012    2    1    2    0    0 -0.21692209044E+01  0.25957108041E+02  0.34715215100E+02  0.47787272626E+02  0.20000007211E+02 0.  0.
        -12    1    1    2    0    0  0.21692209044E+01 -0.25957108041E+02 -0.34715215100E+02  0.43400727374E+02  0.00000000000E+00 0.  1.
         11    1    3    3    0    0  0.18142035430E-01  0.19943665563E+01  0.12287857036E+01  0.23425929354E+01  0.51100000000E-03 0. -1.
        -11    1    3    3    0    0  0.52970188740E+01  0.17166095436E+02  0.11733360037E+02  0.21457049646E+02  0.51100000000E-03 0.  1.
        -12    1    3    3    0    0 -0.74843818138E+01  0.67966460483E+01  0.21753069359E+02  0.23987630045E+02  0.00000000000E+00 0.  1.
</event>
<event>
 7    1  0.5022032E-011  0.4778727E+02  0.7816164E-02  0.1312668E+00
        -11   -1    0    0    0    0  0.00000000000E+00  0.00000000000E+00  0.45593999997E+02  0.45594000000E+02  0.51100000000E-03 0. -1.
         11   -1    0    0    0    0 -0.00000000000E+00 -0.00000000000E+00 -0.45593999997E+02  0.45594000000E+02  0.51100000000E-03 0.  1.
    9900012    2    1    2    0    0  0.74961723829E+00  0.36520093032E+02 -0.23438090729E+02  0.47787271688E+02  0.20000002933E+02 0.  0.
         12    1    1    2    0    0 -0.74961723829E+00 -0.36520093032E+02  0.23438090729E+02  0.43400728312E+02  0.00000000000E+00 0. -1.
         11    1    3    3    0    0  0.29414455246E+01  0.30169235374E+01 -0.21314790059E+01  0.47219839494E+01  0.51100000000E-03 0. -1.
        -11    1    3    3    0    0  0.29612120415E+01  0.16959362323E+02 -0.18909336473E+02  0.25572480389E+02  0.51100000000E-03 0.  1.
         12    1    3    3    0    0 -0.51530403278E+01  0.16543807171E+02 -0.23972752501E+01  0.17492807349E+02  0.00000000000E+00 0. -1.
</event>
<event>
 7    1  0.5022032E-011  0.4778727E+02  0.7816164E-02  0.1312668E+00
        -11   -1    0    0    0    0  0.00000000000E+00  0.00000000000E+00  0.45593999997E+02  0.45594000000E+02  0.51100000000E-03 0. -1.
         11   -1    0    0    0    0 -0.00000000000E+00 -0.00000000000E+00 -0.45593999997E+02  0.45594000000E+02  0.51100000000E-03 0.  1.
    9900012    2    1    2    0    0  0.65032004399E+01 -0.36675198737E+02  0.22276925129E+02  0.47787271762E+02  0.20000003273E+02 0.  0.
        -12    1    1    2    0    0 -0.65032004399E+01  0.36675198737E+02 -0.22276925129E+02  0.43400728238E+02  0.00000000000E+00 0.  1.
         11    1    3    3    0    0 -0.11415436121E+01  0.77593828955E+00  0.17170934116E+01  0.22030914853E+01  0.51100000000E-03 0. -1.
        -11    1    3    3    0    0  0.78030657670E+01 -0.10632069106E+02  0.29929005957E+01  0.13523541810E+02  0.51100000000E-03 0.  1.
         12    1    3    3    0    0 -0.15832171510E+00 -0.26819067920E+02  0.17566931122E+02  0.32060638467E+02  0.00000000000E+00 0. -1.
</event>
<event>
 7    1  0.5022032E-011  0.4778730E+02  0.7816164E-02  0.1312668E+00
        -11   -1    0    0    0    0  0.00000000000E+00  0.00000000000E+00  0.45593999997E+02  0.45594000000E+02  0.51100000000E-03 0. -1.
         11   -1    0    0    0    0 -0.00000000000E+00 -0.00000000000E+00 -0.45593999997E+02  0.45594000000E+02  0.51100000000E-03 0.  1.
    9900012    2    1    2    0    0  0.23250856270E+01 -0.42012011955E+02  0.10639819407E+02  0.47787298062E+02  0.20000123185E+02 0.  0.
        -12    1    1    2    0    0 -0.23250856270E+01  0.42012011955E+02 -0.10639819407E+02  0.43400701938E+02  0.00000000000E+00 0.  1.
         11    1    3    3    0    0  0.33723878088E+01 -0.28303168762E+02  0.13018763192E+02  0.31335771202E+02  0.51100000000E-03 0. -1.
        -11    1    3    3    0    0  0.32595533758E+01 -0.79532160577E+01  0.71590196762E+00  0.86250130295E+01  0.51100000000E-03 0.  1.
        -12    1    3    3    0    0 -0.43068555575E+01 -0.57556271356E+01 -0.30948457531E+01  0.78265138314E+01  0.00000000000E+00 0.  1.
</event>
<event>
 7    1  0.5022032E-011  0.4778727E+02  0.7816164E-02  0.1312668E+00
        -11   -1    0    0    0    0  0.00000000000E+00  0.00000000000E+00  0.45593999997E+02  0.45594000000E+02  0.51100000000E-03 0. -1.
         11   -1    0    0    0    0 -0.00000000000E+00 -0.00000000000E+00 -0.45593999997E+02  0.45594000000E+02  0.51100000000E-03 0.  1.
    9900012    2    1    2    0    0 -0.11366007909E+02 -0.36667525361E+02  0.20246733901E+02  0.47787265149E+02  0.19999973121E+02 0.  0.
        -12    1    1    2    0    0  0.11366007909E+02  0.36667525361E+02 -0.20246733901E+02  0.43400734851E+02  0.00000000000E+00 0.  1.
         11    1    3    3    0    0 -0.12803854635E+02 -0.26616329805E+02  0.78899315683E+01  0.30571534574E+02  0.51100000000E-03 0. -1.
        -11    1    3    3    0    0 -0.10276094321E+01 -0.92917056446E-01 -0.14671467241E+00  0.10421804933E+01  0.51100000000E-03 0.  1.
        -12    1    3    3    0    0  0.24654561576E+01 -0.99582784995E+01  0.12503517005E+02  0.16173550082E+02  0.00000000000E+00 0.  1.
</event>
<event>
 7    1  0.5022032E-011  0.4778727E+02  0.7816164E-02  0.1312668E+00
        -11   -1    0    0    0    0  0.00000000000E+00  0.00000000000E+00  0.45593999997E+02  0.45594000000E+02  0.51100000000E-03 0. -1.
         11   -1    0    0    0    0 -0.00000000000E+00 -0.00000000000E+00 -0.45593999997E+02  0.45594000000E+02  0.51100000000E-03 0.  1.
    9900012    2    1    2    0    0 -0.11815295455E+02  0.26137172952E+02 -0.32571004299E+02  0.47787270309E+02  0.19999996648E+02 0.  0.
         12    1    1    2    0    0  0.11815295455E+02 -0.26137172952E+02  0.32571004299E+02  0.43400729691E+02  0.00000000000E+00 0. -1.
         11    1    3    3    0    0 -0.18658302190E+00 -0.17301481958E+01 -0.76923678742E+00  0.19026170134E+01  0.51100000000E-03 0. -1.
        -11    1    3    3    0    0 -0.88523682119E+01  0.61035143234E+01 -0.13863978552E+02  0.17545005318E+02  0.51100000000E-03 0.  1.
        -12    1    3    3    0    0 -0.27763442209E+01  0.21763806825E+02 -0.17937788960E+02  0.28339647978E+02  0.00000000000E+00 0.  1.
</event>
<event>
 7    1  0.5022032E-011  0.4778727E+02  0.7816164E-02  0.1312668E+00
        -11   -1    0    0    0    0  0.00000000000E+00  0.00000000000E+00  0.45593999997E+02  0.45594000000E+02  0.51100000000E-03 0. -1.
         11   -1    0    0    0    0 -0.00000000000E+00 -0.00000000000E+00 -0.45593999997E+02  0.45594000000E+02  0.51100000000E-03 0.  1.
    9900012    2    1    2    0    0 -0.61966914505E+01  0.26064906073E+02 -0.34144473374E+02  0.47787269873E+02  0.19999994659E+02 0.  0.
         12    1    1    2    0    0  0.61966914505E+01 -0.26064906073E+02  0.34144473374E+02  0.43400730127E+02  0.00000000000E+00 0. -1.
         11    1    3    3    0    0 -0.23265262061E+01  0.64205264195E+01 -0.43755444557E+01  0.81105655313E+01  0.51100000000E-03 0. -1.
        -11    1    3    3    0    0 -0.13602589394E+01 -0.28402691066E+01 -0.15555138289E+01  0.35124146271E+01  0.51100000000E-03 0.  1.
        -12    1    3    3    0    0 -0.25099063050E+01  0.22484648760E+02 -0.28213415090E+02  0.36164289715E+02  0.00000000000E+00 0.  1.
</event>
<event>
 7    1  0.5022032E-011  0.4778727E+02  0.7816164E-02  0.1312668E+00
        -11   -1    0    0    0    0  0.00000000000E+00  0.00000000000E+00  0.45593999997E+02  0.45594000000E+02  0.51100000000E-03 0. -1.
         11   -1    0    0    0    0 -0.00000000000E+00 -0.00000000000E+00 -0.45593999997E+02  0.45594000000E+02  0.51100000000E-03 0.  1.
    9900012    2    1    2    0    0  0.99417292010E+01  0.49160911693E+01 -0.41959709406E+02  0.47787272526E+02  0.20000006753E+02 0.  0.
         12    1    1    2    0    0 -0.99417292010E+01 -0.49160911693E+01  0.41959709406E+02  0.43400727474E+02  0.00000000000E+00 0. -1.
         11    1    3    3    0    0  0.19147603369E+01  0.25462591835E+01 -0.21484399928E+01  0.38425951701E+01  0.51100000000E-03 0. -1.
        -11    1    3    3    0    0  0.12228446237E+01  0.56332445749E+01 -0.33824166219E+02  0.34311849471E+02  0.51100000000E-03 0.  1.
        -12    1    3    3    0    0  0.68041242404E+01 -0.32634125891E+01 -0.59871031935E+01  0.96328278846E+01  0.00000000000E+00 0.  1.
</event>
<event>
 7    1  0.5022032E-011  0.4778727E+02  0.7816164E-02  0.1312668E+00
        -11   -1    0    0    0    0  0.00000000000E+00  0.00000000000E+00  0.45593999997E+02  0.45594000000E+02  0.51100000000E-03 0. -1.
         11   -1    0    0    0    0 -0.00000000000E+00 -0.00000000000E+00 -0.45593999997E+02  0.45594000000E+02  0.51100000000E-03 0.  1.
    9900012    2    1    2    0    0  0.25101381145E+02  0.29007854364E+02  0.20299955215E+02  0.47787272680E+02  0.20000007457E+02 0.  0.
        -12    1    1    2    0    0 -0.25101381145E+02 -0.29007854364E+02 -0.20299955215E+02  0.43400727320E+02  0.00000000000E+00 0.  1.
         11    1    3    3    0    0  0.39435517473E+01  0.16031268220E+02  0.99519430247E+01  0.19276782183E+02  0.51100000000E-03 0. -1.
        -11    1    3    3    0    0  0.75817421606E+01  0.95019259054E+01  0.23698109599E+01  0.12384886529E+02  0.51100000000E-03 0.  1.
        -12    1    3    3    0    0  0.13576087237E+02  0.34746602391E+01  0.79782012301E+01  0.16125603967E+02  0.00000000000E+00 0.  1.
</event>
<event>
 7    1  0.5022032E-011  0.4778729E+02  0.7816164E-02  0.1312668E+00
        -11   -1    0    0    0    0  0.00000000000E+00  0.00000000000E+00  0.45593999997E+02  0.45594000000E+02  0.51100000000E-03 0. -1.
         11   -1    0    0    0    0 -0.00000000000E+00 -0.00000000000E+00 -0.45593999997E+02  0.45594000000E+02  0.51100000000E-03 0.  1.
    9900012    2    1    2    0    0  0.19311453301E+01 -0.26366359468E+02 -0.34419582902E+02  0.47787286630E+02  0.20000071060E+02 0.  0.
         12    1    1    2    0    0 -0.19311453301E+01  0.26366359468E+02  0.34419582902E+02  0.43400713370E+02  0.00000000000E+00 0. -1.
         11    1    3    3    0    0  0.52590553029E+01 -0.97999813131E+00 -0.91467051733E+01  0.10596238710E+02  0.51100000000E-03 0. -1.
        -11    1    3    3    0    0 -0.25469654203E+00  0.32555042542E+00  0.50511656801E+00  0.65268400962E+00  0.51100000000E-03 0.  1.
        -12    1    3    3    0    0 -0.30732134308E+01 -0.25711911762E+02 -0.25777994297E+02  0.36538363910E+02  0.00000000000E+00 0.  1.
</event>
<event>
 7    1  0.5022032E-011  0.4778727E+02  0.7816164E-02  0.1312668E+00
        -11   -1    0    0    0    0  0.00000000000E+00  0.00000000000E+00  0.45593999997E+02  0.45594000000E+02  0.51100000000E-03 0. -1.
         11   -1    0    0    0    0 -0.00000000000E+00 -0.00000000000E+00 -0.45593999997E+02  0.45594000000E+02  0.51100000000E-03 0.  1.
    9900012    2    1    2    0    0  0.68695951181E+01  0.75426353315E+01 -0.42184600668E+02  0.47787271684E+02  0.20000002915E+02 0.  0.
         12    1    1    2    0    0 -0.68695951181E+01 -0.75426353315E+01  0.42184600668E+02  0.43400728316E+02  0.00000000000E+00 0. -1.
         11    1    3    3    0    0  0.78788751499E+01 -0.41256305655E+01 -0.10898432694E+02  0.14066745773E+02  0.51100000000E-03 0. -1.
        -11    1    3    3    0    0  0.17382603443E+01  0.28013104078E+01 -0.82400503003E+01  0.88750953932E+01  0.51100000000E-03 0.  1.
         12    1    3    3    0    0 -0.27475403761E+01  0.88669554892E+01 -0.23046117674E+02  0.24845430518E+02  0.00000000000E+00 0. -1.
</event>
<event>
 7    1  0.5022032E-011  0.4778727E+02  0.7816164E-02  0.1312668E+00
        -11   -1    0    0    0    0  0.00000000000E+00  0.00000000000E+00  0.45593999997E+02  0.45594000000E+02  0.51100000000E-03 0.  1.
         11   -1    0    0    0    0 -0.00000000000E+00 -0.00000000000E+00 -0.45593999997E+02  0.45594000000E+02  0.51100000000E-03 0. -1.
    9900012    2    1    2    0    0  0.77773504733E+01  0.40846467632E+02  0.12437920230E+02  0.47787274683E+02  0.20000016590E+02 0.  0.
        -12    1    1    2    0    0 -0.77773504733E+01 -0.40846467632E+02 -0.12437920230E+02  0.43400725317E+02  0.00000000000E+00 0.  1.
         11    1    3    3    0    0 -0.54612853204E+01  0.21907456718E+02  0.87804416943E+01  0.24225161584E+02  0.51100000000E-03 0. -1.
        -11    1    3    3    0    0  0.21860953035E+01  0.16261491543E+01  0.18764779555E+00  0.27310411393E+01  0.51100000000E-03 0.  1.
         12    1    3    3    0    0  0.11052540490E+02  0.17312861760E+02  0.34698307402E+01  0.20831071959E+02  0.00000000000E+00 0. -1.
</event>
<event>
 7    1  0.5022032E-011  0.4778727E+02  0.7816164E-02  0.1312668E+00
        -11   -1    0    0    0    0  0.00000000000E+00  0.00000000000E+00  0.45593999997E+02  0.45594000000E+02  0.51100000000E-03 0. -1.
         11   -1    0    0    0    0 -0.00000000000E+00 -0.00000000000E+00 -0.45593999997E+02  0.45594000000E+02  0.51100000000E-03 0.  1.
    9900012    2    1    2    0    0 -0.17823807353E+02  0.84459833013E+01 -0.38660067472E+02  0.47787267755E+02  0.19999985000E+02 0.  0.
         12    1    1    2    0    0  0.17823807353E+02 -0.84459833013E+01  0.38660067472E+02  0.43400732245E+02  0.00000000000E+00 0. -1.
         11    1    3    3    0    0 -0.66301922506E+01  0.26371499101E+01 -0.53247941600E+01  0.89032264958E+01  0.51100000000E-03 0. -1.
        -11    1    3    3    0    0 -0.10762996586E+02  0.85625505861E+00 -0.90293939697E+01  0.14074985754E+02  0.51100000000E-03 0.  1.
         12    1    3    3    0    0 -0.43061851638E+00  0.49525783326E+01 -0.24305879343E+02  0.24809055505E+02  0.00000000000E+00 0. -1.
</event>
<event>
 7    1  0.5022032E-011  0.4778728E+02  0.7816164E-02  0.1312668E+00
        -11   -1    0    0    0    0  0.00000000000E+00  0.00000000000E+00  0.45593999997E+02  0.45594000000E+02  0.51100000000E-03 0. -1.
         11   -1    0    0    0    0 -0.00000000000E+00 -0.00000000000E+00 -0.45593999997E+02  0.45594000000E+02  0.51100000000E-03 0.  1.
    9900012    2    1    2    0    0  0.47052992622E+01 -0.14000341449E+02 -0.40810203977E+02  0.47787283987E+02  0.20000059010E+02 0.  0.
         12    1    1    2    0    0 -0.47052992622E+01  0.14000341449E+02  0.40810203977E+02  0.43400716013E+02  0.00000000000E+00 0. -1.
         11    1    3    3    0    0  0.31358741505E+01 -0.36799861729E+01 -0.36872533522E+01  0.60804475547E+01  0.51100000000E-03 0. -1.
        -11    1    3    3    0    0 -0.20531585541E+01 -0.12919013968E+02 -0.33495689180E+02  0.35959387868E+02  0.51100000000E-03 0.  1.
         12    1    3    3    0    0  0.36225836658E+01  0.25986586917E+01 -0.36272614447E+01  0.57474485643E+01  0.00000000000E+00 0. -1.
</event>
<event>
 7    1  0.5022032E-011  0.4778727E+02  0.7816164E-02  0.1312668E+00
        -11   -1    0    0    0    0  0.00000000000E+00  0.00000000000E+00  0.45593999997E+02  0.45594000000E+02  0.51100000000E-03 0. -1.
         11   -1    0    0    0    0 -0.00000000000E+00 -0.00000000000E+00 -0.45593999997E+02  0.45594000000E+02  0.51100000000E-03 0.  1.
    9900012    2    1    2    0    0  0.37115709669E+02  0.59068579266E+01  0.21706148154E+02  0.47787265646E+02  0.19999975388E+02 0.  0.
        -12    1    1    2    0    0 -0.37115709669E+02 -0.59068579266E+01 -0.21706148154E+02  0.43400734354E+02  0.00000000000E+00 0.  1.
         11    1    3    3    0    0  0.27084632296E+02  0.52689378374E+01  0.17922420696E+02  0.32902160665E+02  0.51100000000E-03 0. -1.
        -11    1    3    3    0    0  0.66563004475E+01  0.23562023516E+01  0.69806367010E+01  0.99291144712E+01  0.51100000000E-03 0.  1.
        -12    1    3    3    0    0  0.33747769249E+01 -0.17182822623E+01 -0.31969092436E+01  0.49559905102E+01  0.00000000000E+00 0.  1.
</event>
<event>
 7    1  0.5022032E-011  0.4778726E+02  0.7816164E-02  0.1312668E+00
        -11   -1    0    0    0    0  0.00000000000E+00  0.00000000000E+00  0.45593999997E+02  0.45594000000E+02  0.51100000000E-03 0. -1.
         11   -1    0    0    0    0 -0.00000000000E+00 -0.00000000000E+00 -0.45593999997E+02  0.45594000000E+02  0.51100000000E-03 0.  1.
    9900012    2    1    2    0    0 -0.73803492849E+01  0.30515244512E+02  0.29966224550E+02  0.47787259027E+02  0.19999945209E+02 0.  0.
        -12    1    1    2    0    0  0.73803492849E+01 -0.30515244512E+02 -0.29966224550E+02  0.43400740973E+02  0.00000000000E+00 0.  1.
         11    1    3    3    0    0  0.13824844850E+01  0.12357342669E+02  0.11875255991E+02  0.17194094518E+02  0.51100000000E-03 0. -1.
        -11    1    3    3    0    0 -0.13249326713E+01  0.15653638237E+02  0.74914894005E+01  0.17404431917E+02  0.51100000000E-03 0.  1.
         12    1    3    3    0    0 -0.74379010986E+01  0.25042636063E+01  0.10599479159E+02  0.13188732593E+02  0.00000000000E+00 0. -1.
</event>
<event>
 7    1  0.5022032E-011  0.4778727E+02  0.7816164E-02  0.1312668E+00
        -11   -1    0    0    0    0  0.00000000000E+00  0.00000000000E+00  0.45593999997E+02  0.45594000000E+02  0.51100000000E-03 0. -1.
         11   -1    0    0    0    0 -0.00000000000E+00 -0.00000000000E+00 -0.45593999997E+02  0.45594000000E+02  0.51100000000E-03 0.  1.
    9900012    2    1    2    0    0 -0.12056987693E+02 -0.47098248342E+01  0.41425476319E+02  0.47787268549E+02  0.19999988623E+02 0.  0.
        -12    1    1    2    0    0  0.12056987693E+02  0.47098248342E+01 -0.41425476319E+02  0.43400731451E+02  0.00000000000E+00 0.  1.
         11    1    3    3    0    0 -0.10680261112E+02 -0.35672530070E+01  0.14002987679E+02  0.17968776687E+02  0.51100000000E-03 0. -1.
        -11    1    3    3    0    0 -0.63538839291E+01  0.66462274169E+00  0.13972854499E+02  0.15364056349E+02  0.51100000000E-03 0.  1.
        -12    1    3    3    0    0  0.49771573479E+01 -0.18071945689E+01  0.13449634141E+02  0.14454435513E+02  0.00000000000E+00 0.  1.
</event>
<event>
 7    1  0.5022032E-011  0.4778727E+02  0.7816164E-02  0.1312668E+00
        -11   -1    0    0    0    0  0.00000000000E+00  0.00000000000E+00  0.45593999997E+02  0.45594000000E+02  0.51100000000E-03 0. -1.
         11   -1    0    0    0    0 -0.00000000000E+00 -0.00000000000E+00 -0.45593999997E+02  0.45594000000E+02  0.51100000000E-03 0.  1.
    9900012    2    1    2    0    0  0.16062278554E+02 -0.38463878112E+02 -0.12089539805E+02  0.47787266314E+02  0.19999978432E+02 0.  0.
         12    1    1    2    0    0 -0.16062278554E+02  0.38463878112E+02  0.12089539805E+02  0.43400733686E+02  0.00000000000E+00 0. -1.
         11    1    3    3    0    0 -0.32596308705E+01 -0.75263851187E+01 -0.25704780744E+01  0.85952908130E+01  0.51100000000E-03 0. -1.
        -11    1    3    3    0    0  0.16406707464E+02 -0.30759099871E+02 -0.75494941695E+01  0.35669274413E+02  0.51100000000E-03 0.  1.
         12    1    3    3    0    0  0.29152019610E+01 -0.17839312262E+00 -0.19695675610E+01  0.35227010882E+01  0.00000000000E+00 0. -1.
</event>
<event>
 7    1  0.5096253E-011  0.4778727E+02  0.7816164E-02  0.1312668E+00
        -11   -1    0    0    0    0  0.00000000000E+00  0.00000000000E+00  0.45593999997E+02  0.45594000000E+02  0.51100000000E-03 0.  1.
         11   -1    0    0    0    0 -0.00000000000E+00 -0.00000000000E+00 -0.45593999997E+02  0.45594000000E+02  0.51100000000E-03 0. -1.
    9900012    2    1    2    0    0 -0.40164814578E+02 -0.79566598694E+01 -0.14391054324E+02  0.47787271770E+02  0.20000003306E+02 0.  0.
         12    1    1    2    0    0  0.40164814578E+02  0.79566598694E+01  0.14391054324E+02  0.43400728230E+02  0.00000000000E+00 0. -1.
         11    1    3    3    0    0 -0.17017695432E+01 -0.39325963590E+01 -0.50189976512E+01  0.65993690141E+01  0.51100000000E-03 0. -1.
        -11    1    3    3    0    0 -0.46347530811E+01 -0.25026261597E+01 -0.45955073083E+01  0.69901903765E+01  0.51100000000E-03 0.  1.
        -12    1    3    3    0    0 -0.33828291954E+02 -0.15214373507E+01 -0.47765493644E+01  0.34197712379E+02  0.00000000000E+00 0.  1.
</event>
<event>
 7    1  0.5022032E-011  0.4778727E+02  0.7816164E-02  0.1312668E+00
        -11   -1    0    0    0    0  0.00000000000E+00  0.00000000000E+00  0.45593999997E+02  0.45594000000E+02  0.51100000000E-03 0. -1.
         11   -1    0    0    0    0 -0.00000000000E+00 -0.00000000000E+00 -0.45593999997E+02  0.45594000000E+02  0.51100000000E-03 0.  1.
    9900012    2    1    2    0    0 -0.29017268641E+02 -0.98650792306E+01 -0.30729492896E+02  0.47787269577E+02  0.19999993309E+02 0.  0.
         12    1    1    2    0    0  0.29017268641E+02  0.98650792306E+01  0.30729492896E+02  0.43400730423E+02  0.00000000000E+00 0. -1.
         11    1    3    3    0    0 -0.77982291138E+01 -0.33767326788E+01  0.11651486156E+01  0.85774280792E+01  0.51100000000E-03 0. -1.
        -11    1    3    3    0    0 -0.69847208923E+01 -0.39594417943E+01 -0.83731070369E+01  0.11600535633E+02  0.51100000000E-03 0.  1.
         12    1    3    3    0    0 -0.14234318635E+02 -0.25289047575E+01 -0.23521534475E+02  0.27609305865E+02  0.00000000000E+00 0. -1.
</event>
<event>
 7    1  0.5022032E-011  0.4778728E+02  0.7816164E-02  0.1312668E+00
        -11   -1    0    0    0    0  0.00000000000E+00  0.00000000000E+00  0.45593999997E+02  0.45594000000E+02  0.51100000000E-03 0. -1.
         11   -1    0    0    0    0 -0.00000000000E+00 -0.00000000000E+00 -0.45593999997E+02  0.45594000000E+02  0.51100000000E-03 0.  1.
    9900012    2    1    2    0    0  0.43842653359E+01 -0.25170429179E+02  0.35083480997E+02  0.47787275047E+02  0.20000018249E+02 0.  0.
        -12    1    1    2    0    0 -0.43842653359E+01  0.25170429179E+02 -0.35083480997E+02  0.43400724953E+02  0.00000000000E+00 0.  1.
         11    1    3    3    0    0  0.11872156937E+01 -0.17708784480E+02  0.19101575776E+02  0.26074522551E+02  0.51100000000E-03 0. -1.
        -11    1    3    3    0    0 -0.46529295898E+01 -0.36673977628E+01  0.73930765194E+01  0.94740245303E+01  0.51100000000E-03 0.  1.
        -12    1    3    3    0    0  0.78499792321E+01 -0.37942469361E+01  0.85888287012E+01  0.12238727966E+02  0.00000000000E+00 0.  1.
</event>
<event>
 7    1  0.5022032E-011  0.4778727E+02  0.7816164E-02  0.1312668E+00
        -11   -1    0    0    0    0  0.00000000000E+00  0.00000000000E+00  0.45593999997E+02  0.45594000000E+02  0.51100000000E-03 0. -1.
         11   -1    0    0    0    0 -0.00000000000E+00 -0.00000000000E+00 -0.45593999997E+02  0.45594000000E+02  0.51100000000E-03 0.  1.
    9900012    2    1    2    0    0  0.31714795436E+02 -0.58589973569E+01 -0.29042506363E+02  0.47787271026E+02  0.19999999918E+02 0.  0.
         12    1    1    2    0    0 -0.31714795436E+02  0.58589973569E+01  0.29042506363E+02  0.43400728974E+02  0.00000000000E+00 0. -1.
         11    1    3    3    0    0  0.18709594906E+01 -0.31600253282E+01 -0.13036350491E+02  0.13543732273E+02  0.51100000000E-03 0. -1.
        -11    1    3    3    0    0  0.49742170287E+01  0.87794465150E+00 -0.16938265364E+01  0.53275388742E+01  0.51100000000E-03 0.  1.
         12    1    3    3    0    0  0.24869618917E+02 -0.35769166802E+01 -0.14312329336E+02  0.28915999879E+02  0.00000000000E+00 0. -1.
</event>
<event>
 7    1  0.5022032E-011  0.4778727E+02  0.7816164E-02  0.1312668E+00
        -11   -1    0    0    0    0  0.00000000000E+00  0.00000000000E+00  0.45593999997E+02  0.45594000000E+02  0.51100000000E-03 0. -1.
         11   -1    0    0    0    0 -0.00000000000E+00 -0.00000000000E+00 -0.45593999997E+02  0.45594000000E+02  0.51100000000E-03 0.  1.
    9900012    2    1    2    0    0 -0.54020013657E+00 -0.41653195847E+02 -0.12179601855E+02  0.47787271414E+02  0.20000001683E+02 0.  0.
         12    1    1    2    0    0  0.54020013657E+00  0.41653195847E+02  0.12179601855E+02  0.43400728586E+02  0.00000000000E+00 0. -1.
         11    1    3    3    0    0  0.62173830494E+00 -0.31491918225E+02 -0.76808977039E+01  0.32421037334E+02  0.51100000000E-03 0.  1.
        -11    1    3    3    0    0 -0.18090141291E+01 -0.10245544983E+02 -0.71576630387E+01  0.12628375373E+02  0.51100000000E-03 0. -1.
         12    1    3    3    0    0  0.64707568755E+00  0.84267360205E-01  0.26589588878E+01  0.27378587072E+01  0.00000000000E+00 0. -1.
</event>
<event>
 7    1  0.5022032E-011  0.4778727E+02  0.7816164E-02  0.1312668E+00
        -11   -1    0    0    0    0  0.00000000000E+00  0.00000000000E+00  0.45593999997E+02  0.45594000000E+02  0.51100000000E-03 0. -1.
         11   -1    0    0    0    0 -0.00000000000E+00 -0.00000000000E+00 -0.45593999997E+02  0.45594000000E+02  0.51100000000E-03 0.  1.
    9900012    2    1    2    0    0 -0.25651272364E+02 -0.20329151154E+02  0.28501946900E+02  0.47787272614E+02  0.20000007158E+02 0.  0.
        -12    1    1    2    0    0  0.25651272364E+02  0.20329151154E+02 -0.28501946900E+02  0.43400727386E+02  0.00000000000E+00 0.  1.
         11    1    3    3    0    0 -0.14798992444E+01 -0.40748790383E+01  0.39322268769E+01  0.58529607399E+01  0.51100000000E-03 0.  1.
        -11    1    3    3    0    0 -0.11892677511E+02 -0.11632992273E+02  0.33251232282E+01  0.16965221258E+02  0.51100000000E-03 0. -1.
         12    1    3    3    0    0 -0.12278695609E+02 -0.46212798427E+01  0.21244596794E+02  0.24969090616E+02  0.00000000000E+00 0. -1.
</event>
<event>
 7    1  0.5022032E-011  0.4778727E+02  0.7816164E-02  0.1312668E+00
        -11   -1    0    0    0    0  0.00000000000E+00  0.00000000000E+00  0.45593999997E+02  0.45594000000E+02  0.51100000000E-03 0. -1.
         11   -1    0    0    0    0 -0.00000000000E+00 -0.00000000000E+00 -0.45593999997E+02  0.45594000000E+02  0.51100000000E-03 0.  1.
    9900012    2    1    2    0    0  0.24067784760E+02 -0.20678113418E+02 -0.29610480494E+02  0.47787271978E+02  0.20000004255E+02 0.  0.
         12    1    1    2    0    0 -0.24067784760E+02  0.20678113418E+02  0.29610480494E+02  0.43400728022E+02  0.00000000000E+00 0. -1.
         11    1    3    3    0    0 -0.97269946572E+00 -0.72580081473E+01 -0.79018896736E+01  0.10773332223E+02  0.51100000000E-03 0. -1.
        -11    1    3    3    0    0  0.91306018836E+01 -0.51162420859E+01 -0.14005119137E+02  0.17483912209E+02  0.51100000000E-03 0.  1.
        -12    1    3    3    0    0  0.15909882342E+02 -0.83038631845E+01 -0.77034716836E+01  0.19530027545E+02  0.00000000000E+00 0.  1.
</event>
<event>
 7    1  0.5022032E-011  0.4778727E+02  0.7816164E-02  0.1312668E+00
        -11   -1    0    0    0    0  0.00000000000E+00  0.00000000000E+00  0.45593999997E+02  0.45594000000E+02  0.51100000000E-03 0. -1.
         11   -1    0    0    0    0 -0.00000000000E+00 -0.00000000000E+00 -0.45593999997E+02  0.45594000000E+02  0.51100000000E-03 0.  1.
    9900012    2    1    2    0    0  0.11591021993E+02  0.15988788586E+02  0.38647513357E+02  0.47787269131E+02  0.19999991276E+02 0.  0.
        -12    1    1    2    0    0 -0.11591021993E+02 -0.15988788586E+02 -0.38647513357E+02  0.43400730869E+02  0.00000000000E+00 0.  1.
         11    1    3    3    0    0  0.19561574942E+01  0.53638789022E+01  0.36772087587E+01  0.67911422850E+01  0.51100000000E-03 0. -1.
        -11    1    3    3    0    0  0.35102945251E+01 -0.40350410221E+01  0.67636671017E+01  0.86226977581E+01  0.51100000000E-03 0.  1.
        -12    1    3    3    0    0  0.61245699738E+01  0.14659950706E+02  0.28206637496E+02  0.32373429088E+02  0.00000000000E+00 0.  1.
</event>
<event>
 7    1  0.5022032E-011  0.4778727E+02  0.7816164E-02  0.1312668E+00
        -11   -1    0    0    0    0  0.00000000000E+00  0.00000000000E+00  0.45593999997E+02  0.45594000000E+02  0.51100000000E-03 0. -1.
         11   -1    0    0    0    0 -0.00000000000E+00 -0.00000000000E+00 -0.45593999997E+02  0.45594000000E+02  0.51100000000E-03 0.  1.
    9900012    2    1    2    0    0  0.27006501631E+02  0.14975373538E+01  0.33941558792E+02  0.47787272337E+02  0.20000005892E+02 0.  0.
        -12    1    1    2    0    0 -0.27006501631E+02 -0.14975373538E+01 -0.33941558792E+02  0.43400727663E+02  0.00000000000E+00 0.  1.
         11    1    3    3    0    0  0.69115789916E+01  0.65097848331E+01  0.70736060603E+01  0.11839895510E+02  0.51100000000E-03 0. -1.
        -11    1    3    3    0    0  0.17992755593E+01 -0.11968149127E+01 -0.10093070295E+01  0.23850491430E+01  0.51100000000E-03 0.  1.
         12    1    3    3    0    0  0.18295647080E+02 -0.38154325667E+01  0.27877259761E+02  0.33562327684E+02  0.00000000000E+00 0. -1.
</event>
<event>
 7    1  0.5022032E-011  0.4778728E+02  0.7816164E-02  0.1312668E+00
        -11   -1    0    0    0    0  0.00000000000E+00  0.00000000000E+00  0.45593999997E+02  0.45594000000E+02  0.51100000000E-03 0. -1.
         11   -1    0    0    0    0 -0.00000000000E+00 -0.00000000000E+00 -0.45593999997E+02  0.45594000000E+02  0.51100000000E-03 0.  1.
    9900012    2    1    2    0    0 -0.25479481569E+00  0.21845164028E+01 -0.43344961730E+02  0.47787277198E+02  0.20000028057E+02 0.  0.
         12    1    1    2    0    0  0.25479481569E+00 -0.21845164028E+01  0.43344961730E+02  0.43400722802E+02  0.00000000000E+00 0. -1.
         11    1    3    3    0    0  0.55360966588E+00 -0.61127268651E+01 -0.43814349831E+01  0.75411462101E+01  0.51100000000E-03 0. -1.
        -11    1    3    3    0    0  0.56909191765E+00  0.25927751961E+01 -0.40470526178E+01  0.48399363612E+01  0.51100000000E-03 0.  1.
        -12    1    3    3    0    0 -0.13774963992E+01  0.57044680718E+01 -0.34916474130E+02  0.35406194627E+02  0.00000000000E+00 0.  1.
</event>
<event>
 7    1  0.5022032E-011  0.4778727E+02  0.7816164E-02  0.1312668E+00
        -11   -1    0    0    0    0  0.00000000000E+00  0.00000000000E+00  0.45593999997E+02  0.45594000000E+02  0.51100000000E-03 0. -1.
         11   -1    0    0    0    0 -0.00000000000E+00 -0.00000000000E+00 -0.45593999997E+02  0.45594000000E+02  0.51100000000E-03 0.  1.
    9900012    2    1    2    0    0  0.15703998529E+02 -0.29305985591E+02 -0.27895644302E+02  0.47787270372E+02  0.19999996933E+02 0.  0.
         12    1    1    2    0    0 -0.15703998529E+02  0.29305985591E+02  0.27895644302E+02  0.43400729628E+02  0.00000000000E+00 0. -1.
         11    1    3    3    0    0  0.56987282330E+00 -0.77354890821E+01 -0.45765728389E+01  0.90059738832E+01  0.51100000000E-03 0. -1.
        -11    1    3    3    0    0  0.13976549272E+02 -0.11799991647E+02 -0.67230684879E+01  0.19488031778E+02  0.51100000000E-03 0.  1.
        -12    1    3    3    0    0  0.11575764338E+01 -0.97705048624E+01 -0.16596002975E+02  0.19293264711E+02  0.00000000000E+00 0.  1.
</event>
<event>
 7    1  0.5022032E-011  0.4778729E+02  0.7816164E-02  0.1312668E+00
        -11   -1    0    0    0    0  0.00000000000E+00  0.00000000000E+00  0.45593999997E+02  0.45594000000E+02  0.51100000000E-03 0. -1.
         11   -1    0    0    0    0 -0.00000000000E+00 -0.00000000000E+00 -0.45593999997E+02  0.45594000000E+02  0.51100000000E-03 0.  1.
    9900012    2    1    2    0    0  0.27848654983E+02 -0.16268293067E+02  0.29041637540E+02  0.47787289698E+02  0.20000085051E+02 0.  0.
        -12    1    1    2    0    0 -0.27848654983E+02  0.16268293067E+02 -0.29041637540E+02  0.43400710302E+02  0.00000000000E+00 0.  1.
         11    1    3    3    0    0  0.92768962968E+01  0.15457188149E+01  0.10395742311E+02  0.14018612984E+02  0.51100000000E-03 0. -1.
        -11    1    3    3    0    0 -0.40038925832E-01 -0.51621519396E+01  0.12163982652E+01  0.53036818120E+01  0.51100000000E-03 0.  1.
         12    1    3    3    0    0  0.18611797612E+02 -0.12651859943E+02  0.17429496964E+02  0.28464994902E+02  0.00000000000E+00 0. -1.
</event>
<event>
 7    1  0.5022032E-011  0.4778727E+02  0.7816164E-02  0.1312668E+00
        -11   -1    0    0    0    0  0.00000000000E+00  0.00000000000E+00  0.45593999997E+02  0.45594000000E+02  0.51100000000E-03 0. -1.
         11   -1    0    0    0    0 -0.00000000000E+00 -0.00000000000E+00 -0.45593999997E+02  0.45594000000E+02  0.51100000000E-03 0.  1.
    9900012    2    1    2    0    0  0.39072197639E+02  0.13221419353E+02  0.13497430563E+02  0.47787272012E+02  0.20000004413E+02 0.  0.
        -12    1    1    2    0    0 -0.39072197639E+02 -0.13221419353E+02 -0.13497430563E+02  0.43400727988E+02  0.00000000000E+00 0.  1.
         11    1    3    3    0    0  0.30958519302E+02  0.60216288438E+01  0.13010010333E+02  0.34116715851E+02  0.51100000000E-03 0. -1.
        -11    1    3    3    0    0  0.65323885605E+01  0.25608656547E+00  0.90761941618E-01  0.65380362974E+01  0.51100000000E-03 0.  1.
        -12    1    3    3    0    0  0.15812897763E+01  0.69437039439E+01  0.39665828842E+00  0.71325198643E+01  0.00000000000E+00 0.  1.
</event>
<event>
 7    1  0.5022032E-011  0.4778733E+02  0.7816164E-02  0.1312667E+00
        -11   -1    0    0    0    0  0.00000000000E+00  0.00000000000E+00  0.45593999997E+02  0.45594000000E+02  0.51100000000E-03 0. -1.
         11   -1    0    0    0    0 -0.00000000000E+00 -0.00000000000E+00 -0.45593999997E+02  0.45594000000E+02  0.51100000000E-03 0.  1.
    9900012    2    1    2    0    0 -0.11903306857E+02  0.34777152372E+02 -0.23075502755E+02  0.47787333316E+02  0.20000283918E+02 0.  0.
         12    1    1    2    0    0  0.11903306857E+02 -0.34777152372E+02  0.23075502755E+02  0.43400666684E+02  0.00000000000E+00 0. -1.
         11    1    3    3    0    0 -0.10249641286E+01  0.13445433220E+02 -0.67662539899E+01  0.15086829331E+02  0.51100000000E-03 0. -1.
        -11    1    3    3    0    0 -0.50764018904E+01  0.20840683518E+02 -0.87677716065E+01  0.23172780689E+02  0.51100000000E-03 0.  1.
         12    1    3    3    0    0 -0.58019408381E+01  0.49103563457E+00 -0.75414771582E+01  0.95277232963E+01  0.00000000000E+00 0. -1.
</event>
<event>
 7    1  0.5022032E-011  0.4778727E+02  0.7816164E-02  0.1312668E+00
        -11   -1    0    0    0    0  0.00000000000E+00  0.00000000000E+00  0.45593999997E+02  0.45594000000E+02  0.51100000000E-03 0. -1.
         11   -1    0    0    0    0 -0.00000000000E+00 -0.00000000000E+00 -0.45593999997E+02  0.45594000000E+02  0.51100000000E-03 0.  1.
    9900012    2    1    2    0    0  0.16929546140E+02 -0.39425459182E+01 -0.39767701204E+02  0.47787271206E+02  0.20000000736E+02 0.  0.
         12    1    1    2    0    0 -0.16929546140E+02  0.39425459182E+01  0.39767701204E+02  0.43400728794E+02  0.00000000000E+00 0. -1.
         11    1    3    3    0    0 -0.10865347571E+01  0.11396023955E-01 -0.89569802492E+01  0.90226483414E+01  0.51100000000E-03 0. -1.
        -11    1    3    3    0    0  0.37352703458E+01  0.74688213422E+00 -0.19713266153E+02  0.20077921709E+02  0.51100000000E-03 0.  1.
        -12    1    3    3    0    0  0.14280810551E+02 -0.47008240764E+01 -0.11097454802E+02  0.18686701155E+02  0.00000000000E+00 0.  1.
</event>
<event>
 7    1  0.5022032E-011  0.4778731E+02  0.7816164E-02  0.1312668E+00
        -11   -1    0    0    0    0  0.00000000000E+00  0.00000000000E+00  0.45593999997E+02  0.45594000000E+02  0.51100000000E-03 0. -1.
         11   -1    0    0    0    0 -0.00000000000E+00 -0.00000000000E+00 -0.45593999997E+02  0.45594000000E+02  0.51100000000E-03 0.  1.
    9900012    2    1    2    0    0  0.80928733475E+01  0.30216855239E+02 -0.30084331033E+02  0.47787309760E+02  0.20000176520E+02 0.  0.
         12    1    1    2    0    0 -0.80928733475E+01 -0.30216855239E+02  0.30084331033E+02  0.43400690240E+02  0.00000000000E+00 0. -1.
         11    1    3    3    0    0  0.39494994843E+01  0.24723727654E+01 -0.18378300782E+01  0.50088714223E+01  0.51100000000E-03 0. -1.
        -11    1    3    3    0    0  0.83880286587E+01  0.13301523501E+02 -0.20534621326E+02  0.25864265415E+02  0.51100000000E-03 0.  1.
        -12    1    3    3    0    0 -0.42446547955E+01  0.14442958973E+02 -0.77118796295E+01  0.16914172923E+02  0.00000000000E+00 0.  1.
</event>
<event>
 7    1  0.5022032E-011  0.4778727E+02  0.7816164E-02  0.1312668E+00
        -11   -1    0    0    0    0  0.00000000000E+00  0.00000000000E+00  0.45593999997E+02  0.45594000000E+02  0.51100000000E-03 0. -1.
         11   -1    0    0    0    0 -0.00000000000E+00 -0.00000000000E+00 -0.45593999997E+02  0.45594000000E+02  0.51100000000E-03 0.  1.
    9900012    2    1    2    0    0 -0.25391433363E+02 -0.17555934093E+02  0.30507173452E+02  0.47787270258E+02  0.19999996414E+02 0.  0.
        -12    1    1    2    0    0  0.25391433363E+02  0.17555934093E+02 -0.30507173452E+02  0.43400729742E+02  0.00000000000E+00 0.  1.
         11    1    3    3    0    0 -0.18210346818E+02 -0.61135981589E+01  0.76138644658E+01  0.20663101075E+02  0.51100000000E-03 0. -1.
        -11    1    3    3    0    0 -0.70309100645E+01 -0.69575393616E+01  0.17559552880E+02  0.20153881708E+02  0.51100000000E-03 0.  1.
        -12    1    3    3    0    0 -0.15017647995E+00 -0.44847965726E+01  0.53337561064E+01  0.69702874743E+01  0.00000000000E+00 0.  1.
</event>
<event>
 7    1  0.5022032E-011  0.4778727E+02  0.7816164E-02  0.1312668E+00
        -11   -1    0    0    0    0  0.00000000000E+00  0.00000000000E+00  0.45593999997E+02  0.45594000000E+02  0.51100000000E-03 0. -1.
         11   -1    0    0    0    0 -0.00000000000E+00 -0.00000000000E+00 -0.45593999997E+02  0.45594000000E+02  0.51100000000E-03 0.  1.
    9900012    2    1    2    0    0 -0.38674153099E+01 -0.25830114951E+02 -0.34662246109E+02  0.47787273682E+02  0.20000012026E+02 0.  0.
         12    1    1    2    0    0  0.38674153099E+01  0.25830114951E+02  0.34662246109E+02  0.43400726318E+02  0.00000000000E+00 0. -1.
         11    1    3    3    0    0 -0.19716325216E+01 -0.28645890167E+01  0.18703785784E+01  0.39486100494E+01  0.51100000000E-03 0. -1.
        -11    1    3    3    0    0 -0.27874414650E+00 -0.17427095778E+01 -0.82793590710E+01  0.84653719268E+01  0.51100000000E-03 0.  1.
        -12    1    3    3    0    0 -0.16170386418E+01 -0.21222816357E+02 -0.28253265617E+02  0.35373291706E+02  0.00000000000E+00 0.  1.
</event>
<event>
 7    1  0.5022032E-011  0.4778727E+02  0.7816164E-02  0.1312668E+00
        -11   -1    0    0    0    0  0.00000000000E+00  0.00000000000E+00  0.45593999997E+02  0.45594000000E+02  0.51100000000E-03 0.  1.
         11   -1    0    0    0    0 -0.00000000000E+00 -0.00000000000E+00 -0.45593999997E+02  0.45594000000E+02  0.51100000000E-03 0. -1.
    9900012    2    1    2    0    0 -0.29415491823E+01  0.34335331042E+02  0.26382863325E+02  0.47787272511E+02  0.20000006685E+02 0.  0.
        -12    1    1    2    0    0  0.29415491823E+01 -0.34335331042E+02 -0.26382863325E+02  0.43400727489E+02  0.00000000000E+00 0.  1.
         11    1    3    3    0    0 -0.59969080459E+00 -0.62425073466E+00  0.46488890954E+00  0.98256806389E+00  0.51100000000E-03 0. -1.
        -11    1    3    3    0    0 -0.87036237489E+01  0.12558728517E+02  0.13625731027E+02  0.20472793522E+02  0.51100000000E-03 0.  1.
         12    1    3    3    0    0  0.63617653711E+01  0.22400853260E+02  0.12292243389E+02  0.26331910925E+02  0.00000000000E+00 0. -1.
</event>
<event>
 7    1  0.5022032E-011  0.4778729E+02  0.7816164E-02  0.1312668E+00
        -11   -1    0    0    0    0  0.00000000000E+00  0.00000000000E+00  0.45593999997E+02  0.45594000000E+02  0.51100000000E-03 0. -1.
         11   -1    0    0    0    0 -0.00000000000E+00 -0.00000000000E+00 -0.45593999997E+02  0.45594000000E+02  0.51100000000E-03 0.  1.
    9900012    2    1    2    0    0  0.37928932332E+01  0.39679584906E+02  0.17168747444E+02  0.47787292792E+02  0.20000099154E+02 0.  0.
        -12    1    1    2    0    0 -0.37928932332E+01 -0.39679584906E+02 -0.17168747444E+02  0.43400707208E+02  0.00000000000E+00 0.  1.
         11    1    3    3    0    0 -0.19093243327E+01  0.10532056774E+02 -0.19326236665E+01  0.10876799795E+02  0.51100000000E-03 0.  1.
        -11    1    3    3    0    0 -0.15026624079E+01  0.19251191603E+02  0.12502906901E+02  0.23004109496E+02  0.51100000000E-03 0. -1.
         12    1    3    3    0    0  0.72048799738E+01  0.98963365294E+01  0.65984642096E+01  0.13906383501E+02  0.00000000000E+00 0. -1.
</event>
<event>
 7    1  0.5022032E-011  0.4778727E+02  0.7816164E-02  0.1312668E+00
        -11   -1    0    0    0    0  0.00000000000E+00  0.00000000000E+00  0.45593999997E+02  0.45594000000E+02  0.51100000000E-03 0. -1.
         11   -1    0    0    0    0 -0.00000000000E+00 -0.00000000000E+00 -0.45593999997E+02  0.45594000000E+02  0.51100000000E-03 0.  1.
    9900012    2    1    2    0    0 -0.11652133657E+02  0.65953457981E+01 -0.41283801962E+02  0.47787272940E+02  0.20000008640E+02 0.  0.
         12    1    1    2    0    0  0.11652133657E+02 -0.65953457981E+01  0.41283801962E+02  0.43400727060E+02  0.00000000000E+00 0. -1.
         11    1    3    3    0    0 -0.16569242128E+01  0.29483534544E+01  0.38301272979E+00  0.34036575843E+01  0.51100000000E-03 0. -1.
        -11    1    3    3    0    0 -0.57561537323E+01 -0.22756010921E+01 -0.90547188054E+01  0.10968117387E+02  0.51100000000E-03 0.  1.
         12    1    3    3    0    0 -0.42390557116E+01  0.59225934359E+01 -0.32612095886E+02  0.33415497968E+02  0.00000000000E+00 0. -1.
</event>
<event>
 7    1  0.5022032E-011  0.4778727E+02  0.7816164E-02  0.1312668E+00
        -11   -1    0    0    0    0  0.00000000000E+00  0.00000000000E+00  0.45593999997E+02  0.45594000000E+02  0.51100000000E-03 0. -1.
         11   -1    0    0    0    0 -0.00000000000E+00 -0.00000000000E+00 -0.45593999997E+02  0.45594000000E+02  0.51100000000E-03 0.  1.
    9900012    2    1    2    0    0  0.21549953533E+02  0.57859064729E+01  0.37225606243E+02  0.47787274533E+02  0.20000015904E+02 0.  0.
        -12    1    1    2    0    0 -0.21549953533E+02 -0.57859064729E+01 -0.37225606243E+02  0.43400725467E+02  0.00000000000E+00 0.  1.
         11    1    3    3    0    0  0.39064267315E+01  0.38866704955E+01  0.21953267973E+01  0.59317651132E+01  0.51100000000E-03 0. -1.
        -11    1    3    3    0    0  0.14268231401E+02  0.33195532610E+01  0.13196380747E+02  0.19716650989E+02  0.51100000000E-03 0.  1.
        -12    1    3    3    0    0  0.33752954005E+01 -0.14203172837E+01  0.21833898698E+02  0.22138858430E+02  0.00000000000E+00 0.  1.
</event>
<event>
 7    1  0.5022032E-011  0.4778727E+02  0.7816164E-02  0.1312668E+00
        -11   -1    0    0    0    0  0.00000000000E+00  0.00000000000E+00  0.45593999997E+02  0.45594000000E+02  0.51100000000E-03 0. -1.
         11   -1    0    0    0    0 -0.00000000000E+00 -0.00000000000E+00 -0.45593999997E+02  0.45594000000E+02  0.51100000000E-03 0.  1.
    9900012    2    1    2    0    0  0.30713511018E+02 -0.23623876469E+02  0.19550349522E+02  0.47787268843E+02  0.19999989965E+02 0.  0.
        -12    1    1    2    0    0 -0.30713511018E+02  0.23623876469E+02 -0.19550349522E+02  0.43400731157E+02  0.00000000000E+00 0.  1.
         11    1    3    3    0    0  0.43624229849E+01 -0.34247388510E+01  0.88557076145E+01  0.10449073074E+02  0.51100000000E-03 0. -1.
        -11    1    3    3    0    0  0.24287990323E+01 -0.51983083311E+01  0.66990904352E+01  0.88203904201E+01  0.51100000000E-03 0.  1.
         12    1    3    3    0    0  0.23922289001E+02 -0.15000829287E+02  0.39955514720E+01  0.28517805349E+02  0.00000000000E+00 0. -1.
</event>
<event>
 7    1  0.5022032E-011  0.4778728E+02  0.7816164E-02  0.1312668E+00
        -11   -1    0    0    0    0  0.00000000000E+00  0.00000000000E+00  0.45593999997E+02  0.45594000000E+02  0.51100000000E-03 0. -1.
         11   -1    0    0    0    0 -0.00000000000E+00 -0.00000000000E+00 -0.45593999997E+02  0.45594000000E+02  0.51100000000E-03 0.  1.
    9900012    2    1    2    0    0 -0.23211739261E+02 -0.49107736732E+01  0.36341743435E+02  0.47787275888E+02  0.20000022081E+02 0.  0.
        -12    1    1    2    0    0  0.23211739261E+02  0.49107736732E+01 -0.36341743435E+02  0.43400724112E+02  0.00000000000E+00 0.  1.
         11    1    3    3    0    0 -0.61395063249E+01  0.15260980874E+01  0.19590311158E+02  0.20586471403E+02  0.51100000000E-03 0. -1.
        -11    1    3    3    0    0 -0.91996841649E+01  0.10363965094E+01  0.12472847213E+02  0.15533197492E+02  0.51100000000E-03 0.  1.
        -12    1    3    3    0    0 -0.78725487712E+01 -0.74732682699E+01  0.42785850638E+01  0.11667606993E+02  0.00000000000E+00 0.  1.
</event>
<event>
 7    1  0.5022032E-011  0.4778727E+02  0.7816164E-02  0.1312668E+00
        -11   -1    0    0    0    0  0.00000000000E+00  0.00000000000E+00  0.45593999997E+02  0.45594000000E+02  0.51100000000E-03 0. -1.
         11   -1    0    0    0    0 -0.00000000000E+00 -0.00000000000E+00 -0.45593999997E+02  0.45594000000E+02  0.51100000000E-03 0.  1.
    9900012    2    1    2    0    0 -0.20487764450E+01  0.32083816718E+02  0.29155694301E+02  0.47787270855E+02  0.19999999138E+02 0.  0.
        -12    1    1    2    0    0  0.20487764450E+01 -0.32083816718E+02 -0.29155694301E+02  0.43400729145E+02  0.00000000000E+00 0.  1.
         11    1    3    3    0    0  0.91574698659E+00  0.11934831954E+02  0.22116649543E+02  0.25148061428E+02  0.51100000000E-03 0. -1.
        -11    1    3    3    0    0  0.10176871489E+01  0.15915056252E+01  0.24833323258E+01  0.31201789996E+01  0.51100000000E-03 0.  1.
        -12    1    3    3    0    0 -0.39822105805E+01  0.18557479138E+02  0.45557124325E+01  0.19519030428E+02  0.00000000000E+00 0.  1.
</event>
<event>
 7    1  0.5022032E-011  0.4778727E+02  0.7816164E-02  0.1312668E+00
        -11   -1    0    0    0    0  0.00000000000E+00  0.00000000000E+00  0.45593999997E+02  0.45594000000E+02  0.51100000000E-03 0. -1.
         11   -1    0    0    0    0 -0.00000000000E+00 -0.00000000000E+00 -0.45593999997E+02  0.45594000000E+02  0.51100000000E-03 0.  1.
    9900012    2    1    2    0    0 -0.26581765020E+02 -0.65770002795E+01 -0.33671597980E+02  0.47787266426E+02  0.19999978941E+02 0.  0.
         12    1    1    2    0    0  0.26581765020E+02  0.65770002795E+01  0.33671597980E+02  0.43400733574E+02  0.00000000000E+00 0. -1.
         11    1    3    3    0    0 -0.32893044440E+01  0.45897484448E+00  0.11669085449E+01  0.35202070175E+01  0.51100000000E-03 0. -1.
        -11    1    3    3    0    0 -0.14432441353E+02  0.45439991043E+00 -0.12513404869E+02  0.19107253710E+02  0.51100000000E-03 0.  1.
         12    1    3    3    0    0 -0.88600192238E+01 -0.74903750344E+01 -0.22325101656E+02  0.25159805698E+02  0.00000000000E+00 0. -1.
</event>
<event>
 7    1 -0.5022032E-011  0.4778727E+02  0.7816164E-02  0.1312668E+00
        -11   -1    0    0    0    0  0.00000000000E+00  0.00000000000E+00  0.45593999997E+02  0.45594000000E+02  0.51100000000E-03 0. -1.
         11   -1    0    0    0    0 -0.00000000000E+00 -0.00000000000E+00 -0.45593999997E+02  0.45594000000E+02  0.51100000000E-03 0.  1.
    9900012    2    1    2    0    0  0.42449682301E+02  0.75205630596E+01  0.50089040679E+01  0.47787268253E+02  0.19999987274E+02 0.  0.
        -12    1    1    2    0    0 -0.42449682301E+02 -0.75205630596E+01 -0.50089040679E+01  0.43400731747E+02  0.00000000000E+00 0.  1.
         11    1    3    3    0    0  0.15185344775E+02  0.32677294864E+01  0.49091370735E+01  0.16290254111E+02  0.51100000000E-03 0. -1.
        -11    1    3    3    0    0  0.25711180897E+02  0.62185479443E+01 -0.39391598456E+01  0.26744198290E+02  0.51100000000E-03 0.  1.
        -12    1    3    3    0    0  0.15531566291E+01 -0.19657143711E+01  0.40389268399E+01  0.47528158518E+01  0.00000000000E+00 0.  1.
</event>
<event>
 7    1  0.5022032E-011  0.4778727E+02  0.7816164E-02  0.1312668E+00
        -11   -1    0    0    0    0  0.00000000000E+00  0.00000000000E+00  0.45593999997E+02  0.45594000000E+02  0.51100000000E-03 0.  1.
         11   -1    0    0    0    0 -0.00000000000E+00 -0.00000000000E+00 -0.45593999997E+02  0.45594000000E+02  0.51100000000E-03 0. -1.
    9900012    2    1    2    0    0  0.28887958267E+02 -0.26825885450E+02  0.18151604992E+02  0.47787273891E+02  0.20000012980E+02 0.  0.
        -12    1    1    2    0    0 -0.28887958267E+02  0.26825885450E+02 -0.18151604992E+02  0.43400726109E+02  0.00000000000E+00 0.  1.
         11    1    3    3    0    0  0.12530500859E+02 -0.13780992973E+02  0.19504108373E+01  0.18727875528E+02  0.51100000000E-03 0. -1.
        -11    1    3    3    0    0  0.15885709829E+01  0.45480206901E+00 -0.15837254732E+01  0.22887964796E+01  0.51100000000E-03 0.  1.
        -12    1    3    3    0    0  0.14768886425E+02 -0.13499694546E+02  0.17784919628E+02  0.26770601884E+02  0.00000000000E+00 0.  1.
</event>
<event>
 7    1  0.5022032E-011  0.4778728E+02  0.7816164E-02  0.1312668E+00
        -11   -1    0    0    0    0  0.00000000000E+00  0.00000000000E+00  0.45593999997E+02  0.45594000000E+02  0.51100000000E-03 0.  1.
         11   -1    0    0    0    0 -0.00000000000E+00 -0.00000000000E+00 -0.45593999997E+02  0.45594000000E+02  0.51100000000E-03 0. -1.
    9900012    2    1    2    0    0  0.25845451232E+02 -0.31225075975E+01  0.34725860019E+02  0.47787276998E+02  0.20000027144E+02 0.  0.
        -12    1    1    2    0    0 -0.25845451232E+02  0.31225075975E+01 -0.34725860019E+02  0.43400723002E+02  0.00000000000E+00 0.  1.
         11    1    3    3    0    0  0.17767139191E+02 -0.10242677486E+02  0.26124040310E+02  0.33212183901E+02  0.51100000000E-03 0. -1.
        -11    1    3    3    0    0  0.21639680344E+01  0.67949074533E+00 -0.57360218159E-01  0.22688666295E+01  0.51100000000E-03 0.  1.
         12    1    3    3    0    0  0.59143440069E+01  0.64406791430E+01  0.86591799263E+01  0.12306226467E+02  0.00000000000E+00 0. -1.
</event>
<event>
 7    1  0.5022032E-011  0.4778727E+02  0.7816164E-02  0.1312668E+00
        -11   -1    0    0    0    0  0.00000000000E+00  0.00000000000E+00  0.45593999997E+02  0.45594000000E+02  0.51100000000E-03 0. -1.
         11   -1    0    0    0    0 -0.00000000000E+00 -0.00000000000E+00 -0.45593999997E+02  0.45594000000E+02  0.51100000000E-03 0.  1.
    9900012    2    1    2    0    0 -0.41987112954E+02 -0.58571339014E+01  0.92951599456E+01  0.47787266479E+02  0.19999979183E+02 0.  0.
        -12    1    1    2    0    0  0.41987112954E+02  0.58571339014E+01 -0.92951599456E+01  0.43400733521E+02  0.00000000000E+00 0.  1.
         11    1    3    3    0    0 -0.19818577310E+02  0.32706812631E+01  0.35685146921E+01  0.20401168101E+02  0.51100000000E-03 0. -1.
        -11    1    3    3    0    0 -0.13948387605E+02 -0.18630241442E+01 -0.16465109033E+01  0.14168252333E+02  0.51100000000E-03 0.  1.
        -12    1    3    3    0    0 -0.82201480388E+01 -0.72647910203E+01  0.73731561568E+01  0.13217846045E+02  0.00000000000E+00 0.  1.
</event>
<event>
 7    1  0.5022032E-011  0.4778728E+02  0.7816164E-02  0.1312668E+00
        -11   -1    0    0    0    0  0.00000000000E+00  0.00000000000E+00  0.45593999997E+02  0.45594000000E+02  0.51100000000E-03 0. -1.
         11   -1    0    0    0    0 -0.00000000000E+00 -0.00000000000E+00 -0.45593999997E+02  0.45594000000E+02  0.51100000000E-03 0.  1.
    9900012    2    1    2    0    0  0.11072586320E+02  0.84064996056E+01 -0.41113878756E+02  0.47787280768E+02  0.20000044336E+02 0.  0.
         12    1    1    2    0    0 -0.11072586320E+02 -0.84064996056E+01  0.41113878756E+02  0.43400719232E+02  0.00000000000E+00 0. -1.
         11    1    3    3    0    0  0.27508200946E+01  0.10398863113E+02 -0.87189282473E+01  0.13846410194E+02  0.51100000000E-03 0. -1.
        -11    1    3    3    0    0  0.26707906168E+01  0.53016821708E+00 -0.37453993121E+01  0.46305741680E+01  0.51100000000E-03 0.  1.
         12    1    3    3    0    0  0.56509756087E+01 -0.25225317242E+01 -0.28649551197E+02  0.29310296406E+02  0.00000000000E+00 0. -1.
</event>
<event>
 7    1  0.5022032E-011  0.4778727E+02  0.7816164E-02  0.1312668E+00
        -11   -1    0    0    0    0  0.00000000000E+00  0.00000000000E+00  0.45593999997E+02  0.45594000000E+02  0.51100000000E-03 0. -1.
         11   -1    0    0    0    0 -0.00000000000E+00 -0.00000000000E+00 -0.45593999997E+02  0.45594000000E+02  0.51100000000E-03 0.  1.
    9900012    2    1    2    0    0  0.34886365866E+02 -0.79288706648E+01 -0.24570257702E+02  0.47787273314E+02  0.20000010346E+02 0.  0.
         12    1    1    2    0    0 -0.34886365866E+02  0.79288706648E+01  0.24570257702E+02  0.43400726686E+02  0.00000000000E+00 0. -1.
         11    1    3    3    0    0  0.16398759096E+01 -0.27458594492E+01 -0.25937325552E+01  0.41178132477E+01  0.51100000000E-03 0.  1.
        -11    1    3    3    0    0  0.11338262203E+02 -0.47588071467E+01 -0.17363863636E+02  0.21276893473E+02  0.51100000000E-03 0. -1.
         12    1    3    3    0    0  0.21908227754E+02 -0.42420406889E+00 -0.46126615108E+01  0.22392566593E+02  0.00000000000E+00 0. -1.
</event>
<event>
 7    1  0.5022032E-011  0.4778727E+02  0.7816164E-02  0.1312668E+00
        -11   -1    0    0    0    0  0.00000000000E+00  0.00000000000E+00  0.45593999997E+02  0.45594000000E+02  0.51100000000E-03 0. -1.
         11   -1    0    0    0    0 -0.00000000000E+00 -0.00000000000E+00 -0.45593999997E+02  0.45594000000E+02  0.51100000000E-03 0.  1.
    9900012    2    1    2    0    0  0.18331121966E+02 -0.63199916861E+01 -0.38828483651E+02  0.47787268784E+02  0.19999989693E+02 0.  0.
         12    1    1    2    0    0 -0.18331121966E+02  0.63199916861E+01  0.38828483651E+02  0.43400731216E+02  0.00000000000E+00 0. -1.
         11    1    3    3    0    0  0.69756331805E+01  0.27754286065E+00 -0.16995733587E+02  0.18373661821E+02  0.51100000000E-03 0. -1.
        -11    1    3    3    0    0  0.12040914604E+02 -0.10074397131E+02 -0.19993989299E+02  0.25421186251E+02  0.51100000000E-03 0.  1.
         12    1    3    3    0    0 -0.68542581878E+00  0.34768625846E+01 -0.18387607656E+01  0.39924207116E+01  0.00000000000E+00 0. -1.
</event>
<event>
 7    1  0.5022032E-011  0.4778727E+02  0.7816164E-02  0.1312668E+00
        -11   -1    0    0    0    0  0.00000000000E+00  0.00000000000E+00  0.45593999997E+02  0.45594000000E+02  0.51100000000E-03 0. -1.
         11   -1    0    0    0    0 -0.00000000000E+00 -0.00000000000E+00 -0.45593999997E+02  0.45594000000E+02  0.51100000000E-03 0.  1.
    9900012    2    1    2    0    0 -0.10074753043E+02 -0.12541685798E+02  0.40309161590E+02  0.47787273743E+02  0.20000012306E+02 0.  0.
        -12    1    1    2    0    0  0.10074753043E+02  0.12541685798E+02 -0.40309161590E+02  0.43400726257E+02  0.00000000000E+00 0.  1.
         11    1    3    3    0    0 -0.51718779909E+01 -0.66699862788E+01  0.20260198470E+02  0.21947953918E+02  0.51100000000E-03 0. -1.
        -11    1    3    3    0    0 -0.70790643654E+01 -0.84246426316E+00  0.18955032155E+02  0.20251324465E+02  0.51100000000E-03 0.  1.
         12    1    3    3    0    0  0.21761893137E+01 -0.50292352556E+01  0.10939309648E+01  0.55879953598E+01  0.00000000000E+00 0. -1.
</event>
<event>
 7    1  0.5022032E-011  0.4778727E+02  0.7816164E-02  0.1312668E+00
        -11   -1    0    0    0    0  0.00000000000E+00  0.00000000000E+00  0.45593999997E+02  0.45594000000E+02  0.51100000000E-03 0. -1.
         11   -1    0    0    0    0 -0.00000000000E+00 -0.00000000000E+00 -0.45593999997E+02  0.45594000000E+02  0.51100000000E-03 0.  1.
    9900012    2    1    2    0    0  0.33206229220E+02  0.68673920039E+01  0.27088899637E+02  0.47787271717E+02  0.20000003067E+02 0.  0.
        -12    1    1    2    0    0 -0.33206229220E+02 -0.68673920039E+01 -0.27088899637E+02  0.43400728283E+02  0.00000000000E+00 0.  1.
         11    1    3    3    0    0  0.65917005766E+01 -0.34986350333E+01  0.10882689939E+02  0.13195601697E+02  0.51100000000E-03 0.  1.
        -11    1    3    3    0    0  0.60190054944E+01  0.38621113235E+01  0.96681626645E+01  0.12025709983E+02  0.51100000000E-03 0. -1.
        -12    1    3    3    0    0  0.20595523149E+02  0.65039157138E+01  0.65380470336E+01  0.22565960037E+02  0.00000000000E+00 0.  1.
</event>
<event>
 7    1  0.5022032E-011  0.4778728E+02  0.7816164E-02  0.1312668E+00
        -11   -1    0    0    0    0  0.00000000000E+00  0.00000000000E+00  0.45593999997E+02  0.45594000000E+02  0.51100000000E-03 0.  1.
         11   -1    0    0    0    0 -0.00000000000E+00 -0.00000000000E+00 -0.45593999997E+02  0.45594000000E+02  0.51100000000E-03 0. -1.
    9900012    2    1    2    0    0  0.39445324316E+02  0.10277325097E+02 -0.14901873653E+02  0.47787275813E+02  0.20000021742E+02 0.  0.
        -12    1    1    2    0    0 -0.39445324316E+02 -0.10277325097E+02  0.14901873653E+02  0.43400724187E+02  0.00000000000E+00 0.  1.
         11    1    3    3    0    0 -0.38888330989E-01  0.98480535175E+00 -0.14240768704E+01  0.17318628921E+01  0.51100000000E-03 0. -1.
        -11    1    3    3    0    0  0.81479955980E+01  0.86849690428E+01 -0.77108396591E+01  0.14187162086E+02  0.51100000000E-03 0.  1.
         12    1    3    3    0    0  0.31336217049E+02  0.60755070286E+00 -0.57669571233E+01  0.31868250835E+02  0.00000000000E+00 0. -1.
</event>
<event>
 7    1  0.5022032E-011  0.4778727E+02  0.7816164E-02  0.1312668E+00
        -11   -1    0    0    0    0  0.00000000000E+00  0.00000000000E+00  0.45593999997E+02  0.45594000000E+02  0.51100000000E-03 0. -1.
         11   -1    0    0    0    0 -0.00000000000E+00 -0.00000000000E+00 -0.45593999997E+02  0.45594000000E+02  0.51100000000E-03 0.  1.
    9900012    2    1    2    0    0  0.21099888016E+02  0.93890561150E+01  0.36745935736E+02  0.47787269106E+02  0.19999991161E+02 0.  0.
        -12    1    1    2    0    0 -0.21099888016E+02 -0.93890561150E+01 -0.36745935736E+02  0.43400730894E+02  0.00000000000E+00 0.  1.
         11    1    3    3    0    0 -0.13112914221E+01  0.24424500753E+01  0.11956997455E+02  0.12274153166E+02  0.51100000000E-03 0. -1.
        -11    1    3    3    0    0  0.87740001236E+01  0.10904767596E+01  0.15956630569E+02  0.18242430680E+02  0.51100000000E-03 0.  1.
         12    1    3    3    0    0  0.13637179314E+02  0.58561292801E+01  0.88323077128E+01  0.17270685260E+02  0.00000000000E+00 0. -1.
</event>
<event>
 7    1  0.5022032E-011  0.4778727E+02  0.7816164E-02  0.1312668E+00
        -11   -1    0    0    0    0  0.00000000000E+00  0.00000000000E+00  0.45593999997E+02  0.45594000000E+02  0.51100000000E-03 0. -1.
         11   -1    0    0    0    0 -0.00000000000E+00 -0.00000000000E+00 -0.45593999997E+02  0.45594000000E+02  0.51100000000E-03 0.  1.
    9900012    2    1    2    0    0  0.18530641752E+02  0.38580991359E+02 -0.71934257967E+01  0.47787274745E+02  0.20000016873E+02 0.  0.
         12    1    1    2    0    0 -0.18530641752E+02 -0.38580991359E+02  0.71934257967E+01  0.43400725255E+02  0.00000000000E+00 0. -1.
         11    1    3    3    0    0  0.20790488943E+01  0.89416180722E+01  0.58904610600E+00  0.91990191667E+01  0.51100000000E-03 0. -1.
        -11    1    3    3    0    0  0.10941823132E+02  0.14828064929E+02  0.40235895321E+01  0.18862244723E+02  0.51100000000E-03 0.  1.
         12    1    3    3    0    0  0.55097697262E+01  0.14811308357E+02 -0.11806061435E+02  0.19726010856E+02  0.00000000000E+00 0. -1.
</event>
<event>
 7    1  0.5022032E-011  0.4778726E+02  0.7816164E-02  0.1312668E+00
        -11   -1    0    0    0    0  0.00000000000E+00  0.00000000000E+00  0.45593999997E+02  0.45594000000E+02  0.51100000000E-03 0. -1.
         11   -1    0    0    0    0 -0.00000000000E+00 -0.00000000000E+00 -0.45593999997E+02  0.45594000000E+02  0.51100000000E-03 0.  1.
    9900012    2    1    2    0    0  0.36906751105E+02 -0.54553638046E+01  0.22175539281E+02  0.47787264825E+02  0.19999971643E+02 0.  0.
        -12    1    1    2    0    0 -0.36906751105E+02  0.54553638046E+01 -0.22175539281E+02  0.43400735175E+02  0.00000000000E+00 0.  1.
         11    1    3    3    0    0  0.55075062653E+01  0.22633826557E+01 -0.76608826063E+00  0.60035337754E+01  0.51100000000E-03 0.  1.
        -11    1    3    3    0    0  0.39804607763E+01 -0.10960601375E+01  0.98623614171E+01  0.10691659778E+02  0.51100000000E-03 0. -1.
         12    1    3    3    0    0  0.27418784063E+02 -0.66226863228E+01  0.13079266125E+02  0.31092071272E+02  0.00000000000E+00 0. -1.
</event>
<event>
 7    1  0.5022032E-011  0.4778727E+02  0.7816164E-02  0.1312668E+00
        -11   -1    0    0    0    0  0.00000000000E+00  0.00000000000E+00  0.45593999997E+02  0.45594000000E+02  0.51100000000E-03 0. -1.
         11   -1    0    0    0    0 -0.00000000000E+00 -0.00000000000E+00 -0.45593999997E+02  0.45594000000E+02  0.51100000000E-03 0.  1.
    9900012    2    1    2    0    0  0.28862744625E+02  0.24869718386E+02  0.20786112199E+02  0.47787269819E+02  0.19999994413E+02 0.  0.
        -12    1    1    2    0    0 -0.28862744625E+02 -0.24869718386E+02 -0.20786112199E+02  0.43400730181E+02  0.00000000000E+00 0.  1.
         11    1    3    3    0    0  0.22925707179E+00  0.42980301017E+01  0.20413232893E+00  0.43089780492E+01  0.51100000000E-03 0. -1.
        -11    1    3    3    0    0  0.19075894712E+01  0.41434294921E+01 -0.18392437672E+01  0.49183049360E+01  0.51100000000E-03 0.  1.
         12    1    3    3    0    0  0.26725898082E+02  0.16428258792E+02  0.22421223638E+02  0.38559986834E+02  0.00000000000E+00 0. -1.
</event>
<event>
 7    1  0.5022032E-011  0.4778726E+02  0.7816164E-02  0.1312668E+00
        -11   -1    0    0    0    0  0.00000000000E+00  0.00000000000E+00  0.45593999997E+02  0.45594000000E+02  0.51100000000E-03 0. -1.
         11   -1    0    0    0    0 -0.00000000000E+00 -0.00000000000E+00 -0.45593999997E+02  0.45594000000E+02  0.51100000000E-03 0.  1.
    9900012    2    1    2    0    0  0.54175027511E-01  0.40873784399E+02 -0.14592988985E+02  0.47787256763E+02  0.19999934886E+02 0.  0.
         12    1    1    2    0    0 -0.54175027511E-01 -0.40873784399E+02  0.14592988985E+02  0.43400743237E+02  0.00000000000E+00 0. -1.
         11    1    3    3    0    0  0.43165447307E+01  0.61834116204E+01  0.81942070186E+00  0.75854194497E+01  0.51100000000E-03 0. -1.
        -11    1    3    3    0    0 -0.17009550093E+01  0.34495212682E+02 -0.13968077792E+02  0.37254800273E+02  0.51100000000E-03 0.  1.
         12    1    3    3    0    0 -0.25614146939E+01  0.19516009615E+00 -0.14443318944E+01  0.29470370405E+01  0.00000000000E+00 0. -1.
</event>
<event>
 7    1  0.5022032E-011  0.4778727E+02  0.7816164E-02  0.1312668E+00
        -11   -1    0    0    0    0  0.00000000000E+00  0.00000000000E+00  0.45593999997E+02  0.45594000000E+02  0.51100000000E-03 0. -1.
         11   -1    0    0    0    0 -0.00000000000E+00 -0.00000000000E+00 -0.45593999997E+02  0.45594000000E+02  0.51100000000E-03 0.  1.
    9900012    2    1    2    0    0 -0.30016338404E+02 -0.75539749979E+01  0.30423348654E+02  0.47787271288E+02  0.20000001109E+02 0.  0.
        -12    1    1    2    0    0  0.30016338404E+02  0.75539749979E+01 -0.30423348654E+02  0.43400728712E+02  0.00000000000E+00 0.  1.
         11    1    3    3    0    0 -0.73467610682E+01 -0.22735040115E+01  0.20018337779E+01  0.79467639589E+01  0.51100000000E-03 0. -1.
        -11    1    3    3    0    0 -0.15909832131E+02 -0.72867050637E+01  0.10090078112E+02  0.20199715486E+02  0.51100000000E-03 0.  1.
        -12    1    3    3    0    0 -0.67597452044E+01  0.20062340773E+01  0.18331436764E+02  0.19640791843E+02  0.00000000000E+00 0.  1.
</event>
<event>
 7    1  0.5022032E-011  0.4778728E+02  0.7816164E-02  0.1312668E+00
        -11   -1    0    0    0    0  0.00000000000E+00  0.00000000000E+00  0.45593999997E+02  0.45594000000E+02  0.51100000000E-03 0.  1.
         11   -1    0    0    0    0 -0.00000000000E+00 -0.00000000000E+00 -0.45593999997E+02  0.45594000000E+02  0.51100000000E-03 0. -1.
    9900012    2    1    2    0    0  0.51862590552E+01  0.41262594616E+02 -0.12414648384E+02  0.47787280053E+02  0.20000041075E+02 0.  0.
        -12    1    1    2    0    0 -0.51862590552E+01 -0.41262594616E+02  0.12414648384E+02  0.43400719947E+02  0.00000000000E+00 0.  1.
         11    1    3    3    0    0  0.35272305317E+01  0.21502718985E+02 -0.60779431951E+01  0.22621884818E+02  0.51100000000E-03 0. -1.
        -11    1    3    3    0    0  0.83465475389E-01  0.20929760784E+02 -0.81813441947E+01  0.22472121530E+02  0.51100000000E-03 0.  1.
        -12    1    3    3    0    0  0.15755630480E+01 -0.11698851532E+01  0.18446390062E+01  0.26932737056E+01  0.00000000000E+00 0.  1.
</event>
<event>
 7    1  0.5022032E-011  0.4778725E+02  0.7816164E-02  0.1312668E+00
        -11   -1    0    0    0    0  0.00000000000E+00  0.00000000000E+00  0.45593999997E+02  0.45594000000E+02  0.51100000000E-03 0. -1.
         11   -1    0    0    0    0 -0.00000000000E+00 -0.00000000000E+00 -0.45593999997E+02  0.45594000000E+02  0.51100000000E-03 0.  1.
    9900012    2    1    2    0    0 -0.21582972245E+02 -0.34753344795E+01  0.37492963484E+02  0.47787251717E+02  0.19999911880E+02 0.  0.
        -12    1    1    2    0    0  0.21582972245E+02  0.34753344795E+01 -0.37492963484E+02  0.43400748283E+02  0.00000000000E+00 0.  1.
         11    1    3    3    0    0 -0.31713665326E+01  0.15951751051E+01  0.85307244910E+01  0.92398814874E+01  0.51100000000E-03 0. -1.
        -11    1    3    3    0    0 -0.66823772552E+01 -0.10474277186E+02  0.15905399038E+02  0.20182823568E+02  0.51100000000E-03 0.  1.
         12    1    3    3    0    0 -0.11729228457E+02  0.54037676018E+01  0.13056839955E+02  0.18364546662E+02  0.00000000000E+00 0. -1.
</event>
<event>
 7    1  0.5022032E-011  0.4778727E+02  0.7816164E-02  0.1312668E+00
        -11   -1    0    0    0    0  0.00000000000E+00  0.00000000000E+00  0.45593999997E+02  0.45594000000E+02  0.51100000000E-03 0. -1.
         11   -1    0    0    0    0 -0.00000000000E+00 -0.00000000000E+00 -0.45593999997E+02  0.45594000000E+02  0.51100000000E-03 0.  1.
    9900012    2    1    2    0    0  0.40417464003E+01 -0.38472590741E+02 -0.19676065577E+02  0.47787268337E+02  0.19999987656E+02 0.  0.
         12    1    1    2    0    0 -0.40417464003E+01  0.38472590741E+02  0.19676065577E+02  0.43400731663E+02  0.00000000000E+00 0. -1.
         11    1    3    3    0    0 -0.49439400726E+01 -0.12556624570E+02 -0.89129547814E+01  0.16172573303E+02  0.51100000000E-03 0. -1.
        -11    1    3    3    0    0  0.33693279292E+00 -0.15312098898E+02 -0.91383693109E+01  0.17834900905E+02  0.51100000000E-03 0.  1.
        -12    1    3    3    0    0  0.86487536800E+01 -0.10603867273E+02 -0.16247414845E+01  0.13779794130E+02  0.00000000000E+00 0.  1.
</event>
<event>
 7    1  0.5022032E-011  0.4778727E+02  0.7816164E-02  0.1312668E+00
        -11   -1    0    0    0    0  0.00000000000E+00  0.00000000000E+00  0.45593999997E+02  0.45594000000E+02  0.51100000000E-03 0. -1.
         11   -1    0    0    0    0 -0.00000000000E+00 -0.00000000000E+00 -0.45593999997E+02  0.45594000000E+02  0.51100000000E-03 0.  1.
    9900012    2    1    2    0    0 -0.22951852603E+02 -0.19496744202E+02 -0.31252404437E+02  0.47787270105E+02  0.19999995715E+02 0.  0.
         12    1    1    2    0    0  0.22951852603E+02  0.19496744202E+02  0.31252404437E+02  0.43400729895E+02  0.00000000000E+00 0. -1.
         11    1    3    3    0    0 -0.12880576390E+02 -0.87922880443E+01 -0.69600408541E+01  0.17077931554E+02  0.51100000000E-03 0. -1.
        -11    1    3    3    0    0 -0.77221662286E+00 -0.50302407686E+01 -0.12782609328E+01  0.52472461327E+01  0.51100000000E-03 0.  1.
         12    1    3    3    0    0 -0.92990595895E+01 -0.56742153891E+01 -0.23014102650E+02  0.25462092418E+02  0.00000000000E+00 0. -1.
</event>
<event>
 7    1  0.5022032E-011  0.4778726E+02  0.7816164E-02  0.1312668E+00
        -11   -1    0    0    0    0  0.00000000000E+00  0.00000000000E+00  0.45593999997E+02  0.45594000000E+02  0.51100000000E-03 0. -1.
         11   -1    0    0    0    0 -0.00000000000E+00 -0.00000000000E+00 -0.45593999997E+02  0.45594000000E+02  0.51100000000E-03 0.  1.
    9900012    2    1    2    0    0  0.35092378750E+01  0.51097177155E+01 -0.42955792498E+02  0.47787261818E+02  0.19999957935E+02 0.  0.
         12    1    1    2    0    0 -0.35092378750E+01 -0.51097177155E+01  0.42955792498E+02  0.43400738182E+02  0.00000000000E+00 0. -1.
         11    1    3    3    0    0 -0.29449648645E+00 -0.43498911443E+01 -0.31819470979E+01  0.53975057891E+01  0.51100000000E-03 0. -1.
        -11    1    3    3    0    0  0.61655309715E+01  0.23124623499E+01 -0.12925668647E+02  0.14506349110E+02  0.51100000000E-03 0.  1.
        -12    1    3    3    0    0 -0.23617966101E+01  0.71471465099E+01 -0.26848176753E+02  0.27883406919E+02  0.00000000000E+00 0.  1.
</event>
<event>
 7    1  0.5022032E-011  0.4778726E+02  0.7816164E-02  0.1312668E+00
        -11   -1    0    0    0    0  0.00000000000E+00  0.00000000000E+00  0.45593999997E+02  0.45594000000E+02  0.51100000000E-03 0. -1.
         11   -1    0    0    0    0 -0.00000000000E+00 -0.00000000000E+00 -0.45593999997E+02  0.45594000000E+02  0.51100000000E-03 0.  1.
    9900012    2    1    2    0    0  0.65722946312E+01  0.69451597229E+01  0.42334313047E+02  0.47787258515E+02  0.19999942872E+02 0.  0.
        -12    1    1    2    0    0 -0.65722946312E+01 -0.69451597229E+01 -0.42334313047E+02  0.43400741485E+02  0.00000000000E+00 0.  1.
         11    1    3    3    0    0 -0.12494742231E+01 -0.50819636146E+00  0.60854916779E+01  0.62331900820E+01  0.51100000000E-03 0. -1.
        -11    1    3    3    0    0  0.11988124458E+02  0.86312251623E+01  0.32953666012E+02  0.36113117834E+02  0.51100000000E-03 0.  1.
        -12    1    3    3    0    0 -0.41663556041E+01 -0.11778690780E+01  0.32951553572E+01  0.54409505983E+01  0.00000000000E+00 0.  1.
</event>
<event>
 7    1  0.5022032E-011  0.4778727E+02  0.7816164E-02  0.1312668E+00
        -11   -1    0    0    0    0  0.00000000000E+00  0.00000000000E+00  0.45593999997E+02  0.45594000000E+02  0.51100000000E-03 0. -1.
         11   -1    0    0    0    0 -0.00000000000E+00 -0.00000000000E+00 -0.45593999997E+02  0.45594000000E+02  0.51100000000E-03 0.  1.
    9900012    2    1    2    0    0 -0.58180713665E+01  0.15351088600E+02  0.40176080599E+02  0.47787270422E+02  0.19999997160E+02 0.  0.
        -12    1    1    2    0    0  0.58180713665E+01 -0.15351088600E+02 -0.40176080599E+02  0.43400729578E+02  0.00000000000E+00 0.  1.
         11    1    3    3    0    0  0.32770625508E+01  0.20144553125E+01  0.63802395475E+01  0.74501426908E+01  0.51100000000E-03 0. -1.
        -11    1    3    3    0    0  0.40302974652E+01  0.37123328298E+01  0.59910142561E+01  0.81189263314E+01  0.51100000000E-03 0.  1.
        -12    1    3    3    0    0 -0.13125431382E+02  0.96243004579E+01  0.27804826795E+02  0.32218201399E+02  0.00000000000E+00 0.  1.
</event>
<event>
 7    1  0.5022032E-011  0.4778727E+02  0.7816164E-02  0.1312668E+00
        -11   -1    0    0    0    0  0.00000000000E+00  0.00000000000E+00  0.45593999997E+02  0.45594000000E+02  0.51100000000E-03 0. -1.
         11   -1    0    0    0    0 -0.00000000000E+00 -0.00000000000E+00 -0.45593999997E+02  0.45594000000E+02  0.51100000000E-03 0.  1.
    9900012    2    1    2    0    0  0.29924743071E+02  0.84879672462E+01  0.30266932836E+02  0.47787273518E+02  0.20000011280E+02 0.  0.
        -12    1    1    2    0    0 -0.29924743071E+02 -0.84879672462E+01 -0.30266932836E+02  0.43400726482E+02  0.00000000000E+00 0.  1.
         11    1    3    3    0    0  0.43878521112E+01 -0.27520864988E+01  0.60266787534E+00  0.52144448483E+01  0.51100000000E-03 0. -1.
        -11    1    3    3    0    0  0.48966864589E+01 -0.13305482985E+01  0.11646419130E+01  0.52061778781E+01  0.51100000000E-03 0.  1.
         12    1    3    3    0    0  0.20640204501E+02  0.12570602044E+02  0.28499623047E+02  0.37366650792E+02  0.00000000000E+00 0. -1.
</event>
<event>
 7    1  0.5022032E-011  0.4778727E+02  0.7816164E-02  0.1312668E+00
        -11   -1    0    0    0    0  0.00000000000E+00  0.00000000000E+00  0.45593999997E+02  0.45594000000E+02  0.51100000000E-03 0. -1.
         11   -1    0    0    0    0 -0.00000000000E+00 -0.00000000000E+00 -0.45593999997E+02  0.45594000000E+02  0.51100000000E-03 0.  1.
    9900012    2    1    2    0    0 -0.12801983931E+02 -0.16736716217E+01 -0.41435868281E+02  0.47787272477E+02  0.20000006533E+02 0.  0.
         12    1    1    2    0    0  0.12801983931E+02  0.16736716217E+01  0.41435868281E+02  0.43400727523E+02  0.00000000000E+00 0. -1.
         11    1    3    3    0    0 -0.11555318064E+02 -0.20194363107E+01 -0.15293596773E+02  0.19274273037E+02  0.51100000000E-03 0. -1.
        -11    1    3    3    0    0 -0.31836273739E+01  0.55009417397E+00 -0.26356287033E+02  0.26553567618E+02  0.51100000000E-03 0.  1.
         12    1    3    3    0    0  0.19369615077E+01 -0.20432948495E+00  0.21401552425E+00  0.19594318221E+01  0.00000000000E+00 0. -1.
</event>
<event>
 7    1  0.5022032E-011  0.4778727E+02  0.7816164E-02  0.1312668E+00
        -11   -1    0    0    0    0  0.00000000000E+00  0.00000000000E+00  0.45593999997E+02  0.45594000000E+02  0.51100000000E-03 0. -1.
         11   -1    0    0    0    0 -0.00000000000E+00 -0.00000000000E+00 -0.45593999997E+02  0.45594000000E+02  0.51100000000E-03 0.  1.
    9900012    2    1    2    0    0  0.10577590817E+02 -0.40218505607E+02 -0.12418114673E+02  0.47787271978E+02  0.20000004259E+02 0.  0.
         12    1    1    2    0    0 -0.10577590817E+02  0.40218505607E+02  0.12418114673E+02  0.43400728022E+02  0.00000000000E+00 0. -1.
         11    1    3    3    0    0  0.59298381154E+00 -0.57191251782E+01 -0.16421820484E+01  0.59796977136E+01  0.51100000000E-03 0. -1.
        -11    1    3    3    0    0  0.72322258181E+01 -0.10318745145E+02 -0.12053134556E+02  0.17437306115E+02  0.51100000000E-03 0.  1.
         12    1    3    3    0    0  0.27523811870E+01 -0.24180635284E+02  0.12772019315E+01  0.24370268150E+02  0.00000000000E+00 0. -1.
</event>
<event>
 7    1  0.5022032E-011  0.4778727E+02  0.7816164E-02  0.1312668E+00
        -11   -1    0    0    0    0  0.00000000000E+00  0.00000000000E+00  0.45593999997E+02  0.45594000000E+02  0.51100000000E-03 0.  1.
         11   -1    0    0    0    0 -0.00000000000E+00 -0.00000000000E+00 -0.45593999997E+02  0.45594000000E+02  0.51100000000E-03 0. -1.
    9900012    2    1    2    0    0  0.30429980144E+02  0.23410759800E+02  0.20237986387E+02  0.47787268912E+02  0.19999990276E+02 0.  0.
        -12    1    1    2    0    0 -0.30429980144E+02 -0.23410759800E+02 -0.20237986387E+02  0.43400731088E+02  0.00000000000E+00 0.  1.
         11    1    3    3    0    0  0.50569247545E+01  0.12183529834E+02  0.65743679254E+00  0.13207691342E+02  0.51100000000E-03 0. -1.
        -11    1    3    3    0    0  0.93558442837E+01  0.32947439496E+01  0.34460433598E+01  0.10500589272E+02  0.51100000000E-03 0.  1.
         12    1    3    3    0    0  0.16017211106E+02  0.79324860170E+01  0.16134506234E+02  0.24078988298E+02  0.00000000000E+00 0. -1.
</event>
<event>
 7    1  0.5022032E-011  0.4778727E+02  0.7816164E-02  0.1312668E+00
        -11   -1    0    0    0    0  0.00000000000E+00  0.00000000000E+00  0.45593999997E+02  0.45594000000E+02  0.51100000000E-03 0. -1.
         11   -1    0    0    0    0 -0.00000000000E+00 -0.00000000000E+00 -0.45593999997E+02  0.45594000000E+02  0.51100000000E-03 0.  1.
    9900012    2    1    2    0    0 -0.10257638611E+02  0.13742885952E+02 -0.39868999729E+02  0.47787271855E+02  0.20000003695E+02 0.  0.
         12    1    1    2    0    0  0.10257638611E+02 -0.13742885952E+02  0.39868999729E+02  0.43400728145E+02  0.00000000000E+00 0. -1.
         11    1    3    3    0    0 -0.42243748079E+01  0.63134850467E+01 -0.14711157463E+02  0.16556678112E+02  0.51100000000E-03 0. -1.
        -11    1    3    3    0    0  0.21965444308E+01  0.66083707610E+01 -0.20689549040E+02  0.21830089585E+02  0.51100000000E-03 0.  1.
         12    1    3    3    0    0 -0.82298082342E+01  0.82103014451E+00 -0.44682932262E+01  0.94005041581E+01  0.00000000000E+00 0. -1.
</event>
<event>
 7    1  0.5022032E-011  0.4778726E+02  0.7816164E-02  0.1312668E+00
        -11   -1    0    0    0    0  0.00000000000E+00  0.00000000000E+00  0.45593999997E+02  0.45594000000E+02  0.51100000000E-03 0.  1.
         11   -1    0    0    0    0 -0.00000000000E+00 -0.00000000000E+00 -0.45593999997E+02  0.45594000000E+02  0.51100000000E-03 0. -1.
    9900012    2    1    2    0    0  0.16564097637E+02 -0.26170625313E+02 -0.30403172174E+02  0.47787264545E+02  0.19999970365E+02 0.  0.
         12    1    1    2    0    0 -0.16564097637E+02  0.26170625313E+02  0.30403172174E+02  0.43400735455E+02  0.00000000000E+00 0. -1.
         11    1    3    3    0    0  0.12391081330E+01  0.22270803608E+01 -0.41497776181E+01  0.48699004548E+01  0.51100000000E-03 0. -1.
        -11    1    3    3    0    0  0.31635838763E+01 -0.19163214943E+01 -0.57667141788E-02  0.36987274201E+01  0.51100000000E-03 0.  1.
        -12    1    3    3    0    0  0.12161405628E+02 -0.26481384179E+02 -0.26247627842E+02  0.39218636670E+02  0.00000000000E+00 0.  1.
</event>
<event>
 7    1  0.5022032E-011  0.4778726E+02  0.7816164E-02  0.1312668E+00
        -11   -1    0    0    0    0  0.00000000000E+00  0.00000000000E+00  0.45593999997E+02  0.45594000000E+02  0.51100000000E-03 0.  1.
         11   -1    0    0    0    0 -0.00000000000E+00 -0.00000000000E+00 -0.45593999997E+02  0.45594000000E+02  0.51100000000E-03 0. -1.
    9900012    2    1    2    0    0  0.37241961647E+02  0.13005684814E+02  0.18097312858E+02  0.47787259483E+02  0.19999947285E+02 0.  0.
        -12    1    1    2    0    0 -0.37241961647E+02 -0.13005684814E+02 -0.18097312858E+02  0.43400740517E+02  0.00000000000E+00 0.  1.
         11    1    3    3    0    0  0.16898819044E+02  0.14465665979E+01  0.99319009632E+01  0.19654650773E+02  0.51100000000E-03 0. -1.
        -11    1    3    3    0    0  0.15917481538E+02  0.10060852728E+02  0.11791964621E+02  0.22217952336E+02  0.51100000000E-03 0.  1.
        -12    1    3    3    0    0  0.44256610649E+01  0.14982654879E+01 -0.36265527269E+01  0.59146563733E+01  0.00000000000E+00 0.  1.
</event>
<event>
 7    1  0.5022032E-011  0.4778727E+02  0.7816164E-02  0.1312668E+00
        -11   -1    0    0    0    0  0.00000000000E+00  0.00000000000E+00  0.45593999997E+02  0.45594000000E+02  0.51100000000E-03 0. -1.
         11   -1    0    0    0    0 -0.00000000000E+00 -0.00000000000E+00 -0.45593999997E+02  0.45594000000E+02  0.51100000000E-03 0.  1.
    9900012    2    1    2    0    0 -0.16102170565E+02  0.22065155230E+02  0.33726431130E+02  0.47787272713E+02  0.20000007609E+02 0.  0.
        -12    1    1    2    0    0  0.16102170565E+02 -0.22065155230E+02 -0.33726431130E+02  0.43400727287E+02  0.00000000000E+00 0.  1.
         11    1    3    3    0    0 -0.10801464131E+02  0.11794427590E+02  0.13363886413E+02  0.20841631651E+02  0.51100000000E-03 0. -1.
        -11    1    3    3    0    0 -0.25718825092E+01 -0.26433063478E+00 -0.11557001835E+01  0.28319769598E+01  0.51100000000E-03 0.  1.
         12    1    3    3    0    0 -0.27288239254E+01  0.10535058275E+02  0.21518244900E+02  0.24113664102E+02  0.00000000000E+00 0. -1.
</event>
<event>
 7    1  0.5022032E-011  0.4778727E+02  0.7816164E-02  0.1312668E+00
        -11   -1    0    0    0    0  0.00000000000E+00  0.00000000000E+00  0.45593999997E+02  0.45594000000E+02  0.51100000000E-03 0. -1.
         11   -1    0    0    0    0 -0.00000000000E+00 -0.00000000000E+00 -0.45593999997E+02  0.45594000000E+02  0.51100000000E-03 0.  1.
    9900012    2    1    2    0    0 -0.15280731450E+02 -0.14767816909E+02 -0.37842226694E+02  0.47787270846E+02  0.19999999094E+02 0.  0.
         12    1    1    2    0    0  0.15280731450E+02  0.14767816909E+02  0.37842226694E+02  0.43400729154E+02  0.00000000000E+00 0. -1.
         11    1    3    3    0    0 -0.53790759417E+01 -0.42371202072E+01 -0.45419880706E+01  0.82168912328E+01  0.51100000000E-03 0. -1.
        -11    1    3    3    0    0 -0.52494191923E+01 -0.42823970116E+01 -0.16460345539E+01  0.69717111267E+01  0.51100000000E-03 0.  1.
        -12    1    3    3    0    0 -0.46522363164E+01 -0.62482996905E+01 -0.31654204070E+02  0.32598668486E+02  0.00000000000E+00 0.  1.
</event>
<event>
 7    1  0.5022032E-011  0.4778727E+02  0.7816164E-02  0.1312668E+00
        -11   -1    0    0    0    0  0.00000000000E+00  0.00000000000E+00  0.45593999997E+02  0.45594000000E+02  0.51100000000E-03 0. -1.
         11   -1    0    0    0    0 -0.00000000000E+00 -0.00000000000E+00 -0.45593999997E+02  0.45594000000E+02  0.51100000000E-03 0.  1.
    9900012    2    1    2    0    0 -0.14946345761E+00  0.18702869694E+02  0.39163802769E+02  0.47787272801E+02  0.20000008008E+02 0.  0.
        -12    1    1    2    0    0  0.14946345761E+00 -0.18702869694E+02 -0.39163802769E+02  0.43400727199E+02  0.00000000000E+00 0.  1.
         11    1    3    3    0    0  0.42183140760E+01  0.96194257674E+01  0.33147730459E+02  0.34772108946E+02  0.51100000000E-03 0. -1.
        -11    1    3    3    0    0  0.71926294555E+00  0.36622814506E+01  0.36327045876E+01  0.52082806655E+01  0.51100000000E-03 0.  1.
        -12    1    3    3    0    0 -0.50870404791E+01  0.54211624761E+01  0.23833677222E+01  0.78068831890E+01  0.00000000000E+00 0.  1.
</event>
<event>
 7    1  0.5022032E-011  0.4778727E+02  0.7816164E-02  0.1312668E+00
        -11   -1    0    0    0    0  0.00000000000E+00  0.00000000000E+00  0.45593999997E+02  0.45594000000E+02  0.51100000000E-03 0. -1.
         11   -1    0    0    0    0 -0.00000000000E+00 -0.00000000000E+00 -0.45593999997E+02  0.45594000000E+02  0.51100000000E-03 0.  1.
    9900012    2    1    2    0    0  0.40292157574E+02  0.10232539254E+02 -0.12468380720E+02  0.47787270290E+02  0.19999996562E+02 0.  0.
         12    1    1    2    0    0 -0.40292157574E+02 -0.10232539254E+02  0.12468380720E+02  0.43400729710E+02  0.00000000000E+00 0. -1.
         11    1    3    3    0    0  0.17796494738E+02  0.97731830123E+01 -0.10402169754E+02  0.22813054750E+02  0.51100000000E-03 0. -1.
        -11    1    3    3    0    0  0.18953873281E+02  0.28560737606E+01 -0.49740892246E+01  0.19802727932E+02  0.51100000000E-03 0.  1.
         12    1    3    3    0    0  0.35417895550E+01 -0.23967175188E+01  0.29078782594E+01  0.51714876088E+01  0.00000000000E+00 0. -1.
</event>
<event>
 7    1  0.5022032E-011  0.4778727E+02  0.7816164E-02  0.1312668E+00
        -11   -1    0    0    0    0  0.00000000000E+00  0.00000000000E+00  0.45593999997E+02  0.45594000000E+02  0.51100000000E-03 0. -1.
         11   -1    0    0    0    0 -0.00000000000E+00 -0.00000000000E+00 -0.45593999997E+02  0.45594000000E+02  0.51100000000E-03 0.  1.
    9900012    2    1    2    0    0  0.95456397587E+01  0.37508951099E+02  0.19636254182E+02  0.47787272710E+02  0.20000007596E+02 0.  0.
        -12    1    1    2    0    0 -0.95456397587E+01 -0.37508951099E+02 -0.19636254182E+02  0.43400727290E+02  0.00000000000E+00 0.  1.
         11    1    3    3    0    0 -0.36105539484E+01  0.13022652565E+01  0.44138323708E+01  0.58492658575E+01  0.51100000000E-03 0. -1.
        -11    1    3    3    0    0  0.10911603178E+01  0.28571697370E+01 -0.57811816813E+00  0.31125986928E+01  0.51100000000E-03 0.  1.
         12    1    3    3    0    0  0.12065033389E+02  0.33349516106E+02  0.15800539979E+02  0.38825408160E+02  0.00000000000E+00 0. -1.
</event>
<event>
 7    1  0.5022032E-011  0.4778731E+02  0.7816164E-02  0.1312668E+00
        -11   -1    0    0    0    0  0.00000000000E+00  0.00000000000E+00  0.45593999997E+02  0.45594000000E+02  0.51100000000E-03 0. -1.
         11   -1    0    0    0    0 -0.00000000000E+00 -0.00000000000E+00 -0.45593999997E+02  0.45594000000E+02  0.51100000000E-03 0.  1.
    9900012    2    1    2    0    0  0.66512867689E+01  0.16655249073E+02  0.39521931926E+02  0.47787308294E+02  0.20000169834E+02 0.  0.
        -12    1    1    2    0    0 -0.66512867689E+01 -0.16655249073E+02 -0.39521931926E+02  0.43400691706E+02  0.00000000000E+00 0.  1.
         11    1    3    3    0    0  0.81761952600E-01 -0.73739738675E+00  0.11155570193E+01  0.13397416346E+01  0.51100000000E-03 0. -1.
        -11    1    3    3    0    0  0.88927780173E+01  0.43139859790E+01  0.63498900565E+01  0.11747896828E+02  0.51100000000E-03 0.  1.
         12    1    3    3    0    0 -0.23232532010E+01  0.13078660481E+02  0.32056484851E+02  0.34699669831E+02  0.00000000000E+00 0. -1.
</event>
<event>
 7    1  0.5022032E-011  0.4778728E+02  0.7816164E-02  0.1312668E+00
        -11   -1    0    0    0    0  0.00000000000E+00  0.00000000000E+00  0.45593999997E+02  0.45594000000E+02  0.51100000000E-03 0. -1.
         11   -1    0    0    0    0 -0.00000000000E+00 -0.00000000000E+00 -0.45593999997E+02  0.45594000000E+02  0.51100000000E-03 0.  1.
    9900012    2    1    2    0    0 -0.12257636813E+02 -0.19695848150E+02 -0.36680330017E+02  0.47787277601E+02  0.20000029896E+02 0.  0.
         12    1    1    2    0    0  0.12257636813E+02  0.19695848150E+02  0.36680330017E+02  0.43400722399E+02  0.00000000000E+00 0. -1.
         11    1    3    3    0    0  0.53794674209E+00 -0.23871745442E+01 -0.11844981624E+02  0.12095105577E+02  0.51100000000E-03 0. -1.
        -11    1    3    3    0    0 -0.79345893288E+00  0.16263854208E+01 -0.64496280365E+01  0.66986870866E+01  0.51100000000E-03 0.  1.
        -12    1    3    3    0    0 -0.12002124622E+02 -0.18935059026E+02 -0.18385720357E+02  0.28993484937E+02  0.00000000000E+00 0.  1.
</event>
<event>
 7    1  0.5022032E-011  0.4778727E+02  0.7816164E-02  0.1312668E+00
        -11   -1    0    0    0    0  0.00000000000E+00  0.00000000000E+00  0.45593999997E+02  0.45594000000E+02  0.51100000000E-03 0. -1.
         11   -1    0    0    0    0 -0.00000000000E+00 -0.00000000000E+00 -0.45593999997E+02  0.45594000000E+02  0.51100000000E-03 0.  1.
    9900012    2    1    2    0    0  0.21542192515E+02  0.30582912139E+02 -0.22005514051E+02  0.47787271643E+02  0.20000002731E+02 0.  0.
         12    1    1    2    0    0 -0.21542192515E+02 -0.30582912139E+02  0.22005514051E+02  0.43400728357E+02  0.00000000000E+00 0. -1.
         11    1    3    3    0    0  0.13294818575E+02  0.18796972468E+02 -0.20172967921E+02  0.30610896914E+02  0.51100000000E-03 0. -1.
        -11    1    3    3    0    0  0.26674726417E+01  0.23985490465E+01 -0.46742820144E+01  0.58921439590E+01  0.51100000000E-03 0.  1.
        -12    1    3    3    0    0  0.55799012981E+01  0.93873906248E+01  0.28417358845E+01  0.11284230770E+02  0.00000000000E+00 0.  1.
</event>
<event>
 7    1  0.5022032E-011  0.4778727E+02  0.7816164E-02  0.1312668E+00
        -11   -1    0    0    0    0  0.00000000000E+00  0.00000000000E+00  0.45593999997E+02  0.45594000000E+02  0.51100000000E-03 0. -1.
         11   -1    0    0    0    0 -0.00000000000E+00 -0.00000000000E+00 -0.45593999997E+02  0.45594000000E+02  0.51100000000E-03 0.  1.
    9900012    2    1    2    0    0 -0.17729091162E+02 -0.12737537527E+02  0.37510767634E+02  0.47787271617E+02  0.20000002611E+02 0.  0.
        -12    1    1    2    0    0  0.17729091162E+02  0.12737537527E+02 -0.37510767634E+02  0.43400728383E+02  0.00000000000E+00 0.  1.
         11    1    3    3    0    0 -0.66966485343E+01 -0.71038164877E+01  0.15162661690E+02  0.18033735611E+02  0.51100000000E-03 0. -1.
        -11    1    3    3    0    0 -0.13642547602E+02 -0.82439846465E+01  0.18533399449E+02  0.24445230278E+02  0.51100000000E-03 0.  1.
        -12    1    3    3    0    0  0.26101049740E+01  0.26102636068E+01  0.38147064937E+01  0.53083057283E+01  0.00000000000E+00 0.  1.
</event>
<event>
 7    1  0.5022032E-011  0.4778727E+02  0.7816164E-02  0.1312668E+00
        -11   -1    0    0    0    0  0.00000000000E+00  0.00000000000E+00  0.45593999997E+02  0.45594000000E+02  0.51100000000E-03 0. -1.
         11   -1    0    0    0    0 -0.00000000000E+00 -0.00000000000E+00 -0.45593999997E+02  0.45594000000E+02  0.51100000000E-03 0.  1.
    9900012    2    1    2    0    0  0.11820418565E+02  0.11651329064E+02  0.40101714867E+02  0.47787270752E+02  0.19999998667E+02 0.  0.
        -12    1    1    2    0    0 -0.11820418565E+02 -0.11651329064E+02 -0.40101714867E+02  0.43400729248E+02  0.00000000000E+00 0.  1.
         11    1    3    3    0    0 -0.70421285685E-01  0.22157404979E+00 -0.11006048180E+01  0.11248935254E+01  0.51100000000E-03 0.  1.
        -11    1    3    3    0    0  0.76026163852E+01  0.12677667282E+02  0.19307573434E+02  0.24316772314E+02  0.51100000000E-03 0. -1.
         12    1    3    3    0    0  0.42882234653E+01 -0.12479122678E+01  0.21894746251E+02  0.22345604913E+02  0.00000000000E+00 0. -1.
</event>
<event>
 7    1  0.5022032E-011  0.4778727E+02  0.7816164E-02  0.1312668E+00
        -11   -1    0    0    0    0  0.00000000000E+00  0.00000000000E+00  0.45593999997E+02  0.45594000000E+02  0.51100000000E-03 0. -1.
         11   -1    0    0    0    0 -0.00000000000E+00 -0.00000000000E+00 -0.45593999997E+02  0.45594000000E+02  0.51100000000E-03 0.  1.
    9900012    2    1    2    0    0  0.77332882027E+01 -0.15210483986E+02 -0.39905646743E+02  0.47787271763E+02  0.20000003276E+02 0.  0.
         12    1    1    2    0    0 -0.77332882027E+01  0.15210483986E+02  0.39905646743E+02  0.43400728237E+02  0.00000000000E+00 0. -1.
         11    1    3    3    0    0 -0.20266910005E+01 -0.46452173504E+01 -0.51948004425E+01  0.72575114566E+01  0.51100000000E-03 0. -1.
        -11    1    3    3    0    0  0.12719919042E+01 -0.46098677936E+01 -0.27469457070E+02  0.27882609570E+02  0.51100000000E-03 0.  1.
        -12    1    3    3    0    0  0.84879872989E+01 -0.59553988419E+01 -0.72413892311E+01  0.12647150736E+02  0.00000000000E+00 0.  1.
</event>
<event>
 7    1  0.5022032E-011  0.4778727E+02  0.7816164E-02  0.1312668E+00
        -11   -1    0    0    0    0  0.00000000000E+00  0.00000000000E+00  0.45593999997E+02  0.45594000000E+02  0.51100000000E-03 0.  1.
         11   -1    0    0    0    0 -0.00000000000E+00 -0.00000000000E+00 -0.45593999997E+02  0.45594000000E+02  0.51100000000E-03 0. -1.
    9900012    2    1    2    0    0 -0.21195832215E+02 -0.37742277726E+02  0.31432926283E+01  0.47787272819E+02  0.20000008092E+02 0.  0.
        -12    1    1    2    0    0  0.21195832215E+02  0.37742277726E+02 -0.31432926283E+01  0.43400727181E+02  0.00000000000E+00 0.  1.
         11    1    3    3    0    0 -0.54546219925E+01  0.32730037880E+00  0.59508614208E+00  0.54967403428E+01  0.51100000000E-03 0. -1.
        -11    1    3    3    0    0 -0.43531595363E+00 -0.79962270643E+01  0.29770152643E+01  0.85435219546E+01  0.51100000000E-03 0.  1.
         12    1    3    3    0    0 -0.15305894269E+02 -0.30073351041E+02 -0.42880877812E+00  0.33747010522E+02  0.00000000000E+00 0. -1.
</event>
<event>
 7    1  0.5022032E-011  0.4778727E+02  0.7816164E-02  0.1312668E+00
        -11   -1    0    0    0    0  0.00000000000E+00  0.00000000000E+00  0.45593999997E+02  0.45594000000E+02  0.51100000000E-03 0. -1.
         11   -1    0    0    0    0 -0.00000000000E+00 -0.00000000000E+00 -0.45593999997E+02  0.45594000000E+02  0.51100000000E-03 0.  1.
    9900012    2    1    2    0    0 -0.26310399473E+02 -0.17803980099E+02 -0.29570327876E+02  0.47787272835E+02  0.20000008164E+02 0.  0.
         12    1    1    2    0    0  0.26310399473E+02  0.17803980099E+02  0.29570327876E+02  0.43400727165E+02  0.00000000000E+00 0. -1.
         11    1    3    3    0    0 -0.63903901926E+01  0.79020905071E+00 -0.98166969363E+01  0.11740062017E+02  0.51100000000E-03 0. -1.
        -11    1    3    3    0    0 -0.94338270873E+00  0.18426274391E+01 -0.25290149774E+01  0.32682049861E+01  0.51100000000E-03 0.  1.
        -12    1    3    3    0    0 -0.18976626571E+02 -0.20436816589E+02 -0.17224615962E+02  0.32779005832E+02  0.00000000000E+00 0.  1.
</event>
<event>
 7    1  0.5022032E-011  0.4778727E+02  0.7816164E-02  0.1312668E+00
        -11   -1    0    0    0    0  0.00000000000E+00  0.00000000000E+00  0.45593999997E+02  0.45594000000E+02  0.51100000000E-03 0. -1.
         11   -1    0    0    0    0 -0.00000000000E+00 -0.00000000000E+00 -0.45593999997E+02  0.45594000000E+02  0.51100000000E-03 0.  1.
    9900012    2    1    2    0    0 -0.40403650647E+02  0.15484634737E+02  0.33755297953E+01  0.47787273048E+02  0.20000009136E+02 0.  0.
         12    1    1    2    0    0  0.40403650647E+02 -0.15484634737E+02 -0.33755297953E+01  0.43400726952E+02  0.00000000000E+00 0. -1.
         11    1    3    3    0    0 -0.68968527106E+01 -0.18059147849E+01  0.37994528068E+01  0.80785981094E+01  0.51100000000E-03 0. -1.
        -11    1    3    3    0    0 -0.17192918649E+01  0.46171042870E+01 -0.22984602280E+01  0.54365923329E+01  0.51100000000E-03 0.  1.
        -12    1    3    3    0    0 -0.31787506071E+02  0.12673445235E+02  0.18745372164E+01  0.34272082606E+02  0.00000000000E+00 0.  1.
</event>
<event>
 7    1  0.5022032E-011  0.4778727E+02  0.7816164E-02  0.1312668E+00
        -11   -1    0    0    0    0  0.00000000000E+00  0.00000000000E+00  0.45593999997E+02  0.45594000000E+02  0.51100000000E-03 0. -1.
         11   -1    0    0    0    0 -0.00000000000E+00 -0.00000000000E+00 -0.45593999997E+02  0.45594000000E+02  0.51100000000E-03 0.  1.
    9900012    2    1    2    0    0 -0.12065932605E+02  0.88113280230E+01  0.40747970803E+02  0.47787270102E+02  0.19999995701E+02 0.  0.
        -12    1    1    2    0    0  0.12065932605E+02 -0.88113280230E+01 -0.40747970803E+02  0.43400729898E+02  0.00000000000E+00 0.  1.
         11    1    3    3    0    0  0.31501890444E+01  0.73711521912E+01  0.16112892082E+02  0.17996746016E+02  0.51100000000E-03 0.  1.
        -11    1    3    3    0    0  0.28983720249E+00 -0.91323921258E+00  0.23688820165E+01  0.25553108876E+01  0.51100000000E-03 0. -1.
        -12    1    3    3    0    0 -0.15505958852E+02  0.23534150443E+01  0.22266196704E+02  0.27235213198E+02  0.00000000000E+00 0.  1.
</event>
<event>
 7    1  0.5022032E-011  0.4778727E+02  0.7816164E-02  0.1312668E+00
        -11   -1    0    0    0    0  0.00000000000E+00  0.00000000000E+00  0.45593999997E+02  0.45594000000E+02  0.51100000000E-03 0. -1.
         11   -1    0    0    0    0 -0.00000000000E+00 -0.00000000000E+00 -0.45593999997E+02  0.45594000000E+02  0.51100000000E-03 0.  1.
    9900012    2    1    2    0    0 -0.17221693652E+01 -0.24548272307E+02  0.35749688599E+02  0.47787265265E+02  0.19999973650E+02 0.  0.
        -12    1    1    2    0    0  0.17221693652E+01  0.24548272307E+02 -0.35749688599E+02  0.43400734735E+02  0.00000000000E+00 0.  1.
         11    1    3    3    0    0  0.15147675656E+01  0.21658163480E+01  0.22647330634E+01  0.34805599177E+01  0.51100000000E-03 0.  1.
        -11    1    3    3    0    0  0.98933452346E+00 -0.54864170548E+01  0.14431242066E+02  0.15470627095E+02  0.51100000000E-03 0. -1.
        -12    1    3    3    0    0 -0.42262714543E+01 -0.21227671601E+02  0.19053713470E+02  0.28836078252E+02  0.00000000000E+00 0.  1.
</event>
<event>
 7    1  0.5022032E-011  0.4778728E+02  0.7816164E-02  0.1312668E+00
        -11   -1    0    0    0    0  0.00000000000E+00  0.00000000000E+00  0.45593999997E+02  0.45594000000E+02  0.51100000000E-03 0. -1.
         11   -1    0    0    0    0 -0.00000000000E+00 -0.00000000000E+00 -0.45593999997E+02  0.45594000000E+02  0.51100000000E-03 0.  1.
    9900012    2    1    2    0    0  0.18011421515E+02 -0.35081206340E+02  0.18125136629E+02  0.47787275109E+02  0.20000018531E+02 0.  0.
        -12    1    1    2    0    0 -0.18011421515E+02  0.35081206340E+02 -0.18125136629E+02  0.43400724891E+02  0.00000000000E+00 0.  1.
         11    1    3    3    0    0 -0.85863825204E+00 -0.62923212568E+01  0.28279328115E+01  0.69518177978E+01  0.51100000000E-03 0. -1.
        -11    1    3    3    0    0  0.61243035655E+01 -0.25570307307E+01  0.86856930317E+01  0.10931000138E+02  0.51100000000E-03 0.  1.
        -12    1    3    3    0    0  0.12745756201E+02 -0.26231854353E+02  0.66115107856E+01  0.29904457173E+02  0.00000000000E+00 0.  1.
</event>
<event>
 7    1  0.5022032E-011  0.4778727E+02  0.7816164E-02  0.1312668E+00
        -11   -1    0    0    0    0  0.00000000000E+00  0.00000000000E+00  0.45593999997E+02  0.45594000000E+02  0.51100000000E-03 0. -1.
         11   -1    0    0    0    0 -0.00000000000E+00 -0.00000000000E+00 -0.45593999997E+02  0.45594000000E+02  0.51100000000E-03 0.  1.
    9900012    2    1    2    0    0 -0.37833018698E+02 -0.45563839809E+01  0.20773192485E+02  0.47787268845E+02  0.19999989972E+02 0.  0.
        -12    1    1    2    0    0  0.37833018698E+02  0.45563839809E+01 -0.20773192485E+02  0.43400731155E+02  0.00000000000E+00 0.  1.
         11    1    3    3    0    0 -0.11157845571E+01 -0.12466629316E+01  0.58696950768E+01  0.61034796795E+01  0.51100000000E-03 0. -1.
        -11    1    3    3    0    0 -0.27905406431E+01 -0.41318292142E+01  0.16681708967E+01  0.52575587622E+01  0.51100000000E-03 0.  1.
        -12    1    3    3    0    0 -0.33926693498E+02  0.82210816494E+00  0.13235326511E+02  0.36426230403E+02  0.00000000000E+00 0.  1.
</event>
<event>
 7    1  0.5022032E-011  0.4778726E+02  0.7816164E-02  0.1312668E+00
        -11   -1    0    0    0    0  0.00000000000E+00  0.00000000000E+00  0.45593999997E+02  0.45594000000E+02  0.51100000000E-03 0. -1.
         11   -1    0    0    0    0 -0.00000000000E+00 -0.00000000000E+00 -0.45593999997E+02  0.45594000000E+02  0.51100000000E-03 0.  1.
    9900012    2    1    2    0    0 -0.68794775320E+01 -0.36177202404E+02 -0.22967525778E+02  0.47787257780E+02  0.19999939521E+02 0.  0.
         12    1    1    2    0    0  0.68794775320E+01  0.36177202404E+02  0.22967525778E+02  0.43400742220E+02  0.00000000000E+00 0. -1.
         11    1    3    3    0    0 -0.31245551909E+00 -0.78280930163E+00  0.95595095462E+00  0.12744651203E+01  0.51100000000E-03 0. -1.
        -11    1    3    3    0    0 -0.12134805294E+01 -0.28411521825E+01 -0.10415363902E+02  0.10863907501E+02  0.51100000000E-03 0.  1.
         12    1    3    3    0    0 -0.53535414835E+01 -0.32553240920E+02 -0.13508112831E+02  0.35648885159E+02  0.00000000000E+00 0. -1.
</event>
<event>
 7    1  0.5022032E-011  0.4778727E+02  0.7816164E-02  0.1312668E+00
        -11   -1    0    0    0    0  0.00000000000E+00  0.00000000000E+00  0.45593999997E+02  0.45594000000E+02  0.51100000000E-03 0. -1.
         11   -1    0    0    0    0 -0.00000000000E+00 -0.00000000000E+00 -0.45593999997E+02  0.45594000000E+02  0.51100000000E-03 0.  1.
    9900012    2    1    2    0    0 -0.58297929997E+00 -0.32171616759E+02 -0.29125080734E+02  0.47787272846E+02  0.20000008212E+02 0.  0.
         12    1    1    2    0    0  0.58297929997E+00  0.32171616759E+02  0.29125080734E+02  0.43400727154E+02  0.00000000000E+00 0. -1.
         11    1    3    3    0    0  0.11825281045E+01 -0.77458585760E+01 -0.13080593192E+00  0.78366962587E+01  0.51100000000E-03 0. -1.
        -11    1    3    3    0    0  0.50937229156E+01 -0.14692126279E+02 -0.15548136480E+02  0.21989750704E+02  0.51100000000E-03 0.  1.
        -12    1    3    3    0    0 -0.68592303201E+01 -0.97336319039E+01 -0.13446138322E+02  0.17960825883E+02  0.00000000000E+00 0.  1.
</event>
<event>
 7    1  0.5022032E-011  0.4778727E+02  0.7816164E-02  0.1312668E+00
        -11   -1    0    0    0    0  0.00000000000E+00  0.00000000000E+00  0.45593999997E+02  0.45594000000E+02  0.51100000000E-03 0.  1.
         11   -1    0    0    0    0 -0.00000000000E+00 -0.00000000000E+00 -0.45593999997E+02  0.45594000000E+02  0.51100000000E-03 0. -1.
    9900012    2    1    2    0    0  0.32503048140E+02  0.15910451276E+02  0.23958977462E+02  0.47787271904E+02  0.20000003921E+02 0.  0.
        -12    1    1    2    0    0 -0.32503048140E+02 -0.15910451276E+02 -0.23958977462E+02  0.43400728096E+02  0.00000000000E+00 0.  1.
         11    1    3    3    0    0  0.61971012080E+01  0.20421366094E+01 -0.39606374053E+00  0.65369145674E+01  0.51100000000E-03 0. -1.
        -11    1    3    3    0    0 -0.83234879887E-01 -0.23216845487E+01  0.14473259277E+01  0.27371334989E+01  0.51100000000E-03 0.  1.
        -12    1    3    3    0    0  0.26389181812E+02  0.16189999215E+02  0.22907715275E+02  0.38513223838E+02  0.00000000000E+00 0.  1.
</event>
<event>
 7    1  0.5022032E-011  0.4778727E+02  0.7816164E-02  0.1312668E+00
        -11   -1    0    0    0    0  0.00000000000E+00  0.00000000000E+00  0.45593999997E+02  0.45594000000E+02  0.51100000000E-03 0. -1.
         11   -1    0    0    0    0 -0.00000000000E+00 -0.00000000000E+00 -0.45593999997E+02  0.45594000000E+02  0.51100000000E-03 0.  1.
    9900012    2    1    2    0    0 -0.17867947044E+01 -0.41868917091E+02 -0.11288242371E+02  0.47787271094E+02  0.20000000227E+02 0.  0.
         12    1    1    2    0    0  0.17867947044E+01  0.41868917091E+02  0.11288242371E+02  0.43400728906E+02  0.00000000000E+00 0. -1.
         11    1    3    3    0    0  0.77158017161E+00 -0.20882338785E+02 -0.52098978456E+00  0.20903082062E+02  0.51100000000E-03 0. -1.
        -11    1    3    3    0    0 -0.53613553679E+01 -0.15337509655E+02 -0.24264913352E+01  0.16427756824E+02  0.51100000000E-03 0.  1.
         12    1    3    3    0    0  0.28029804920E+01 -0.56490686517E+01 -0.83407612515E+01  0.10456432208E+02  0.00000000000E+00 0. -1.
</event>
<event>
 7    1  0.5102995E-011  0.4778727E+02  0.7816164E-02  0.1312668E+00
        -11   -1    0    0    0    0  0.00000000000E+00  0.00000000000E+00  0.45593999997E+02  0.45594000000E+02  0.51100000000E-03 0. -1.
         11   -1    0    0    0    0 -0.00000000000E+00 -0.00000000000E+00 -0.45593999997E+02  0.45594000000E+02  0.51100000000E-03 0.  1.
    9900012    2    1    2    0    0 -0.14638039313E+02 -0.31774266243E+02 -0.25685544350E+02  0.47787269836E+02  0.19999994490E+02 0.  0.
         12    1    1    2    0    0  0.14638039313E+02  0.31774266243E+02  0.25685544350E+02  0.43400730164E+02  0.00000000000E+00 0. -1.
         11    1    3    3    0    0 -0.60006442498E+01 -0.11799197147E+02 -0.18763470799E+02  0.22962940174E+02  0.51100000000E-03 0.  1.
        -11    1    3    3    0    0 -0.10420446425E+02 -0.14228769897E+02 -0.64885590344E+01  0.18792152487E+02  0.51100000000E-03 0. -1.
        -12    1    3    3    0    0  0.17830513618E+01 -0.57462991983E+01 -0.43351451635E+00  0.60321771751E+01  0.00000000000E+00 0.  1.
</event>
<event>
 7    1  0.5022032E-011  0.4778727E+02  0.7816164E-02  0.1312668E+00
        -11   -1    0    0    0    0  0.00000000000E+00  0.00000000000E+00  0.45593999997E+02  0.45594000000E+02  0.51100000000E-03 0. -1.
         11   -1    0    0    0    0 -0.00000000000E+00 -0.00000000000E+00 -0.45593999997E+02  0.45594000000E+02  0.51100000000E-03 0.  1.
    9900012    2    1    2    0    0  0.58800117789E+01  0.10516171076E+01  0.42987704496E+02  0.47787272185E+02  0.20000005200E+02 0.  0.
        -12    1    1    2    0    0 -0.58800117789E+01 -0.10516171076E+01 -0.42987704496E+02  0.43400727815E+02  0.00000000000E+00 0.  1.
         11    1    3    3    0    0  0.69390879476E+00  0.61643078535E+01  0.12166448045E+02  0.13656597637E+02  0.51100000000E-03 0. -1.
        -11    1    3    3    0    0 -0.79683325068E+00  0.17038763182E+01 -0.12261701764E+00  0.18849861886E+01  0.51100000000E-03 0.  1.
        -12    1    3    3    0    0  0.59829362348E+01 -0.68165670641E+01  0.30943873468E+02  0.32245688359E+02  0.00000000000E+00 0.  1.
</event>
<event>
 7    1  0.5022032E-011  0.4778722E+02  0.7816164E-02  0.1312668E+00
        -11   -1    0    0    0    0  0.00000000000E+00  0.00000000000E+00  0.45593999997E+02  0.45594000000E+02  0.51100000000E-03 0. -1.
         11   -1    0    0    0    0 -0.00000000000E+00 -0.00000000000E+00 -0.45593999997E+02  0.45594000000E+02  0.51100000000E-03 0.  1.
    9900012    2    1    2    0    0  0.59977008631E+01 -0.29835651305E+02  0.30943322076E+02  0.47787220219E+02  0.19999768266E+02 0.  0.
        -12    1    1    2    0    0 -0.59977008631E+01  0.29835651305E+02 -0.30943322076E+02  0.43400779781E+02  0.00000000000E+00 0.  1.
         11    1    3    3    0    0  0.27600817383E+01 -0.10523491759E+02  0.11273709309E+02  0.15667113705E+02  0.51100000000E-03 0. -1.
        -11    1    3    3    0    0 -0.55332407654E+01 -0.43127537348E+01  0.10059001792E+02  0.12263772481E+02  0.51100000000E-03 0.  1.
        -12    1    3    3    0    0  0.87708598902E+01 -0.14999405811E+02  0.96106109751E+01  0.19856334033E+02  0.00000000000E+00 0.  1.
</event>
<event>
 7    1  0.5022032E-011  0.4778727E+02  0.7816164E-02  0.1312668E+00
        -11   -1    0    0    0    0  0.00000000000E+00  0.00000000000E+00  0.45593999997E+02  0.45594000000E+02  0.51100000000E-03 0. -1.
         11   -1    0    0    0    0 -0.00000000000E+00 -0.00000000000E+00 -0.45593999997E+02  0.45594000000E+02  0.51100000000E-03 0.  1.
    9900012    2    1    2    0    0  0.21918355931E+02 -0.32954983636E+02  0.17809489174E+02  0.47787272151E+02  0.20000005046E+02 0.  0.
        -12    1    1    2    0    0 -0.21918355931E+02  0.32954983636E+02 -0.17809489174E+02  0.43400727849E+02  0.00000000000E+00 0.  1.
         11    1    3    3    0    0  0.16710356783E+02 -0.15114251960E+02  0.83074612354E+01  0.24014382120E+02  0.51100000000E-03 0. -1.
        -11    1    3    3    0    0  0.33160362766E+01 -0.91859956514E+01 -0.12448803247E+01  0.98452191433E+01  0.51100000000E-03 0.  1.
        -12    1    3    3    0    0  0.18919628709E+01 -0.86547360242E+01  0.10746908263E+02  0.13927670888E+02  0.00000000000E+00 0.  1.
</event>
<event>
 7    1  0.5022032E-011  0.4778727E+02  0.7816164E-02  0.1312668E+00
        -11   -1    0    0    0    0  0.00000000000E+00  0.00000000000E+00  0.45593999997E+02  0.45594000000E+02  0.51100000000E-03 0. -1.
         11   -1    0    0    0    0 -0.00000000000E+00 -0.00000000000E+00 -0.45593999997E+02  0.45594000000E+02  0.51100000000E-03 0.  1.
    9900012    2    1    2    0    0  0.19899888492E+01 -0.28689980545E+02  0.32504585717E+02  0.47787272680E+02  0.20000007457E+02 0.  0.
        -12    1    1    2    0    0 -0.19899888492E+01  0.28689980545E+02 -0.32504585717E+02  0.43400727320E+02  0.00000000000E+00 0.  1.
         11    1    3    3    0    0  0.23404268494E+01 -0.15306275754E+02  0.18711862493E+02  0.24287722691E+02  0.51100000000E-03 0. -1.
        -11    1    3    3    0    0  0.99916010104E-01 -0.12330821106E+02  0.16477500292E+02  0.20580747034E+02  0.51100000000E-03 0.  1.
        -12    1    3    3    0    0 -0.45035401032E+00 -0.10528836845E+01 -0.26847770675E+01  0.29188029550E+01  0.00000000000E+00 0.  1.
</event>
<event>
 7    1  0.5022032E-011  0.4778729E+02  0.7816164E-02  0.1312668E+00
        -11   -1    0    0    0    0  0.00000000000E+00  0.00000000000E+00  0.45593999997E+02  0.45594000000E+02  0.51100000000E-03 0. -1.
         11   -1    0    0    0    0 -0.00000000000E+00 -0.00000000000E+00 -0.45593999997E+02  0.45594000000E+02  0.51100000000E-03 0.  1.
    9900012    2    1    2    0    0  0.17835909025E+02  0.91939377490E+01 -0.38483423866E+02  0.47787285092E+02  0.20000064048E+02 0.  0.
         12    1    1    2    0    0 -0.17835909025E+02 -0.91939377490E+01  0.38483423866E+02  0.43400714908E+02  0.00000000000E+00 0. -1.
         11    1    3    3    0    0  0.94068950392E+01  0.14772919128E+01 -0.80687707340E+01  0.12481070751E+02  0.51100000000E-03 0. -1.
        -11    1    3    3    0    0  0.80481704996E+01 -0.66899417873E+00 -0.21934728904E+02  0.23374193761E+02  0.51100000000E-03 0.  1.
         12    1    3    3    0    0  0.38084348661E+00  0.83856400150E+01 -0.84799242275E+01  0.11932020580E+02  0.00000000000E+00 0. -1.
</event>
<event>
 7    1  0.5022032E-011  0.4778727E+02  0.7816164E-02  0.1312668E+00
        -11   -1    0    0    0    0  0.00000000000E+00  0.00000000000E+00  0.45593999997E+02  0.45594000000E+02  0.51100000000E-03 0. -1.
         11   -1    0    0    0    0 -0.00000000000E+00 -0.00000000000E+00 -0.45593999997E+02  0.45594000000E+02  0.51100000000E-03 0.  1.
    9900012    2    1    2    0    0 -0.28710188314E+02 -0.18859698607E+02 -0.26526594545E+02  0.47787270021E+02  0.19999995332E+02 0.  0.
         12    1    1    2    0    0  0.28710188314E+02  0.18859698607E+02  0.26526594545E+02  0.43400729979E+02  0.00000000000E+00 0. -1.
         11    1    3    3    0    0 -0.82186800521E+01  0.87185967306E+00 -0.71301332146E+01  0.10915385518E+02  0.51100000000E-03 0. -1.
        -11    1    3    3    0    0 -0.21339867316E+02 -0.13926946018E+02 -0.15414793676E+02  0.29781968148E+02  0.51100000000E-03 0.  1.
        -12    1    3    3    0    0  0.84835905401E+00 -0.58046122626E+01 -0.39816676542E+01  0.70899163544E+01  0.00000000000E+00 0.  1.
</event>
<event>
 7    1  0.5022032E-011  0.4778728E+02  0.7816164E-02  0.1312668E+00
        -11   -1    0    0    0    0  0.00000000000E+00  0.00000000000E+00  0.45593999997E+02  0.45594000000E+02  0.51100000000E-03 0. -1.
         11   -1    0    0    0    0 -0.00000000000E+00 -0.00000000000E+00 -0.45593999997E+02  0.45594000000E+02  0.51100000000E-03 0.  1.
    9900012    2    1    2    0    0 -0.17624267934E+02  0.25500214023E+02 -0.30376750720E+02  0.47787277428E+02  0.20000029107E+02 0.  0.
         12    1    1    2    0    0  0.17624267934E+02 -0.25500214023E+02  0.30376750720E+02  0.43400722572E+02  0.00000000000E+00 0. -1.
         11    1    3    3    0    0 -0.23523014064E+01  0.54646927227E+01 -0.24062182310E+01  0.64176377972E+01  0.51100000000E-03 0. -1.
        -11    1    3    3    0    0 -0.18471018244E+02  0.12610521459E+02 -0.19706575117E+02  0.29808603952E+02  0.51100000000E-03 0.  1.
        -12    1    3    3    0    0  0.31990517167E+01  0.74249998414E+01 -0.82639573723E+01  0.11561035680E+02  0.00000000000E+00 0.  1.
</event>
<event>
 7    1  0.8309403E-011  0.4778727E+02  0.7816164E-02  0.1312668E+00
        -11   -1    0    0    0    0  0.00000000000E+00  0.00000000000E+00  0.45593999997E+02  0.45594000000E+02  0.51100000000E-03 0. -1.
         11   -1    0    0    0    0 -0.00000000000E+00 -0.00000000000E+00 -0.45593999997E+02  0.45594000000E+02  0.51100000000E-03 0.  1.
    9900012    2    1    2    0    0 -0.26320250963E+02 -0.79811376284E+01 -0.33573339174E+02  0.47787271067E+02  0.20000000102E+02 0.  0.
         12    1    1    2    0    0  0.26320250963E+02  0.79811376284E+01  0.33573339174E+02  0.43400728933E+02  0.00000000000E+00 0. -1.
         11    1    3    3    0    0 -0.10207462152E+01 -0.64287822041E+01 -0.67788181653E+01  0.93980604086E+01  0.51100000000E-03 0. -1.
        -11    1    3    3    0    0 -0.30704702560E+01  0.94442054365E+00  0.33184203172E+00  0.32295258401E+01  0.51100000000E-03 0.  1.
        -12    1    3    3    0    0 -0.22229034492E+02 -0.24967759680E+01 -0.27126363041E+02  0.35159684818E+02  0.00000000000E+00 0.  1.
</event>
<event>
 7    1  0.5022032E-011  0.4778727E+02  0.7816164E-02  0.1312668E+00
        -11   -1    0    0    0    0  0.00000000000E+00  0.00000000000E+00  0.45593999997E+02  0.45594000000E+02  0.51100000000E-03 0. -1.
         11   -1    0    0    0    0 -0.00000000000E+00 -0.00000000000E+00 -0.45593999997E+02  0.45594000000E+02  0.51100000000E-03 0.  1.
    9900012    2    1    2    0    0  0.77767055699E+01  0.18113590863E+02 -0.38665796320E+02  0.47787272719E+02  0.20000007634E+02 0.  0.
         12    1    1    2    0    0 -0.77767055699E+01 -0.18113590863E+02  0.38665796320E+02  0.43400727281E+02  0.00000000000E+00 0. -1.
         11    1    3    3    0    0 -0.29937006508E+01  0.56767424395E+01 -0.60702777634E+01  0.88337942412E+01  0.51100000000E-03 0. -1.
        -11    1    3    3    0    0  0.15473639483E+01 -0.27483092596E+01 -0.81067320649E+01  0.86986575981E+01  0.51100000000E-03 0.  1.
        -12    1    3    3    0    0  0.92230422724E+01  0.15185157683E+02 -0.24488786492E+02  0.30254820880E+02  0.00000000000E+00 0.  1.
</event>
<event>
 7    1  0.5022032E-011  0.4778727E+02  0.7816164E-02  0.1312668E+00
        -11   -1    0    0    0    0  0.00000000000E+00  0.00000000000E+00  0.45593999997E+02  0.45594000000E+02  0.51100000000E-03 0. -1.
         11   -1    0    0    0    0 -0.00000000000E+00 -0.00000000000E+00 -0.45593999997E+02  0.45594000000E+02  0.51100000000E-03 0.  1.
    9900012    2    1    2    0    0  0.70905805125E+01  0.15453395004E+02 -0.39931687122E+02  0.47787269758E+02  0.19999994135E+02 0.  0.
         12    1    1    2    0    0 -0.70905805125E+01 -0.15453395004E+02  0.39931687122E+02  0.43400730242E+02  0.00000000000E+00 0. -1.
         11    1    3    3    0    0  0.13131819929E+01  0.22178173841E+01 -0.41977475466E+00  0.26113927322E+01  0.51100000000E-03 0. -1.
        -11    1    3    3    0    0  0.30651998208E+01 -0.18428278861E+01 -0.20253795589E+02  0.20567151008E+02  0.51100000000E-03 0.  1.
         12    1    3    3    0    0  0.27121986988E+01  0.15078405506E+02 -0.19258116778E+02  0.24608726018E+02  0.00000000000E+00 0. -1.
</event>
<event>
 7    1  0.5022032E-011  0.4778727E+02  0.7816164E-02  0.1312668E+00
        -11   -1    0    0    0    0  0.00000000000E+00  0.00000000000E+00  0.45593999997E+02  0.45594000000E+02  0.51100000000E-03 0. -1.
         11   -1    0    0    0    0 -0.00000000000E+00 -0.00000000000E+00 -0.45593999997E+02  0.45594000000E+02  0.51100000000E-03 0.  1.
    9900012    2    1    2    0    0  0.17084932460E+02  0.39007110917E+02 -0.83769828863E+01  0.47787268883E+02  0.19999990145E+02 0.  0.
         12    1    1    2    0    0 -0.17084932460E+02 -0.39007110917E+02  0.83769828863E+01  0.43400731117E+02  0.00000000000E+00 0. -1.
         11    1    3    3    0    0  0.34928906330E+01  0.14277356039E+02 -0.84041717495E+01  0.16931428867E+02  0.51100000000E-03 0. -1.
        -11    1    3    3    0    0 -0.70073300276E+00 -0.10310622117E+01  0.61433844289E+00  0.13897942326E+01  0.51100000000E-03 0.  1.
        -12    1    3    3    0    0  0.14292774829E+02  0.25760817090E+02 -0.58714957966E+00  0.29466045783E+02  0.00000000000E+00 0.  1.
</event>
<event>
 7    1  0.5022032E-011  0.4778727E+02  0.7816164E-02  0.1312668E+00
        -11   -1    0    0    0    0  0.00000000000E+00  0.00000000000E+00  0.45593999997E+02  0.45594000000E+02  0.51100000000E-03 0. -1.
         11   -1    0    0    0    0 -0.00000000000E+00 -0.00000000000E+00 -0.45593999997E+02  0.45594000000E+02  0.51100000000E-03 0.  1.
    9900012    2    1    2    0    0  0.61183469057E+01 -0.80081982664E+01 -0.42214427147E+02  0.47787271116E+02  0.20000000326E+02 0.  0.
         12    1    1    2    0    0 -0.61183469057E+01  0.80081982664E+01  0.42214427147E+02  0.43400728884E+02  0.00000000000E+00 0. -1.
         11    1    3    3    0    0 -0.21125676373E+01 -0.15233691256E+01  0.10659743591E+01  0.28142311757E+01  0.51100000000E-03 0. -1.
        -11    1    3    3    0    0  0.86648017997E+01 -0.53432673452E+01 -0.30924548034E+02  0.32556980319E+02  0.51100000000E-03 0.  1.
         12    1    3    3    0    0 -0.43388725663E+00 -0.11415617956E+01 -0.12355853472E+02  0.12416059621E+02  0.00000000000E+00 0. -1.
</event>
<event>
 7    1  0.5022032E-011  0.4778728E+02  0.7816164E-02  0.1312668E+00
        -11   -1    0    0    0    0  0.00000000000E+00  0.00000000000E+00  0.45593999997E+02  0.45594000000E+02  0.51100000000E-03 0. -1.
         11   -1    0    0    0    0 -0.00000000000E+00 -0.00000000000E+00 -0.45593999997E+02  0.45594000000E+02  0.51100000000E-03 0.  1.
    9900012    2    1    2    0    0 -0.91318257570E+00  0.68462840308E+01 -0.42847605522E+02  0.47787276430E+02  0.20000024553E+02 0.  0.
         12    1    1    2    0    0  0.91318257570E+00 -0.68462840308E+01  0.42847605522E+02  0.43400723570E+02  0.00000000000E+00 0. -1.
         11    1    3    3    0    0 -0.37496806402E+01  0.50793772588E+01 -0.53021447148E+01  0.82445689444E+01  0.51100000000E-03 0. -1.
        -11    1    3    3    0    0 -0.27185467242E+01  0.21347502443E+01 -0.30774754547E+01  0.46280136487E+01  0.51100000000E-03 0.  1.
        -12    1    3    3    0    0  0.55550447887E+01 -0.36784347236E+00 -0.34467985353E+02  0.34914693837E+02  0.00000000000E+00 0.  1.
</event>
<event>
 7    1  0.5022032E-011  0.4778727E+02  0.7816164E-02  0.1312668E+00
        -11   -1    0    0    0    0  0.00000000000E+00  0.00000000000E+00  0.45593999997E+02  0.45594000000E+02  0.51100000000E-03 0. -1.
         11   -1    0    0    0    0 -0.00000000000E+00 -0.00000000000E+00 -0.45593999997E+02  0.45594000000E+02  0.51100000000E-03 0.  1.
    9900012    2    1    2    0    0  0.22542899100E+01 -0.29853857382E+02 -0.31421148895E+02  0.47787271649E+02  0.20000002754E+02 0.  0.
         12    1    1    2    0    0 -0.22542899100E+01  0.29853857382E+02  0.31421148895E+02  0.43400728351E+02  0.00000000000E+00 0. -1.
         11    1    3    3    0    0 -0.68380059367E+00  0.18403103166E+01 -0.77226380859E+01  0.79682786460E+01  0.51100000000E-03 0. -1.
        -11    1    3    3    0    0 -0.47054993572E+00 -0.67163228828E+01 -0.40513275933E+01  0.78577137793E+01  0.51100000000E-03 0.  1.
         12    1    3    3    0    0  0.34086404393E+01 -0.24977844816E+02 -0.19647183216E+02  0.31961279223E+02  0.00000000000E+00 0. -1.
</event>
<event>
 7    1  0.5022032E-011  0.4778728E+02  0.7816164E-02  0.1312668E+00
        -11   -1    0    0    0    0  0.00000000000E+00  0.00000000000E+00  0.45593999997E+02  0.45594000000E+02  0.51100000000E-03 0. -1.
         11   -1    0    0    0    0 -0.00000000000E+00 -0.00000000000E+00 -0.45593999997E+02  0.45594000000E+02  0.51100000000E-03 0.  1.
    9900012    2    1    2    0    0  0.14547354783E+02  0.19821165138E+02  0.35764769252E+02  0.47787276063E+02  0.20000022883E+02 0.  0.
        -12    1    1    2    0    0 -0.14547354783E+02 -0.19821165138E+02 -0.35764769252E+02  0.43400723937E+02  0.00000000000E+00 0.  1.
         11    1    3    3    0    0  0.17755937719E+01  0.11783053725E+02  0.16558363297E+02  0.20400305970E+02  0.51100000000E-03 0. -1.
        -11    1    3    3    0    0  0.22321903184E+01  0.40797465691E+01 -0.51434249075E+00  0.46788411113E+01  0.51100000000E-03 0.  1.
        -12    1    3    3    0    0  0.10539570692E+02  0.39583648441E+01  0.19720748446E+02  0.22708128982E+02  0.00000000000E+00 0.  1.
</event>
<event>
 7    1  0.5022032E-011  0.4778728E+02  0.7816164E-02  0.1312668E+00
        -11   -1    0    0    0    0  0.00000000000E+00  0.00000000000E+00  0.45593999997E+02  0.45594000000E+02  0.51100000000E-03 0. -1.
         11   -1    0    0    0    0 -0.00000000000E+00 -0.00000000000E+00 -0.45593999997E+02  0.45594000000E+02  0.51100000000E-03 0.  1.
    9900012    2    1    2    0    0 -0.29187702447E+02  0.28048665218E+02  0.15651620615E+02  0.47787276244E+02  0.20000023708E+02 0.  0.
        -12    1    1    2    0    0  0.29187702447E+02 -0.28048665218E+02 -0.15651620615E+02  0.43400723756E+02  0.00000000000E+00 0.  1.
         11    1    3    3    0    0 -0.29696357280E+01  0.64435435259E+01  0.60486182763E+01  0.93232919530E+01  0.51100000000E-03 0. -1.
        -11    1    3    3    0    0 -0.20127576550E+02  0.10672596435E+02  0.15359110753E+00  0.22782608343E+02  0.51100000000E-03 0.  1.
        -12    1    3    3    0    0 -0.60904901688E+01  0.10932525258E+02  0.94494112316E+01  0.15681375948E+02  0.00000000000E+00 0.  1.
</event>
<event>
 7    1  0.5022032E-011  0.4778727E+02  0.7816164E-02  0.1312668E+00
        -11   -1    0    0    0    0  0.00000000000E+00  0.00000000000E+00  0.45593999997E+02  0.45594000000E+02  0.51100000000E-03 0. -1.
         11   -1    0    0    0    0 -0.00000000000E+00 -0.00000000000E+00 -0.45593999997E+02  0.45594000000E+02  0.51100000000E-03 0.  1.
    9900012    2    1    2    0    0  0.42758436847E+02  0.74387652501E+01  0.65160513873E-01  0.47787269638E+02  0.19999993587E+02 0.  0.
        -12    1    1    2    0    0 -0.42758436847E+02 -0.74387652501E+01 -0.65160513873E-01  0.43400730362E+02  0.00000000000E+00 0.  1.
         11    1    3    3    0    0  0.10199194651E+02  0.28031847007E+00  0.61236479532E+01  0.11899630856E+02  0.51100000000E-03 0. -1.
        -11    1    3    3    0    0  0.42518679634E+01 -0.29024852523E+01  0.38431807764E+00  0.51624124655E+01  0.51100000000E-03 0.  1.
        -12    1    3    3    0    0  0.28307374232E+02  0.10060932032E+02 -0.64428055170E+01  0.30725226317E+02  0.00000000000E+00 0.  1.
</event>
<event>
 7    1  0.5022032E-011  0.4778726E+02  0.7816164E-02  0.1312668E+00
        -11   -1    0    0    0    0  0.00000000000E+00  0.00000000000E+00  0.45593999997E+02  0.45594000000E+02  0.51100000000E-03 0. -1.
         11   -1    0    0    0    0 -0.00000000000E+00 -0.00000000000E+00 -0.45593999997E+02  0.45594000000E+02  0.51100000000E-03 0.  1.
    9900012    2    1    2    0    0  0.33040655640E+02  0.78552798715E+01 -0.27022842999E+02  0.47787258178E+02  0.19999941337E+02 0.  0.
         12    1    1    2    0    0 -0.33040655640E+02 -0.78552798715E+01  0.27022842999E+02  0.43400741822E+02  0.00000000000E+00 0. -1.
         11    1    3    3    0    0  0.78580996513E+01 -0.25657959157E+01 -0.10818845633E+02  0.13615449310E+02  0.51100000000E-03 0. -1.
        -11    1    3    3    0    0  0.76541067377E+01  0.27669002401E+01 -0.12143682283E+02  0.14618827126E+02  0.51100000000E-03 0.  1.
         12    1    3    3    0    0  0.17528449250E+02  0.76541755472E+01 -0.40603150828E+01  0.19552981742E+02  0.00000000000E+00 0. -1.
</event>
<event>
 7    1  0.5022032E-011  0.4778727E+02  0.7816164E-02  0.1312668E+00
        -11   -1    0    0    0    0  0.00000000000E+00  0.00000000000E+00  0.45593999997E+02  0.45594000000E+02  0.51100000000E-03 0. -1.
         11   -1    0    0    0    0 -0.00000000000E+00 -0.00000000000E+00 -0.45593999997E+02  0.45594000000E+02  0.51100000000E-03 0.  1.
    9900012    2    1    2    0    0  0.29927467432E+02 -0.23995170229E+01 -0.31340261496E+02  0.47787274436E+02  0.20000015463E+02 0.  0.
         12    1    1    2    0    0 -0.29927467432E+02  0.23995170229E+01  0.31340261496E+02  0.43400725564E+02  0.00000000000E+00 0. -1.
         11    1    3    3    0    0  0.12232742183E+02 -0.92500426127E+01 -0.20953084866E+02  0.25966036188E+02  0.51100000000E-03 0. -1.
        -11    1    3    3    0    0  0.36074649221E+01  0.21331844467E+01 -0.34353880036E+01  0.54190561949E+01  0.51100000000E-03 0.  1.
         12    1    3    3    0    0  0.14087260327E+02  0.47173411431E+01 -0.69517886263E+01  0.16402182053E+02  0.00000000000E+00 0. -1.
</event>
<event>
 7    1  0.5022032E-011  0.4778727E+02  0.7816164E-02  0.1312668E+00
        -11   -1    0    0    0    0  0.00000000000E+00  0.00000000000E+00  0.45593999997E+02  0.45594000000E+02  0.51100000000E-03 0. -1.
         11   -1    0    0    0    0 -0.00000000000E+00 -0.00000000000E+00 -0.45593999997E+02  0.45594000000E+02  0.51100000000E-03 0.  1.
    9900012    2    1    2    0    0 -0.20116219295E+02 -0.13044981605E+02  0.36177194042E+02  0.47787271981E+02  0.20000004272E+02 0.  0.
        -12    1    1    2    0    0  0.20116219295E+02  0.13044981605E+02 -0.36177194042E+02  0.43400728019E+02  0.00000000000E+00 0.  1.
         11    1    3    3    0    0 -0.90534047542E+01 -0.95848386506E+01  0.82766874907E+01  0.15567171409E+02  0.51100000000E-03 0. -1.
        -11    1    3    3    0    0  0.61331493995E+00 -0.41222997599E+01  0.10048265761E+02  0.10878288266E+02  0.51100000000E-03 0.  1.
        -12    1    3    3    0    0 -0.11676129480E+02  0.66215680597E+00  0.17852240791E+02  0.21341812306E+02  0.00000000000E+00 0.  1.
</event>
<event>
 7    1  0.5022032E-011  0.4778727E+02  0.7816164E-02  0.1312668E+00
        -11   -1    0    0    0    0  0.00000000000E+00  0.00000000000E+00  0.45593999997E+02  0.45594000000E+02  0.51100000000E-03 0.  1.
         11   -1    0    0    0    0 -0.00000000000E+00 -0.00000000000E+00 -0.45593999997E+02  0.45594000000E+02  0.51100000000E-03 0. -1.
    9900012    2    1    2    0    0 -0.67973776772E+01  0.41020477584E+02 -0.12439439282E+02  0.47787267585E+02  0.19999984228E+02 0.  0.
         12    1    1    2    0    0  0.67973776772E+01 -0.41020477584E+02  0.12439439282E+02  0.43400732415E+02  0.00000000000E+00 0. -1.
         11    1    3    3    0    0 -0.47369551462E+01  0.12905300419E+00 -0.13872345391E+01  0.49375923954E+01  0.51100000000E-03 0. -1.
        -11    1    3    3    0    0 -0.12824830096E+01  0.17942236295E+01  0.26769794383E-01  0.22056105698E+01  0.51100000000E-03 0.  1.
        -12    1    3    3    0    0 -0.77793952136E+00  0.39097200950E+02 -0.11078974537E+02  0.40644064620E+02  0.00000000000E+00 0.  1.
</event>
<event>
 7    1  0.5022032E-011  0.4778727E+02  0.7816164E-02  0.1312668E+00
        -11   -1    0    0    0    0  0.00000000000E+00  0.00000000000E+00  0.45593999997E+02  0.45594000000E+02  0.51100000000E-03 0.  1.
         11   -1    0    0    0    0 -0.00000000000E+00 -0.00000000000E+00 -0.45593999997E+02  0.45594000000E+02  0.51100000000E-03 0. -1.
    9900012    2    1    2    0    0 -0.43223486383E+02 -0.38588980493E+01  0.68012236505E+00  0.47787269180E+02  0.19999991501E+02 0.  0.
        -12    1    1    2    0    0  0.43223486383E+02  0.38588980493E+01 -0.68012236505E+00  0.43400730820E+02  0.00000000000E+00 0.  1.
         11    1    3    3    0    0 -0.25819900592E+01 -0.17227935352E+00 -0.87994341010E+00  0.27332496241E+01  0.51100000000E-03 0. -1.
        -11    1    3    3    0    0 -0.28958705197E+01  0.53715954600E+01 -0.85292060320E+00  0.61617836435E+01  0.51100000000E-03 0.  1.
        -12    1    3    3    0    0 -0.37745625804E+02 -0.90582141558E+01  0.24129863784E+01  0.38892235913E+02  0.00000000000E+00 0.  1.
</event>
<event>
 7    1  0.5022032E-011  0.4778727E+02  0.7816164E-02  0.1312668E+00
        -11   -1    0    0    0    0  0.00000000000E+00  0.00000000000E+00  0.45593999997E+02  0.45594000000E+02  0.51100000000E-03 0. -1.
         11   -1    0    0    0    0 -0.00000000000E+00 -0.00000000000E+00 -0.45593999997E+02  0.45594000000E+02  0.51100000000E-03 0.  1.
    9900012    2    1    2    0    0 -0.25892720649E+00  0.27238368328E+02 -0.33787978633E+02  0.47787271290E+02  0.20000001118E+02 0.  0.
         12    1    1    2    0    0  0.25892720649E+00 -0.27238368328E+02  0.33787978633E+02  0.43400728710E+02  0.00000000000E+00 0. -1.
         11    1    3    3    0    0  0.43218736536E+01  0.76438324027E+01 -0.85487744345E+01  0.12255134037E+02  0.51100000000E-03 0. -1.
        -11    1    3    3    0    0  0.49174106795E+00  0.93542981036E+01 -0.21592269740E+02  0.23536584609E+02  0.51100000000E-03 0.  1.
         12    1    3    3    0    0 -0.50725419281E+01  0.10240237822E+02 -0.36469344582E+01  0.11995552643E+02  0.00000000000E+00 0. -1.
</event>
<event>
 7    1  0.5022032E-011  0.4778728E+02  0.7816164E-02  0.1312668E+00
        -11   -1    0    0    0    0  0.00000000000E+00  0.00000000000E+00  0.45593999997E+02  0.45594000000E+02  0.51100000000E-03 0. -1.
         11   -1    0    0    0    0 -0.00000000000E+00 -0.00000000000E+00 -0.45593999997E+02  0.45594000000E+02  0.51100000000E-03 0.  1.
    9900012    2    1    2    0    0  0.86294293677E+01  0.34924628063E+02  0.24278089008E+02  0.47787282235E+02  0.20000051024E+02 0.  0.
        -12    1    1    2    0    0 -0.86294293677E+01 -0.34924628063E+02 -0.24278089008E+02  0.43400717765E+02  0.00000000000E+00 0.  1.
         11    1    3    3    0    0  0.60153093115E+01  0.17069212406E+02  0.11430220127E+02  0.21405417321E+02  0.51100000000E-03 0. -1.
        -11    1    3    3    0    0  0.27057133571E+01  0.13827437711E+02  0.12978904292E+01  0.14149326424E+02  0.51100000000E-03 0.  1.
         12    1    3    3    0    0 -0.91593300960E-01  0.40279779461E+01  0.11549978453E+02  0.12232538491E+02  0.00000000000E+00 0. -1.
</event>
<event>
 7    1  0.5022032E-011  0.4778727E+02  0.7816164E-02  0.1312668E+00
        -11   -1    0    0    0    0  0.00000000000E+00  0.00000000000E+00  0.45593999997E+02  0.45594000000E+02  0.51100000000E-03 0. -1.
         11   -1    0    0    0    0 -0.00000000000E+00 -0.00000000000E+00 -0.45593999997E+02  0.45594000000E+02  0.51100000000E-03 0.  1.
    9900012    2    1    2    0    0 -0.10616352746E+02  0.18462952856E+02 -0.37815812737E+02  0.47787271126E+02  0.20000000374E+02 0.  0.
         12    1    1    2    0    0  0.10616352746E+02 -0.18462952856E+02  0.37815812737E+02  0.43400728874E+02  0.00000000000E+00 0. -1.
         11    1    3    3    0    0 -0.20688927568E+01  0.72913496427E+00 -0.36108743282E+01  0.42249696698E+01  0.51100000000E-03 0. -1.
        -11    1    3    3    0    0 -0.75300676239E+01  0.14586697813E+01 -0.21690993830E+02  0.23007147792E+02  0.51100000000E-03 0.  1.
         12    1    3    3    0    0 -0.10173923650E+01  0.16275148110E+02 -0.12513944579E+02  0.20555153664E+02  0.00000000000E+00 0. -1.
</event>
<event>
 7    1  0.5022032E-011  0.4778728E+02  0.7816164E-02  0.1312668E+00
        -11   -1    0    0    0    0  0.00000000000E+00  0.00000000000E+00  0.45593999997E+02  0.45594000000E+02  0.51100000000E-03 0. -1.
         11   -1    0    0    0    0 -0.00000000000E+00 -0.00000000000E+00 -0.45593999997E+02  0.45594000000E+02  0.51100000000E-03 0.  1.
    9900012    2    1    2    0    0  0.86057009324E+01 -0.17267921604E+02  0.38876518769E+02  0.47787275160E+02  0.20000018763E+02 0.  0.
        -12    1    1    2    0    0 -0.86057009324E+01  0.17267921604E+02 -0.38876518769E+02  0.43400724840E+02  0.00000000000E+00 0.  1.
         11    1    3    3    0    0  0.10402533989E+02 -0.20994994232E+02  0.33424771205E+02  0.40819331530E+02  0.51100000000E-03 0. -1.
        -11    1    3    3    0    0 -0.47033142739E+00  0.96884153072E+00  0.24717982942E+01  0.26962293359E+01  0.51100000000E-03 0.  1.
         12    1    3    3    0    0 -0.13265016288E+01  0.27582310972E+01  0.29799492698E+01  0.42717142938E+01  0.00000000000E+00 0. -1.
</event>
<event>
 7    1  0.5022032E-011  0.4778726E+02  0.7816164E-02  0.1312668E+00
        -11   -1    0    0    0    0  0.00000000000E+00  0.00000000000E+00  0.45593999997E+02  0.45594000000E+02  0.51100000000E-03 0. -1.
         11   -1    0    0    0    0 -0.00000000000E+00 -0.00000000000E+00 -0.45593999997E+02  0.45594000000E+02  0.51100000000E-03 0.  1.
    9900012    2    1    2    0    0 -0.37692712363E+01  0.31623591819E+02 -0.29484996051E+02  0.47787263171E+02  0.19999964102E+02 0.  0.
         12    1    1    2    0    0  0.37692712363E+01 -0.31623591819E+02  0.29484996051E+02  0.43400736829E+02  0.00000000000E+00 0. -1.
         11    1    3    3    0    0 -0.60619923375E+01  0.78312309974E+01 -0.11042814858E+02  0.14833060718E+02  0.51100000000E-03 0. -1.
        -11    1    3    3    0    0  0.52108200170E+00  0.61259903738E+01 -0.13005510552E+02  0.14385499279E+02  0.51100000000E-03 0.  1.
        -12    1    3    3    0    0  0.17716390996E+01  0.17666370448E+02 -0.54366706410E+01  0.18568703174E+02  0.00000000000E+00 0.  1.
</event>
<event>
 7    1  0.5022032E-011  0.4778728E+02  0.7816164E-02  0.1312668E+00
        -11   -1    0    0    0    0  0.00000000000E+00  0.00000000000E+00  0.45593999997E+02  0.45594000000E+02  0.51100000000E-03 0. -1.
         11   -1    0    0    0    0 -0.00000000000E+00 -0.00000000000E+00 -0.45593999997E+02  0.45594000000E+02  0.51100000000E-03 0.  1.
    9900012    2    1    2    0    0 -0.13587153489E+02 -0.81207452597E+01 -0.40411199951E+02  0.47787281977E+02  0.20000049844E+02 0.  0.
         12    1    1    2    0    0  0.13587153489E+02  0.81207452597E+01  0.40411199951E+02  0.43400718023E+02  0.00000000000E+00 0. -1.
         11    1    3    3    0    0 -0.61584821901E+01  0.11452337917E+01 -0.71932721882E+01  0.95384290299E+01  0.51100000000E-03 0. -1.
        -11    1    3    3    0    0 -0.10749581434E+02 -0.10487309174E+02 -0.23318576821E+02  0.27736134913E+02  0.51100000000E-03 0.  1.
         12    1    3    3    0    0  0.33209101351E+01  0.12213301222E+01 -0.98993509413E+01  0.10512718034E+02  0.00000000000E+00 0. -1.
</event>
<event>
 7    1  0.5022032E-011  0.4778728E+02  0.7816164E-02  0.1312668E+00
        -11   -1    0    0    0    0  0.00000000000E+00  0.00000000000E+00  0.45593999997E+02  0.45594000000E+02  0.51100000000E-03 0. -1.
         11   -1    0    0    0    0 -0.00000000000E+00 -0.00000000000E+00 -0.45593999997E+02  0.45594000000E+02  0.51100000000E-03 0.  1.
    9900012    2    1    2    0    0  0.22119944666E+02  0.30405649738E+02  0.21675497498E+02  0.47787277888E+02  0.20000031202E+02 0.  0.
        -12    1    1    2    0    0 -0.22119944666E+02 -0.30405649738E+02 -0.21675497498E+02  0.43400722112E+02  0.00000000000E+00 0.  1.
         11    1    3    3    0    0  0.12035752948E+02  0.13444983401E+02  0.27322258627E+01  0.18250807821E+02  0.51100000000E-03 0. -1.
        -11    1    3    3    0    0 -0.15014000874E+01  0.12670359364E+01 -0.46542179477E+00  0.20189601271E+01  0.51100000000E-03 0.  1.
        -12    1    3    3    0    0  0.11585591806E+02  0.15693630400E+02  0.19408693430E+02  0.27517509940E+02  0.00000000000E+00 0.  1.
</event>
<event>
 7    1  0.5022032E-011  0.4778727E+02  0.7816164E-02  0.1312668E+00
        -11   -1    0    0    0    0  0.00000000000E+00  0.00000000000E+00  0.45593999997E+02  0.45594000000E+02  0.51100000000E-03 0. -1.
         11   -1    0    0    0    0 -0.00000000000E+00 -0.00000000000E+00 -0.45593999997E+02  0.45594000000E+02  0.51100000000E-03 0.  1.
    9900012    2    1    2    0    0 -0.17901626941E+02  0.71854125100E+01  0.38878332344E+02  0.47787272748E+02  0.20000007769E+02 0.  0.
        -12    1    1    2    0    0  0.17901626941E+02 -0.71854125100E+01 -0.38878332344E+02  0.43400727252E+02  0.00000000000E+00 0.  1.
         11    1    3    3    0    0 -0.18211086775E+02  0.11275333882E+01  0.23845960398E+02  0.30025736304E+02  0.51100000000E-03 0. -1.
        -11    1    3    3    0    0  0.21830795059E+01  0.39695177391E+00  0.84913208077E+00  0.23758014209E+01  0.51100000000E-03 0.  1.
         12    1    3    3    0    0 -0.18736196722E+01  0.56609273478E+01  0.14183239866E+02  0.15385735023E+02  0.00000000000E+00 0. -1.
</event>
<event>
 7    1  0.5022032E-011  0.4778727E+02  0.7816164E-02  0.1312668E+00
        -11   -1    0    0    0    0  0.00000000000E+00  0.00000000000E+00  0.45593999997E+02  0.45594000000E+02  0.51100000000E-03 0. -1.
         11   -1    0    0    0    0 -0.00000000000E+00 -0.00000000000E+00 -0.45593999997E+02  0.45594000000E+02  0.51100000000E-03 0.  1.
    9900012    2    1    2    0    0  0.54051398486E+01  0.15049027503E+01 -0.43036532720E+02  0.47787269389E+02  0.19999992451E+02 0.  0.
         12    1    1    2    0    0 -0.54051398486E+01 -0.15049027503E+01  0.43036532720E+02  0.43400730611E+02  0.00000000000E+00 0. -1.
         11    1    3    3    0    0  0.18041261672E+01 -0.52278050067E+01 -0.83246228275E+01  0.99942064165E+01  0.51100000000E-03 0. -1.
        -11    1    3    3    0    0  0.69795312764E+01  0.76092802124E+00 -0.10525142958E+02  0.12651936722E+02  0.51100000000E-03 0.  1.
        -12    1    3    3    0    0 -0.33785175951E+01  0.59717797358E+01 -0.24186766935E+02  0.25141126250E+02  0.00000000000E+00 0.  1.
</event>
<event>
 7    1  0.5022032E-011  0.4778722E+02  0.7816164E-02  0.1312668E+00
        -11   -1    0    0    0    0  0.00000000000E+00  0.00000000000E+00  0.45593999997E+02  0.45594000000E+02  0.51100000000E-03 0. -1.
         11   -1    0    0    0    0 -0.00000000000E+00 -0.00000000000E+00 -0.45593999997E+02  0.45594000000E+02  0.51100000000E-03 0.  1.
    9900012    2    1    2    0    0 -0.41742465047E+02  0.11363963707E+02 -0.34719985078E+01  0.47787218521E+02  0.19999760522E+02 0.  0.
        -12    1    1    2    0    0  0.41742465047E+02 -0.11363963707E+02  0.34719985078E+01  0.43400781479E+02  0.00000000000E+00 0.  1.
         11    1    3    3    0    0 -0.10459446023E+02 -0.26287211660E+01  0.12055847577E+01  0.10851894809E+02  0.51100000000E-03 0.  1.
        -11    1    3    3    0    0 -0.14982823936E+02  0.32907037200E+00 -0.45624151951E+01  0.15665533285E+02  0.51100000000E-03 0. -1.
        -12    1    3    3    0    0 -0.16300195088E+02  0.13663614501E+02 -0.11516807046E+00  0.21269790427E+02  0.00000000000E+00 0.  1.
</event>
<event>
 7    1  0.5022032E-011  0.4778727E+02  0.7816164E-02  0.1312668E+00
        -11   -1    0    0    0    0  0.00000000000E+00  0.00000000000E+00  0.45593999997E+02  0.45594000000E+02  0.51100000000E-03 0. -1.
         11   -1    0    0    0    0 -0.00000000000E+00 -0.00000000000E+00 -0.45593999997E+02  0.45594000000E+02  0.51100000000E-03 0.  1.
    9900012    2    1    2    0    0 -0.85496205025E+01  0.20841554465E+02  0.37096589126E+02  0.47787270421E+02  0.19999997156E+02 0.  0.
        -12    1    1    2    0    0  0.85496205025E+01 -0.20841554465E+02 -0.37096589126E+02  0.43400729579E+02  0.00000000000E+00 0.  1.
         11    1    3    3    0    0 -0.36011502908E+01  0.13040210876E+02  0.18662602640E+02  0.23050121924E+02  0.51100000000E-03 0. -1.
        -11    1    3    3    0    0  0.40227354409E+01  0.53672105915E+01  0.48502464462E+01  0.82773329527E+01  0.51100000000E-03 0.  1.
         12    1    3    3    0    0 -0.89712056525E+01  0.24341329971E+01  0.13583740039E+02  0.16459815544E+02  0.00000000000E+00 0. -1.
</event>
<event>
 7    1  0.5022032E-011  0.4778727E+02  0.7816164E-02  0.1312668E+00
        -11   -1    0    0    0    0  0.00000000000E+00  0.00000000000E+00  0.45593999997E+02  0.45594000000E+02  0.51100000000E-03 0. -1.
         11   -1    0    0    0    0 -0.00000000000E+00 -0.00000000000E+00 -0.45593999997E+02  0.45594000000E+02  0.51100000000E-03 0.  1.
    9900012    2    1    2    0    0  0.34116820874E+02  0.96390719506E+01 -0.25035052182E+02  0.47787274057E+02  0.20000013738E+02 0.  0.
         12    1    1    2    0    0 -0.34116820874E+02 -0.96390719506E+01  0.25035052182E+02  0.43400725943E+02  0.00000000000E+00 0. -1.
         11    1    3    3    0    0  0.26784406650E+01  0.49800403960E+01 -0.22189542362E+01  0.60744221870E+01  0.51100000000E-03 0. -1.
        -11    1    3    3    0    0  0.25901921503E+02  0.90335923910E+01 -0.20637147649E+02  0.34327936035E+02  0.51100000000E-03 0.  1.
        -12    1    3    3    0    0  0.55364587053E+01 -0.43745608364E+01 -0.21789502966E+01  0.73849158358E+01  0.00000000000E+00 0.  1.
</event>
<event>
 7    1  0.5022032E-011  0.4778726E+02  0.7816164E-02  0.1312668E+00
        -11   -1    0    0    0    0  0.00000000000E+00  0.00000000000E+00  0.45593999997E+02  0.45594000000E+02  0.51100000000E-03 0. -1.
         11   -1    0    0    0    0 -0.00000000000E+00 -0.00000000000E+00 -0.45593999997E+02  0.45594000000E+02  0.51100000000E-03 0.  1.
    9900012    2    1    2    0    0  0.39104812957E+02  0.10694435097E+02  0.15494080287E+02  0.47787264265E+02  0.19999969088E+02 0.  0.
        -12    1    1    2    0    0 -0.39104812957E+02 -0.10694435097E+02 -0.15494080287E+02  0.43400735735E+02  0.00000000000E+00 0.  1.
         11    1    3    3    0    0  0.87562102992E+01 -0.38416859806E+01  0.77856915498E+01  0.12330724356E+02  0.51100000000E-03 0.  1.
        -11    1    3    3    0    0  0.67859046331E+01  0.28996888685E+00  0.33702870007E+01  0.75823095672E+01  0.51100000000E-03 0. -1.
        -12    1    3    3    0    0  0.23562698025E+02  0.14246152190E+02  0.43381017367E+01  0.27874230341E+02  0.00000000000E+00 0.  1.
</event>
<event>
 7    1  0.5022032E-011  0.4778727E+02  0.7816164E-02  0.1312668E+00
        -11   -1    0    0    0    0  0.00000000000E+00  0.00000000000E+00  0.45593999997E+02  0.45594000000E+02  0.51100000000E-03 0. -1.
         11   -1    0    0    0    0 -0.00000000000E+00 -0.00000000000E+00 -0.45593999997E+02  0.45594000000E+02  0.51100000000E-03 0.  1.
    9900012    2    1    2    0    0  0.19873165261E+02 -0.29202223274E+02 -0.25217271025E+02  0.47787270748E+02  0.19999998648E+02 0.  0.
         12    1    1    2    0    0 -0.19873165261E+02  0.29202223274E+02  0.25217271025E+02  0.43400729252E+02  0.00000000000E+00 0. -1.
         11    1    3    3    0    0  0.11241150618E+02 -0.89014830838E+01 -0.24359526572E+01  0.14544199322E+02  0.51100000000E-03 0. -1.
        -11    1    3    3    0    0  0.82052586042E+01 -0.11037606691E+02 -0.83510477897E+01  0.16090215340E+02  0.51100000000E-03 0.  1.
        -12    1    3    3    0    0  0.42675603826E+00 -0.92631334992E+01 -0.14430270578E+02  0.17152856086E+02  0.00000000000E+00 0.  1.
</event>
<event>
 7    1  0.5022032E-011  0.4778727E+02  0.7816164E-02  0.1312668E+00
        -11   -1    0    0    0    0  0.00000000000E+00  0.00000000000E+00  0.45593999997E+02  0.45594000000E+02  0.51100000000E-03 0. -1.
         11   -1    0    0    0    0 -0.00000000000E+00 -0.00000000000E+00 -0.45593999997E+02  0.45594000000E+02  0.51100000000E-03 0.  1.
    9900012    2    1    2    0    0 -0.22115172649E+02 -0.39705785248E+01  0.37131886709E+02  0.47787269987E+02  0.19999995178E+02 0.  0.
        -12    1    1    2    0    0  0.22115172649E+02  0.39705785248E+01 -0.37131886709E+02  0.43400730013E+02  0.00000000000E+00 0.  1.
         11    1    3    3    0    0 -0.11504224054E+02  0.20142916628E+01  0.30479756544E+02  0.32640773601E+02  0.51100000000E-03 0. -1.
        -11    1    3    3    0    0  0.76095718952E+00 -0.24524875165E+00  0.55319325915E-01  0.80141330374E+00  0.51100000000E-03 0.  1.
        -12    1    3    3    0    0 -0.11371905785E+02 -0.57396214359E+01  0.65968108383E+01  0.14345083082E+02  0.00000000000E+00 0.  1.
</event>
<event>
 7    1  0.5022032E-011  0.4778727E+02  0.7816164E-02  0.1312668E+00
        -11   -1    0    0    0    0  0.00000000000E+00  0.00000000000E+00  0.45593999997E+02  0.45594000000E+02  0.51100000000E-03 0. -1.
         11   -1    0    0    0    0 -0.00000000000E+00 -0.00000000000E+00 -0.45593999997E+02  0.45594000000E+02  0.51100000000E-03 0.  1.
    9900012    2    1    2    0    0 -0.41843080659E+01  0.76162976866E+01 -0.42521838902E+02  0.47787271802E+02  0.20000003456E+02 0.  0.
         12    1    1    2    0    0  0.41843080659E+01 -0.76162976866E+01  0.42521838902E+02  0.43400728198E+02  0.00000000000E+00 0. -1.
         11    1    3    3    0    0  0.67990845336E+01  0.14572956842E+01 -0.15991933178E+02  0.17438267926E+02  0.51100000000E-03 0. -1.
        -11    1    3    3    0    0 -0.24967935701E+01  0.26451154575E+01 -0.15852151104E+02  0.16264111067E+02  0.51100000000E-03 0.  1.
        -12    1    3    3    0    0 -0.84865990295E+01  0.35138865449E+01 -0.10677754620E+02  0.14084892810E+02  0.00000000000E+00 0.  1.
</event>
<event>
 7    1  0.5022032E-011  0.4778726E+02  0.7816164E-02  0.1312668E+00
        -11   -1    0    0    0    0  0.00000000000E+00  0.00000000000E+00  0.45593999997E+02  0.45594000000E+02  0.51100000000E-03 0. -1.
         11   -1    0    0    0    0 -0.00000000000E+00 -0.00000000000E+00 -0.45593999997E+02  0.45594000000E+02  0.51100000000E-03 0.  1.
    9900012    2    1    2    0    0 -0.10120162661E+02  0.22857754649E+02 -0.35478583715E+02  0.47787256432E+02  0.19999933375E+02 0.  0.
         12    1    1    2    0    0  0.10120162661E+02 -0.22857754649E+02  0.35478583715E+02  0.43400743568E+02  0.00000000000E+00 0. -1.
         11    1    3    3    0    0 -0.98603140672E+01  0.10212043689E+02 -0.11169433052E+02  0.18062886391E+02  0.51100000000E-03 0. -1.
        -11    1    3    3    0    0 -0.45072839522E+01  0.12942948287E+01 -0.94464292406E+01  0.10546365885E+02  0.51100000000E-03 0.  1.
         12    1    3    3    0    0  0.42474353584E+01  0.11351416132E+02 -0.14862721422E+02  0.19178004156E+02  0.00000000000E+00 0. -1.
</event>
<event>
 7    1  0.5022032E-011  0.4778727E+02  0.7816164E-02  0.1312668E+00
        -11   -1    0    0    0    0  0.00000000000E+00  0.00000000000E+00  0.45593999997E+02  0.45594000000E+02  0.51100000000E-03 0. -1.
         11   -1    0    0    0    0 -0.00000000000E+00 -0.00000000000E+00 -0.45593999997E+02  0.45594000000E+02  0.51100000000E-03 0.  1.
    9900012    2    1    2    0    0  0.14283114875E+02 -0.14267094861E+02 -0.38419604309E+02  0.47787270034E+02  0.19999995395E+02 0.  0.
         12    1    1    2    0    0 -0.14283114875E+02  0.14267094861E+02  0.38419604309E+02  0.43400729966E+02  0.00000000000E+00 0. -1.
         11    1    3    3    0    0  0.74157073007E+01 -0.39974931080E+01 -0.10812859284E+02  0.13707318924E+02  0.51100000000E-03 0.  1.
        -11    1    3    3    0    0  0.90544051777E+01 -0.74377627239E+01 -0.80926948715E+01  0.14240585592E+02  0.51100000000E-03 0. -1.
         12    1    3    3    0    0 -0.21869976035E+01 -0.28318390294E+01 -0.19514050153E+02  0.19839365519E+02  0.00000000000E+00 0. -1.
</event>
<event>
 7    1  0.5022032E-011  0.4778727E+02  0.7816164E-02  0.1312668E+00
        -11   -1    0    0    0    0  0.00000000000E+00  0.00000000000E+00  0.45593999997E+02  0.45594000000E+02  0.51100000000E-03 0. -1.
         11   -1    0    0    0    0 -0.00000000000E+00 -0.00000000000E+00 -0.45593999997E+02  0.45594000000E+02  0.51100000000E-03 0.  1.
    9900012    2    1    2    0    0  0.15460056871E+02  0.27668949873E+02 -0.29648597704E+02  0.47787268539E+02  0.19999988576E+02 0.  0.
         12    1    1    2    0    0 -0.15460056871E+02 -0.27668949873E+02  0.29648597704E+02  0.43400731461E+02  0.00000000000E+00 0. -1.
         11    1    3    3    0    0  0.24391232363E+01  0.49722841395E+01 -0.90408566270E+01  0.10602359197E+02  0.51100000000E-03 0. -1.
        -11    1    3    3    0    0  0.56527530135E+01  0.16888584709E+02 -0.21315198294E+02  0.27776169439E+02  0.51100000000E-03 0.  1.
         12    1    3    3    0    0  0.73681806208E+01  0.58080810254E+01  0.70745721740E+00  0.94087399036E+01  0.00000000000E+00 0. -1.
</event>
<event>
 7    1  0.5022032E-011  0.4778727E+02  0.7816164E-02  0.1312668E+00
        -11   -1    0    0    0    0  0.00000000000E+00  0.00000000000E+00  0.45593999997E+02  0.45594000000E+02  0.51100000000E-03 0. -1.
         11   -1    0    0    0    0 -0.00000000000E+00 -0.00000000000E+00 -0.45593999997E+02  0.45594000000E+02  0.51100000000E-03 0.  1.
    9900012    2    1    2    0    0 -0.19510464823E+02 -0.20990242408E+02 -0.32594092272E+02  0.47787269995E+02  0.19999995216E+02 0.  0.
         12    1    1    2    0    0  0.19510464823E+02  0.20990242408E+02  0.32594092272E+02  0.43400730005E+02  0.00000000000E+00 0. -1.
         11    1    3    3    0    0 -0.13065547582E+02 -0.89398883999E+00 -0.99104022542E+01  0.16423270769E+02  0.51100000000E-03 0. -1.
        -11    1    3    3    0    0 -0.27752423447E+01 -0.26747808628E+01 -0.41889341487E+01  0.56924153309E+01  0.51100000000E-03 0.  1.
         12    1    3    3    0    0 -0.36696748968E+01 -0.17421472705E+02 -0.18494755869E+02  0.25671583895E+02  0.00000000000E+00 0. -1.
</event>
<event>
 7    1  0.5022032E-011  0.4778727E+02  0.7816164E-02  0.1312668E+00
        -11   -1    0    0    0    0  0.00000000000E+00  0.00000000000E+00  0.45593999997E+02  0.45594000000E+02  0.51100000000E-03 0. -1.
         11   -1    0    0    0    0 -0.00000000000E+00 -0.00000000000E+00 -0.45593999997E+02  0.45594000000E+02  0.51100000000E-03 0.  1.
    9900012    2    1    2    0    0  0.26585056917E+02 -0.42116028785E+01  0.34045861054E+02  0.47787268382E+02  0.19999987862E+02 0.  0.
        -12    1    1    2    0    0 -0.26585056917E+02  0.42116028785E+01 -0.34045861054E+02  0.43400731618E+02  0.00000000000E+00 0.  1.
         11    1    3    3    0    0  0.77080858976E+00 -0.19398189668E+01  0.14381214563E+02  0.14531908893E+02  0.51100000000E-03 0. -1.
        -11    1    3    3    0    0  0.34977178273E+01  0.17514285003E+01  0.14583262249E+01  0.41747152515E+01  0.51100000000E-03 0.  1.
         12    1    3    3    0    0  0.22316530500E+02 -0.40232124119E+01  0.18206320265E+02  0.29080644237E+02  0.00000000000E+00 0. -1.
</event>
<event>
 7    1  0.5022032E-011  0.4778727E+02  0.7816164E-02  0.1312668E+00
        -11   -1    0    0    0    0  0.00000000000E+00  0.00000000000E+00  0.45593999997E+02  0.45594000000E+02  0.51100000000E-03 0. -1.
         11   -1    0    0    0    0 -0.00000000000E+00 -0.00000000000E+00 -0.45593999997E+02  0.45594000000E+02  0.51100000000E-03 0.  1.
    9900012    2    1    2    0    0  0.35274814515E+02 -0.20057099917E+02 -0.15395576102E+02  0.47787267753E+02  0.19999984991E+02 0.  0.
         12    1    1    2    0    0 -0.35274814515E+02  0.20057099917E+02  0.15395576102E+02  0.43400732247E+02  0.00000000000E+00 0. -1.
         11    1    3    3    0    0  0.24118313578E+02 -0.72701960155E+01 -0.77246643761E+01  0.26348040533E+02  0.51100000000E-03 0. -1.
        -11    1    3    3    0    0  0.89579824048E+01 -0.34559884118E+01 -0.68963892725E+01  0.11821568844E+02  0.51100000000E-03 0.  1.
         12    1    3    3    0    0  0.21985185323E+01 -0.93309154896E+01 -0.77452245288E+00  0.96176583762E+01  0.00000000000E+00 0. -1.
</event>
<event>
 7    1  0.5022032E-011  0.4778728E+02  0.7816164E-02  0.1312668E+00
        -11   -1    0    0    0    0  0.00000000000E+00  0.00000000000E+00  0.45593999997E+02  0.45594000000E+02  0.51100000000E-03 0. -1.
         11   -1    0    0    0    0 -0.00000000000E+00 -0.00000000000E+00 -0.45593999997E+02  0.45594000000E+02  0.51100000000E-03 0.  1.
    9900012    2    1    2    0    0 -0.77096517480E+01 -0.13309384064E+02  0.40583793033E+02  0.47787277757E+02  0.20000030605E+02 0.  0.
        -12    1    1    2    0    0  0.77096517480E+01  0.13309384064E+02 -0.40583793033E+02  0.43400722243E+02  0.00000000000E+00 0.  1.
         11    1    3    3    0    0 -0.47150677362E+01 -0.47365090552E+00  0.11217925875E+02  0.12177769505E+02  0.51100000000E-03 0. -1.
        -11    1    3    3    0    0 -0.90108214542E+01 -0.61337303496E+01  0.18747508160E+02  0.21686092634E+02  0.51100000000E-03 0.  1.
        -12    1    3    3    0    0  0.60162374423E+01 -0.67020028093E+01  0.10618358999E+02  0.13923415617E+02  0.00000000000E+00 0.  1.
</event>
<event>
 7    1  0.5022032E-011  0.4778726E+02  0.7816164E-02  0.1312668E+00
        -11   -1    0    0    0    0  0.00000000000E+00  0.00000000000E+00  0.45593999997E+02  0.45594000000E+02  0.51100000000E-03 0. -1.
         11   -1    0    0    0    0 -0.00000000000E+00 -0.00000000000E+00 -0.45593999997E+02  0.45594000000E+02  0.51100000000E-03 0.  1.
    9900012    2    1    2    0    0  0.22691720953E+01  0.12193350402E+01 -0.43324219237E+02  0.47787263919E+02  0.19999967511E+02 0.  0.
         12    1    1    2    0    0 -0.22691720953E+01 -0.12193350402E+01  0.43324219237E+02  0.43400736081E+02  0.00000000000E+00 0. -1.
         11    1    3    3    0    0  0.81405881947E+01 -0.35659550389E+01 -0.25304655930E+02  0.26819970610E+02  0.51100000000E-03 0.  1.
        -11    1    3    3    0    0 -0.97546267446E+00 -0.16815228767E+01 -0.11747437407E+01  0.22713585652E+01  0.51100000000E-03 0. -1.
         12    1    3    3    0    0 -0.48959534250E+01  0.64668129558E+01 -0.16844819566E+02  0.18695934744E+02  0.00000000000E+00 0. -1.
</event>
<event>
 7    1  0.5022032E-011  0.4778727E+02  0.7816164E-02  0.1312668E+00
        -11   -1    0    0    0    0  0.00000000000E+00  0.00000000000E+00  0.45593999997E+02  0.45594000000E+02  0.51100000000E-03 0. -1.
         11   -1    0    0    0    0 -0.00000000000E+00 -0.00000000000E+00 -0.45593999997E+02  0.45594000000E+02  0.51100000000E-03 0.  1.
    9900012    2    1    2    0    0 -0.24718182232E+01  0.13192080324E+02 -0.41273264932E+02  0.47787271126E+02  0.20000000374E+02 0.  0.
         12    1    1    2    0    0  0.24718182232E+01 -0.13192080324E+02  0.41273264932E+02  0.43400728874E+02  0.00000000000E+00 0. -1.
         11    1    3    3    0    0 -0.38126975684E+00 -0.89898390363E+00 -0.80097867191E+00  0.12629749722E+01  0.51100000000E-03 0. -1.
        -11    1    3    3    0    0 -0.58118551441E+01  0.15925358490E+02 -0.38202776834E+02  0.41795297120E+02  0.51100000000E-03 0.  1.
        -12    1    3    3    0    0  0.37213066777E+01 -0.18342942628E+01 -0.22695094265E+01  0.47289990346E+01  0.00000000000E+00 0.  1.
</event>
<event>
 7    1  0.5022032E-011  0.4778727E+02  0.7816164E-02  0.1312668E+00
        -11   -1    0    0    0    0  0.00000000000E+00  0.00000000000E+00  0.45593999997E+02  0.45594000000E+02  0.51100000000E-03 0. -1.
         11   -1    0    0    0    0 -0.00000000000E+00 -0.00000000000E+00 -0.45593999997E+02  0.45594000000E+02  0.51100000000E-03 0.  1.
    9900012    2    1    2    0    0 -0.26813633020E+02 -0.31656794959E+02  0.12747535625E+02  0.47787271350E+02  0.20000001395E+02 0.  0.
        -12    1    1    2    0    0  0.26813633020E+02  0.31656794959E+02 -0.12747535625E+02  0.43400728650E+02  0.00000000000E+00 0.  1.
         11    1    3    3    0    0  0.92555169849E+00 -0.58023157860E+01  0.36053725904E+01  0.68936366458E+01  0.51100000000E-03 0. -1.
        -11    1    3    3    0    0 -0.15140631188E+01  0.10935288874E+01  0.17741762719E+01  0.25760229542E+01  0.51100000000E-03 0.  1.
         12    1    3    3    0    0 -0.26225121600E+02 -0.26948008060E+02  0.73679867628E+01  0.38317611751E+02  0.00000000000E+00 0. -1.
</event>
<event>
 7    1  0.5022032E-011  0.4778727E+02  0.7816164E-02  0.1312668E+00
        -11   -1    0    0    0    0  0.00000000000E+00  0.00000000000E+00  0.45593999997E+02  0.45594000000E+02  0.51100000000E-03 0. -1.
         11   -1    0    0    0    0 -0.00000000000E+00 -0.00000000000E+00 -0.45593999997E+02  0.45594000000E+02  0.51100000000E-03 0.  1.
    9900012    2    1    2    0    0  0.21935720022E+02  0.25047279948E+01  0.37365409517E+02  0.47787270702E+02  0.19999998438E+02 0.  0.
        -12    1    1    2    0    0 -0.21935720022E+02 -0.25047279948E+01 -0.37365409517E+02  0.43400729298E+02  0.00000000000E+00 0.  1.
         11    1    3    3    0    0  0.71896201858E+01  0.39872863497E+01  0.23434771555E+02  0.24835007730E+02  0.51100000000E-03 0.  1.
        -11    1    3    3    0    0  0.17347481421E+01 -0.28373428597E+01  0.78520570849E+01  0.85272895075E+01  0.51100000000E-03 0. -1.
        -12    1    3    3    0    0  0.13011351694E+02  0.13547845048E+01  0.60785808772E+01  0.14424973464E+02  0.00000000000E+00 0.  1.
</event>
<event>
 7    1  0.5022032E-011  0.4778727E+02  0.7816164E-02  0.1312668E+00
        -11   -1    0    0    0    0  0.00000000000E+00  0.00000000000E+00  0.45593999997E+02  0.45594000000E+02  0.51100000000E-03 0. -1.
         11   -1    0    0    0    0 -0.00000000000E+00 -0.00000000000E+00 -0.45593999997E+02  0.45594000000E+02  0.51100000000E-03 0.  1.
    9900012    2    1    2    0    0 -0.32570020848E+02  0.23254459356E+02  0.16794255994E+02  0.47787272213E+02  0.20000005330E+02 0.  0.
        -12    1    1    2    0    0  0.32570020848E+02 -0.23254459356E+02 -0.16794255994E+02  0.43400727787E+02  0.00000000000E+00 0.  1.
         11    1    3    3    0    0 -0.14397213041E+02  0.85111692349E+01  0.14603958454E+02  0.22203498551E+02  0.51100000000E-03 0. -1.
        -11    1    3    3    0    0 -0.15336138916E+01 -0.57112247706E+00  0.24759956962E+01  0.29679466641E+01  0.51100000000E-03 0.  1.
        -12    1    3    3    0    0 -0.16639193915E+02  0.15314412598E+02 -0.28569815616E+00  0.22615826998E+02  0.00000000000E+00 0.  1.
</event>
<event>
 7    1  0.5022032E-011  0.4778727E+02  0.7816164E-02  0.1312668E+00
        -11   -1    0    0    0    0  0.00000000000E+00  0.00000000000E+00  0.45593999997E+02  0.45594000000E+02  0.51100000000E-03 0.  1.
         11   -1    0    0    0    0 -0.00000000000E+00 -0.00000000000E+00 -0.45593999997E+02  0.45594000000E+02  0.51100000000E-03 0. -1.
    9900012    2    1    2    0    0  0.27596753679E+02 -0.17186303639E+02 -0.28751926514E+02  0.47787272764E+02  0.20000007838E+02 0.  0.
         12    1    1    2    0    0 -0.27596753679E+02  0.17186303639E+02  0.28751926514E+02  0.43400727236E+02  0.00000000000E+00 0. -1.
         11    1    3    3    0    0  0.14768166390E+01 -0.41721318699E+01 -0.10398397502E+02  0.11301077055E+02  0.51100000000E-03 0. -1.
        -11    1    3    3    0    0  0.37275593028E+01 -0.72841386914E+01 -0.28956332894E+01  0.86797504134E+01  0.51100000000E-03 0.  1.
        -12    1    3    3    0    0  0.22392377737E+02 -0.57300330774E+01 -0.15457895723E+02  0.27806445296E+02  0.00000000000E+00 0.  1.
</event>
<event>
 7    1  0.5022032E-011  0.4778727E+02  0.7816164E-02  0.1312668E+00
        -11   -1    0    0    0    0  0.00000000000E+00  0.00000000000E+00  0.45593999997E+02  0.45594000000E+02  0.51100000000E-03 0. -1.
         11   -1    0    0    0    0 -0.00000000000E+00 -0.00000000000E+00 -0.45593999997E+02  0.45594000000E+02  0.51100000000E-03 0.  1.
    9900012    2    1    2    0    0  0.11553465881E+00  0.35900491581E+02  0.24387794217E+02  0.47787272463E+02  0.20000006467E+02 0.  0.
        -12    1    1    2    0    0 -0.11553465881E+00 -0.35900491581E+02 -0.24387794217E+02  0.43400727537E+02  0.00000000000E+00 0.  1.
         11    1    3    3    0    0 -0.55955154756E+00  0.15234502211E+02  0.46937693641E+01  0.15951007073E+02  0.51100000000E-03 0. -1.
        -11    1    3    3    0    0  0.41169330993E+01  0.18544823990E+02  0.10299641009E+02  0.21608846340E+02  0.51100000000E-03 0.  1.
        -12    1    3    3    0    0 -0.34418468929E+01  0.21211653795E+01  0.93943838441E+01  0.10227419049E+02  0.00000000000E+00 0.  1.
</event>
<event>
 7    1  0.5022032E-011  0.4778727E+02  0.7816164E-02  0.1312668E+00
        -11   -1    0    0    0    0  0.00000000000E+00  0.00000000000E+00  0.45593999997E+02  0.45594000000E+02  0.51100000000E-03 0. -1.
         11   -1    0    0    0    0 -0.00000000000E+00 -0.00000000000E+00 -0.45593999997E+02  0.45594000000E+02  0.51100000000E-03 0.  1.
    9900012    2    1    2    0    0  0.39054646925E+02 -0.39541051368E+01 -0.18512780811E+02  0.47787269047E+02  0.19999990895E+02 0.  0.
         12    1    1    2    0    0 -0.39054646925E+02  0.39541051368E+01  0.18512780811E+02  0.43400730953E+02  0.00000000000E+00 0. -1.
         11    1    3    3    0    0  0.35367790411E+01  0.93344121062E+00 -0.19023927997E+01  0.41230106845E+01  0.51100000000E-03 0.  1.
        -11    1    3    3    0    0  0.92771346612E+01 -0.71028951320E+01  0.13894210508E+01  0.11766343438E+02  0.51100000000E-03 0. -1.
         12    1    3    3    0    0  0.26240733223E+02  0.22153487846E+01 -0.17999809062E+02  0.31897914925E+02  0.00000000000E+00 0. -1.
</event>
<event>
 7    1  0.5022032E-011  0.4778727E+02  0.7816164E-02  0.1312668E+00
        -11   -1    0    0    0    0  0.00000000000E+00  0.00000000000E+00  0.45593999997E+02  0.45594000000E+02  0.51100000000E-03 0. -1.
         11   -1    0    0    0    0 -0.00000000000E+00 -0.00000000000E+00 -0.45593999997E+02  0.45594000000E+02  0.51100000000E-03 0.  1.
    9900012    2    1    2    0    0 -0.14779217901E+02 -0.20244983159E+02 -0.35430754942E+02  0.47787273962E+02  0.20000013301E+02 0.  0.
         12    1    1    2    0    0  0.14779217901E+02  0.20244983159E+02  0.35430754942E+02  0.43400726038E+02  0.00000000000E+00 0. -1.
         11    1    3    3    0    0  0.11242097840E+01 -0.95248844209E+01 -0.16310180824E+02  0.18921132885E+02  0.51100000000E-03 0. -1.
        -11    1    3    3    0    0  0.10207352755E+01  0.40028349742E+00 -0.13002999246E+00  0.11040993800E+01  0.51100000000E-03 0.  1.
        -12    1    3    3    0    0 -0.16924162961E+02 -0.11120382236E+02 -0.18990544126E+02  0.27762041697E+02  0.00000000000E+00 0.  1.
</event>
<event>
 7    1  0.5022032E-011  0.4778727E+02  0.7816164E-02  0.1312668E+00
        -11   -1    0    0    0    0  0.00000000000E+00  0.00000000000E+00  0.45593999997E+02  0.45594000000E+02  0.51100000000E-03 0. -1.
         11   -1    0    0    0    0 -0.00000000000E+00 -0.00000000000E+00 -0.45593999997E+02  0.45594000000E+02  0.51100000000E-03 0.  1.
    9900012    2    1    2    0    0 -0.23387938365E+02 -0.26680428397E+02  0.24995645490E+02  0.47787271736E+02  0.20000003152E+02 0.  0.
        -12    1    1    2    0    0  0.23387938365E+02  0.26680428397E+02 -0.24995645490E+02  0.43400728264E+02  0.00000000000E+00 0.  1.
         11    1    3    3    0    0 -0.25906660265E+01 -0.73640369507E+01  0.19916925083E+01  0.80565147540E+01  0.51100000000E-03 0. -1.
        -11    1    3    3    0    0 -0.12448479357E+02 -0.47370296133E+01  0.30836353981E+01  0.13671609100E+02  0.51100000000E-03 0.  1.
         12    1    3    3    0    0 -0.83487929820E+01 -0.14579361833E+02  0.19920317583E+02  0.26059147882E+02  0.00000000000E+00 0. -1.
</event>
<event>
 7    1  0.5022032E-011  0.4778727E+02  0.7816164E-02  0.1312668E+00
        -11   -1    0    0    0    0  0.00000000000E+00  0.00000000000E+00  0.45593999997E+02  0.45594000000E+02  0.51100000000E-03 0.  1.
         11   -1    0    0    0    0 -0.00000000000E+00 -0.00000000000E+00 -0.45593999997E+02  0.45594000000E+02  0.51100000000E-03 0. -1.
    9900012    2    1    2    0    0  0.17205617602E+02  0.38095190321E+02  0.11676748188E+02  0.47787271309E+02  0.20000001207E+02 0.  0.
        -12    1    1    2    0    0 -0.17205617602E+02 -0.38095190321E+02 -0.11676748188E+02  0.43400728691E+02  0.00000000000E+00 0.  1.
         11    1    3    3    0    0  0.28306222799E+01  0.46935198163E+01 -0.28343574840E+01  0.61705051143E+01  0.51100000000E-03 0. -1.
        -11    1    3    3    0    0 -0.22729090999E+01  0.84454910451E+01  0.53377642670E+01  0.10246177941E+02  0.51100000000E-03 0.  1.
        -12    1    3    3    0    0  0.16647904422E+02  0.24956179459E+02  0.91733414050E+01  0.31370588254E+02  0.00000000000E+00 0.  1.
</event>
<event>
 7    1  0.5022032E-011  0.4778727E+02  0.7816164E-02  0.1312668E+00
        -11   -1    0    0    0    0  0.00000000000E+00  0.00000000000E+00  0.45593999997E+02  0.45594000000E+02  0.51100000000E-03 0. -1.
         11   -1    0    0    0    0 -0.00000000000E+00 -0.00000000000E+00 -0.45593999997E+02  0.45594000000E+02  0.51100000000E-03 0.  1.
    9900012    2    1    2    0    0  0.22771853516E+02  0.67956949269E+01 -0.36316451716E+02  0.47787269046E+02  0.19999990889E+02 0.  0.
         12    1    1    2    0    0 -0.22771853516E+02 -0.67956949269E+01  0.36316451716E+02  0.43400730954E+02  0.00000000000E+00 0. -1.
         11    1    3    3    0    0 -0.28396508943E+00 -0.13172065329E+00 -0.80928770302E+01  0.80989286569E+01  0.51100000000E-03 0. -1.
        -11    1    3    3    0    0  0.12278637746E+02  0.93958471815E+01 -0.22327685933E+02  0.27158285081E+02  0.51100000000E-03 0.  1.
        -12    1    3    3    0    0  0.10777180859E+02 -0.24684316013E+01 -0.58958887527E+01  0.12530055308E+02  0.00000000000E+00 0.  1.
</event>
<event>
 7    1  0.5022032E-011  0.4778728E+02  0.7816164E-02  0.1312668E+00
        -11   -1    0    0    0    0  0.00000000000E+00  0.00000000000E+00  0.45593999997E+02  0.45594000000E+02  0.51100000000E-03 0. -1.
         11   -1    0    0    0    0 -0.00000000000E+00 -0.00000000000E+00 -0.45593999997E+02  0.45594000000E+02  0.51100000000E-03 0.  1.
    9900012    2    1    2    0    0  0.69416821605E+01  0.11833869015E+02 -0.41175170638E+02  0.47787284750E+02  0.20000062490E+02 0.  0.
         12    1    1    2    0    0 -0.69416821605E+01 -0.11833869015E+02  0.41175170638E+02  0.43400715250E+02  0.00000000000E+00 0. -1.
         11    1    3    3    0    0  0.16845816941E+01  0.83420824862E+01 -0.25608090201E+02  0.26985226323E+02  0.51100000000E-03 0. -1.
        -11    1    3    3    0    0 -0.12734150399E+01 -0.37980457057E+01 -0.47830199537E+01  0.62389115385E+01  0.51100000000E-03 0.  1.
         12    1    3    3    0    0  0.65305155063E+01  0.72898322348E+01 -0.10784060484E+02  0.14563146889E+02  0.00000000000E+00 0. -1.
</event>
<event>
 7    1  0.5022032E-011  0.4778727E+02  0.7816164E-02  0.1312668E+00
        -11   -1    0    0    0    0  0.00000000000E+00  0.00000000000E+00  0.45593999997E+02  0.45594000000E+02  0.51100000000E-03 0. -1.
         11   -1    0    0    0    0 -0.00000000000E+00 -0.00000000000E+00 -0.45593999997E+02  0.45594000000E+02  0.51100000000E-03 0.  1.
    9900012    2    1    2    0    0  0.22288297518E+02 -0.12733465702E+02  0.34995908808E+02  0.47787274334E+02  0.20000014998E+02 0.  0.
        -12    1    1    2    0    0 -0.22288297518E+02  0.12733465702E+02 -0.34995908808E+02  0.43400725666E+02  0.00000000000E+00 0.  1.
         11    1    3    3    0    0  0.20722934100E+02 -0.15444129241E+02  0.24382611258E+02  0.35531294062E+02  0.51100000000E-03 0. -1.
        -11    1    3    3    0    0 -0.81997368152E+00 -0.57648294628E+00  0.12664351649E+00  0.10103109755E+01  0.51100000000E-03 0.  1.
         12    1    3    3    0    0  0.23853370998E+01  0.32871464853E+01  0.10486654034E+02  0.11245669296E+02  0.00000000000E+00 0. -1.
</event>
<event>
 7    1  0.5022032E-011  0.4778727E+02  0.7816164E-02  0.1312668E+00
        -11   -1    0    0    0    0  0.00000000000E+00  0.00000000000E+00  0.45593999997E+02  0.45594000000E+02  0.51100000000E-03 0.  1.
         11   -1    0    0    0    0 -0.00000000000E+00 -0.00000000000E+00 -0.45593999997E+02  0.45594000000E+02  0.51100000000E-03 0. -1.
    9900012    2    1    2    0    0  0.14900507406E+02 -0.37622274998E+02  0.15689566756E+02  0.47787271873E+02  0.20000003779E+02 0.  0.
        -12    1    1    2    0    0 -0.14900507406E+02  0.37622274998E+02 -0.15689566756E+02  0.43400728127E+02  0.00000000000E+00 0.  1.
         11    1    3    3    0    0 -0.17552065928E+01 -0.90769489140E+01 -0.33651944434E+00  0.92512159940E+01  0.51100000000E-03 0. -1.
        -11    1    3    3    0    0  0.87477817868E+01 -0.80118107114E+01  0.10272445572E+01  0.11906638010E+02  0.51100000000E-03 0.  1.
        -12    1    3    3    0    0  0.79079322116E+01 -0.20533515372E+02  0.14998841643E+02  0.26629417869E+02  0.00000000000E+00 0.  1.
</event>
<event>
 7    1  0.5022032E-011  0.4778726E+02  0.7816164E-02  0.1312668E+00
        -11   -1    0    0    0    0  0.00000000000E+00  0.00000000000E+00  0.45593999997E+02  0.45594000000E+02  0.51100000000E-03 0. -1.
         11   -1    0    0    0    0 -0.00000000000E+00 -0.00000000000E+00 -0.45593999997E+02  0.45594000000E+02  0.51100000000E-03 0.  1.
    9900012    2    1    2    0    0 -0.91322600365E+01  0.12061747438E+02 -0.40678499220E+02  0.47787260105E+02  0.19999950122E+02 0.  0.
         12    1    1    2    0    0  0.91322600365E+01 -0.12061747438E+02  0.40678499220E+02  0.43400739895E+02  0.00000000000E+00 0. -1.
         11    1    3    3    0    0 -0.46676469903E+01  0.56403875566E+01 -0.11747327894E+02  0.13841987326E+02  0.51100000000E-03 0. -1.
        -11    1    3    3    0    0 -0.30587369326E+01 -0.16111397217E+01 -0.24345520169E+02  0.24589753870E+02  0.51100000000E-03 0.  1.
        -12    1    3    3    0    0 -0.14058761137E+01  0.80324996033E+01 -0.45856511572E+01  0.93555189091E+01  0.00000000000E+00 0.  1.
</event>
<event>
 7    1  0.5022032E-011  0.4778727E+02  0.7816164E-02  0.1312668E+00
        -11   -1    0    0    0    0  0.00000000000E+00  0.00000000000E+00  0.45593999997E+02  0.45594000000E+02  0.51100000000E-03 0.  1.
         11   -1    0    0    0    0 -0.00000000000E+00 -0.00000000000E+00 -0.45593999997E+02  0.45594000000E+02  0.51100000000E-03 0. -1.
    9900012    2    1    2    0    0 -0.46336840131E+01 -0.42961006010E+02 -0.40625378513E+01  0.47787270988E+02  0.19999999744E+02 0.  0.
        -12    1    1    2    0    0  0.46336840131E+01  0.42961006010E+02  0.40625378513E+01  0.43400729012E+02  0.00000000000E+00 0.  1.
         11    1    3    3    0    0 -0.76166553210E+01 -0.23048284981E+02  0.21260620894E+01  0.24367129891E+02  0.51100000000E-03 0. -1.
        -11    1    3    3    0    0 -0.20442337753E+01 -0.14940743090E+02 -0.63139932550E+01  0.16348431328E+02  0.51100000000E-03 0.  1.
        -12    1    3    3    0    0  0.50272050832E+01 -0.49719779393E+01  0.12539331422E+00  0.70717097693E+01  0.00000000000E+00 0.  1.
</event>
<event>
 7    1  0.5022032E-011  0.4778727E+02  0.7816164E-02  0.1312668E+00
        -11   -1    0    0    0    0  0.00000000000E+00  0.00000000000E+00  0.45593999997E+02  0.45594000000E+02  0.51100000000E-03 0. -1.
         11   -1    0    0    0    0 -0.00000000000E+00 -0.00000000000E+00 -0.45593999997E+02  0.45594000000E+02  0.51100000000E-03 0.  1.
    9900012    2    1    2    0    0 -0.37401812259E+02 -0.16912145706E+02 -0.14096346648E+02  0.47787271649E+02  0.20000002756E+02 0.  0.
         12    1    1    2    0    0  0.37401812259E+02  0.16912145706E+02  0.14096346648E+02  0.43400728351E+02  0.00000000000E+00 0. -1.
         11    1    3    3    0    0 -0.82794960209E+00  0.71766176418E+00  0.15695737919E+01  0.19141841867E+01  0.51100000000E-03 0. -1.
        -11    1    3    3    0    0 -0.25489013899E+02 -0.47315576229E+01 -0.73767829783E+01  0.26953559959E+02  0.51100000000E-03 0.  1.
         12    1    3    3    0    0 -0.11084848757E+02 -0.12898249847E+02 -0.82891374613E+01  0.18919527503E+02  0.00000000000E+00 0. -1.
</event>
<event>
 7    1  0.5022032E-011  0.4778727E+02  0.7816164E-02  0.1312668E+00
        -11   -1    0    0    0    0  0.00000000000E+00  0.00000000000E+00  0.45593999997E+02  0.45594000000E+02  0.51100000000E-03 0.  1.
         11   -1    0    0    0    0 -0.00000000000E+00 -0.00000000000E+00 -0.45593999997E+02  0.45594000000E+02  0.51100000000E-03 0. -1.
    9900012    2    1    2    0    0  0.21706905459E+02  0.37419469730E+02  0.34952125760E+01  0.47787274540E+02  0.20000015938E+02 0.  0.
        -12    1    1    2    0    0 -0.21706905459E+02 -0.37419469730E+02 -0.34952125760E+01  0.43400725460E+02  0.00000000000E+00 0.  1.
         11    1    3    3    0    0  0.44188682749E+01  0.37272215505E+01  0.36588516629E+01  0.68414744807E+01  0.51100000000E-03 0. -1.
        -11    1    3    3    0    0 -0.22932542889E+01  0.96167738939E+01  0.58405355013E+00  0.99036596352E+01  0.51100000000E-03 0.  1.
         12    1    3    3    0    0  0.19581291473E+02  0.24075474285E+02 -0.74769263699E+00  0.31042140424E+02  0.00000000000E+00 0. -1.
</event>
<event>
 7    1  0.5022032E-011  0.4778727E+02  0.7816164E-02  0.1312668E+00
        -11   -1    0    0    0    0  0.00000000000E+00  0.00000000000E+00  0.45593999997E+02  0.45594000000E+02  0.51100000000E-03 0. -1.
         11   -1    0    0    0    0 -0.00000000000E+00 -0.00000000000E+00 -0.45593999997E+02  0.45594000000E+02  0.51100000000E-03 0.  1.
    9900012    2    1    2    0    0 -0.22547494097E+02 -0.91848461251E+00  0.37072768836E+02  0.47787270822E+02  0.19999998986E+02 0.  0.
        -12    1    1    2    0    0  0.22547494097E+02  0.91848461251E+00 -0.37072768836E+02  0.43400729178E+02  0.00000000000E+00 0.  1.
         11    1    3    3    0    0  0.60974734463E+00 -0.46848371352E+01  0.14510378042E+01  0.49421656972E+01  0.51100000000E-03 0. -1.
        -11    1    3    3    0    0 -0.50137027907E+01  0.24332021221E+01  0.94660593496E+01  0.10984715204E+02  0.51100000000E-03 0.  1.
         12    1    3    3    0    0 -0.18143538651E+02  0.13331504006E+01  0.26155671682E+02  0.31860389921E+02  0.00000000000E+00 0. -1.
</event>
<event>
 7    1  0.5022032E-011  0.4778727E+02  0.7816164E-02  0.1312668E+00
        -11   -1    0    0    0    0  0.00000000000E+00  0.00000000000E+00  0.45593999997E+02  0.45594000000E+02  0.51100000000E-03 0. -1.
         11   -1    0    0    0    0 -0.00000000000E+00 -0.00000000000E+00 -0.45593999997E+02  0.45594000000E+02  0.51100000000E-03 0.  1.
    9900012    2    1    2    0    0  0.40593790352E+02  0.87517689616E+01 -0.12616423525E+02  0.47787269388E+02  0.19999992448E+02 0.  0.
         12    1    1    2    0    0 -0.40593790352E+02 -0.87517689616E+01  0.12616423525E+02  0.43400730612E+02  0.00000000000E+00 0. -1.
         11    1    3    3    0    0  0.34727459980E+01  0.32433775704E+01  0.84611610299E+00  0.48265283126E+01  0.51100000000E-03 0. -1.
        -11    1    3    3    0    0  0.12430489210E+01  0.42398157384E+01  0.48781881351E+00  0.44451294212E+01  0.51100000000E-03 0.  1.
        -12    1    3    3    0    0  0.35877995433E+02  0.12685756527E+01 -0.13950358441E+02  0.38515611654E+02  0.00000000000E+00 0.  1.
</event>
<event>
 7    1  0.5022032E-011  0.4778727E+02  0.7816164E-02  0.1312668E+00
        -11   -1    0    0    0    0  0.00000000000E+00  0.00000000000E+00  0.45593999997E+02  0.45594000000E+02  0.51100000000E-03 0.  1.
         11   -1    0    0    0    0 -0.00000000000E+00 -0.00000000000E+00 -0.45593999997E+02  0.45594000000E+02  0.51100000000E-03 0. -1.
    9900012    2    1    2    0    0  0.21248019309E+02 -0.31633444393E+02 -0.20771870272E+02  0.47787265867E+02  0.19999976394E+02 0.  0.
         12    1    1    2    0    0 -0.21248019309E+02  0.31633444393E+02  0.20771870272E+02  0.43400734133E+02  0.00000000000E+00 0. -1.
         11    1    3    3    0    0  0.66499100959E+01 -0.37653386223E+01 -0.87186424159E+01  0.11593696781E+02  0.51100000000E-03 0. -1.
        -11    1    3    3    0    0  0.10942370012E+02 -0.22049742991E+02 -0.14879772879E+02  0.28763418932E+02  0.51100000000E-03 0.  1.
        -12    1    3    3    0    0  0.36557392003E+01 -0.58183627792E+01  0.28265450232E+01  0.74301501533E+01  0.00000000000E+00 0.  1.
</event>
<event>
 7    1  0.5022032E-011  0.4778727E+02  0.7816164E-02  0.1312668E+00
        -11   -1    0    0    0    0  0.00000000000E+00  0.00000000000E+00  0.45593999997E+02  0.45594000000E+02  0.51100000000E-03 0. -1.
         11   -1    0    0    0    0 -0.00000000000E+00 -0.00000000000E+00 -0.45593999997E+02  0.45594000000E+02  0.51100000000E-03 0.  1.
    9900012    2    1    2    0    0 -0.47655964801E+00 -0.22288428311E+02 -0.37237375117E+02  0.47787271305E+02  0.20000001188E+02 0.  0.
         12    1    1    2    0    0  0.47655964801E+00  0.22288428311E+02  0.37237375117E+02  0.43400728695E+02  0.00000000000E+00 0. -1.
         11    1    3    3    0    0  0.27700039207E+01 -0.68518791796E+01 -0.17579641669E+02  0.19070001874E+02  0.51100000000E-03 0. -1.
        -11    1    3    3    0    0 -0.66633672060E+00 -0.10792994667E+02 -0.20652939781E+02  0.23312585879E+02  0.51100000000E-03 0.  1.
         12    1    3    3    0    0 -0.25802268481E+01 -0.46435544644E+01  0.99520633289E+00  0.54046835519E+01  0.00000000000E+00 0. -1.
</event>
<event>
 7    1  0.5022032E-011  0.4778729E+02  0.7816164E-02  0.1312668E+00
        -11   -1    0    0    0    0  0.00000000000E+00  0.00000000000E+00  0.45593999997E+02  0.45594000000E+02  0.51100000000E-03 0. -1.
         11   -1    0    0    0    0 -0.00000000000E+00 -0.00000000000E+00 -0.45593999997E+02  0.45594000000E+02  0.51100000000E-03 0.  1.
    9900012    2    1    2    0    0  0.21053289134E+02  0.30788344862E+02 -0.22191404305E+02  0.47787290470E+02  0.20000088568E+02 0.  0.
         12    1    1    2    0    0 -0.21053289134E+02 -0.30788344862E+02  0.22191404305E+02  0.43400709530E+02  0.00000000000E+00 0. -1.
         11    1    3    3    0    0  0.95871502577E+01  0.66114787792E+01 -0.52158017751E+01  0.12760473742E+02  0.51100000000E-03 0. -1.
        -11    1    3    3    0    0  0.14070731311E+02  0.22149260245E+02 -0.17693835447E+02  0.31648807594E+02  0.51100000000E-03 0.  1.
         12    1    3    3    0    0 -0.26045924349E+01  0.20276058372E+01  0.71823291665E+00  0.33780091334E+01  0.00000000000E+00 0. -1.
</event>
<event>
 7    1  0.5022032E-011  0.4778727E+02  0.7816164E-02  0.1312668E+00
        -11   -1    0    0    0    0  0.00000000000E+00  0.00000000000E+00  0.45593999997E+02  0.45594000000E+02  0.51100000000E-03 0. -1.
         11   -1    0    0    0    0 -0.00000000000E+00 -0.00000000000E+00 -0.45593999997E+02  0.45594000000E+02  0.51100000000E-03 0.  1.
    9900012    2    1    2    0    0  0.28530420597E+02  0.25543391377E+02  0.20424821878E+02  0.47787273149E+02  0.20000009593E+02 0.  0.
        -12    1    1    2    0    0 -0.28530420597E+02 -0.25543391377E+02 -0.20424821878E+02  0.43400726851E+02  0.00000000000E+00 0.  1.
         11    1    3    3    0    0  0.89932096120E+01  0.38868351825E+01 -0.28998794248E+01  0.10217367949E+02  0.51100000000E-03 0.  1.
        -11    1    3    3    0    0  0.37949086618E+01  0.62968805779E+01  0.45005591687E+01  0.86201548626E+01  0.51100000000E-03 0. -1.
        -12    1    3    3    0    0  0.15742302323E+02  0.15359675617E+02  0.18824142135E+02  0.28949750337E+02  0.00000000000E+00 0.  1.
</event>
<event>
 7    1  0.5022032E-011  0.4778727E+02  0.7816164E-02  0.1312668E+00
        -11   -1    0    0    0    0  0.00000000000E+00  0.00000000000E+00  0.45593999997E+02  0.45594000000E+02  0.51100000000E-03 0. -1.
         11   -1    0    0    0    0 -0.00000000000E+00 -0.00000000000E+00 -0.45593999997E+02  0.45594000000E+02  0.51100000000E-03 0.  1.
    9900012    2    1    2    0    0 -0.22533127802E+02  0.28723263467E+02 -0.23470312884E+02  0.47787270748E+02  0.19999998647E+02 0.  0.
         12    1    1    2    0    0  0.22533127802E+02 -0.28723263467E+02  0.23470312884E+02  0.43400729252E+02  0.00000000000E+00 0. -1.
         11    1    3    3    0    0 -0.81601979419E+01  0.16010063887E+01 -0.33855910398E+01  0.89785454756E+01  0.51100000000E-03 0. -1.
        -11    1    3    3    0    0 -0.10661878425E+02  0.15764999304E+02 -0.52149900579E+01  0.19733397482E+02  0.51100000000E-03 0.  1.
         12    1    3    3    0    0 -0.37110514346E+01  0.11357257774E+02 -0.14869731786E+02  0.19075327790E+02  0.00000000000E+00 0. -1.
</event>
<event>
 7    1  0.5022032E-011  0.4778727E+02  0.7816164E-02  0.1312668E+00
        -11   -1    0    0    0    0  0.00000000000E+00  0.00000000000E+00  0.45593999997E+02  0.45594000000E+02  0.51100000000E-03 0. -1.
         11   -1    0    0    0    0 -0.00000000000E+00 -0.00000000000E+00 -0.45593999997E+02  0.45594000000E+02  0.51100000000E-03 0.  1.
    9900012    2    1    2    0    0  0.24110918234E+01  0.31838217625E+02 -0.29396225134E+02  0.47787268239E+02  0.19999987208E+02 0.  0.
         12    1    1    2    0    0 -0.24110918234E+01 -0.31838217625E+02  0.29396225134E+02  0.43400731761E+02  0.00000000000E+00 0. -1.
         11    1    3    3    0    0 -0.63403016213E+01  0.18156759424E+02 -0.21378387885E+02  0.28755917760E+02  0.51100000000E-03 0. -1.
        -11    1    3    3    0    0 -0.57007100280E+00  0.31058324220E+01 -0.16452719319E+01  0.35606314008E+01  0.51100000000E-03 0.  1.
         12    1    3    3    0    0  0.93214644475E+01  0.10575625779E+02 -0.63725653168E+01  0.15470719078E+02  0.00000000000E+00 0. -1.
</event>
<event>
 7    1  0.5022032E-011  0.4778725E+02  0.7816164E-02  0.1312668E+00
        -11   -1    0    0    0    0  0.00000000000E+00  0.00000000000E+00  0.45593999997E+02  0.45594000000E+02  0.51100000000E-03 0. -1.
         11   -1    0    0    0    0 -0.00000000000E+00 -0.00000000000E+00 -0.45593999997E+02  0.45594000000E+02  0.51100000000E-03 0.  1.
    9900012    2    1    2    0    0 -0.34052891969E+02  0.26024326883E+01  0.26781571497E+02  0.47787254854E+02  0.19999926183E+02 0.  0.
        -12    1    1    2    0    0  0.34052891969E+02 -0.26024326883E+01 -0.26781571497E+02  0.43400745146E+02  0.00000000000E+00 0.  1.
         11    1    3    3    0    0 -0.12842403846E+02  0.27654488324E+01  0.69692898106E+01  0.14870979945E+02  0.51100000000E-03 0. -1.
        -11    1    3    3    0    0 -0.21669948888E+02 -0.35143247708E+01  0.19755226065E+02  0.29533135975E+02  0.51100000000E-03 0.  1.
        -12    1    3    3    0    0  0.45946076499E+00  0.33513086267E+01  0.57055621666E-01  0.33831389345E+01  0.00000000000E+00 0.  1.
</event>
<event>
 7    1  0.5022032E-011  0.4778727E+02  0.7816164E-02  0.1312668E+00
        -11   -1    0    0    0    0  0.00000000000E+00  0.00000000000E+00  0.45593999997E+02  0.45594000000E+02  0.51100000000E-03 0. -1.
         11   -1    0    0    0    0 -0.00000000000E+00 -0.00000000000E+00 -0.45593999997E+02  0.45594000000E+02  0.51100000000E-03 0.  1.
    9900012    2    1    2    0    0  0.85690647308E+01 -0.18204643481E+02  0.38454980360E+02  0.47787269255E+02  0.19999991843E+02 0.  0.
        -12    1    1    2    0    0 -0.85690647308E+01  0.18204643481E+02 -0.38454980360E+02  0.43400730745E+02  0.00000000000E+00 0.  1.
         11    1    3    3    0    0 -0.19995127520E+01 -0.76030502002E+01  0.10127137619E+02  0.12820426678E+02  0.51100000000E-03 0. -1.
        -11    1    3    3    0    0 -0.24713521322E+01 -0.66136701294E+00  0.41123342932E+00  0.25911582124E+01  0.51100000000E-03 0.  1.
         12    1    3    3    0    0  0.13039929615E+02 -0.99402262681E+01  0.27916609312E+02  0.32375684365E+02  0.00000000000E+00 0. -1.
</event>
<event>
 7    1  0.5022032E-011  0.4778727E+02  0.7816164E-02  0.1312668E+00
        -11   -1    0    0    0    0  0.00000000000E+00  0.00000000000E+00  0.45593999997E+02  0.45594000000E+02  0.51100000000E-03 0. -1.
         11   -1    0    0    0    0 -0.00000000000E+00 -0.00000000000E+00 -0.45593999997E+02  0.45594000000E+02  0.51100000000E-03 0.  1.
    9900012    2    1    2    0    0 -0.10729972323E+02  0.10066683298E+02  0.40830782280E+02  0.47787271892E+02  0.20000003865E+02 0.  0.
        -12    1    1    2    0    0  0.10729972323E+02 -0.10066683298E+02 -0.40830782280E+02  0.43400728108E+02  0.00000000000E+00 0.  1.
         11    1    3    3    0    0 -0.87289364054E+00  0.35144207284E+01  0.11143868119E+02  0.11717461043E+02  0.51100000000E-03 0. -1.
        -11    1    3    3    0    0 -0.20295324330E+01  0.10162032687E+02  0.22772583436E+02  0.25019521714E+02  0.51100000000E-03 0.  1.
         12    1    3    3    0    0 -0.78275462497E+01 -0.36097701175E+01  0.69143307252E+01  0.11050289135E+02  0.00000000000E+00 0. -1.
</event>
<event>
 7    1  0.5022032E-011  0.4778733E+02  0.7816164E-02  0.1312667E+00
        -11   -1    0    0    0    0  0.00000000000E+00  0.00000000000E+00  0.45593999997E+02  0.45594000000E+02  0.51100000000E-03 0. -1.
         11   -1    0    0    0    0 -0.00000000000E+00 -0.00000000000E+00 -0.45593999997E+02  0.45594000000E+02  0.51100000000E-03 0.  1.
    9900012    2    1    2    0    0  0.18759445102E+02 -0.16283629537E+02 -0.35588545007E+02  0.47787332872E+02  0.20000281892E+02 0.  0.
         12    1    1    2    0    0 -0.18759445102E+02  0.16283629537E+02  0.35588545007E+02  0.43400667128E+02  0.00000000000E+00 0. -1.
         11    1    3    3    0    0  0.40372690079E+01 -0.90030201303E+01 -0.99140246356E+01  0.13987201194E+02  0.51100000000E-03 0. -1.
        -11    1    3    3    0    0  0.90127199677E+01 -0.94272368804E+01 -0.84825023113E+01  0.15558109208E+02  0.51100000000E-03 0.  1.
         12    1    3    3    0    0  0.57094561265E+01  0.21466274732E+01 -0.17192018060E+02  0.18242022469E+02  0.00000000000E+00 0. -1.
</event>
<event>
 7    1  0.5022032E-011  0.4778732E+02  0.7816164E-02  0.1312668E+00
        -11   -1    0    0    0    0  0.00000000000E+00  0.00000000000E+00  0.45593999997E+02  0.45594000000E+02  0.51100000000E-03 0. -1.
         11   -1    0    0    0    0 -0.00000000000E+00 -0.00000000000E+00 -0.45593999997E+02  0.45594000000E+02  0.51100000000E-03 0.  1.
    9900012    2    1    2    0    0 -0.30572983421E+02 -0.20226907717E+02  0.23233252281E+02  0.47787318869E+02  0.20000218052E+02 0.  0.
        -12    1    1    2    0    0  0.30572983421E+02  0.20226907717E+02 -0.23233252281E+02  0.43400681131E+02  0.00000000000E+00 0.  1.
         11    1    3    3    0    0 -0.19044261770E+02 -0.15268730543E+02  0.13333832935E+02  0.27813830009E+02  0.51100000000E-03 0. -1.
        -11    1    3    3    0    0 -0.77460917514E+01 -0.50444917475E+01 -0.13983526281E+00  0.92449114962E+01  0.51100000000E-03 0.  1.
        -12    1    3    3    0    0 -0.37826299002E+01  0.86314573776E-01  0.10039254609E+02  0.10728577365E+02  0.00000000000E+00 0.  1.
</event>
<event>
 7    1 -0.5022032E-011  0.4778727E+02  0.7816164E-02  0.1312668E+00
        -11   -1    0    0    0    0  0.00000000000E+00  0.00000000000E+00  0.45593999997E+02  0.45594000000E+02  0.51100000000E-03 0. -1.
         11   -1    0    0    0    0 -0.00000000000E+00 -0.00000000000E+00 -0.45593999997E+02  0.45594000000E+02  0.51100000000E-03 0.  1.
    9900012    2    1    2    0    0 -0.11047374930E+02  0.15981835112E+02  0.38809275483E+02  0.47787269477E+02  0.19999992855E+02 0.  0.
        -12    1    1    2    0    0  0.11047374930E+02 -0.15981835112E+02 -0.38809275483E+02  0.43400730523E+02  0.00000000000E+00 0.  1.
         11    1    3    3    0    0 -0.66744661992E+01  0.30145271745E+01  0.85097601144E+01  0.11227283313E+02  0.51100000000E-03 0. -1.
        -11    1    3    3    0    0  0.20407742534E+01 -0.25901861446E+01  0.28274842087E+01  0.43437876362E+01  0.51100000000E-03 0.  1.
        -12    1    3    3    0    0 -0.64136829843E+01  0.15557494082E+02  0.27472031160E+02  0.32216198528E+02  0.00000000000E+00 0.  1.
</event>
<event>
 7    1  0.5022032E-011  0.4778727E+02  0.7816164E-02  0.1312668E+00
        -11   -1    0    0    0    0  0.00000000000E+00  0.00000000000E+00  0.45593999997E+02  0.45594000000E+02  0.51100000000E-03 0. -1.
         11   -1    0    0    0    0 -0.00000000000E+00 -0.00000000000E+00 -0.45593999997E+02  0.45594000000E+02  0.51100000000E-03 0.  1.
    9900012    2    1    2    0    0 -0.24225134455E+02 -0.35951555095E+02  0.20620144254E+01  0.47787270091E+02  0.19999995654E+02 0.  0.
         12    1    1    2    0    0  0.24225134455E+02  0.35951555095E+02 -0.20620144254E+01  0.43400729909E+02  0.00000000000E+00 0. -1.
         11    1    3    3    0    0 -0.58850264906E-01 -0.19587577359E+00  0.14095688063E+01  0.14243297207E+01  0.51100000000E-03 0. -1.
        -11    1    3    3    0    0 -0.10299908387E+02 -0.29307316517E+02  0.26899205037E+00  0.31065725023E+02  0.51100000000E-03 0.  1.
        -12    1    3    3    0    0 -0.13866375802E+02 -0.64483628046E+01  0.38345356871E+00  0.15297215347E+02  0.00000000000E+00 0.  1.
</event>
<event>
 7    1  0.5022032E-011  0.4778727E+02  0.7816164E-02  0.1312668E+00
        -11   -1    0    0    0    0  0.00000000000E+00  0.00000000000E+00  0.45593999997E+02  0.45594000000E+02  0.51100000000E-03 0. -1.
         11   -1    0    0    0    0 -0.00000000000E+00 -0.00000000000E+00 -0.45593999997E+02  0.45594000000E+02  0.51100000000E-03 0.  1.
    9900012    2    1    2    0    0 -0.10120334540E+02 -0.17166849717E+02  0.38555174113E+02  0.47787270153E+02  0.19999995935E+02 0.  0.
        -12    1    1    2    0    0  0.10120334540E+02  0.17166849717E+02 -0.38555174113E+02  0.43400729847E+02  0.00000000000E+00 0.  1.
         11    1    3    3    0    0  0.32935105989E+01 -0.97738617603E+00  0.41955225056E+01  0.54226289896E+01  0.51100000000E-03 0. -1.
        -11    1    3    3    0    0  0.21500089967E+01 -0.32288602493E+00  0.56737458750E+01  0.60760337874E+01  0.51100000000E-03 0.  1.
         12    1    3    3    0    0 -0.15563854135E+02 -0.15866577516E+02  0.28685905732E+02  0.36288607376E+02  0.00000000000E+00 0. -1.
</event>
<event>
 7    1  0.5022032E-011  0.4778727E+02  0.7816164E-02  0.1312668E+00
        -11   -1    0    0    0    0  0.00000000000E+00  0.00000000000E+00  0.45593999997E+02  0.45594000000E+02  0.51100000000E-03 0. -1.
         11   -1    0    0    0    0 -0.00000000000E+00 -0.00000000000E+00 -0.45593999997E+02  0.45594000000E+02  0.51100000000E-03 0.  1.
    9900012    2    1    2    0    0  0.14862438464E+02  0.40705043704E+02 -0.24146315916E+01  0.47787272981E+02  0.20000008829E+02 0.  0.
        -12    1    1    2    0    0 -0.14862438464E+02 -0.40705043704E+02  0.24146315916E+01  0.43400727019E+02  0.00000000000E+00 0.  1.
         11    1    3    3    0    0 -0.39632223417E-01  0.71772291100E+01 -0.28673562093E+01  0.77289016233E+01  0.51100000000E-03 0. -1.
        -11    1    3    3    0    0  0.14056602539E+02  0.17103426439E+02 -0.50663827083E+01  0.22710867551E+02  0.51100000000E-03 0.  1.
        -12    1    3    3    0    0  0.84546814834E+00  0.16424388155E+02  0.55191073260E+01  0.17347503807E+02  0.00000000000E+00 0.  1.
</event>
<event>
 7    1  0.5022032E-011  0.4778727E+02  0.7816164E-02  0.1312668E+00
        -11   -1    0    0    0    0  0.00000000000E+00  0.00000000000E+00  0.45593999997E+02  0.45594000000E+02  0.51100000000E-03 0. -1.
         11   -1    0    0    0    0 -0.00000000000E+00 -0.00000000000E+00 -0.45593999997E+02  0.45594000000E+02  0.51100000000E-03 0.  1.
    9900012    2    1    2    0    0  0.34585811403E+01  0.35995858857E+02  0.23999169856E+02  0.47787265073E+02  0.19999972775E+02 0.  0.
        -12    1    1    2    0    0 -0.34585811403E+01 -0.35995858857E+02 -0.23999169856E+02  0.43400734927E+02  0.00000000000E+00 0.  1.
         11    1    3    3    0    0 -0.27213815929E+01  0.14936608949E+02  0.97982104750E+01  0.18069674414E+02  0.51100000000E-03 0. -1.
        -11    1    3    3    0    0  0.17370436444E+01  0.17764169191E+02  0.42738984684E+01  0.18353452974E+02  0.51100000000E-03 0.  1.
        -12    1    3    3    0    0  0.44429190888E+01  0.32950807172E+01  0.99270609130E+01  0.11364137685E+02  0.00000000000E+00 0.  1.
</event>
<event>
 7    1  0.5022032E-011  0.4778727E+02  0.7816164E-02  0.1312668E+00
        -11   -1    0    0    0    0  0.00000000000E+00  0.00000000000E+00  0.45593999997E+02  0.45594000000E+02  0.51100000000E-03 0. -1.
         11   -1    0    0    0    0 -0.00000000000E+00 -0.00000000000E+00 -0.45593999997E+02  0.45594000000E+02  0.51100000000E-03 0.  1.
    9900012    2    1    2    0    0  0.90484147214E+01  0.18401363707E+02 -0.38250999304E+02  0.47787274856E+02  0.20000017378E+02 0.  0.
         12    1    1    2    0    0 -0.90484147214E+01 -0.18401363707E+02  0.38250999304E+02  0.43400725144E+02  0.00000000000E+00 0. -1.
         11    1    3    3    0    0 -0.32075069961E+01  0.29087640062E+00 -0.35195948098E+01  0.47707712267E+01  0.51100000000E-03 0. -1.
        -11    1    3    3    0    0  0.26598562348E+01  0.12601393870E+02 -0.11422734627E+02  0.17214785194E+02  0.51100000000E-03 0.  1.
         12    1    3    3    0    0  0.95960654828E+01  0.55090934371E+01 -0.23308669867E+02  0.25801718436E+02  0.00000000000E+00 0. -1.
</event>
<event>
 7    1  0.5022032E-011  0.4778727E+02  0.7816164E-02  0.1312668E+00
        -11   -1    0    0    0    0  0.00000000000E+00  0.00000000000E+00  0.45593999997E+02  0.45594000000E+02  0.51100000000E-03 0. -1.
         11   -1    0    0    0    0 -0.00000000000E+00 -0.00000000000E+00 -0.45593999997E+02  0.45594000000E+02  0.51100000000E-03 0.  1.
    9900012    2    1    2    0    0 -0.24117934255E+02 -0.31289766131E+02  0.17969395180E+02  0.47787269818E+02  0.19999994406E+02 0.  0.
        -12    1    1    2    0    0  0.24117934255E+02  0.31289766131E+02 -0.17969395180E+02  0.43400730182E+02  0.00000000000E+00 0.  1.
         11    1    3    3    0    0 -0.63444868474E+01  0.22469710113E-01  0.39499184445E+01  0.74736118593E+01  0.51100000000E-03 0. -1.
        -11    1    3    3    0    0  0.15375828977E+01 -0.22492161307E+01  0.43031894763E-01  0.27248828186E+01  0.51100000000E-03 0.  1.
         12    1    3    3    0    0 -0.19311030305E+02 -0.29063019710E+02  0.13976444840E+02  0.37588775140E+02  0.00000000000E+00 0. -1.
</event>
<event>
 7    1  0.5022032E-011  0.4778727E+02  0.7816164E-02  0.1312668E+00
        -11   -1    0    0    0    0  0.00000000000E+00  0.00000000000E+00  0.45593999997E+02  0.45594000000E+02  0.51100000000E-03 0. -1.
         11   -1    0    0    0    0 -0.00000000000E+00 -0.00000000000E+00 -0.45593999997E+02  0.45594000000E+02  0.51100000000E-03 0.  1.
    9900012    2    1    2    0    0  0.20286111983E+02  0.12280171128E+02  0.36349614340E+02  0.47787269534E+02  0.19999993114E+02 0.  0.
        -12    1    1    2    0    0 -0.20286111983E+02 -0.12280171128E+02 -0.36349614340E+02  0.43400730466E+02  0.00000000000E+00 0.  1.
         11    1    3    3    0    0  0.97112625988E+01 -0.44083721655E+01  0.13856254862E+02  0.17485370041E+02  0.51100000000E-03 0. -1.
        -11    1    3    3    0    0  0.30562848842E+01  0.28983490003E+01  0.74222343625E+01  0.85341002697E+01  0.51100000000E-03 0.  1.
        -12    1    3    3    0    0  0.75185644999E+01  0.13790194293E+02  0.15071125115E+02  0.21767799223E+02  0.00000000000E+00 0.  1.
</event>
<event>
 7    1  0.5022032E-011  0.4778726E+02  0.7816164E-02  0.1312668E+00
        -11   -1    0    0    0    0  0.00000000000E+00  0.00000000000E+00  0.45593999997E+02  0.45594000000E+02  0.51100000000E-03 0.  1.
         11   -1    0    0    0    0 -0.00000000000E+00 -0.00000000000E+00 -0.45593999997E+02  0.45594000000E+02  0.51100000000E-03 0. -1.
    9900012    2    1    2    0    0 -0.37156250052E+02 -0.21334945126E+02 -0.69179168555E+01  0.47787258358E+02  0.19999942156E+02 0.  0.
        -12    1    1    2    0    0  0.37156250052E+02  0.21334945126E+02  0.69179168555E+01  0.43400741642E+02  0.00000000000E+00 0.  1.
         11    1    3    3    0    0 -0.16014066728E+02 -0.83753228071E+01 -0.44142171097E+01  0.18603270633E+02  0.51100000000E-03 0. -1.
        -11    1    3    3    0    0 -0.15484868408E+01 -0.84374130817E+01  0.14225588640E+01  0.86954830222E+01  0.51100000000E-03 0.  1.
        -12    1    3    3    0    0 -0.19593696484E+02 -0.45222092375E+01 -0.39262586098E+01  0.20488504703E+02  0.00000000000E+00 0.  1.
</event>
<event>
 7    1  0.5022032E-011  0.4778727E+02  0.7816164E-02  0.1312668E+00
        -11   -1    0    0    0    0  0.00000000000E+00  0.00000000000E+00  0.45593999997E+02  0.45594000000E+02  0.51100000000E-03 0. -1.
         11   -1    0    0    0    0 -0.00000000000E+00 -0.00000000000E+00 -0.45593999997E+02  0.45594000000E+02  0.51100000000E-03 0.  1.
    9900012    2    1    2    0    0  0.28288289587E+02 -0.27818305623E+02 -0.17593697174E+02  0.47787266876E+02  0.19999980993E+02 0.  0.
         12    1    1    2    0    0 -0.28288289587E+02  0.27818305623E+02  0.17593697174E+02  0.43400733124E+02  0.00000000000E+00 0. -1.
         11    1    3    3    0    0  0.36607788722E+01 -0.70599012867E+01 -0.76055441906E+01  0.11003990677E+02  0.51100000000E-03 0. -1.
        -11    1    3    3    0    0  0.20600375118E+02 -0.21257127577E+02 -0.12365444240E+02  0.32080292071E+02  0.51100000000E-03 0.  1.
         12    1    3    3    0    0  0.40271355970E+01  0.49872324100E+00  0.23772912567E+01  0.47029841278E+01  0.00000000000E+00 0. -1.
</event>
<event>
 7    1  0.5022032E-011  0.4778727E+02  0.7816164E-02  0.1312668E+00
        -11   -1    0    0    0    0  0.00000000000E+00  0.00000000000E+00  0.45593999997E+02  0.45594000000E+02  0.51100000000E-03 0. -1.
         11   -1    0    0    0    0 -0.00000000000E+00 -0.00000000000E+00 -0.45593999997E+02  0.45594000000E+02  0.51100000000E-03 0.  1.
    9900012    2    1    2    0    0 -0.18696770685E+02 -0.34191207267E+02  0.19105385825E+02  0.47787266643E+02  0.19999979931E+02 0.  0.
        -12    1    1    2    0    0  0.18696770685E+02  0.34191207267E+02 -0.19105385825E+02  0.43400733357E+02  0.00000000000E+00 0.  1.
         11    1    3    3    0    0 -0.26609620828E+01 -0.65819728839E+01  0.46089545965E+01  0.84643693789E+01  0.51100000000E-03 0. -1.
        -11    1    3    3    0    0 -0.47031336417E+01 -0.38803295281E+01  0.11290911817E+02  0.12832034649E+02  0.51100000000E-03 0.  1.
         12    1    3    3    0    0 -0.11332674960E+02 -0.23728904855E+02  0.32055194109E+01  0.26490862615E+02  0.00000000000E+00 0. -1.
</event>
<event>
 7    1  0.5022032E-011  0.4778727E+02  0.7816164E-02  0.1312668E+00
        -11   -1    0    0    0    0  0.00000000000E+00  0.00000000000E+00  0.45593999997E+02  0.45594000000E+02  0.51100000000E-03 0. -1.
         11   -1    0    0    0    0 -0.00000000000E+00 -0.00000000000E+00 -0.45593999997E+02  0.45594000000E+02  0.51100000000E-03 0.  1.
    9900012    2    1    2    0    0 -0.31069346835E+02  0.29013604123E+02  0.87481324400E+01  0.47787270074E+02  0.19999995575E+02 0.  0.
        -12    1    1    2    0    0  0.31069346835E+02 -0.29013604123E+02 -0.87481324400E+01  0.43400729926E+02  0.00000000000E+00 0.  1.
         11    1    3    3    0    0 -0.85545061958E+01  0.77904028844E+01  0.91779247252E+01  0.14768353188E+02  0.51100000000E-03 0. -1.
        -11    1    3    3    0    0 -0.67099483219E+01  0.10930559831E+02  0.43823911200E+01  0.13553814846E+02  0.51100000000E-03 0.  1.
        -12    1    3    3    0    0 -0.15804892317E+02  0.10292641408E+02 -0.48121834051E+01  0.19465102040E+02  0.00000000000E+00 0.  1.
</event>
<event>
 7    1  0.5022032E-011  0.4778727E+02  0.7816164E-02  0.1312668E+00
        -11   -1    0    0    0    0  0.00000000000E+00  0.00000000000E+00  0.45593999997E+02  0.45594000000E+02  0.51100000000E-03 0. -1.
         11   -1    0    0    0    0 -0.00000000000E+00 -0.00000000000E+00 -0.45593999997E+02  0.45594000000E+02  0.51100000000E-03 0.  1.
    9900012    2    1    2    0    0 -0.43161985582E+02 -0.44790412673E+01 -0.77754946221E+00  0.47787269670E+02  0.19999993733E+02 0.  0.
         12    1    1    2    0    0  0.43161985582E+02  0.44790412673E+01  0.77754946221E+00  0.43400730330E+02  0.00000000000E+00 0. -1.
         11    1    3    3    0    0  0.98052565612E+00  0.25572006359E+00  0.41078724016E+00  0.10934211133E+01  0.51100000000E-03 0. -1.
        -11    1    3    3    0    0 -0.14874934959E+02 -0.79743305535E+01 -0.32023688074E+01  0.17178731154E+02  0.51100000000E-03 0.  1.
         12    1    3    3    0    0 -0.29267576279E+02  0.32395692226E+01  0.20140321050E+01  0.29515117403E+02  0.00000000000E+00 0. -1.
</event>
<event>
 7    1  0.5022032E-011  0.4778727E+02  0.7816164E-02  0.1312668E+00
        -11   -1    0    0    0    0  0.00000000000E+00  0.00000000000E+00  0.45593999997E+02  0.45594000000E+02  0.51100000000E-03 0.  1.
         11   -1    0    0    0    0 -0.00000000000E+00 -0.00000000000E+00 -0.45593999997E+02  0.45594000000E+02  0.51100000000E-03 0. -1.
    9900012    2    1    2    0    0 -0.63126134671E+01 -0.42871502839E+02  0.24101703657E+01  0.47787265379E+02  0.19999974168E+02 0.  0.
        -12    1    1    2    0    0  0.63126134671E+01  0.42871502839E+02 -0.24101703657E+01  0.43400734621E+02  0.00000000000E+00 0.  1.
         11    1    3    3    0    0  0.36543098074E+01 -0.50733758680E+01 -0.15939683824E+01  0.64524304205E+01  0.51100000000E-03 0. -1.
        -11    1    3    3    0    0 -0.30305689758E+01 -0.34514137345E+00  0.24949624384E+00  0.30603463074E+01  0.51100000000E-03 0.  1.
         12    1    3    3    0    0 -0.69363542988E+01 -0.37452985598E+02  0.37546425042E+01  0.38274488651E+02  0.00000000000E+00 0. -1.
</event>
<event>
 7    1  0.5022032E-011  0.4778729E+02  0.7816164E-02  0.1312668E+00
        -11   -1    0    0    0    0  0.00000000000E+00  0.00000000000E+00  0.45593999997E+02  0.45594000000E+02  0.51100000000E-03 0. -1.
         11   -1    0    0    0    0 -0.00000000000E+00 -0.00000000000E+00 -0.45593999997E+02  0.45594000000E+02  0.51100000000E-03 0.  1.
    9900012    2    1    2    0    0  0.36021547860E+01 -0.23248537695E+02 -0.36471240067E+02  0.47787292908E+02  0.20000099684E+02 0.  0.
         12    1    1    2    0    0 -0.36021547860E+01  0.23248537695E+02  0.36471240067E+02  0.43400707092E+02  0.00000000000E+00 0. -1.
         11    1    3    3    0    0 -0.40015644220E+01 -0.16321262562E+01 -0.92201394184E+01  0.10182697339E+02  0.51100000000E-03 0. -1.
        -11    1    3    3    0    0  0.11520205057E+01 -0.13067611313E+01  0.11577235154E+01  0.20916739466E+01  0.51100000000E-03 0.  1.
        -12    1    3    3    0    0  0.64516987024E+01 -0.20309650308E+02 -0.28408824164E+02  0.35512921622E+02  0.00000000000E+00 0.  1.
</event>
<event>
 7    1  0.5022032E-011  0.4778727E+02  0.7816164E-02  0.1312668E+00
        -11   -1    0    0    0    0  0.00000000000E+00  0.00000000000E+00  0.45593999997E+02  0.45594000000E+02  0.51100000000E-03 0. -1.
         11   -1    0    0    0    0 -0.00000000000E+00 -0.00000000000E+00 -0.45593999997E+02  0.45594000000E+02  0.51100000000E-03 0.  1.
    9900012    2    1    2    0    0 -0.22590863960E+01  0.88622691574E+01 -0.42426171020E+02  0.47787271050E+02  0.20000000027E+02 0.  0.
         12    1    1    2    0    0  0.22590863960E+01 -0.88622691574E+01  0.42426171020E+02  0.43400728950E+02  0.00000000000E+00 0. -1.
         11    1    3    3    0    0 -0.27378697276E+01  0.29303887490E+01 -0.38725298306E+02  0.38932400877E+02  0.51100000000E-03 0. -1.
        -11    1    3    3    0    0 -0.10807818554E+01  0.41110166878E+01 -0.46284831191E+01  0.62842186365E+01  0.51100000000E-03 0.  1.
         12    1    3    3    0    0  0.15595651870E+01  0.18208637206E+01  0.92761040528E+00  0.25706515372E+01  0.00000000000E+00 0. -1.
</event>
<event>
 7    1  0.5022032E-011  0.4778727E+02  0.7816164E-02  0.1312668E+00
        -11   -1    0    0    0    0  0.00000000000E+00  0.00000000000E+00  0.45593999997E+02  0.45594000000E+02  0.51100000000E-03 0. -1.
         11   -1    0    0    0    0 -0.00000000000E+00 -0.00000000000E+00 -0.45593999997E+02  0.45594000000E+02  0.51100000000E-03 0.  1.
    9900012    2    1    2    0    0 -0.30129539358E+01  0.27657494372E+02  0.33310785439E+02  0.47787270595E+02  0.19999997951E+02 0.  0.
        -12    1    1    2    0    0  0.30129539358E+01 -0.27657494372E+02 -0.33310785439E+02  0.43400729405E+02  0.00000000000E+00 0.  1.
         11    1    3    3    0    0 -0.45555539458E+01  0.11799292745E+01  0.13407123483E+02  0.14209020558E+02  0.51100000000E-03 0. -1.
        -11    1    3    3    0    0  0.43903128006E+00  0.39624806499E+01  0.88232527020E+00  0.40831972166E+01  0.51100000000E-03 0.  1.
         12    1    3    3    0    0  0.11035687300E+01  0.22515084447E+02  0.19021336685E+02  0.29495052821E+02  0.00000000000E+00 0. -1.
</event>
<event>
 7    1  0.5022032E-011  0.4778727E+02  0.7816164E-02  0.1312668E+00
        -11   -1    0    0    0    0  0.00000000000E+00  0.00000000000E+00  0.45593999997E+02  0.45594000000E+02  0.51100000000E-03 0. -1.
         11   -1    0    0    0    0 -0.00000000000E+00 -0.00000000000E+00 -0.45593999997E+02  0.45594000000E+02  0.51100000000E-03 0.  1.
    9900012    2    1    2    0    0 -0.15300286828E+02 -0.34783098151E+02 -0.20968096310E+02  0.47787265481E+02  0.19999974632E+02 0.  0.
         12    1    1    2    0    0  0.15300286828E+02  0.34783098151E+02  0.20968096310E+02  0.43400734519E+02  0.00000000000E+00 0. -1.
         11    1    3    3    0    0 -0.29187155957E+01 -0.38466811636E-01 -0.19574359498E+01  0.35145321428E+01  0.51100000000E-03 0. -1.
        -11    1    3    3    0    0 -0.15903767460E+02 -0.27366840971E+02 -0.16643868319E+02  0.35761601712E+02  0.51100000000E-03 0.  1.
        -12    1    3    3    0    0  0.35221962277E+01 -0.73777903684E+01 -0.23667920414E+01  0.85111316259E+01  0.00000000000E+00 0.  1.
</event>
<event>
 7    1  0.5022032E-011  0.4778727E+02  0.7816164E-02  0.1312668E+00
        -11   -1    0    0    0    0  0.00000000000E+00  0.00000000000E+00  0.45593999997E+02  0.45594000000E+02  0.51100000000E-03 0. -1.
         11   -1    0    0    0    0 -0.00000000000E+00 -0.00000000000E+00 -0.45593999997E+02  0.45594000000E+02  0.51100000000E-03 0.  1.
    9900012    2    1    2    0    0 -0.27490267260E+02 -0.30023587658E+02  0.15049663384E+02  0.47787274455E+02  0.20000015550E+02 0.  0.
        -12    1    1    2    0    0  0.27490267260E+02  0.30023587658E+02 -0.15049663384E+02  0.43400725545E+02  0.00000000000E+00 0.  1.
         11    1    3    3    0    0 -0.12484454097E+00 -0.41723992687E+01  0.14747925945E+01  0.44271339798E+01  0.51100000000E-03 0. -1.
        -11    1    3    3    0    0 -0.35254186602E+01 -0.14136208565E+02  0.58175013385E+01  0.15687711478E+02  0.51100000000E-03 0.  1.
         12    1    3    3    0    0 -0.23840004059E+02 -0.11714979823E+02  0.77573694507E+01  0.27672428997E+02  0.00000000000E+00 0. -1.
</event>
<event>
 7    1  0.5022032E-011  0.4778727E+02  0.7816164E-02  0.1312668E+00
        -11   -1    0    0    0    0  0.00000000000E+00  0.00000000000E+00  0.45593999997E+02  0.45594000000E+02  0.51100000000E-03 0. -1.
         11   -1    0    0    0    0 -0.00000000000E+00 -0.00000000000E+00 -0.45593999997E+02  0.45594000000E+02  0.51100000000E-03 0.  1.
    9900012    2    1    2    0    0 -0.19781150518E+02  0.14437388052E+02 -0.35831424591E+02  0.47787273304E+02  0.20000010300E+02 0.  0.
         12    1    1    2    0    0  0.19781150518E+02 -0.14437388052E+02  0.35831424591E+02  0.43400726696E+02  0.00000000000E+00 0. -1.
         11    1    3    3    0    0 -0.10775787986E+02  0.10857090831E+02 -0.91002935935E+01  0.17799139636E+02  0.51100000000E-03 0.  1.
        -11    1    3    3    0    0 -0.22279547273E+01  0.57693218712E+01 -0.94157643714E+01  0.11265233068E+02  0.51100000000E-03 0. -1.
         12    1    3    3    0    0 -0.67774078052E+01 -0.21890246504E+01 -0.17315366626E+02  0.18722900600E+02  0.00000000000E+00 0. -1.
</event>
<event>
 7    1 -0.5022032E-011  0.4778727E+02  0.7816164E-02  0.1312668E+00
        -11   -1    0    0    0    0  0.00000000000E+00  0.00000000000E+00  0.45593999997E+02  0.45594000000E+02  0.51100000000E-03 0. -1.
         11   -1    0    0    0    0 -0.00000000000E+00 -0.00000000000E+00 -0.45593999997E+02  0.45594000000E+02  0.51100000000E-03 0.  1.
    9900012    2    1    2    0    0 -0.36917872072E+02  0.83842349832E+01  0.21222590030E+02  0.47787274175E+02  0.20000014273E+02 0.  0.
        -12    1    1    2    0    0  0.36917872072E+02 -0.83842349832E+01 -0.21222590030E+02  0.43400725825E+02  0.00000000000E+00 0.  1.
         11    1    3    3    0    0 -0.30888674996E+02  0.79170652933E+01  0.18480103505E+02  0.36855181341E+02  0.51100000000E-03 0. -1.
        -11    1    3    3    0    0 -0.77843912973E+01 -0.76217505935E+00  0.51097718787E+00  0.78382878639E+01  0.51100000000E-03 0.  1.
         12    1    3    3    0    0  0.17551942216E+01  0.12293447492E+01  0.22315093378E+01  0.30938049700E+01  0.00000000000E+00 0. -1.
</event>
<event>
 7    1  0.5022032E-011  0.4778727E+02  0.7816164E-02  0.1312668E+00
        -11   -1    0    0    0    0  0.00000000000E+00  0.00000000000E+00  0.45593999997E+02  0.45594000000E+02  0.51100000000E-03 0. -1.
         11   -1    0    0    0    0 -0.00000000000E+00 -0.00000000000E+00 -0.45593999997E+02  0.45594000000E+02  0.51100000000E-03 0.  1.
    9900012    2    1    2    0    0  0.30109209550E+02 -0.14902970799E+02 -0.27476533794E+02  0.47787274803E+02  0.20000017135E+02 0.  0.
         12    1    1    2    0    0 -0.30109209550E+02  0.14902970799E+02  0.27476533794E+02  0.43400725197E+02  0.00000000000E+00 0. -1.
         11    1    3    3    0    0  0.15352940421E+02 -0.13601821800E+02 -0.16642048565E+02  0.26413635050E+02  0.51100000000E-03 0. -1.
        -11    1    3    3    0    0  0.13548440526E+02 -0.26000023620E+01 -0.12734334212E+02  0.18774544496E+02  0.51100000000E-03 0.  1.
        -12    1    3    3    0    0  0.12078286027E+01  0.12988533638E+01  0.18998489828E+01  0.25990952564E+01  0.00000000000E+00 0.  1.
</event>
<event>
 7    1  0.5022032E-011  0.4778727E+02  0.7816164E-02  0.1312668E+00
        -11   -1    0    0    0    0  0.00000000000E+00  0.00000000000E+00  0.45593999997E+02  0.45594000000E+02  0.51100000000E-03 0. -1.
         11   -1    0    0    0    0 -0.00000000000E+00 -0.00000000000E+00 -0.45593999997E+02  0.45594000000E+02  0.51100000000E-03 0.  1.
    9900012    2    1    2    0    0 -0.12975258215E+01 -0.29377120807E+02 -0.31920601508E+02  0.47787267278E+02  0.19999982828E+02 0.  0.
         12    1    1    2    0    0  0.12975258215E+01  0.29377120807E+02  0.31920601508E+02  0.43400732722E+02  0.00000000000E+00 0. -1.
         11    1    3    3    0    0  0.50659064460E+01 -0.16662179575E+02 -0.13809899170E+02  0.22226222163E+02  0.51100000000E-03 0. -1.
        -11    1    3    3    0    0  0.69930281489E+00 -0.10407490772E+02 -0.87862453028E+01  0.13638291512E+02  0.51100000000E-03 0.  1.
         12    1    3    3    0    0 -0.70627350823E+01 -0.23074504606E+01 -0.93244570351E+01  0.11922753603E+02  0.00000000000E+00 0. -1.
</event>
<event>
 7    1  0.5022032E-011  0.4778727E+02  0.7816164E-02  0.1312668E+00
        -11   -1    0    0    0    0  0.00000000000E+00  0.00000000000E+00  0.45593999997E+02  0.45594000000E+02  0.51100000000E-03 0.  1.
         11   -1    0    0    0    0 -0.00000000000E+00 -0.00000000000E+00 -0.45593999997E+02  0.45594000000E+02  0.51100000000E-03 0. -1.
    9900012    2    1    2    0    0  0.41522572384E+02  0.25509148321E+00  0.12626731442E+02  0.47787269177E+02  0.19999991487E+02 0.  0.
        -12    1    1    2    0    0 -0.41522572384E+02 -0.25509148321E+00 -0.12626731442E+02  0.43400730823E+02  0.00000000000E+00 0.  1.
         11    1    3    3    0    0  0.28269249484E+02 -0.29945896368E+01  0.10868617037E+02  0.30434271308E+02  0.51100000000E-03 0. -1.
        -11    1    3    3    0    0  0.49203268208E+01  0.23800732621E+01  0.58695230034E+01  0.80203282541E+01  0.51100000000E-03 0.  1.
         12    1    3    3    0    0  0.83329960792E+01  0.86960785787E+00 -0.41114085988E+01  0.93326696153E+01  0.00000000000E+00 0. -1.
</event>
<event>
 7    1  0.5022032E-011  0.4778727E+02  0.7816164E-02  0.1312668E+00
        -11   -1    0    0    0    0  0.00000000000E+00  0.00000000000E+00  0.45593999997E+02  0.45594000000E+02  0.51100000000E-03 0. -1.
         11   -1    0    0    0    0 -0.00000000000E+00 -0.00000000000E+00 -0.45593999997E+02  0.45594000000E+02  0.51100000000E-03 0.  1.
    9900012    2    1    2    0    0 -0.45684410034E+00 -0.38476073032E+02 -0.20075024084E+02  0.47787268503E+02  0.19999988415E+02 0.  0.
         12    1    1    2    0    0  0.45684410034E+00  0.38476073032E+02  0.20075024084E+02  0.43400731497E+02  0.00000000000E+00 0. -1.
         11    1    3    3    0    0  0.24220803189E+01 -0.25746030008E+02 -0.15010085730E+02  0.29900287760E+02  0.51100000000E-03 0.  1.
        -11    1    3    3    0    0  0.41057154878E+01 -0.49316742602E+01 -0.41108152456E+00  0.64301865414E+01  0.51100000000E-03 0. -1.
         12    1    3    3    0    0 -0.69846399070E+01 -0.77983687631E+01 -0.46538568288E+01  0.11456794202E+02  0.00000000000E+00 0. -1.
</event>
<event>
 7    1  0.5022032E-011  0.4778728E+02  0.7816164E-02  0.1312668E+00
        -11   -1    0    0    0    0  0.00000000000E+00  0.00000000000E+00  0.45593999997E+02  0.45594000000E+02  0.51100000000E-03 0. -1.
         11   -1    0    0    0    0 -0.00000000000E+00 -0.00000000000E+00 -0.45593999997E+02  0.45594000000E+02  0.51100000000E-03 0.  1.
    9900012    2    1    2    0    0  0.24735668813E+01  0.15644268069E+02 -0.40407439128E+02  0.47787276580E+02  0.20000025238E+02 0.  0.
         12    1    1    2    0    0 -0.24735668813E+01 -0.15644268069E+02  0.40407439128E+02  0.43400723420E+02  0.00000000000E+00 0. -1.
         11    1    3    3    0    0  0.87766140185E+01  0.29636503798E+01 -0.17991109240E+02  0.20235913351E+02  0.51100000000E-03 0. -1.
        -11    1    3    3    0    0 -0.45549289483E+00  0.31285452102E+01 -0.11443187323E+02  0.11871891395E+02  0.51100000000E-03 0.  1.
        -12    1    3    3    0    0 -0.58475542423E+01  0.95520724791E+01 -0.10973142565E+02  0.15679471835E+02  0.00000000000E+00 0.  1.
</event>
<event>
 7    1  0.5022032E-011  0.4778727E+02  0.7816164E-02  0.1312668E+00
        -11   -1    0    0    0    0  0.00000000000E+00  0.00000000000E+00  0.45593999997E+02  0.45594000000E+02  0.51100000000E-03 0. -1.
         11   -1    0    0    0    0 -0.00000000000E+00 -0.00000000000E+00 -0.45593999997E+02  0.45594000000E+02  0.51100000000E-03 0.  1.
    9900012    2    1    2    0    0 -0.16512633056E+00  0.43309303411E+02 -0.28107979147E+01  0.47787267131E+02  0.19999982159E+02 0.  0.
        -12    1    1    2    0    0  0.16512633056E+00 -0.43309303411E+02  0.28107979147E+01  0.43400732869E+02  0.00000000000E+00 0.  1.
         11    1    3    3    0    0  0.22319060372E+01 -0.28275640185E+00  0.28506774991E+00  0.22677344696E+01  0.51100000000E-03 0. -1.
        -11    1    3    3    0    0  0.40081034213E+01  0.10434008839E+02  0.20345747682E+01  0.11361026724E+02  0.51100000000E-03 0.  1.
         12    1    3    3    0    0 -0.64051357891E+01  0.33158050974E+02 -0.51304404328E+01  0.34158505938E+02  0.00000000000E+00 0. -1.
</event>
<event>
 7    1  0.5022032E-011  0.4778727E+02  0.7816164E-02  0.1312668E+00
        -11   -1    0    0    0    0  0.00000000000E+00  0.00000000000E+00  0.45593999997E+02  0.45594000000E+02  0.51100000000E-03 0. -1.
         11   -1    0    0    0    0 -0.00000000000E+00 -0.00000000000E+00 -0.45593999997E+02  0.45594000000E+02  0.51100000000E-03 0.  1.
    9900012    2    1    2    0    0 -0.14068309887E+02 -0.31120112910E+02 -0.26781428391E+02  0.47787266397E+02  0.19999978809E+02 0.  0.
         12    1    1    2    0    0  0.14068309887E+02  0.31120112910E+02  0.26781428391E+02  0.43400733603E+02  0.00000000000E+00 0. -1.
         11    1    3    3    0    0 -0.18151447121E+01 -0.75076047802E+00  0.33880035341E+00  0.19932831113E+01  0.51100000000E-03 0. -1.
        -11    1    3    3    0    0 -0.14743715231E+02 -0.30995474558E+02 -0.24981927441E+02  0.42452247064E+02  0.51100000000E-03 0.  1.
         12    1    3    3    0    0  0.24905500568E+01  0.62612212573E+00 -0.21383013042E+01  0.33417362208E+01  0.00000000000E+00 0. -1.
</event>
<event>
 7    1  0.5022032E-011  0.4778727E+02  0.7816164E-02  0.1312668E+00
        -11   -1    0    0    0    0  0.00000000000E+00  0.00000000000E+00  0.45593999997E+02  0.45594000000E+02  0.51100000000E-03 0. -1.
         11   -1    0    0    0    0 -0.00000000000E+00 -0.00000000000E+00 -0.45593999997E+02  0.45594000000E+02  0.51100000000E-03 0.  1.
    9900012    2    1    2    0    0 -0.18658479349E+02 -0.14986768422E+01  0.39156590054E+02  0.47787269263E+02  0.19999991876E+02 0.  0.
        -12    1    1    2    0    0  0.18658479349E+02  0.14986768422E+01 -0.39156590054E+02  0.43400730737E+02  0.00000000000E+00 0.  1.
         11    1    3    3    0    0  0.10130262796E+01 -0.10492603343E+01  0.64590336047E+01  0.66216527288E+01  0.51100000000E-03 0. -1.
        -11    1    3    3    0    0 -0.64806914438E+01  0.17319365116E+01  0.24681251558E+02  0.25576613231E+02  0.51100000000E-03 0.  1.
         12    1    3    3    0    0 -0.13190814185E+02 -0.21813530194E+01  0.80163048913E+01  0.15589003302E+02  0.00000000000E+00 0. -1.
</event>
<event>
 7    1  0.5022032E-011  0.4778727E+02  0.7816164E-02  0.1312668E+00
        -11   -1    0    0    0    0  0.00000000000E+00  0.00000000000E+00  0.45593999997E+02  0.45594000000E+02  0.51100000000E-03 0. -1.
         11   -1    0    0    0    0 -0.00000000000E+00 -0.00000000000E+00 -0.45593999997E+02  0.45594000000E+02  0.51100000000E-03 0.  1.
    9900012    2    1    2    0    0 -0.22990600077E+02 -0.81682460317E+00  0.36802016059E+02  0.47787270970E+02  0.19999999661E+02 0.  0.
        -12    1    1    2    0    0  0.22990600077E+02  0.81682460317E+00 -0.36802016059E+02  0.43400729030E+02  0.00000000000E+00 0.  1.
         11    1    3    3    0    0 -0.86056828533E+01 -0.93258876173E+00  0.41243852304E+01  0.95884332902E+01  0.51100000000E-03 0. -1.
        -11    1    3    3    0    0 -0.69523313665E+01  0.64597072562E+01  0.11762626009E+02  0.15113639541E+02  0.51100000000E-03 0.  1.
        -12    1    3    3    0    0 -0.74325858570E+01 -0.63439430977E+01  0.20915004819E+02  0.23085198139E+02  0.00000000000E+00 0.  1.
</event>
<event>
 7    1  0.5022032E-011  0.4778727E+02  0.7816164E-02  0.1312668E+00
        -11   -1    0    0    0    0  0.00000000000E+00  0.00000000000E+00  0.45593999997E+02  0.45594000000E+02  0.51100000000E-03 0. -1.
         11   -1    0    0    0    0 -0.00000000000E+00 -0.00000000000E+00 -0.45593999997E+02  0.45594000000E+02  0.51100000000E-03 0.  1.
    9900012    2    1    2    0    0  0.21665155590E+02  0.56891958398E+01  0.37173610292E+02  0.47787271686E+02  0.20000002926E+02 0.  0.
        -12    1    1    2    0    0 -0.21665155590E+02 -0.56891958398E+01 -0.37173610292E+02  0.43400728314E+02  0.00000000000E+00 0.  1.
         11    1    3    3    0    0  0.12098188263E+02  0.24320627797E+00  0.23107599684E+02  0.26084218830E+02  0.51100000000E-03 0.  1.
        -11    1    3    3    0    0  0.12158670490E+02  0.27795902183E+01  0.12531537207E+02  0.17680464216E+02  0.51100000000E-03 0. -1.
        -12    1    3    3    0    0 -0.25917031635E+01  0.26663993435E+01  0.15344734000E+01  0.40225886394E+01  0.00000000000E+00 0.  1.
</event>
<event>
 7    1  0.5022032E-011  0.4778727E+02  0.7816164E-02  0.1312668E+00
        -11   -1    0    0    0    0  0.00000000000E+00  0.00000000000E+00  0.45593999997E+02  0.45594000000E+02  0.51100000000E-03 0. -1.
         11   -1    0    0    0    0 -0.00000000000E+00 -0.00000000000E+00 -0.45593999997E+02  0.45594000000E+02  0.51100000000E-03 0.  1.
    9900012    2    1    2    0    0 -0.27799016316E+02 -0.80781667642E+01  0.32335449076E+02  0.47787270128E+02  0.19999995824E+02 0.  0.
        -12    1    1    2    0    0  0.27799016316E+02  0.80781667642E+01 -0.32335449076E+02  0.43400729872E+02  0.00000000000E+00 0.  1.
         11    1    3    3    0    0 -0.67238350193E+00  0.31468497605E+00 -0.40883487699E+00  0.84750954306E+00  0.51100000000E-03 0. -1.
        -11    1    3    3    0    0 -0.18490636822E+02 -0.11715222048E+02  0.13854779619E+02  0.25905694283E+02  0.51100000000E-03 0.  1.
         12    1    3    3    0    0 -0.86359959926E+01  0.33223703078E+01  0.18889504334E+02  0.21034066303E+02  0.00000000000E+00 0. -1.
</event>
<event>
 7    1  0.5022032E-011  0.4778727E+02  0.7816164E-02  0.1312668E+00
        -11   -1    0    0    0    0  0.00000000000E+00  0.00000000000E+00  0.45593999997E+02  0.45594000000E+02  0.51100000000E-03 0. -1.
         11   -1    0    0    0    0 -0.00000000000E+00 -0.00000000000E+00 -0.45593999997E+02  0.45594000000E+02  0.51100000000E-03 0.  1.
    9900012    2    1    2    0    0 -0.13829971365E+01 -0.15490266136E+02 -0.40518669050E+02  0.47787267660E+02  0.19999984571E+02 0.  0.
         12    1    1    2    0    0  0.13829971365E+01  0.15490266136E+02  0.40518669050E+02  0.43400732340E+02  0.00000000000E+00 0. -1.
         11    1    3    3    0    0 -0.84333795333E+00 -0.73095615542E+01 -0.94793697180E+01  0.11999973314E+02  0.51100000000E-03 0. -1.
        -11    1    3    3    0    0  0.54517983624E+01 -0.39151632485E+00 -0.33616022563E+01  0.64168341421E+01  0.51100000000E-03 0.  1.
        -12    1    3    3    0    0 -0.59914575456E+01 -0.77891882565E+01 -0.27677697076E+02  0.29370460205E+02  0.00000000000E+00 0.  1.
</event>
<event>
 7    1  0.5022032E-011  0.4778727E+02  0.7816164E-02  0.1312668E+00
        -11   -1    0    0    0    0  0.00000000000E+00  0.00000000000E+00  0.45593999997E+02  0.45594000000E+02  0.51100000000E-03 0.  1.
         11   -1    0    0    0    0 -0.00000000000E+00 -0.00000000000E+00 -0.45593999997E+02  0.45594000000E+02  0.51100000000E-03 0. -1.
    9900012    2    1    2    0    0  0.33781021806E+02 -0.27047218165E+02 -0.33036858829E+01  0.47787265154E+02  0.19999973143E+02 0.  0.
        -12    1    1    2    0    0 -0.33781021806E+02  0.27047218165E+02  0.33036858829E+01  0.43400734846E+02  0.00000000000E+00 0.  1.
         11    1    3    3    0    0  0.25852648741E+02 -0.20994352366E+02 -0.24833404107E+00  0.33304413345E+02  0.51100000000E-03 0. -1.
        -11    1    3    3    0    0  0.57479427139E+01 -0.75975721877E+01  0.10498511420E+01  0.95845780434E+01  0.51100000000E-03 0.  1.
        -12    1    3    3    0    0  0.21804303514E+01  0.15447063885E+01 -0.41052029838E+01  0.48982737656E+01  0.00000000000E+00 0.  1.
</event>
<event>
 7    1  0.5022032E-011  0.4778727E+02  0.7816164E-02  0.1312668E+00
        -11   -1    0    0    0    0  0.00000000000E+00  0.00000000000E+00  0.45593999997E+02  0.45594000000E+02  0.51100000000E-03 0. -1.
         11   -1    0    0    0    0 -0.00000000000E+00 -0.00000000000E+00 -0.45593999997E+02  0.45594000000E+02  0.51100000000E-03 0.  1.
    9900012    2    1    2    0    0 -0.40412039159E+01  0.14014421409E+02 -0.40876495370E+02  0.47787271777E+02  0.20000003341E+02 0.  0.
         12    1    1    2    0    0  0.40412039159E+01 -0.14014421409E+02  0.40876495370E+02  0.43400728223E+02  0.00000000000E+00 0. -1.
         11    1    3    3    0    0 -0.72604090345E+00 -0.11013453041E+01 -0.57735473316E+01  0.59223260568E+01  0.51100000000E-03 0. -1.
        -11    1    3    3    0    0  0.64030749445E+01  0.66029987297E+01 -0.97121304991E+01  0.13376264055E+02  0.51100000000E-03 0.  1.
        -12    1    3    3    0    0 -0.97182379569E+01  0.85127679833E+01 -0.25390817540E+02  0.28488681666E+02  0.00000000000E+00 0.  1.
</event>
<event>
 7    1  0.5022032E-011  0.4778727E+02  0.7816164E-02  0.1312668E+00
        -11   -1    0    0    0    0  0.00000000000E+00  0.00000000000E+00  0.45593999997E+02  0.45594000000E+02  0.51100000000E-03 0. -1.
         11   -1    0    0    0    0 -0.00000000000E+00 -0.00000000000E+00 -0.45593999997E+02  0.45594000000E+02  0.51100000000E-03 0.  1.
    9900012    2    1    2    0    0 -0.90940911563E+01  0.20501669439E+02 -0.37156456708E+02  0.47787271678E+02  0.20000002890E+02 0.  0.
         12    1    1    2    0    0  0.90940911563E+01 -0.20501669439E+02  0.37156456708E+02  0.43400728322E+02  0.00000000000E+00 0. -1.
         11    1    3    3    0    0 -0.14211201901E+01  0.13363691743E+00 -0.98064938967E+01  0.99098316952E+01  0.51100000000E-03 0. -1.
        -11    1    3    3    0    0  0.32796623657E+01  0.47599846529E+01 -0.12284065357E+02  0.13576151925E+02  0.51100000000E-03 0.  1.
        -12    1    3    3    0    0 -0.10952633332E+02  0.15608047869E+02 -0.15065897454E+02  0.24301288058E+02  0.00000000000E+00 0.  1.
</event>
<event>
 7    1  0.5022032E-011  0.4778727E+02  0.7816164E-02  0.1312668E+00
        -11   -1    0    0    0    0  0.00000000000E+00  0.00000000000E+00  0.45593999997E+02  0.45594000000E+02  0.51100000000E-03 0. -1.
         11   -1    0    0    0    0 -0.00000000000E+00 -0.00000000000E+00 -0.45593999997E+02  0.45594000000E+02  0.51100000000E-03 0.  1.
    9900012    2    1    2    0    0 -0.29671092597E+02 -0.14883910652E+02 -0.27959239826E+02  0.47787267012E+02  0.19999981614E+02 0.  0.
         12    1    1    2    0    0  0.29671092597E+02  0.14883910652E+02  0.27959239826E+02  0.43400732988E+02  0.00000000000E+00 0. -1.
         11    1    3    3    0    0  0.49183650149E+00 -0.26672137170E+01  0.13470958338E+01  0.30282997875E+01  0.51100000000E-03 0. -1.
        -11    1    3    3    0    0 -0.98734643750E+01  0.27255295747E+00 -0.68626035935E+01  0.12027257053E+02  0.51100000000E-03 0.  1.
        -12    1    3    3    0    0 -0.20289464724E+02 -0.12489249893E+02 -0.22443732067E+02  0.32731710171E+02  0.00000000000E+00 0.  1.
</event>
<event>
 7    1  0.5022032E-011  0.4778727E+02  0.7816164E-02  0.1312668E+00
        -11   -1    0    0    0    0  0.00000000000E+00  0.00000000000E+00  0.45593999997E+02  0.45594000000E+02  0.51100000000E-03 0.  1.
         11   -1    0    0    0    0 -0.00000000000E+00 -0.00000000000E+00 -0.45593999997E+02  0.45594000000E+02  0.51100000000E-03 0. -1.
    9900012    2    1    2    0    0 -0.10269465755E+01 -0.42260274580E+02  0.98304499939E+01  0.47787272196E+02  0.20000005250E+02 0.  0.
        -12    1    1    2    0    0  0.10269465755E+01  0.42260274580E+02 -0.98304499939E+01  0.43400727804E+02  0.00000000000E+00 0.  1.
         11    1    3    3    0    0 -0.60586876185E-01 -0.22053925184E+02  0.46667928450E+01  0.22542365504E+02  0.51100000000E-03 0.  1.
        -11    1    3    3    0    0  0.44859051594E+01 -0.13798440470E+02 -0.13960751484E+01  0.14576327747E+02  0.51100000000E-03 0. -1.
        -12    1    3    3    0    0 -0.54522648587E+01 -0.64079089262E+01  0.65597322973E+01  0.10668578945E+02  0.00000000000E+00 0.  1.
</event>
<event>
 7    1  0.5022032E-011  0.4778727E+02  0.7816164E-02  0.1312668E+00
        -11   -1    0    0    0    0  0.00000000000E+00  0.00000000000E+00  0.45593999997E+02  0.45594000000E+02  0.51100000000E-03 0. -1.
         11   -1    0    0    0    0 -0.00000000000E+00 -0.00000000000E+00 -0.45593999997E+02  0.45594000000E+02  0.51100000000E-03 0.  1.
    9900012    2    1    2    0    0 -0.29132944811E+02  0.31958451997E+02 -0.36813647276E+01  0.47787267591E+02  0.19999984253E+02 0.  0.
        -12    1    1    2    0    0  0.29132944811E+02 -0.31958451997E+02  0.36813647276E+01  0.43400732409E+02  0.00000000000E+00 0.  1.
         11    1    3    3    0    0 -0.59524915038E+01  0.12051469977E+02 -0.28040378675E+01  0.13730721479E+02  0.51100000000E-03 0. -1.
        -11    1    3    3    0    0  0.83892157954E+00  0.59511925186E+00  0.28329747504E+01  0.30139181373E+01  0.51100000000E-03 0.  1.
         12    1    3    3    0    0 -0.24019374886E+02  0.19311862768E+02 -0.37103016105E+01  0.31042627975E+02  0.00000000000E+00 0. -1.
</event>
<event>
 7    1  0.5022032E-011  0.4778727E+02  0.7816164E-02  0.1312668E+00
        -11   -1    0    0    0    0  0.00000000000E+00  0.00000000000E+00  0.45593999997E+02  0.45594000000E+02  0.51100000000E-03 0. -1.
         11   -1    0    0    0    0 -0.00000000000E+00 -0.00000000000E+00 -0.45593999997E+02  0.45594000000E+02  0.51100000000E-03 0.  1.
    9900012    2    1    2    0    0  0.33780990537E+02  0.11779329194E+02 -0.24570621118E+02  0.47787270282E+02  0.19999996524E+02 0.  0.
         12    1    1    2    0    0 -0.33780990537E+02 -0.11779329194E+02  0.24570621118E+02  0.43400729718E+02  0.00000000000E+00 0. -1.
         11    1    3    3    0    0  0.24779946705E+01  0.37482391229E+01 -0.25791646326E+01  0.51809115581E+01  0.51100000000E-03 0. -1.
        -11    1    3    3    0    0  0.22510042202E+02  0.65527609906E+00 -0.67156915652E+01  0.23499614893E+02  0.51100000000E-03 0.  1.
        -12    1    3    3    0    0  0.87929536652E+01  0.73758139719E+01 -0.15275764920E+02  0.19106743830E+02  0.00000000000E+00 0.  1.
</event>
<event>
 7    1  0.5022032E-011  0.4778727E+02  0.7816164E-02  0.1312668E+00
        -11   -1    0    0    0    0  0.00000000000E+00  0.00000000000E+00  0.45593999997E+02  0.45594000000E+02  0.51100000000E-03 0. -1.
         11   -1    0    0    0    0 -0.00000000000E+00 -0.00000000000E+00 -0.45593999997E+02  0.45594000000E+02  0.51100000000E-03 0.  1.
    9900012    2    1    2    0    0 -0.67707180448E+01  0.25602986047E+02  0.34384121954E+02  0.47787270053E+02  0.19999995481E+02 0.  0.
        -12    1    1    2    0    0  0.67707180448E+01 -0.25602986047E+02 -0.34384121954E+02  0.43400729947E+02  0.00000000000E+00 0.  1.
         11    1    3    3    0    0 -0.21434933730E-01  0.79369482953E+01  0.14024017761E+02  0.16114238491E+02  0.51100000000E-03 0.  1.
        -11    1    3    3    0    0 -0.46032151505E+01  0.20172613725E+02  0.19041866156E+02  0.28119683519E+02  0.51100000000E-03 0. -1.
         12    1    3    3    0    0 -0.21460679606E+01 -0.25065759734E+01  0.13182380366E+01  0.35533480442E+01  0.00000000000E+00 0. -1.
</event>
<event>
 7    1  0.5022032E-011  0.4778727E+02  0.7816164E-02  0.1312668E+00
        -11   -1    0    0    0    0  0.00000000000E+00  0.00000000000E+00  0.45593999997E+02  0.45594000000E+02  0.51100000000E-03 0. -1.
         11   -1    0    0    0    0 -0.00000000000E+00 -0.00000000000E+00 -0.45593999997E+02  0.45594000000E+02  0.51100000000E-03 0.  1.
    9900012    2    1    2    0    0 -0.95597063278E+00  0.92134609378E+01  0.42400728666E+02  0.47787268051E+02  0.19999986353E+02 0.  0.
        -12    1    1    2    0    0  0.95597063278E+00 -0.92134609378E+01 -0.42400728666E+02  0.43400731949E+02  0.00000000000E+00 0.  1.
         11    1    3    3    0    0  0.21295029561E+01 -0.18196839272E+01  0.79839257029E+00  0.29126385619E+01  0.51100000000E-03 0. -1.
        -11    1    3    3    0    0  0.22532622157E+00 -0.84935764744E-01 -0.84085541984E+00  0.87465655458E+00  0.51100000000E-03 0.  1.
         12    1    3    3    0    0 -0.33107998105E+01  0.11118080630E+02  0.42443191515E+02  0.43999972935E+02  0.00000000000E+00 0. -1.
</event>
<event>
 7    1  0.5022032E-011  0.4778727E+02  0.7816164E-02  0.1312668E+00
        -11   -1    0    0    0    0  0.00000000000E+00  0.00000000000E+00  0.45593999997E+02  0.45594000000E+02  0.51100000000E-03 0. -1.
         11   -1    0    0    0    0 -0.00000000000E+00 -0.00000000000E+00 -0.45593999997E+02  0.45594000000E+02  0.51100000000E-03 0.  1.
    9900012    2    1    2    0    0  0.50830293289E+01  0.42469484496E+02  0.73572350801E+01  0.47787271797E+02  0.20000003431E+02 0.  0.
        -12    1    1    2    0    0 -0.50830293289E+01 -0.42469484496E+02 -0.73572350801E+01  0.43400728203E+02  0.00000000000E+00 0.  1.
         11    1    3    3    0    0  0.75046350224E+01  0.40006399339E+02  0.70207844584E+01  0.41305241188E+02  0.51100000000E-03 0. -1.
        -11    1    3    3    0    0 -0.26425604011E+01  0.11608134788E+01  0.25847212354E+01  0.38744544819E+01  0.51100000000E-03 0.  1.
         12    1    3    3    0    0  0.22095470762E+00  0.13022716780E+01 -0.22482706137E+01  0.26075761271E+01  0.00000000000E+00 0. -1.
</event>
<event>
 7    1  0.5022032E-011  0.4778727E+02  0.7816164E-02  0.1312668E+00
        -11   -1    0    0    0    0  0.00000000000E+00  0.00000000000E+00  0.45593999997E+02  0.45594000000E+02  0.51100000000E-03 0. -1.
         11   -1    0    0    0    0 -0.00000000000E+00 -0.00000000000E+00 -0.45593999997E+02  0.45594000000E+02  0.51100000000E-03 0.  1.
    9900012    2    1    2    0    0  0.19609938577E+02 -0.89298223536E+01 -0.37674022267E+02  0.47787269913E+02  0.19999994843E+02 0.  0.
         12    1    1    2    0    0 -0.19609938577E+02  0.89298223536E+01  0.37674022267E+02  0.43400730087E+02  0.00000000000E+00 0. -1.
         11    1    3    3    0    0  0.28385825595E+01  0.38443365749E+01 -0.15982031236E+02  0.16681180933E+02  0.51100000000E-03 0. -1.
        -11    1    3    3    0    0 -0.58131272708E+00 -0.14569415333E+01 -0.13092989704E+01  0.20432491706E+01  0.51100000000E-03 0.  1.
        -12    1    3    3    0    0  0.17352668745E+02 -0.11317217395E+02 -0.20382692061E+02  0.29062839809E+02  0.00000000000E+00 0.  1.
</event>
<event>
 7    1  0.5022032E-011  0.4778727E+02  0.7816164E-02  0.1312668E+00
        -11   -1    0    0    0    0  0.00000000000E+00  0.00000000000E+00  0.45593999997E+02  0.45594000000E+02  0.51100000000E-03 0. -1.
         11   -1    0    0    0    0 -0.00000000000E+00 -0.00000000000E+00 -0.45593999997E+02  0.45594000000E+02  0.51100000000E-03 0.  1.
    9900012    2    1    2    0    0  0.48331595684E+01  0.19306961833E+02  0.38568186925E+02  0.47787271328E+02  0.20000001291E+02 0.  0.
        -12    1    1    2    0    0 -0.48331595684E+01 -0.19306961833E+02 -0.38568186925E+02  0.43400728672E+02  0.00000000000E+00 0.  1.
         11    1    3    3    0    0 -0.14070831251E+01  0.26930172533E+01  0.15079762712E+02  0.15382830317E+02  0.51100000000E-03 0.  1.
        -11    1    3    3    0    0 -0.17074045828E+01  0.13775231421E+02  0.14885835046E+02  0.20353385871E+02  0.51100000000E-03 0. -1.
         12    1    3    3    0    0  0.79476472763E+01  0.28387131587E+01  0.86025891669E+01  0.12051055141E+02  0.00000000000E+00 0. -1.
</event>
<event>
 7    1  0.5022032E-011  0.4778726E+02  0.7816164E-02  0.1312668E+00
        -11   -1    0    0    0    0  0.00000000000E+00  0.00000000000E+00  0.45593999997E+02  0.45594000000E+02  0.51100000000E-03 0. -1.
         11   -1    0    0    0    0 -0.00000000000E+00 -0.00000000000E+00 -0.45593999997E+02  0.45594000000E+02  0.51100000000E-03 0.  1.
    9900012    2    1    2    0    0  0.28052537026E+02  0.69901632370E+01  0.32369996749E+02  0.47787263771E+02  0.19999966839E+02 0.  0.
        -12    1    1    2    0    0 -0.28052537026E+02 -0.69901632370E+01 -0.32369996749E+02  0.43400736229E+02  0.00000000000E+00 0.  1.
         11    1    3    3    0    0  0.10822631965E+02  0.22140048163E+01  0.15066533245E+02  0.18682387542E+02  0.51100000000E-03 0. -1.
        -11    1    3    3    0    0  0.15404351524E+02 -0.26903015877E+01  0.12703107789E+02  0.20146977844E+02  0.51100000000E-03 0.  1.
         12    1    3    3    0    0  0.18255535370E+01  0.74664600084E+01  0.46003557148E+01  0.89578983850E+01  0.00000000000E+00 0. -1.
</event>
<event>
 7    1  0.1055297E-010  0.4778727E+02  0.7816164E-02  0.1312668E+00
        -11   -1    0    0    0    0  0.00000000000E+00  0.00000000000E+00  0.45593999997E+02  0.45594000000E+02  0.51100000000E-03 0. -1.
         11   -1    0    0    0    0 -0.00000000000E+00 -0.00000000000E+00 -0.45593999997E+02  0.45594000000E+02  0.51100000000E-03 0.  1.
    9900012    2    1    2    0    0 -0.24738551570E+02  0.34263483123E+02 -0.98813620343E+01  0.47787268149E+02  0.19999986801E+02 0.  0.
         12    1    1    2    0    0  0.24738551570E+02 -0.34263483123E+02  0.98813620343E+01  0.43400731851E+02  0.00000000000E+00 0. -1.
         11    1    3    3    0    0 -0.67668527250E+01  0.26653150226E+01 -0.18474515952E+00  0.72751859775E+01  0.51100000000E-03 0. -1.
        -11    1    3    3    0    0  0.27081891561E+01  0.42812590158E+01 -0.15027231440E+01  0.52840935243E+01  0.51100000000E-03 0.  1.
        -12    1    3    3    0    0 -0.20679888001E+02  0.27316909085E+02 -0.81938937307E+01  0.35227988648E+02  0.00000000000E+00 0.  1.
</event>
<event>
 7    1  0.5022032E-011  0.4778728E+02  0.7816164E-02  0.1312668E+00
        -11   -1    0    0    0    0  0.00000000000E+00  0.00000000000E+00  0.45593999997E+02  0.45594000000E+02  0.51100000000E-03 0. -1.
         11   -1    0    0    0    0 -0.00000000000E+00 -0.00000000000E+00 -0.45593999997E+02  0.45594000000E+02  0.51100000000E-03 0.  1.
    9900012    2    1    2    0    0  0.31340467960E+02 -0.46089595088E-01  0.30023242105E+02  0.47787284307E+02  0.20000060469E+02 0.  0.
        -12    1    1    2    0    0 -0.31340467960E+02  0.46089595088E-01 -0.30023242105E+02  0.43400715693E+02  0.00000000000E+00 0.  1.
         11    1    3    3    0    0  0.12602762183E+02 -0.74663453313E+00  0.85127554843E+01  0.15226755530E+02  0.51100000000E-03 0. -1.
        -11    1    3    3    0    0  0.12174994664E+02  0.64793906268E+01  0.18971746487E+02  0.23455066894E+02  0.51100000000E-03 0.  1.
        -12    1    3    3    0    0  0.65627111121E+01 -0.57788456887E+01  0.25387401331E+01  0.91054618827E+01  0.00000000000E+00 0.  1.
</event>
<event>
 7    1  0.5022032E-011  0.4778727E+02  0.7816164E-02  0.1312668E+00
        -11   -1    0    0    0    0  0.00000000000E+00  0.00000000000E+00  0.45593999997E+02  0.45594000000E+02  0.51100000000E-03 0. -1.
         11   -1    0    0    0    0 -0.00000000000E+00 -0.00000000000E+00 -0.45593999997E+02  0.45594000000E+02  0.51100000000E-03 0.  1.
    9900012    2    1    2    0    0 -0.29775585442E+02 -0.31133942536E+02 -0.52645481840E+01  0.47787270353E+02  0.19999996849E+02 0.  0.
        -12    1    1    2    0    0  0.29775585442E+02  0.31133942536E+02  0.52645481840E+01  0.43400729647E+02  0.00000000000E+00 0.  1.
         11    1    3    3    0    0 -0.12439749216E+02 -0.10088452315E+02 -0.96838483041E+01  0.18716333746E+02  0.51100000000E-03 0. -1.
        -11    1    3    3    0    0 -0.12364419423E+02 -0.82503412339E+01  0.85566173146E+00  0.14888893693E+02  0.51100000000E-03 0.  1.
        -12    1    3    3    0    0 -0.49714168026E+01 -0.12795148988E+02  0.35636383886E+01  0.14182042914E+02  0.00000000000E+00 0.  1.
</event>
<event>
 7    1  0.5022032E-011  0.4778725E+02  0.7816164E-02  0.1312668E+00
        -11   -1    0    0    0    0  0.00000000000E+00  0.00000000000E+00  0.45593999997E+02  0.45594000000E+02  0.51100000000E-03 0. -1.
         11   -1    0    0    0    0 -0.00000000000E+00 -0.00000000000E+00 -0.45593999997E+02  0.45594000000E+02  0.51100000000E-03 0.  1.
    9900012    2    1    2    0    0  0.30938937933E+01 -0.32575825216E+02  0.28510850671E+02  0.47787249162E+02  0.19999900230E+02 0.  0.
        -12    1    1    2    0    0 -0.30938937933E+01  0.32575825216E+02 -0.28510850671E+02  0.43400750838E+02  0.00000000000E+00 0.  1.
         11    1    3    3    0    0 -0.27208743249E+01 -0.72725382939E+01  0.10119902559E+02  0.12755602627E+02  0.51100000000E-03 0. -1.
        -11    1    3    3    0    0 -0.20569510014E+01 -0.15198702631E+02  0.41729340787E+01  0.15894810102E+02  0.51100000000E-03 0.  1.
        -12    1    3    3    0    0  0.78717191197E+01 -0.10104584291E+02  0.14218014034E+02  0.19136836433E+02  0.00000000000E+00 0.  1.
</event>
<event>
 7    1  0.5022032E-011  0.4778728E+02  0.7816164E-02  0.1312668E+00
        -11   -1    0    0    0    0  0.00000000000E+00  0.00000000000E+00  0.45593999997E+02  0.45594000000E+02  0.51100000000E-03 0. -1.
         11   -1    0    0    0    0 -0.00000000000E+00 -0.00000000000E+00 -0.45593999997E+02  0.45594000000E+02  0.51100000000E-03 0.  1.
    9900012    2    1    2    0    0  0.36322239267E+02  0.21867123198E+02  0.92815140793E+01  0.47787278279E+02  0.20000032983E+02 0.  0.
         12    1    1    2    0    0 -0.36322239267E+02 -0.21867123198E+02 -0.92815140793E+01  0.43400721721E+02  0.00000000000E+00 0. -1.
         11    1    3    3    0    0  0.22198247938E+01  0.36183672476E+01 -0.20381075347E+00  0.42499109094E+01  0.51100000000E-03 0. -1.
        -11    1    3    3    0    0  0.25855253408E+02  0.21499914587E+02  0.75604136603E+01  0.34465929714E+02  0.51100000000E-03 0.  1.
         12    1    3    3    0    0  0.82471610653E+01 -0.32511586366E+01  0.19249111725E+01  0.90714376555E+01  0.00000000000E+00 0. -1.
</event>
<event>
 7    1  0.5022032E-011  0.4778727E+02  0.7816164E-02  0.1312668E+00
        -11   -1    0    0    0    0  0.00000000000E+00  0.00000000000E+00  0.45593999997E+02  0.45594000000E+02  0.51100000000E-03 0. -1.
         11   -1    0    0    0    0 -0.00000000000E+00 -0.00000000000E+00 -0.45593999997E+02  0.45594000000E+02  0.51100000000E-03 0.  1.
    9900012    2    1    2    0    0  0.31107467025E+02 -0.19729943569E+02 -0.22949475821E+02  0.47787267076E+02  0.19999981905E+02 0.  0.
         12    1    1    2    0    0 -0.31107467025E+02  0.19729943569E+02  0.22949475821E+02  0.43400732924E+02  0.00000000000E+00 0. -1.
         11    1    3    3    0    0  0.28686343538E+01 -0.15662725652E+01  0.23668833189E+01  0.40353946165E+01  0.51100000000E-03 0. -1.
        -11    1    3    3    0    0  0.28719864644E+01 -0.64908627344E+01 -0.88131727394E+01  0.11315989541E+02  0.51100000000E-03 0.  1.
        -12    1    3    3    0    0  0.25366846206E+02 -0.11672808270E+02 -0.16503186400E+02  0.32435882919E+02  0.00000000000E+00 0.  1.
</event>
<event>
 7    1  0.5022032E-011  0.4778727E+02  0.7816164E-02  0.1312668E+00
        -11   -1    0    0    0    0  0.00000000000E+00  0.00000000000E+00  0.45593999997E+02  0.45594000000E+02  0.51100000000E-03 0. -1.
         11   -1    0    0    0    0 -0.00000000000E+00 -0.00000000000E+00 -0.45593999997E+02  0.45594000000E+02  0.51100000000E-03 0.  1.
    9900012    2    1    2    0    0  0.12052538064E+02  0.34507772605E+02 -0.23400285638E+02  0.47787269455E+02  0.19999992753E+02 0.  0.
         12    1    1    2    0    0 -0.12052538064E+02 -0.34507772605E+02  0.23400285638E+02  0.43400730545E+02  0.00000000000E+00 0. -1.
         11    1    3    3    0    0  0.57962032578E+01  0.59321081952E+01 -0.98898963971E+01  0.12907204610E+02  0.51100000000E-03 0.  1.
        -11    1    3    3    0    0  0.33894470902E+01 -0.47373241303E-01 -0.13316200385E+01  0.36419511240E+01  0.51100000000E-03 0. -1.
        -12    1    3    3    0    0  0.28668877159E+01  0.28623037651E+02 -0.12178769202E+02  0.31238113721E+02  0.00000000000E+00 0.  1.
</event>
<event>
 7    1  0.5022032E-011  0.4778727E+02  0.7816164E-02  0.1312668E+00
        -11   -1    0    0    0    0  0.00000000000E+00  0.00000000000E+00  0.45593999997E+02  0.45594000000E+02  0.51100000000E-03 0. -1.
         11   -1    0    0    0    0 -0.00000000000E+00 -0.00000000000E+00 -0.45593999997E+02  0.45594000000E+02  0.51100000000E-03 0.  1.
    9900012    2    1    2    0    0 -0.66537291866E+01 -0.16721764419E+02 -0.39493468316E+02  0.47787267783E+02  0.19999985130E+02 0.  0.
         12    1    1    2    0    0  0.66537291866E+01  0.16721764419E+02  0.39493468316E+02  0.43400732217E+02  0.00000000000E+00 0. -1.
         11    1    3    3    0    0 -0.30314036646E+01 -0.81688372197E+01 -0.72389478078E+01  0.11327915754E+02  0.51100000000E-03 0. -1.
        -11    1    3    3    0    0 -0.46788312705E+01 -0.10733413619E+02 -0.14967000746E+02  0.19002861405E+02  0.51100000000E-03 0.  1.
         12    1    3    3    0    0  0.10565057485E+01  0.21804864190E+01 -0.17287519762E+02  0.17456490625E+02  0.00000000000E+00 0. -1.
</event>
<event>
 7    1  0.5022032E-011  0.4778727E+02  0.7816164E-02  0.1312668E+00
        -11   -1    0    0    0    0  0.00000000000E+00  0.00000000000E+00  0.45593999997E+02  0.45594000000E+02  0.51100000000E-03 0. -1.
         11   -1    0    0    0    0 -0.00000000000E+00 -0.00000000000E+00 -0.45593999997E+02  0.45594000000E+02  0.51100000000E-03 0.  1.
    9900012    2    1    2    0    0 -0.22611669932E+02 -0.14456493086E+02  0.34107845525E+02  0.47787274939E+02  0.20000017756E+02 0.  0.
        -12    1    1    2    0    0  0.22611669932E+02  0.14456493086E+02 -0.34107845525E+02  0.43400725061E+02  0.00000000000E+00 0.  1.
         11    1    3    3    0    0 -0.52991117094E+01 -0.99550306672E+00  0.14743058737E+02  0.15698069705E+02  0.51100000000E-03 0. -1.
        -11    1    3    3    0    0 -0.18570081277E+01  0.17364810101E+01 -0.60860682234E+00  0.26142394707E+01  0.51100000000E-03 0.  1.
        -12    1    3    3    0    0 -0.15455550095E+02 -0.15197471030E+02  0.19973393610E+02  0.29474965763E+02  0.00000000000E+00 0.  1.
</event>
<event>
 7    1  0.5022032E-011  0.4778726E+02  0.7816164E-02  0.1312668E+00
        -11   -1    0    0    0    0  0.00000000000E+00  0.00000000000E+00  0.45593999997E+02  0.45594000000E+02  0.51100000000E-03 0. -1.
         11   -1    0    0    0    0 -0.00000000000E+00 -0.00000000000E+00 -0.45593999997E+02  0.45594000000E+02  0.51100000000E-03 0.  1.
    9900012    2    1    2    0    0  0.46630404182E+01  0.20425907449E+02 -0.38008719344E+02  0.47787258218E+02  0.19999941521E+02 0.  0.
         12    1    1    2    0    0 -0.46630404182E+01 -0.20425907449E+02  0.38008719344E+02  0.43400741782E+02  0.00000000000E+00 0. -1.
         11    1    3    3    0    0 -0.68268699670E+00  0.46531257721E+01 -0.43957265915E+01  0.64373949323E+01  0.51100000000E-03 0.  1.
        -11    1    3    3    0    0 -0.47404560667E+00  0.14783459991E+02 -0.12308172345E+02  0.19242310550E+02  0.51100000000E-03 0. -1.
        -12    1    3    3    0    0  0.58197730216E+01  0.98932168553E+00 -0.21304820407E+02  0.22107552736E+02  0.00000000000E+00 0.  1.
</event>
<event>
 7    1  0.5022032E-011  0.4778728E+02  0.7816164E-02  0.1312668E+00
        -11   -1    0    0    0    0  0.00000000000E+00  0.00000000000E+00  0.45593999997E+02  0.45594000000E+02  0.51100000000E-03 0. -1.
         11   -1    0    0    0    0 -0.00000000000E+00 -0.00000000000E+00 -0.45593999997E+02  0.45594000000E+02  0.51100000000E-03 0.  1.
    9900012    2    1    2    0    0  0.10999785299E+01  0.37155360319E+02 -0.22402937740E+02  0.47787281428E+02  0.20000047341E+02 0.  0.
         12    1    1    2    0    0 -0.10999785299E+01 -0.37155360319E+02  0.22402937740E+02  0.43400718572E+02  0.00000000000E+00 0. -1.
         11    1    3    3    0    0  0.22148741508E+01  0.12241368298E+02 -0.44730193334E+01  0.13219858832E+02  0.51100000000E-03 0. -1.
        -11    1    3    3    0    0  0.68571123885E+01  0.12132553175E+02 -0.11956917769E+02  0.18362644680E+02  0.51100000000E-03 0.  1.
         12    1    3    3    0    0 -0.79720080094E+01  0.12781438846E+02 -0.59730006370E+01  0.16204777916E+02  0.00000000000E+00 0. -1.
</event>
<event>
 7    1  0.5022032E-011  0.4778727E+02  0.7816164E-02  0.1312668E+00
        -11   -1    0    0    0    0  0.00000000000E+00  0.00000000000E+00  0.45593999997E+02  0.45594000000E+02  0.51100000000E-03 0. -1.
         11   -1    0    0    0    0 -0.00000000000E+00 -0.00000000000E+00 -0.45593999997E+02  0.45594000000E+02  0.51100000000E-03 0.  1.
    9900012    2    1    2    0    0 -0.23573747155E+02 -0.26616335365E+02  0.24889196904E+02  0.47787274364E+02  0.20000015137E+02 0.  0.
        -12    1    1    2    0    0  0.23573747155E+02  0.26616335365E+02 -0.24889196904E+02  0.43400725636E+02  0.00000000000E+00 0.  1.
         11    1    3    3    0    0 -0.55266744529E+01 -0.41762682475E+01  0.37211496120E+01  0.78633518095E+01  0.51100000000E-03 0. -1.
        -11    1    3    3    0    0 -0.76809472637E+01 -0.11561102170E+01  0.12492218388E+02  0.14710168667E+02  0.51100000000E-03 0.  1.
         12    1    3    3    0    0 -0.10366125439E+02 -0.21283956900E+02  0.86758289036E+01  0.25213753888E+02  0.00000000000E+00 0. -1.
</event>
<event>
 7    1  0.5213912E-011  0.4778727E+02  0.7816164E-02  0.1312668E+00
        -11   -1    0    0    0    0  0.00000000000E+00  0.00000000000E+00  0.45593999997E+02  0.45594000000E+02  0.51100000000E-03 0. -1.
         11   -1    0    0    0    0 -0.00000000000E+00 -0.00000000000E+00 -0.45593999997E+02  0.45594000000E+02  0.51100000000E-03 0.  1.
    9900012    2    1    2    0    0 -0.51906313434E+01  0.22416541691E+01 -0.43030866276E+02  0.47787272821E+02  0.20000008101E+02 0.  0.
         12    1    1    2    0    0  0.51906313434E+01 -0.22416541691E+01  0.43030866276E+02  0.43400727179E+02  0.00000000000E+00 0. -1.
         11    1    3    3    0    0  0.10174979534E+01  0.12960336693E+01 -0.37026774328E+00  0.16888172844E+01  0.51100000000E-03 0. -1.
        -11    1    3    3    0    0 -0.17329684398E+01 -0.75572469055E+01 -0.21602708023E+02  0.22951953176E+02  0.51100000000E-03 0.  1.
        -12    1    3    3    0    0 -0.44751608570E+01  0.85028674053E+01 -0.21057890510E+02  0.23146502361E+02  0.00000000000E+00 0.  1.
</event>
<event>
 7    1  0.5022032E-011  0.4778728E+02  0.7816164E-02  0.1312668E+00
        -11   -1    0    0    0    0  0.00000000000E+00  0.00000000000E+00  0.45593999997E+02  0.45594000000E+02  0.51100000000E-03 0. -1.
         11   -1    0    0    0    0 -0.00000000000E+00 -0.00000000000E+00 -0.45593999997E+02  0.45594000000E+02  0.51100000000E-03 0.  1.
    9900012    2    1    2    0    0  0.35260036709E+02 -0.77036062492E+01  0.24104084172E+02  0.47787278672E+02  0.20000034778E+02 0.  0.
        -12    1    1    2    0    0 -0.35260036709E+02  0.77036062492E+01 -0.24104084172E+02  0.43400721328E+02  0.00000000000E+00 0.  1.
         11    1    3    3    0    0  0.81438216648E+01  0.34016572755E+01  0.17628617247E+01  0.90000436248E+01  0.51100000000E-03 0. -1.
        -11    1    3    3    0    0  0.66914097584E+01  0.22414229991E+01  0.30702439347E+01  0.76958001335E+01  0.51100000000E-03 0.  1.
         12    1    3    3    0    0  0.20424805286E+02 -0.13346686524E+02  0.19270978513E+02  0.31091434914E+02  0.00000000000E+00 0. -1.
</event>
<event>
 7    1  0.5022032E-011  0.4778726E+02  0.7816164E-02  0.1312668E+00
        -11   -1    0    0    0    0  0.00000000000E+00  0.00000000000E+00  0.45593999997E+02  0.45594000000E+02  0.51100000000E-03 0. -1.
         11   -1    0    0    0    0 -0.00000000000E+00 -0.00000000000E+00 -0.45593999997E+02  0.45594000000E+02  0.51100000000E-03 0.  1.
    9900012    2    1    2    0    0 -0.93568701990E+01  0.16747708271E+02 -0.38930549496E+02  0.47787257653E+02  0.19999938942E+02 0.  0.
         12    1    1    2    0    0  0.93568701990E+01 -0.16747708271E+02  0.38930549496E+02  0.43400742347E+02  0.00000000000E+00 0. -1.
         11    1    3    3    0    0 -0.46564693869E+01  0.16699056265E+01 -0.32543638066E+00  0.49575398184E+01  0.51100000000E-03 0.  1.
        -11    1    3    3    0    0  0.29261153902E+01  0.33613466467E+01 -0.74390045234E+01  0.86717697799E+01  0.51100000000E-03 0. -1.
        -12    1    3    3    0    0 -0.76265162023E+01  0.11716455998E+02 -0.31166108592E+02  0.34157948054E+02  0.00000000000E+00 0.  1.
</event>
<event>
 7    1  0.6508834E-011  0.4778726E+02  0.7816164E-02  0.1312668E+00
        -11   -1    0    0    0    0  0.00000000000E+00  0.00000000000E+00  0.45593999997E+02  0.45594000000E+02  0.51100000000E-03 0. -1.
         11   -1    0    0    0    0 -0.00000000000E+00 -0.00000000000E+00 -0.45593999997E+02  0.45594000000E+02  0.51100000000E-03 0.  1.
    9900012    2    1    2    0    0  0.17728988836E+02  0.33220831867E+01 -0.39474938478E+02  0.47787262107E+02  0.19999959249E+02 0.  0.
         12    1    1    2    0    0 -0.17728988836E+02 -0.33220831867E+01  0.39474938478E+02  0.43400737893E+02  0.00000000000E+00 0. -1.
         11    1    3    3    0    0  0.50692284242E+01 -0.18488702966E+01 -0.33237042741E+01  0.63373818374E+01  0.51100000000E-03 0. -1.
        -11    1    3    3    0    0  0.24155011183E+01 -0.44716730133E+01 -0.44037314525E+01  0.67248313107E+01  0.51100000000E-03 0.  1.
        -12    1    3    3    0    0  0.10244259293E+02  0.96426264966E+01 -0.31747502751E+02  0.34725048959E+02  0.00000000000E+00 0.  1.
</event>
<event>
 7    1  0.5022032E-011  0.4778727E+02  0.7816164E-02  0.1312668E+00
        -11   -1    0    0    0    0  0.00000000000E+00  0.00000000000E+00  0.45593999997E+02  0.45594000000E+02  0.51100000000E-03 0. -1.
         11   -1    0    0    0    0 -0.00000000000E+00 -0.00000000000E+00 -0.45593999997E+02  0.45594000000E+02  0.51100000000E-03 0.  1.
    9900012    2    1    2    0    0  0.60287927243E+01 -0.21419181762E+02 -0.37262523117E+02  0.47787270535E+02  0.19999997676E+02 0.  0.
         12    1    1    2    0    0 -0.60287927243E+01  0.21419181762E+02  0.37262523117E+02  0.43400729465E+02  0.00000000000E+00 0. -1.
         11    1    3    3    0    0 -0.13470917535E+01 -0.10715726186E+01 -0.10594040478E+02  0.10732968740E+02  0.51100000000E-03 0. -1.
        -11    1    3    3    0    0  0.49015260312E+01  0.31677798389E+00 -0.49126792121E+01  0.69469218383E+01  0.51100000000E-03 0.  1.
        -12    1    3    3    0    0  0.24743584466E+01 -0.20664387128E+02 -0.21755803427E+02  0.30107379956E+02  0.00000000000E+00 0.  1.
</event>
<event>
 7    1  0.5022032E-011  0.4778726E+02  0.7816164E-02  0.1312668E+00
        -11   -1    0    0    0    0  0.00000000000E+00  0.00000000000E+00  0.45593999997E+02  0.45594000000E+02  0.51100000000E-03 0. -1.
         11   -1    0    0    0    0 -0.00000000000E+00 -0.00000000000E+00 -0.45593999997E+02  0.45594000000E+02  0.51100000000E-03 0.  1.
    9900012    2    1    2    0    0 -0.18508580893E+02 -0.84969393764E+01 -0.38325689861E+02  0.47787262118E+02  0.19999959299E+02 0.  0.
         12    1    1    2    0    0  0.18508580893E+02  0.84969393764E+01  0.38325689861E+02  0.43400737882E+02  0.00000000000E+00 0. -1.
         11    1    3    3    0    0 -0.72886422908E+01  0.51325934861E-01 -0.60603857485E+01  0.94791991475E+01  0.51100000000E-03 0. -1.
        -11    1    3    3    0    0 -0.43066199919E+01 -0.63823693892E+01 -0.31736033027E+01  0.83278672515E+01  0.51100000000E-03 0.  1.
         12    1    3    3    0    0 -0.69133186103E+01 -0.21658959220E+01 -0.29091700809E+02  0.29980195719E+02  0.00000000000E+00 0. -1.
</event>
<event>
 7    1  0.5022032E-011  0.4778727E+02  0.7816164E-02  0.1312668E+00
        -11   -1    0    0    0    0  0.00000000000E+00  0.00000000000E+00  0.45593999997E+02  0.45594000000E+02  0.51100000000E-03 0. -1.
         11   -1    0    0    0    0 -0.00000000000E+00 -0.00000000000E+00 -0.45593999997E+02  0.45594000000E+02  0.51100000000E-03 0.  1.
    9900012    2    1    2    0    0  0.18280523129E+02  0.85341529441E+01  0.38426733480E+02  0.47787272606E+02  0.20000007122E+02 0.  0.
        -12    1    1    2    0    0 -0.18280523129E+02 -0.85341529441E+01 -0.38426733480E+02  0.43400727394E+02  0.00000000000E+00 0.  1.
         11    1    3    3    0    0  0.15594627583E+02  0.53064408073E+01  0.22258010313E+02  0.27690607556E+02  0.51100000000E-03 0. -1.
        -11    1    3    3    0    0  0.32260364201E+01 -0.21264106281E+01  0.98475912445E+00  0.39873153797E+01  0.51100000000E-03 0.  1.
         12    1    3    3    0    0 -0.54014087425E+00  0.53541227649E+01  0.15183964043E+02  0.16109349670E+02  0.00000000000E+00 0. -1.
</event>
<event>
 7    1  0.5022032E-011  0.4778727E+02  0.7816164E-02  0.1312668E+00
        -11   -1    0    0    0    0  0.00000000000E+00  0.00000000000E+00  0.45593999997E+02  0.45594000000E+02  0.51100000000E-03 0. -1.
         11   -1    0    0    0    0 -0.00000000000E+00 -0.00000000000E+00 -0.45593999997E+02  0.45594000000E+02  0.51100000000E-03 0.  1.
    9900012    2    1    2    0    0  0.38719548992E+02  0.67715850961E+01  0.18400151318E+02  0.47787269506E+02  0.19999992987E+02 0.  0.
        -12    1    1    2    0    0 -0.38719548992E+02 -0.67715850961E+01 -0.18400151318E+02  0.43400730494E+02  0.00000000000E+00 0.  1.
         11    1    3    3    0    0  0.14068746209E+02  0.97636870271E+01  0.78070132576E+01  0.18820431996E+02  0.51100000000E-03 0.  1.
        -11    1    3    3    0    0  0.50901265885E+01  0.33048568274E+01  0.44283923449E+01  0.75127975055E+01  0.51100000000E-03 0. -1.
        -12    1    3    3    0    0  0.19560676194E+02 -0.62969587585E+01  0.61647457157E+01  0.21454040005E+02  0.00000000000E+00 0.  1.
</event>
<event>
 7    1  0.5022032E-011  0.4778727E+02  0.7816164E-02  0.1312668E+00
        -11   -1    0    0    0    0  0.00000000000E+00  0.00000000000E+00  0.45593999997E+02  0.45594000000E+02  0.51100000000E-03 0. -1.
         11   -1    0    0    0    0 -0.00000000000E+00 -0.00000000000E+00 -0.45593999997E+02  0.45594000000E+02  0.51100000000E-03 0.  1.
    9900012    2    1    2    0    0  0.39255394785E+02  0.13713551695E+02 -0.12432861473E+02  0.47787267700E+02  0.19999984751E+02 0.  0.
         12    1    1    2    0    0 -0.39255394785E+02 -0.13713551695E+02  0.12432861473E+02  0.43400732300E+02  0.00000000000E+00 0. -1.
         11    1    3    3    0    0  0.29401929199E+00  0.68403601997E+00  0.82401301524E+00  0.11105630694E+01  0.51100000000E-03 0. -1.
        -11    1    3    3    0    0  0.38566974481E+02  0.14416612600E+02 -0.15513145711E+02  0.43998953733E+02  0.51100000000E-03 0.  1.
        -12    1    3    3    0    0  0.39440101125E+00 -0.13870969251E+01  0.22562712228E+01  0.26777508973E+01  0.00000000000E+00 0.  1.
</event>
<event>
 7    1  0.5022032E-011  0.4778727E+02  0.7816164E-02  0.1312668E+00
        -11   -1    0    0    0    0  0.00000000000E+00  0.00000000000E+00  0.45593999997E+02  0.45594000000E+02  0.51100000000E-03 0. -1.
         11   -1    0    0    0    0 -0.00000000000E+00 -0.00000000000E+00 -0.45593999997E+02  0.45594000000E+02  0.51100000000E-03 0.  1.
    9900012    2    1    2    0    0 -0.27611659624E+02  0.10294254973E+01  0.33468789272E+02  0.47787270520E+02  0.19999997611E+02 0.  0.
        -12    1    1    2    0    0  0.27611659624E+02 -0.10294254973E+01 -0.33468789272E+02  0.43400729480E+02  0.00000000000E+00 0.  1.
         11    1    3    3    0    0 -0.89374228176E+01 -0.38115644389E+01  0.24319794479E+02  0.26188889893E+02  0.51100000000E-03 0. -1.
        -11    1    3    3    0    0 -0.74745970125E+01  0.71016474316E+00  0.23844576364E+01  0.78777898514E+01  0.51100000000E-03 0.  1.
        -12    1    3    3    0    0 -0.11199639794E+02  0.41308251930E+01  0.67645371564E+01  0.13720590776E+02  0.00000000000E+00 0.  1.
</event>
<event>
 7    1  0.5022032E-011  0.4778732E+02  0.7816164E-02  0.1312668E+00
        -11   -1    0    0    0    0  0.00000000000E+00  0.00000000000E+00  0.45593999997E+02  0.45594000000E+02  0.51100000000E-03 0. -1.
         11   -1    0    0    0    0 -0.00000000000E+00 -0.00000000000E+00 -0.45593999997E+02  0.45594000000E+02  0.51100000000E-03 0.  1.
    9900012    2    1    2    0    0 -0.28191899413E+02 -0.24383250642E+00 -0.32996609054E+02  0.47787321942E+02  0.20000232061E+02 0.  0.
         12    1    1    2    0    0  0.28191899413E+02  0.24383250642E+00  0.32996609054E+02  0.43400678058E+02  0.00000000000E+00 0. -1.
         11    1    3    3    0    0 -0.73387551074E+01  0.33617458463E+00 -0.29186227133E+01  0.79049793600E+01  0.51100000000E-03 0. -1.
        -11    1    3    3    0    0 -0.17773463142E+02  0.58886067239E+01 -0.24310155009E+02  0.30684773391E+02  0.51100000000E-03 0.  1.
         12    1    3    3    0    0 -0.30796811640E+01 -0.64686138150E+01 -0.57678313313E+01  0.91975691911E+01  0.00000000000E+00 0. -1.
</event>
<event>
 7    1  0.5022032E-011  0.4778727E+02  0.7816164E-02  0.1312668E+00
        -11   -1    0    0    0    0  0.00000000000E+00  0.00000000000E+00  0.45593999997E+02  0.45594000000E+02  0.51100000000E-03 0. -1.
         11   -1    0    0    0    0 -0.00000000000E+00 -0.00000000000E+00 -0.45593999997E+02  0.45594000000E+02  0.51100000000E-03 0.  1.
    9900012    2    1    2    0    0 -0.38338957849E+02  0.91307158326E+01 -0.18176294596E+02  0.47787270216E+02  0.19999996222E+02 0.  0.
         12    1    1    2    0    0  0.38338957849E+02 -0.91307158326E+01  0.18176294596E+02  0.43400729784E+02  0.00000000000E+00 0. -1.
         11    1    3    3    0    0 -0.70827095814E+01 -0.42425780677E+01 -0.12570032297E+01  0.83513053504E+01  0.51100000000E-03 0. -1.
        -11    1    3    3    0    0 -0.16433479508E+02  0.30298282606E+01 -0.38977184508E+01  0.17159001061E+02  0.51100000000E-03 0.  1.
         12    1    3    3    0    0 -0.14822768759E+02  0.10343465640E+02 -0.13021572916E+02  0.22276963804E+02  0.00000000000E+00 0. -1.
</event>
<event>
 7    1  0.5022032E-011  0.4778727E+02  0.7816164E-02  0.1312668E+00
        -11   -1    0    0    0    0  0.00000000000E+00  0.00000000000E+00  0.45593999997E+02  0.45594000000E+02  0.51100000000E-03 0. -1.
         11   -1    0    0    0    0 -0.00000000000E+00 -0.00000000000E+00 -0.45593999997E+02  0.45594000000E+02  0.51100000000E-03 0.  1.
    9900012    2    1    2    0    0 -0.25493526431E+02  0.82278971923E+01 -0.34146818753E+02  0.47787269441E+02  0.19999992691E+02 0.  0.
         12    1    1    2    0    0  0.25493526431E+02 -0.82278971923E+01  0.34146818753E+02  0.43400730559E+02  0.00000000000E+00 0. -1.
         11    1    3    3    0    0 -0.71998617278E+00 -0.32285359695E+00  0.88114050361E+00  0.11828031883E+01  0.51100000000E-03 0. -1.
        -11    1    3    3    0    0 -0.26263513073E+02  0.85017337441E+01 -0.27627983768E+02  0.39055820090E+02  0.51100000000E-03 0.  1.
        -12    1    3    3    0    0  0.14899728146E+01  0.49017045225E-01 -0.73999754889E+01  0.75486461631E+01  0.00000000000E+00 0.  1.
</event>
<event>
 7    1  0.6119606E-011  0.4778727E+02  0.7816164E-02  0.1312668E+00
        -11   -1    0    0    0    0  0.00000000000E+00  0.00000000000E+00  0.45593999997E+02  0.45594000000E+02  0.51100000000E-03 0. -1.
         11   -1    0    0    0    0 -0.00000000000E+00 -0.00000000000E+00 -0.45593999997E+02  0.45594000000E+02  0.51100000000E-03 0.  1.
    9900012    2    1    2    0    0 -0.11042701697E+02  0.15908383781E+02 -0.38840768613E+02  0.47787271415E+02  0.20000001688E+02 0.  0.
         12    1    1    2    0    0  0.11042701697E+02 -0.15908383781E+02  0.38840768613E+02  0.43400728585E+02  0.00000000000E+00 0. -1.
         11    1    3    3    0    0 -0.75360218823E+01  0.58790062329E+01 -0.52477349588E+01  0.10903809543E+02  0.51100000000E-03 0. -1.
        -11    1    3    3    0    0 -0.20214539466E+01 -0.16598856068E+01 -0.24422208431E+01  0.35785386953E+01  0.51100000000E-03 0.  1.
        -12    1    3    3    0    0 -0.14852258679E+01  0.11689263155E+02 -0.31150812811E+02  0.33304923176E+02  0.00000000000E+00 0.  1.
</event>
<event>
 7    1  0.5022032E-011  0.4778727E+02  0.7816164E-02  0.1312668E+00
        -11   -1    0    0    0    0  0.00000000000E+00  0.00000000000E+00  0.45593999997E+02  0.45594000000E+02  0.51100000000E-03 0. -1.
         11   -1    0    0    0    0 -0.00000000000E+00 -0.00000000000E+00 -0.45593999997E+02  0.45594000000E+02  0.51100000000E-03 0.  1.
    9900012    2    1    2    0    0  0.70296385516E+01 -0.12262143179E+02  0.41034709315E+02  0.47787270259E+02  0.19999996419E+02 0.  0.
        -12    1    1    2    0    0 -0.70296385516E+01  0.12262143179E+02 -0.41034709315E+02  0.43400729741E+02  0.00000000000E+00 0.  1.
         11    1    3    3    0    0 -0.40610259559E+00  0.12150514237E+01  0.41001616141E+00  0.13451330023E+01  0.51100000000E-03 0. -1.
        -11    1    3    3    0    0  0.14711081959E+01 -0.15792446586E+01 -0.12562519819E+01  0.24972669698E+01  0.51100000000E-03 0.  1.
         12    1    3    3    0    0  0.59646329513E+01 -0.11897949944E+02  0.41880945135E+02  0.43944870287E+02  0.00000000000E+00 0. -1.
</event>
<event>
 7    1  0.5022032E-011  0.4778723E+02  0.7816164E-02  0.1312668E+00
        -11   -1    0    0    0    0  0.00000000000E+00  0.00000000000E+00  0.45593999997E+02  0.45594000000E+02  0.51100000000E-03 0. -1.
         11   -1    0    0    0    0 -0.00000000000E+00 -0.00000000000E+00 -0.45593999997E+02  0.45594000000E+02  0.51100000000E-03 0.  1.
    9900012    2    1    2    0    0  0.17516869274E+02 -0.22934359777E+02 -0.32416061111E+02  0.47787232893E+02  0.19999826049E+02 0.  0.
         12    1    1    2    0    0 -0.17516869274E+02  0.22934359777E+02  0.32416061111E+02  0.43400767107E+02  0.00000000000E+00 0. -1.
         11    1    3    3    0    0  0.10570294712E+02 -0.70711432039E+01 -0.19874481527E+02  0.23595067552E+02  0.51100000000E-03 0. -1.
        -11    1    3    3    0    0  0.56583579702E+01 -0.14322437839E+01 -0.57414610657E+01  0.81873507684E+01  0.51100000000E-03 0.  1.
        -12    1    3    3    0    0  0.12882165909E+01 -0.14430972790E+02 -0.68001185182E+01  0.16004814573E+02  0.00000000000E+00 0.  1.
</event>
<event>
 7    1  0.5022032E-011  0.4778727E+02  0.7816164E-02  0.1312668E+00
        -11   -1    0    0    0    0  0.00000000000E+00  0.00000000000E+00  0.45593999997E+02  0.45594000000E+02  0.51100000000E-03 0.  1.
         11   -1    0    0    0    0 -0.00000000000E+00 -0.00000000000E+00 -0.45593999997E+02  0.45594000000E+02  0.51100000000E-03 0. -1.
    9900012    2    1    2    0    0  0.34651945926E+02  0.25742265327E+02 -0.44946313243E+01  0.47787270843E+02  0.19999999081E+02 0.  0.
        -12    1    1    2    0    0 -0.34651945926E+02 -0.25742265327E+02  0.44946313243E+01  0.43400729157E+02  0.00000000000E+00 0.  1.
         11    1    3    3    0    0 -0.14276461148E+00  0.40519246394E+01  0.62812152663E+00  0.41028053733E+01  0.51100000000E-03 0. -1.
        -11    1    3    3    0    0 -0.13751071195E+01  0.11139936443E+01 -0.17467605802E+00  0.17783175802E+01  0.51100000000E-03 0.  1.
         12    1    3    3    0    0  0.36169817657E+02  0.20576347043E+02 -0.49480767929E+01  0.41906147889E+02  0.00000000000E+00 0. -1.
</event>
<event>
 7    1  0.5022032E-011  0.4778727E+02  0.7816164E-02  0.1312668E+00
        -11   -1    0    0    0    0  0.00000000000E+00  0.00000000000E+00  0.45593999997E+02  0.45594000000E+02  0.51100000000E-03 0. -1.
         11   -1    0    0    0    0 -0.00000000000E+00 -0.00000000000E+00 -0.45593999997E+02  0.45594000000E+02  0.51100000000E-03 0.  1.
    9900012    2    1    2    0    0 -0.17287881262E+02 -0.23322874386E+02  0.32261372344E+02  0.47787268973E+02  0.19999990555E+02 0.  0.
        -12    1    1    2    0    0  0.17287881262E+02  0.23322874386E+02 -0.32261372344E+02  0.43400731027E+02  0.00000000000E+00 0.  1.
         11    1    3    3    0    0  0.14522214859E+00 -0.68383600376E+01  0.76019543036E+01  0.10226141353E+02  0.51100000000E-03 0. -1.
        -11    1    3    3    0    0 -0.10334193125E+01  0.25314267582E+01  0.63128037902E+00  0.28061703594E+01  0.51100000000E-03 0.  1.
         12    1    3    3    0    0 -0.16399684098E+02 -0.19015941107E+02  0.24028137662E+02  0.34754957260E+02  0.00000000000E+00 0. -1.
</event>
<event>
 7    1  0.5022032E-011  0.4778724E+02  0.7816164E-02  0.1312668E+00
        -11   -1    0    0    0    0  0.00000000000E+00  0.00000000000E+00  0.45593999997E+02  0.45594000000E+02  0.51100000000E-03 0. -1.
         11   -1    0    0    0    0 -0.00000000000E+00 -0.00000000000E+00 -0.45593999997E+02  0.45594000000E+02  0.51100000000E-03 0.  1.
    9900012    2    1    2    0    0 -0.38009602840E+02  0.17955095766E+02  0.10794006200E+02  0.47787240308E+02  0.19999859859E+02 0.  0.
        -12    1    1    2    0    0  0.38009602840E+02 -0.17955095766E+02 -0.10794006200E+02  0.43400759692E+02  0.00000000000E+00 0.  1.
         11    1    3    3    0    0  0.29800989296E+00 -0.11524614928E+01 -0.92096216781E+00  0.15050411836E+01  0.51100000000E-03 0. -1.
        -11    1    3    3    0    0 -0.17049146114E+02  0.94702643994E+01 -0.13212839453E+01  0.19547508346E+02  0.51100000000E-03 0.  1.
         12    1    3    3    0    0 -0.21258466620E+02  0.96372928590E+01  0.13036252313E+02  0.26734690779E+02  0.00000000000E+00 0. -1.
</event>
<event>
 7    1  0.5022032E-011  0.4778727E+02  0.7816164E-02  0.1312668E+00
        -11   -1    0    0    0    0  0.00000000000E+00  0.00000000000E+00  0.45593999997E+02  0.45594000000E+02  0.51100000000E-03 0. -1.
         11   -1    0    0    0    0 -0.00000000000E+00 -0.00000000000E+00 -0.45593999997E+02  0.45594000000E+02  0.51100000000E-03 0.  1.
    9900012    2    1    2    0    0  0.21096456543E+02 -0.18386290506E+02  0.33173895062E+02  0.47787268775E+02  0.19999989654E+02 0.  0.
        -12    1    1    2    0    0 -0.21096456543E+02  0.18386290506E+02 -0.33173895062E+02  0.43400731225E+02  0.00000000000E+00 0.  1.
         11    1    3    3    0    0  0.39870439006E+00  0.10599011920E+01  0.22582619853E+01  0.25262824828E+01  0.51100000000E-03 0. -1.
        -11    1    3    3    0    0  0.19501697017E+01  0.23068809271E+01 -0.60476593736E-01  0.30213439323E+01  0.51100000000E-03 0.  1.
         12    1    3    3    0    0  0.18747582451E+02 -0.21753072625E+02  0.30976109671E+02  0.42239642360E+02  0.00000000000E+00 0. -1.
</event>
<event>
 7    1  0.5022032E-011  0.4778727E+02  0.7816164E-02  0.1312668E+00
        -11   -1    0    0    0    0  0.00000000000E+00  0.00000000000E+00  0.45593999997E+02  0.45594000000E+02  0.51100000000E-03 0.  1.
         11   -1    0    0    0    0 -0.00000000000E+00 -0.00000000000E+00 -0.45593999997E+02  0.45594000000E+02  0.51100000000E-03 0. -1.
    9900012    2    1    2    0    0 -0.11024231133E+02 -0.39959058853E+02 -0.12859354616E+02  0.47787273536E+02  0.20000011359E+02 0.  0.
        -12    1    1    2    0    0  0.11024231133E+02  0.39959058853E+02  0.12859354616E+02  0.43400726464E+02  0.00000000000E+00 0.  1.
         11    1    3    3    0    0 -0.41788379503E+01 -0.80489863823E+01 -0.17985310490E+00  0.90708993930E+01  0.51100000000E-03 0. -1.
        -11    1    3    3    0    0 -0.66597997522E+00 -0.24208300049E+02 -0.15113458605E+02  0.28546487558E+02  0.51100000000E-03 0.  1.
        -12    1    3    3    0    0 -0.61794132073E+01 -0.77017724215E+01  0.24339570940E+01  0.10169886585E+02  0.00000000000E+00 0.  1.
</event>
<event>
 7    1  0.5022032E-011  0.4778727E+02  0.7816164E-02  0.1312668E+00
        -11   -1    0    0    0    0  0.00000000000E+00  0.00000000000E+00  0.45593999997E+02  0.45594000000E+02  0.51100000000E-03 0. -1.
         11   -1    0    0    0    0 -0.00000000000E+00 -0.00000000000E+00 -0.45593999997E+02  0.45594000000E+02  0.51100000000E-03 0.  1.
    9900012    2    1    2    0    0  0.30839883003E+02  0.48637854253E+01 -0.30147450934E+02  0.47787267401E+02  0.19999983388E+02 0.  0.
         12    1    1    2    0    0 -0.30839883003E+02 -0.48637854253E+01  0.30147450934E+02  0.43400732599E+02  0.00000000000E+00 0. -1.
         11    1    3    3    0    0  0.21154086688E+01 -0.19822720574E+00 -0.13530462453E+02  0.13696264538E+02  0.51100000000E-03 0. -1.
        -11    1    3    3    0    0  0.10438603743E+02  0.27872810831E+01 -0.93315054587E+01  0.14276217228E+02  0.51100000000E-03 0.  1.
         12    1    3    3    0    0  0.18285870591E+02  0.22747315480E+01 -0.72854830228E+01  0.19814785635E+02  0.00000000000E+00 0. -1.
</event>
<event>
 7    1  0.5022032E-011  0.4778727E+02  0.7816164E-02  0.1312668E+00
        -11   -1    0    0    0    0  0.00000000000E+00  0.00000000000E+00  0.45593999997E+02  0.45594000000E+02  0.51100000000E-03 0. -1.
         11   -1    0    0    0    0 -0.00000000000E+00 -0.00000000000E+00 -0.45593999997E+02  0.45594000000E+02  0.51100000000E-03 0.  1.
    9900012    2    1    2    0    0  0.31243339366E+02 -0.85363561734E+01 -0.28889581707E+02  0.47787267718E+02  0.19999984833E+02 0.  0.
         12    1    1    2    0    0 -0.31243339366E+02  0.85363561734E+01  0.28889581707E+02  0.43400732282E+02  0.00000000000E+00 0. -1.
         11    1    3    3    0    0  0.97042564201E+01 -0.67140894166E+01 -0.10946433072E+02  0.16095837556E+02  0.51100000000E-03 0. -1.
        -11    1    3    3    0    0  0.55527161191E+01 -0.50622838862E+01 -0.97745986564E-01  0.75145810917E+01  0.51100000000E-03 0.  1.
        -12    1    3    3    0    0  0.15986366826E+02  0.32400171295E+01 -0.17845402648E+02  0.24176849070E+02  0.00000000000E+00 0.  1.
</event>
<event>
 7    1  0.5022032E-011  0.4778728E+02  0.7816164E-02  0.1312668E+00
        -11   -1    0    0    0    0  0.00000000000E+00  0.00000000000E+00  0.45593999997E+02  0.45594000000E+02  0.51100000000E-03 0. -1.
         11   -1    0    0    0    0 -0.00000000000E+00 -0.00000000000E+00 -0.45593999997E+02  0.45594000000E+02  0.51100000000E-03 0.  1.
    9900012    2    1    2    0    0  0.10221416964E+02 -0.26223595919E+02  0.33037377667E+02  0.47787277992E+02  0.20000031677E+02 0.  0.
        -12    1    1    2    0    0 -0.10221416964E+02  0.26223595919E+02 -0.33037377667E+02  0.43400722008E+02  0.00000000000E+00 0.  1.
         11    1    3    3    0    0  0.77629937586E+01 -0.21302823482E+02  0.27474966584E+02  0.35622298486E+02  0.51100000000E-03 0. -1.
        -11    1    3    3    0    0 -0.16558211755E+01 -0.41879240757E+00  0.58153543423E+01  0.60609798905E+01  0.51100000000E-03 0.  1.
         12    1    3    3    0    0  0.41142443811E+01 -0.45019800295E+01 -0.25294325850E+00  0.61039996155E+01  0.00000000000E+00 0. -1.
</event>
<event>
 7    1  0.5022032E-011  0.4778727E+02  0.7816164E-02  0.1312668E+00
        -11   -1    0    0    0    0  0.00000000000E+00  0.00000000000E+00  0.45593999997E+02  0.45594000000E+02  0.51100000000E-03 0. -1.
         11   -1    0    0    0    0 -0.00000000000E+00 -0.00000000000E+00 -0.45593999997E+02  0.45594000000E+02  0.51100000000E-03 0.  1.
    9900012    2    1    2    0    0 -0.31258159902E+02  0.79295135268E+01 -0.29046063167E+02  0.47787268085E+02  0.19999986508E+02 0.  0.
         12    1    1    2    0    0  0.31258159902E+02 -0.79295135268E+01  0.29046063167E+02  0.43400731915E+02  0.00000000000E+00 0. -1.
         11    1    3    3    0    0 -0.53946426289E+01  0.42101877284E+01 -0.84847799928E+01  0.10900428505E+02  0.51100000000E-03 0. -1.
        -11    1    3    3    0    0 -0.13553026083E+02 -0.36443865875E+01 -0.17115840983E+02  0.22134093214E+02  0.51100000000E-03 0.  1.
         12    1    3    3    0    0 -0.12310491191E+02  0.73637123859E+01 -0.34454421909E+01  0.14752746366E+02  0.00000000000E+00 0. -1.
</event>
<event>
 7    1  0.5022032E-011  0.4778725E+02  0.7816164E-02  0.1312668E+00
        -11   -1    0    0    0    0  0.00000000000E+00  0.00000000000E+00  0.45593999997E+02  0.45594000000E+02  0.51100000000E-03 0.  1.
         11   -1    0    0    0    0 -0.00000000000E+00 -0.00000000000E+00 -0.45593999997E+02  0.45594000000E+02  0.51100000000E-03 0. -1.
    9900012    2    1    2    0    0 -0.12824057435E+02 -0.40048024446E+02  0.10738903624E+02  0.47787253898E+02  0.19999921823E+02 0.  0.
         12    1    1    2    0    0  0.12824057435E+02  0.40048024446E+02 -0.10738903624E+02  0.43400746102E+02  0.00000000000E+00 0. -1.
         11    1    3    3    0    0  0.22544508110E+01 -0.12313857395E+01  0.64419375087E+00  0.26483665057E+01  0.51100000000E-03 0. -1.
        -11    1    3    3    0    0 -0.12811457588E+02 -0.26935412126E+02  0.72001855093E+00  0.29835688343E+02  0.51100000000E-03 0.  1.
         12    1    3    3    0    0 -0.22670506585E+01 -0.11881226580E+02  0.93746913225E+01  0.15303199049E+02  0.00000000000E+00 0. -1.
</event>
<event>
 7    1  0.7015444E-011  0.4778727E+02  0.7816164E-02  0.1312668E+00
        -11   -1    0    0    0    0  0.00000000000E+00  0.00000000000E+00  0.45593999997E+02  0.45594000000E+02  0.51100000000E-03 0. -1.
         11   -1    0    0    0    0 -0.00000000000E+00 -0.00000000000E+00 -0.45593999997E+02  0.45594000000E+02  0.51100000000E-03 0.  1.
    9900012    2    1    2    0    0  0.21620759351E+02  0.12695635734E+02 -0.35425797602E+02  0.47787268009E+02  0.19999986162E+02 0.  0.
         12    1    1    2    0    0 -0.21620759351E+02 -0.12695635734E+02  0.35425797602E+02  0.43400731991E+02  0.00000000000E+00 0. -1.
         11    1    3    3    0    0 -0.11457435746E+01 -0.62194947406E+00 -0.72554696828E+01  0.73716612826E+01  0.51100000000E-03 0. -1.
        -11    1    3    3    0    0  0.40701620338E+01 -0.92468137989E+00 -0.64874527299E+00  0.42239940017E+01  0.51100000000E-03 0.  1.
        -12    1    3    3    0    0  0.18696340892E+02  0.14242266588E+02 -0.27521582646E+02  0.36191612725E+02  0.00000000000E+00 0.  1.
</event>
<event>
 7    1  0.5022032E-011  0.4778728E+02  0.7816164E-02  0.1312668E+00
        -11   -1    0    0    0    0  0.00000000000E+00  0.00000000000E+00  0.45593999997E+02  0.45594000000E+02  0.51100000000E-03 0. -1.
         11   -1    0    0    0    0 -0.00000000000E+00 -0.00000000000E+00 -0.45593999997E+02  0.45594000000E+02  0.51100000000E-03 0.  1.
    9900012    2    1    2    0    0 -0.24452962529E+02 -0.31956902165E+01  0.35713625512E+02  0.47787275817E+02  0.20000021760E+02 0.  0.
        -12    1    1    2    0    0  0.24452962529E+02  0.31956902165E+01 -0.35713625512E+02  0.43400724183E+02  0.00000000000E+00 0.  1.
         11    1    3    3    0    0 -0.46047735309E+01 -0.40946439864E+01 -0.46685725665E+00  0.61796443753E+01  0.51100000000E-03 0.  1.
        -11    1    3    3    0    0 -0.25681546815E+01 -0.51962991505E+00  0.20539722044E+01  0.33292995952E+01  0.51100000000E-03 0. -1.
        -12    1    3    3    0    0 -0.17280034317E+02  0.14185836849E+01  0.34126510564E+02  0.38278331846E+02  0.00000000000E+00 0.  1.
</event>
<event>
 7    1  0.5022032E-011  0.4778727E+02  0.7816164E-02  0.1312668E+00
        -11   -1    0    0    0    0  0.00000000000E+00  0.00000000000E+00  0.45593999997E+02  0.45594000000E+02  0.51100000000E-03 0.  1.
         11   -1    0    0    0    0 -0.00000000000E+00 -0.00000000000E+00 -0.45593999997E+02  0.45594000000E+02  0.51100000000E-03 0. -1.
    9900012    2    1    2    0    0 -0.22841625019E+02 -0.34973830377E+02 -0.11777703579E+02  0.47787274818E+02  0.20000017205E+02 0.  0.
        -12    1    1    2    0    0  0.22841625019E+02  0.34973830377E+02  0.11777703579E+02  0.43400725182E+02  0.00000000000E+00 0.  1.
         11    1    3    3    0    0 -0.51991639983E+01 -0.66391180660E+01 -0.88532964613E+01  0.12226612510E+02  0.51100000000E-03 0. -1.
        -11    1    3    3    0    0 -0.16835006065E+01  0.10224271869E+01 -0.62792082529E+00  0.20673210851E+01  0.51100000000E-03 0.  1.
        -12    1    3    3    0    0 -0.15958960414E+02 -0.29357139498E+02 -0.22964862920E+01  0.33493341223E+02  0.00000000000E+00 0.  1.
</event>
<event>
 7    1  0.5022032E-011  0.4778727E+02  0.7816164E-02  0.1312668E+00
        -11   -1    0    0    0    0  0.00000000000E+00  0.00000000000E+00  0.45593999997E+02  0.45594000000E+02  0.51100000000E-03 0. -1.
         11   -1    0    0    0    0 -0.00000000000E+00 -0.00000000000E+00 -0.45593999997E+02  0.45594000000E+02  0.51100000000E-03 0.  1.
    9900012    2    1    2    0    0  0.19182224470E+02 -0.17742819769E+01 -0.38891098636E+02  0.47787269992E+02  0.19999995200E+02 0.  0.
         12    1    1    2    0    0 -0.19182224470E+02  0.17742819769E+01  0.38891098636E+02  0.43400730008E+02  0.00000000000E+00 0. -1.
         11    1    3    3    0    0  0.20486419393E+02 -0.49472856086E+01 -0.25760331919E+02  0.33283084522E+02  0.51100000000E-03 0. -1.
        -11    1    3    3    0    0  0.16304433177E+01  0.55473396401E+00 -0.17172707755E+01  0.24320967005E+01  0.51100000000E-03 0.  1.
        -12    1    3    3    0    0 -0.29346382404E+01  0.26182696676E+01 -0.11413495942E+02  0.12072088770E+02  0.00000000000E+00 0.  1.
</event>
<event>
 7    1  0.5022032E-011  0.4778728E+02  0.7816164E-02  0.1312668E+00
        -11   -1    0    0    0    0  0.00000000000E+00  0.00000000000E+00  0.45593999997E+02  0.45594000000E+02  0.51100000000E-03 0. -1.
         11   -1    0    0    0    0 -0.00000000000E+00 -0.00000000000E+00 -0.45593999997E+02  0.45594000000E+02  0.51100000000E-03 0.  1.
    9900012    2    1    2    0    0  0.10144575528E+02 -0.21242002401E+01 -0.42144965253E+02  0.47787277247E+02  0.20000028280E+02 0.  0.
         12    1    1    2    0    0 -0.10144575528E+02  0.21242002401E+01  0.42144965253E+02  0.43400722753E+02  0.00000000000E+00 0. -1.
         11    1    3    3    0    0  0.16321111849E+01  0.55281606976E+01 -0.11326246318E+02  0.12708587787E+02  0.51100000000E-03 0. -1.
        -11    1    3    3    0    0  0.45759831504E+01 -0.17273413158E+01 -0.26072175069E+02  0.26526998378E+02  0.51100000000E-03 0.  1.
         12    1    3    3    0    0  0.39364811932E+01 -0.59250196219E+01 -0.47465438653E+01  0.85516910824E+01  0.00000000000E+00 0. -1.
</event>
<event>
 7    1  0.5022032E-011  0.4778727E+02  0.7816164E-02  0.1312668E+00
        -11   -1    0    0    0    0  0.00000000000E+00  0.00000000000E+00  0.45593999997E+02  0.45594000000E+02  0.51100000000E-03 0. -1.
         11   -1    0    0    0    0 -0.00000000000E+00 -0.00000000000E+00 -0.45593999997E+02  0.45594000000E+02  0.51100000000E-03 0.  1.
    9900012    2    1    2    0    0  0.51424737279E+01  0.16927797364E+02 -0.39631148875E+02  0.47787270504E+02  0.19999997536E+02 0.  0.
         12    1    1    2    0    0 -0.51424737279E+01 -0.16927797364E+02  0.39631148875E+02  0.43400729496E+02  0.00000000000E+00 0. -1.
         11    1    3    3    0    0  0.77079608882E+01 -0.10492367951E+01 -0.16048480749E+02  0.17834441217E+02  0.51100000000E-03 0.  1.
        -11    1    3    3    0    0 -0.44379551081E+00  0.80251314927E+01 -0.79859414957E+01  0.11330267065E+02  0.51100000000E-03 0. -1.
        -12    1    3    3    0    0 -0.21216916495E+01  0.99519026666E+01 -0.15596726630E+02  0.18622562222E+02  0.00000000000E+00 0.  1.
</event>
<event>
 7    1  0.5022032E-011  0.4778727E+02  0.7816164E-02  0.1312668E+00
        -11   -1    0    0    0    0  0.00000000000E+00  0.00000000000E+00  0.45593999997E+02  0.45594000000E+02  0.51100000000E-03 0.  1.
         11   -1    0    0    0    0 -0.00000000000E+00 -0.00000000000E+00 -0.45593999997E+02  0.45594000000E+02  0.51100000000E-03 0. -1.
    9900012    2    1    2    0    0 -0.39122374703E+02  0.11715703138E+02  0.14690313335E+02  0.47787271800E+02  0.20000003447E+02 0.  0.
         12    1    1    2    0    0  0.39122374703E+02 -0.11715703138E+02 -0.14690313335E+02  0.43400728200E+02  0.00000000000E+00 0. -1.
         11    1    3    3    0    0 -0.89107640932E+01  0.10495169901E+01  0.55811153148E+01  0.10566553414E+02  0.51100000000E-03 0. -1.
        -11    1    3    3    0    0 -0.30452164121E+02  0.73066320532E+01  0.46921802815E+01  0.31666034290E+02  0.51100000000E-03 0.  1.
         12    1    3    3    0    0  0.24055351155E+00  0.33595540946E+01  0.44170177383E+01  0.55546840960E+01  0.00000000000E+00 0. -1.
</event>
<event>
 7    1  0.5022032E-011  0.4778727E+02  0.7816164E-02  0.1312668E+00
        -11   -1    0    0    0    0  0.00000000000E+00  0.00000000000E+00  0.45593999997E+02  0.45594000000E+02  0.51100000000E-03 0. -1.
         11   -1    0    0    0    0 -0.00000000000E+00 -0.00000000000E+00 -0.45593999997E+02  0.45594000000E+02  0.51100000000E-03 0.  1.
    9900012    2    1    2    0    0  0.99491976256E+01  0.22243288786E+02  0.35914797970E+02  0.47787272556E+02  0.20000006894E+02 0.  0.
        -12    1    1    2    0    0 -0.99491976256E+01 -0.22243288786E+02 -0.35914797970E+02  0.43400727444E+02  0.00000000000E+00 0.  1.
         11    1    3    3    0    0 -0.81987882015E+00  0.40377797299E+01  0.80341627481E+01  0.90290441217E+01  0.51100000000E-03 0. -1.
        -11    1    3    3    0    0  0.62901115923E+01  0.17311741721E+02  0.11411651753E+02  0.21667664878E+02  0.51100000000E-03 0.  1.
        -12    1    3    3    0    0  0.44789648534E+01  0.89376733507E+00  0.16468983469E+02  0.17090563557E+02  0.00000000000E+00 0.  1.
</event>
<event>
 7    1  0.5022032E-011  0.4778727E+02  0.7816164E-02  0.1312668E+00
        -11   -1    0    0    0    0  0.00000000000E+00  0.00000000000E+00  0.45593999997E+02  0.45594000000E+02  0.51100000000E-03 0. -1.
         11   -1    0    0    0    0 -0.00000000000E+00 -0.00000000000E+00 -0.45593999997E+02  0.45594000000E+02  0.51100000000E-03 0.  1.
    9900012    2    1    2    0    0  0.16842851147E+02 -0.24433770455E+02  0.31669111026E+02  0.47787269976E+02  0.19999995129E+02 0.  0.
        -12    1    1    2    0    0 -0.16842851147E+02  0.24433770455E+02 -0.31669111026E+02  0.43400730024E+02  0.00000000000E+00 0.  1.
         11    1    3    3    0    0  0.47267176563E+01 -0.18417605102E+01  0.12895861345E+02  0.13857748073E+02  0.51100000000E-03 0. -1.
        -11    1    3    3    0    0 -0.16091789810E+00  0.12767572253E+01  0.16466783003E+01  0.20898691988E+01  0.51100000000E-03 0.  1.
        -12    1    3    3    0    0  0.12277051389E+02 -0.23868767170E+02  0.17126571381E+02  0.31839652704E+02  0.00000000000E+00 0.  1.
</event>
<event>
 7    1  0.5022032E-011  0.4778725E+02  0.7816164E-02  0.1312668E+00
        -11   -1    0    0    0    0  0.00000000000E+00  0.00000000000E+00  0.45593999997E+02  0.45594000000E+02  0.51100000000E-03 0. -1.
         11   -1    0    0    0    0 -0.00000000000E+00 -0.00000000000E+00 -0.45593999997E+02  0.45594000000E+02  0.51100000000E-03 0.  1.
    9900012    2    1    2    0    0 -0.18305737928E+01 -0.79349642835E+01  0.42629920421E+02  0.47787253766E+02  0.19999921220E+02 0.  0.
        -12    1    1    2    0    0  0.18305737928E+01  0.79349642835E+01 -0.42629920421E+02  0.43400746234E+02  0.00000000000E+00 0.  1.
         11    1    3    3    0    0  0.39270461050E+01 -0.51443588521E+01  0.15130810490E+02  0.16456838866E+02  0.51100000000E-03 0. -1.
        -11    1    3    3    0    0  0.42783916746E+01  0.73184925455E+00  0.70084572947E+01  0.82437074527E+01  0.51100000000E-03 0.  1.
         12    1    3    3    0    0 -0.10036011573E+02 -0.35224546859E+01  0.20490652636E+02  0.23086707447E+02  0.00000000000E+00 0. -1.
</event>
<event>
 7    1  0.6686896E-011  0.4778727E+02  0.7816164E-02  0.1312668E+00
        -11   -1    0    0    0    0  0.00000000000E+00  0.00000000000E+00  0.45593999997E+02  0.45594000000E+02  0.51100000000E-03 0. -1.
         11   -1    0    0    0    0 -0.00000000000E+00 -0.00000000000E+00 -0.45593999997E+02  0.45594000000E+02  0.51100000000E-03 0.  1.
    9900012    2    1    2    0    0 -0.36273669376E+02 -0.41262454949E+01 -0.23469517959E+02  0.47787271145E+02  0.20000000460E+02 0.  0.
         12    1    1    2    0    0  0.36273669376E+02  0.41262454949E+01  0.23469517959E+02  0.43400728855E+02  0.00000000000E+00 0. -1.
         11    1    3    3    0    0 -0.27446113091E+01 -0.10127003073E+01  0.21809634476E+01  0.36489799906E+01  0.51100000000E-03 0. -1.
        -11    1    3    3    0    0 -0.10866167663E+02  0.44328857530E+01 -0.58529951880E+01  0.13114176631E+02  0.51100000000E-03 0.  1.
        -12    1    3    3    0    0 -0.22662890404E+02 -0.75464309406E+01 -0.19797486218E+02  0.31024114524E+02  0.00000000000E+00 0.  1.
</event>
<event>
 7    1  0.5022032E-011  0.4778727E+02  0.7816164E-02  0.1312668E+00
        -11   -1    0    0    0    0  0.00000000000E+00  0.00000000000E+00  0.45593999997E+02  0.45594000000E+02  0.51100000000E-03 0. -1.
         11   -1    0    0    0    0 -0.00000000000E+00 -0.00000000000E+00 -0.45593999997E+02  0.45594000000E+02  0.51100000000E-03 0.  1.
    9900012    2    1    2    0    0  0.25409382961E+02  0.15957152886E+01  0.35148835751E+02  0.47787266085E+02  0.19999977386E+02 0.  0.
        -12    1    1    2    0    0 -0.25409382961E+02 -0.15957152886E+01 -0.35148835751E+02  0.43400733915E+02  0.00000000000E+00 0.  1.
         11    1    3    3    0    0  0.14307823218E+02 -0.46049157814E+01  0.11044356369E+02  0.18651993525E+02  0.51100000000E-03 0. -1.
        -11    1    3    3    0    0  0.71563087190E+01 -0.12223128930E+01  0.70408497668E+01  0.10113375746E+02  0.51100000000E-03 0.  1.
        -12    1    3    3    0    0  0.39452510241E+01  0.74229439629E+01  0.17063629615E+02  0.19021896813E+02  0.00000000000E+00 0.  1.
</event>
<event>
 7    1  0.5022032E-011  0.4778725E+02  0.7816164E-02  0.1312668E+00
        -11   -1    0    0    0    0  0.00000000000E+00  0.00000000000E+00  0.45593999997E+02  0.45594000000E+02  0.51100000000E-03 0. -1.
         11   -1    0    0    0    0 -0.00000000000E+00 -0.00000000000E+00 -0.45593999997E+02  0.45594000000E+02  0.51100000000E-03 0.  1.
    9900012    2    1    2    0    0 -0.71996438741E+01 -0.29318688686E+01  0.42698877152E+02  0.47787253036E+02  0.19999917891E+02 0.  0.
        -12    1    1    2    0    0  0.71996438741E+01  0.29318688686E+01 -0.42698877152E+02  0.43400746964E+02  0.00000000000E+00 0.  1.
         11    1    3    3    0    0 -0.68882888059E+00  0.28035249003E+01  0.25470969713E+01  0.38499273156E+01  0.51100000000E-03 0. -1.
        -11    1    3    3    0    0  0.28713119959E+01  0.80743419937E+00  0.99524015577E+00  0.31443418696E+01  0.51100000000E-03 0.  1.
         12    1    3    3    0    0 -0.93821269894E+01 -0.65428279682E+01  0.39156540025E+02  0.40792983851E+02  0.00000000000E+00 0. -1.
</event>
<event>
 7    1  0.5022032E-011  0.4778728E+02  0.7816164E-02  0.1312668E+00
        -11   -1    0    0    0    0  0.00000000000E+00  0.00000000000E+00  0.45593999997E+02  0.45594000000E+02  0.51100000000E-03 0. -1.
         11   -1    0    0    0    0 -0.00000000000E+00 -0.00000000000E+00 -0.45593999997E+02  0.45594000000E+02  0.51100000000E-03 0.  1.
    9900012    2    1    2    0    0  0.38989966237E+02 -0.12092694872E+02  0.14736761659E+02  0.47787275574E+02  0.20000020653E+02 0.  0.
        -12    1    1    2    0    0 -0.38989966237E+02  0.12092694872E+02 -0.14736761659E+02  0.43400724426E+02  0.00000000000E+00 0.  1.
         11    1    3    3    0    0  0.17776820548E+02 -0.90751340656E+01  0.98488219762E+01  0.22256969733E+02  0.51100000000E-03 0. -1.
        -11    1    3    3    0    0  0.53166001456E+01 -0.21472917745E+01  0.74542830331E+01  0.94044369779E+01  0.51100000000E-03 0.  1.
        -12    1    3    3    0    0  0.15896545544E+02 -0.87026903225E+00 -0.25663433501E+01  0.16125868864E+02  0.00000000000E+00 0.  1.
</event>
<event>
 7    1  0.5022032E-011  0.4778727E+02  0.7816164E-02  0.1312668E+00
        -11   -1    0    0    0    0  0.00000000000E+00  0.00000000000E+00  0.45593999997E+02  0.45594000000E+02  0.51100000000E-03 0. -1.
         11   -1    0    0    0    0 -0.00000000000E+00 -0.00000000000E+00 -0.45593999997E+02  0.45594000000E+02  0.51100000000E-03 0.  1.
    9900012    2    1    2    0    0  0.52022474356E+01 -0.42178836073E+02  0.88037463506E+01  0.47787267970E+02  0.19999985985E+02 0.  0.
        -12    1    1    2    0    0 -0.52022474356E+01  0.42178836073E+02 -0.88037463506E+01  0.43400732030E+02  0.00000000000E+00 0.  1.
         11    1    3    3    0    0  0.33087079760E+01 -0.21051281377E+02  0.21299444842E+01  0.21415897363E+02  0.51100000000E-03 0. -1.
        -11    1    3    3    0    0 -0.57963686168E+01 -0.11114553833E+02  0.11408193771E+01  0.12587003820E+02  0.51100000000E-03 0.  1.
         12    1    3    3    0    0  0.76899080764E+01 -0.10013000863E+02  0.55329824893E+01  0.13784366788E+02  0.00000000000E+00 0. -1.
</event>
<event>
 7    1  0.5022032E-011  0.4778727E+02  0.7816164E-02  0.1312668E+00
        -11   -1    0    0    0    0  0.00000000000E+00  0.00000000000E+00  0.45593999997E+02  0.45594000000E+02  0.51100000000E-03 0. -1.
         11   -1    0    0    0    0 -0.00000000000E+00 -0.00000000000E+00 -0.45593999997E+02  0.45594000000E+02  0.51100000000E-03 0.  1.
    9900012    2    1    2    0    0  0.21160671542E+02  0.18603856757E+02  0.33011294839E+02  0.47787273125E+02  0.20000009486E+02 0.  0.
        -12    1    1    2    0    0 -0.21160671542E+02 -0.18603856757E+02 -0.33011294839E+02  0.43400726875E+02  0.00000000000E+00 0.  1.
         11    1    3    3    0    0 -0.23557096413E+01  0.23587750676E+01  0.27490001634E+01  0.43209015139E+01  0.51100000000E-03 0. -1.
        -11    1    3    3    0    0  0.30487911123E+01 -0.20660894819E+01  0.44563508662E+01  0.57812555987E+01  0.51100000000E-03 0.  1.
         12    1    3    3    0    0  0.20467590071E+02  0.18311171171E+02  0.25805943809E+02  0.37685116012E+02  0.00000000000E+00 0. -1.
</event>
<event>
 7    1  0.5022032E-011  0.4778729E+02  0.7816164E-02  0.1312668E+00
        -11   -1    0    0    0    0  0.00000000000E+00  0.00000000000E+00  0.45593999997E+02  0.45594000000E+02  0.51100000000E-03 0. -1.
         11   -1    0    0    0    0 -0.00000000000E+00 -0.00000000000E+00 -0.45593999997E+02  0.45594000000E+02  0.51100000000E-03 0.  1.
    9900012    2    1    2    0    0  0.16339845670E+02 -0.29360370054E+02 -0.27469979431E+02  0.47787289681E+02  0.20000084971E+02 0.  0.
         12    1    1    2    0    0 -0.16339845670E+02  0.29360370054E+02  0.27469979431E+02  0.43400710319E+02  0.00000000000E+00 0. -1.
         11    1    3    3    0    0  0.17343574588E+01 -0.41346988310E+01 -0.11134762912E+02  0.12003610940E+02  0.51100000000E-03 0. -1.
        -11    1    3    3    0    0  0.56220696361E+01 -0.64909710302E+00 -0.32717183295E+01  0.65370585993E+01  0.51100000000E-03 0.  1.
        -12    1    3    3    0    0  0.89834185747E+01 -0.24576574120E+02 -0.13063498190E+02  0.29246620142E+02  0.00000000000E+00 0.  1.
</event>
<event>
 7    1  0.5022032E-011  0.4778727E+02  0.7816164E-02  0.1312668E+00
        -11   -1    0    0    0    0  0.00000000000E+00  0.00000000000E+00  0.45593999997E+02  0.45594000000E+02  0.51100000000E-03 0. -1.
         11   -1    0    0    0    0 -0.00000000000E+00 -0.00000000000E+00 -0.45593999997E+02  0.45594000000E+02  0.51100000000E-03 0.  1.
    9900012    2    1    2    0    0  0.20434805177E+02 -0.12520340008E+02  0.36184016321E+02  0.47787271738E+02  0.20000003161E+02 0.  0.
        -12    1    1    2    0    0 -0.20434805177E+02  0.12520340008E+02 -0.36184016321E+02  0.43400728262E+02  0.00000000000E+00 0.  1.
         11    1    3    3    0    0  0.17796388897E+02 -0.78794366632E+01  0.24916976732E+02  0.31617284982E+02  0.51100000000E-03 0. -1.
        -11    1    3    3    0    0  0.55823389802E+01 -0.14295590444E+01  0.23072950277E+01  0.62072343405E+01  0.51100000000E-03 0.  1.
        -12    1    3    3    0    0 -0.29439227002E+01 -0.32113443005E+01  0.89597445621E+01  0.99627524158E+01  0.00000000000E+00 0.  1.
</event>
<event>
 7    1  0.5022032E-011  0.4778727E+02  0.7816164E-02  0.1312668E+00
        -11   -1    0    0    0    0  0.00000000000E+00  0.00000000000E+00  0.45593999997E+02  0.45594000000E+02  0.51100000000E-03 0. -1.
         11   -1    0    0    0    0 -0.00000000000E+00 -0.00000000000E+00 -0.45593999997E+02  0.45594000000E+02  0.51100000000E-03 0.  1.
    9900012    2    1    2    0    0 -0.40027932384E+02  0.93720006142E+01 -0.13912353933E+02  0.47787270071E+02  0.19999995561E+02 0.  0.
         12    1    1    2    0    0  0.40027932384E+02 -0.93720006142E+01  0.13912353933E+02  0.43400729929E+02  0.00000000000E+00 0. -1.
         11    1    3    3    0    0 -0.21897509186E+02  0.72681356172E+01 -0.11515337462E+02  0.25786230841E+02  0.51100000000E-03 0. -1.
        -11    1    3    3    0    0 -0.83079194517E+01 -0.86335213012E+00 -0.68628450207E+01  0.10810436835E+02  0.51100000000E-03 0.  1.
         12    1    3    3    0    0 -0.98225037464E+01  0.29672171272E+01  0.44658285493E+01  0.11190602395E+02  0.00000000000E+00 0. -1.
</event>
<event>
 7    1  0.6315215E-011  0.4778727E+02  0.7816164E-02  0.1312668E+00
        -11   -1    0    0    0    0  0.00000000000E+00  0.00000000000E+00  0.45593999997E+02  0.45594000000E+02  0.51100000000E-03 0. -1.
         11   -1    0    0    0    0 -0.00000000000E+00 -0.00000000000E+00 -0.45593999997E+02  0.45594000000E+02  0.51100000000E-03 0.  1.
    9900012    2    1    2    0    0  0.24340479839E+01 -0.24642812238E+02 -0.35643099525E+02  0.47787270417E+02  0.19999997140E+02 0.  0.
         12    1    1    2    0    0 -0.24340479839E+01  0.24642812238E+02  0.35643099525E+02  0.43400729583E+02  0.00000000000E+00 0. -1.
         11    1    3    3    0    0  0.31338757288E+01 -0.11820967549E+01  0.12156391017E+00  0.33516127263E+01  0.51100000000E-03 0. -1.
        -11    1    3    3    0    0 -0.33875879239E+01 -0.30489483551E+01 -0.22022082453E+01  0.50617743363E+01  0.51100000000E-03 0.  1.
        -12    1    3    3    0    0  0.26877601791E+01 -0.20411767128E+02 -0.33562455189E+02  0.39373883355E+02  0.00000000000E+00 0.  1.
</event>
<event>
 7    1  0.5022032E-011  0.4778727E+02  0.7816164E-02  0.1312668E+00
        -11   -1    0    0    0    0  0.00000000000E+00  0.00000000000E+00  0.45593999997E+02  0.45594000000E+02  0.51100000000E-03 0. -1.
         11   -1    0    0    0    0 -0.00000000000E+00 -0.00000000000E+00 -0.45593999997E+02  0.45594000000E+02  0.51100000000E-03 0.  1.
    9900012    2    1    2    0    0 -0.26435717621E+02 -0.19057783645E+02 -0.28663165872E+02  0.47787270036E+02  0.19999995403E+02 0.  0.
         12    1    1    2    0    0  0.26435717621E+02  0.19057783645E+02  0.28663165872E+02  0.43400729964E+02  0.00000000000E+00 0. -1.
         11    1    3    3    0    0 -0.10432512443E+02 -0.15761605149E+00 -0.99088484578E+01  0.14389143016E+02  0.51100000000E-03 0. -1.
        -11    1    3    3    0    0 -0.11617382806E+02 -0.42969748372E+01 -0.85575422188E+01  0.15055201928E+02  0.51100000000E-03 0.  1.
         12    1    3    3    0    0 -0.43858223712E+01 -0.14603192757E+02 -0.10196775195E+02  0.18342925092E+02  0.00000000000E+00 0. -1.
</event>
<event>
 7    1  0.5022032E-011  0.4778726E+02  0.7816164E-02  0.1312668E+00
        -11   -1    0    0    0    0  0.00000000000E+00  0.00000000000E+00  0.45593999997E+02  0.45594000000E+02  0.51100000000E-03 0. -1.
         11   -1    0    0    0    0 -0.00000000000E+00 -0.00000000000E+00 -0.45593999997E+02  0.45594000000E+02  0.51100000000E-03 0.  1.
    9900012    2    1    2    0    0 -0.13090163825E+02 -0.23836875524E+02  0.33824175720E+02  0.47787263982E+02  0.19999967801E+02 0.  0.
        -12    1    1    2    0    0  0.13090163825E+02  0.23836875524E+02 -0.33824175720E+02  0.43400736018E+02  0.00000000000E+00 0.  1.
         11    1    3    3    0    0  0.19979015537E+01 -0.66130826104E+01  0.38486221561E+01  0.79079937400E+01  0.51100000000E-03 0. -1.
        -11    1    3    3    0    0  0.21480102357E+00 -0.54616287894E+01  0.18546865211E+01  0.57719486194E+01  0.51100000000E-03 0.  1.
         12    1    3    3    0    0 -0.15302866403E+02 -0.11762164124E+02  0.28120867043E+02  0.34107321623E+02  0.00000000000E+00 0. -1.
</event>
<event>
 7    1  0.5022032E-011  0.4778727E+02  0.7816164E-02  0.1312668E+00
        -11   -1    0    0    0    0  0.00000000000E+00  0.00000000000E+00  0.45593999997E+02  0.45594000000E+02  0.51100000000E-03 0. -1.
         11   -1    0    0    0    0 -0.00000000000E+00 -0.00000000000E+00 -0.45593999997E+02  0.45594000000E+02  0.51100000000E-03 0.  1.
    9900012    2    1    2    0    0  0.49387658955E+01  0.21964040173E+02  0.37105426340E+02  0.47787272665E+02  0.20000007390E+02 0.  0.
        -12    1    1    2    0    0 -0.49387658955E+01 -0.21964040173E+02 -0.37105426340E+02  0.43400727335E+02  0.00000000000E+00 0.  1.
         11    1    3    3    0    0  0.65852389882E+01  0.12878133035E+02  0.11935884999E+02  0.18753053991E+02  0.51100000000E-03 0. -1.
        -11    1    3    3    0    0 -0.84951662115E+00  0.18645388890E+00 -0.10328544376E+01  0.13502711182E+01  0.51100000000E-03 0.  1.
         12    1    3    3    0    0 -0.79695647160E+00  0.88994532484E+01  0.26202395779E+02  0.27683947557E+02  0.00000000000E+00 0. -1.
</event>
<event>
 7    1  0.5022032E-011  0.4778727E+02  0.7816164E-02  0.1312668E+00
        -11   -1    0    0    0    0  0.00000000000E+00  0.00000000000E+00  0.45593999997E+02  0.45594000000E+02  0.51100000000E-03 0. -1.
         11   -1    0    0    0    0 -0.00000000000E+00 -0.00000000000E+00 -0.45593999997E+02  0.45594000000E+02  0.51100000000E-03 0.  1.
    9900012    2    1    2    0    0 -0.27403510180E+02  0.19430836492E+02  0.27479325976E+02  0.47787272667E+02  0.20000007398E+02 0.  0.
        -12    1    1    2    0    0  0.27403510180E+02 -0.19430836492E+02 -0.27479325976E+02  0.43400727333E+02  0.00000000000E+00 0.  1.
         11    1    3    3    0    0 -0.79420950580E+01  0.17417689414E+02  0.14180120900E+02  0.23822858927E+02  0.51100000000E-03 0. -1.
        -11    1    3    3    0    0 -0.37414051702E+01  0.11346623183E+01  0.11436521832E+01  0.40735134468E+01  0.51100000000E-03 0.  1.
         12    1    3    3    0    0 -0.15720009952E+02  0.87848475904E+00  0.12155552893E+02  0.19890900294E+02  0.00000000000E+00 0. -1.
</event>
<event>
 7    1  0.5022032E-011  0.4778727E+02  0.7816164E-02  0.1312668E+00
        -11   -1    0    0    0    0  0.00000000000E+00  0.00000000000E+00  0.45593999997E+02  0.45594000000E+02  0.51100000000E-03 0. -1.
         11   -1    0    0    0    0 -0.00000000000E+00 -0.00000000000E+00 -0.45593999997E+02  0.45594000000E+02  0.51100000000E-03 0.  1.
    9900012    2    1    2    0    0 -0.70827070605E+01  0.27889180204E+02  0.32490800858E+02  0.47787271295E+02  0.20000001143E+02 0.  0.
        -12    1    1    2    0    0  0.70827070605E+01 -0.27889180204E+02 -0.32490800858E+02  0.43400728705E+02  0.00000000000E+00 0.  1.
         11    1    3    3    0    0 -0.43470472496E+01  0.21338503101E+02  0.22061856925E+02  0.30999259114E+02  0.51100000000E-03 0. -1.
        -11    1    3    3    0    0 -0.49819378994E+00  0.94511308104E+01  0.70145607115E+01  0.11780328216E+02  0.51100000000E-03 0.  1.
        -12    1    3    3    0    0 -0.22374660210E+01 -0.29004537079E+01  0.34143832212E+01  0.50076839645E+01  0.00000000000E+00 0.  1.
</event>
<event>
 7    1  0.5022032E-011  0.4778727E+02  0.7816164E-02  0.1312668E+00
        -11   -1    0    0    0    0  0.00000000000E+00  0.00000000000E+00  0.45593999997E+02  0.45594000000E+02  0.51100000000E-03 0.  1.
         11   -1    0    0    0    0 -0.00000000000E+00 -0.00000000000E+00 -0.45593999997E+02  0.45594000000E+02  0.51100000000E-03 0. -1.
    9900012    2    1    2    0    0  0.33307781786E+02  0.16129669273E+02 -0.22672643531E+02  0.47787270478E+02  0.19999997416E+02 0.  0.
         12    1    1    2    0    0 -0.33307781786E+02 -0.16129669273E+02  0.22672643531E+02  0.43400729522E+02  0.00000000000E+00 0. -1.
         11    1    3    3    0    0  0.21394603747E+02  0.22091609939E+01 -0.15959746948E+02  0.26782886041E+02  0.51100000000E-03 0. -1.
        -11    1    3    3    0    0  0.80286479586E+01  0.40622190636E+01 -0.12537579724E+01  0.90847521199E+01  0.51100000000E-03 0.  1.
        -12    1    3    3    0    0  0.38845300811E+01  0.98582892154E+01 -0.54591386110E+01  0.11919632317E+02  0.00000000000E+00 0.  1.
</event>
<event>
 7    1  0.5022032E-011  0.4778727E+02  0.7816164E-02  0.1312668E+00
        -11   -1    0    0    0    0  0.00000000000E+00  0.00000000000E+00  0.45593999997E+02  0.45594000000E+02  0.51100000000E-03 0.  1.
         11   -1    0    0    0    0 -0.00000000000E+00 -0.00000000000E+00 -0.45593999997E+02  0.45594000000E+02  0.51100000000E-03 0. -1.
    9900012    2    1    2    0    0 -0.42010664852E+02  0.67629140181E+01 -0.85434374196E+01  0.47787270856E+02  0.19999999140E+02 0.  0.
         12    1    1    2    0    0  0.42010664852E+02 -0.67629140181E+01  0.85434374196E+01  0.43400729144E+02  0.00000000000E+00 0. -1.
         11    1    3    3    0    0 -0.10826052033E+02  0.27220572009E+01 -0.53567267659E+01  0.12381741394E+02  0.51100000000E-03 0. -1.
        -11    1    3    3    0    0 -0.31880015469E+02  0.58349355485E+01 -0.49623380750E+01  0.32787294164E+02  0.51100000000E-03 0.  1.
         12    1    3    3    0    0  0.69540265038E+00 -0.17940787313E+01  0.17756274212E+01  0.26182352987E+01  0.00000000000E+00 0. -1.
</event>
<event>
 7    1  0.5022032E-011  0.4778727E+02  0.7816164E-02  0.1312668E+00
        -11   -1    0    0    0    0  0.00000000000E+00  0.00000000000E+00  0.45593999997E+02  0.45594000000E+02  0.51100000000E-03 0. -1.
         11   -1    0    0    0    0 -0.00000000000E+00 -0.00000000000E+00 -0.45593999997E+02  0.45594000000E+02  0.51100000000E-03 0.  1.
    9900012    2    1    2    0    0  0.14240537476E+02 -0.67959849568E+00 -0.40992297478E+02  0.47787271731E+02  0.20000003131E+02 0.  0.
         12    1    1    2    0    0 -0.14240537476E+02  0.67959849568E+00  0.40992297478E+02  0.43400728269E+02  0.00000000000E+00 0. -1.
         11    1    3    3    0    0 -0.19643845921E+01  0.32560869273E+01 -0.20046500202E+02  0.20403996655E+02  0.51100000000E-03 0. -1.
        -11    1    3    3    0    0  0.41432170141E+01 -0.26496212995E+01 -0.95398714694E+01  0.10732934742E+02  0.51100000000E-03 0.  1.
         12    1    3    3    0    0  0.12061705054E+02 -0.12860641235E+01 -0.11405925807E+02  0.16650340334E+02  0.00000000000E+00 0. -1.
</event>
<event>
 7    1  0.5022032E-011  0.4778727E+02  0.7816164E-02  0.1312668E+00
        -11   -1    0    0    0    0  0.00000000000E+00  0.00000000000E+00  0.45593999997E+02  0.45594000000E+02  0.51100000000E-03 0.  1.
         11   -1    0    0    0    0 -0.00000000000E+00 -0.00000000000E+00 -0.45593999997E+02  0.45594000000E+02  0.51100000000E-03 0. -1.
    9900012    2    1    2    0    0 -0.19976476916E+02  0.17133658894E+02 -0.34510888794E+02  0.47787270255E+02  0.19999996401E+02 0.  0.
         12    1    1    2    0    0  0.19976476916E+02 -0.17133658894E+02  0.34510888794E+02  0.43400729745E+02  0.00000000000E+00 0. -1.
         11    1    3    3    0    0 -0.10631981578E+02  0.28222461815E+01 -0.69920315444E+01  0.13034285986E+02  0.51100000000E-03 0. -1.
        -11    1    3    3    0    0 -0.10322947048E+02  0.45846069069E+01 -0.16817694673E+02  0.20258744054E+02  0.51100000000E-03 0.  1.
         12    1    3    3    0    0  0.97845171116E+00  0.97268058058E+01 -0.10701162576E+02  0.14494240215E+02  0.00000000000E+00 0. -1.
</event>
<event>
 7    1  0.5022032E-011  0.4778727E+02  0.7816164E-02  0.1312668E+00
        -11   -1    0    0    0    0  0.00000000000E+00  0.00000000000E+00  0.45593999997E+02  0.45594000000E+02  0.51100000000E-03 0. -1.
         11   -1    0    0    0    0 -0.00000000000E+00 -0.00000000000E+00 -0.45593999997E+02  0.45594000000E+02  0.51100000000E-03 0.  1.
    9900012    2    1    2    0    0  0.38259414520E+01  0.30555554212E+02  0.30583392232E+02  0.47787267268E+02  0.19999982783E+02 0.  0.
        -12    1    1    2    0    0 -0.38259414520E+01 -0.30555554212E+02 -0.30583392232E+02  0.43400732732E+02  0.00000000000E+00 0.  1.
         11    1    3    3    0    0  0.29887827707E+01  0.51154251820E+01  0.12197971062E+02  0.13560637726E+02  0.51100000000E-03 0. -1.
        -11    1    3    3    0    0  0.55357928014E+01  0.41986599635E+01  0.29296029992E+01  0.75403130852E+01  0.51100000000E-03 0.  1.
         12    1    3    3    0    0 -0.46986341202E+01  0.21241469067E+02  0.15455818171E+02  0.26686316457E+02  0.00000000000E+00 0. -1.
</event>
<event>
 7    1  0.5022032E-011  0.4778727E+02  0.7816164E-02  0.1312668E+00
        -11   -1    0    0    0    0  0.00000000000E+00  0.00000000000E+00  0.45593999997E+02  0.45594000000E+02  0.51100000000E-03 0. -1.
         11   -1    0    0    0    0 -0.00000000000E+00 -0.00000000000E+00 -0.45593999997E+02  0.45594000000E+02  0.51100000000E-03 0.  1.
    9900012    2    1    2    0    0  0.55701512275E+01  0.12273823852E+02  0.41254697986E+02  0.47787269101E+02  0.19999991138E+02 0.  0.
        -12    1    1    2    0    0 -0.55701512275E+01 -0.12273823852E+02 -0.41254697986E+02  0.43400730899E+02  0.00000000000E+00 0.  1.
         11    1    3    3    0    0 -0.37430964536E+01  0.72711537636E+01  0.12507215793E+02  0.14943590441E+02  0.51100000000E-03 0. -1.
        -11    1    3    3    0    0 -0.50956151132E+00 -0.28181523068E+01  0.27380608530E+01  0.39621475053E+01  0.51100000000E-03 0.  1.
         12    1    3    3    0    0  0.98228091924E+01  0.78208223947E+01  0.26009421341E+02  0.28881531155E+02  0.00000000000E+00 0. -1.
</event>
<event>
 7    1  0.5022032E-011  0.4778727E+02  0.7816164E-02  0.1312668E+00
        -11   -1    0    0    0    0  0.00000000000E+00  0.00000000000E+00  0.45593999997E+02  0.45594000000E+02  0.51100000000E-03 0. -1.
         11   -1    0    0    0    0 -0.00000000000E+00 -0.00000000000E+00 -0.45593999997E+02  0.45594000000E+02  0.51100000000E-03 0.  1.
    9900012    2    1    2    0    0 -0.42979099726E+02  0.51493476657E+01 -0.31471216868E+01  0.47787272246E+02  0.20000005479E+02 0.  0.
         12    1    1    2    0    0  0.42979099726E+02 -0.51493476657E+01  0.31471216868E+01  0.43400727754E+02  0.00000000000E+00 0. -1.
         11    1    3    3    0    0 -0.16467406004E+02  0.48080318773E+01 -0.73327170195E+01  0.18656402927E+02  0.51100000000E-03 0. -1.
        -11    1    3    3    0    0 -0.61996665507E+01  0.55993812595E+00 -0.38126900468E+01  0.72997261386E+01  0.51100000000E-03 0.  1.
        -12    1    3    3    0    0 -0.20312027172E+02 -0.21862233756E+00  0.79982853795E+01  0.21831143180E+02  0.00000000000E+00 0.  1.
</event>
<event>
 7    1  0.5022032E-011  0.4778727E+02  0.7816164E-02  0.1312668E+00
        -11   -1    0    0    0    0  0.00000000000E+00  0.00000000000E+00  0.45593999997E+02  0.45594000000E+02  0.51100000000E-03 0. -1.
         11   -1    0    0    0    0 -0.00000000000E+00 -0.00000000000E+00 -0.45593999997E+02  0.45594000000E+02  0.51100000000E-03 0.  1.
    9900012    2    1    2    0    0 -0.23809069132E+02  0.21348286644E+02 -0.29342842148E+02  0.47787268429E+02  0.19999988074E+02 0.  0.
         12    1    1    2    0    0  0.23809069132E+02 -0.21348286644E+02  0.29342842148E+02  0.43400731571E+02  0.00000000000E+00 0. -1.
         11    1    3    3    0    0 -0.25121623749E+01  0.97844778446E+00  0.77266619188E+00  0.28045201319E+01  0.51100000000E-03 0. -1.
        -11    1    3    3    0    0 -0.14975086584E+02  0.58317914268E+01 -0.21793739674E+02  0.27078221852E+02  0.51100000000E-03 0.  1.
         12    1    3    3    0    0 -0.63218201736E+01  0.14538047433E+02 -0.83217686662E+01  0.17904526445E+02  0.00000000000E+00 0. -1.
</event>
<event>
 7    1  0.5511632E-011  0.4778728E+02  0.7816164E-02  0.1312668E+00
        -11   -1    0    0    0    0  0.00000000000E+00  0.00000000000E+00  0.45593999997E+02  0.45594000000E+02  0.51100000000E-03 0. -1.
         11   -1    0    0    0    0 -0.00000000000E+00 -0.00000000000E+00 -0.45593999997E+02  0.45594000000E+02  0.51100000000E-03 0.  1.
    9900012    2    1    2    0    0  0.20266448043E+02 -0.39412172801E+01 -0.38175390066E+02  0.47787279769E+02  0.20000039777E+02 0.  0.
         12    1    1    2    0    0 -0.20266448043E+02  0.39412172801E+01  0.38175390066E+02  0.43400720231E+02  0.00000000000E+00 0. -1.
         11    1    3    3    0    0 -0.13984278932E+01 -0.61816149500E-01  0.29513901423E+00  0.14305695046E+01  0.51100000000E-03 0. -1.
        -11    1    3    3    0    0  0.42269590842E+01 -0.43321023359E+01 -0.20237455231E+02  0.21123183667E+02  0.51100000000E-03 0.  1.
        -12    1    3    3    0    0  0.17437916852E+02  0.45270120528E+00 -0.18233073849E+02  0.25233526597E+02  0.00000000000E+00 0.  1.
</event>
<event>
 7    1  0.5022032E-011  0.4778727E+02  0.7816164E-02  0.1312668E+00
        -11   -1    0    0    0    0  0.00000000000E+00  0.00000000000E+00  0.45593999997E+02  0.45594000000E+02  0.51100000000E-03 0. -1.
         11   -1    0    0    0    0 -0.00000000000E+00 -0.00000000000E+00 -0.45593999997E+02  0.45594000000E+02  0.51100000000E-03 0.  1.
    9900012    2    1    2    0    0 -0.25463281377E+02 -0.44100460774E+01 -0.34868270954E+02  0.47787268161E+02  0.19999986852E+02 0.  0.
         12    1    1    2    0    0  0.25463281377E+02  0.44100460774E+01  0.34868270954E+02  0.43400731839E+02  0.00000000000E+00 0. -1.
         11    1    3    3    0    0 -0.44310056382E+01 -0.28275566692E+00 -0.30231753599E+01  0.53715315554E+01  0.51100000000E-03 0. -1.
        -11    1    3    3    0    0 -0.15665325074E+02 -0.11113940599E+02 -0.21897050520E+02  0.29127356678E+02  0.51100000000E-03 0.  1.
         12    1    3    3    0    0 -0.53669506646E+01  0.69866501887E+01 -0.99480450740E+01  0.13288379927E+02  0.00000000000E+00 0. -1.
</event>
<event>
 7    1  0.5022032E-011  0.4778727E+02  0.7816164E-02  0.1312668E+00
        -11   -1    0    0    0    0  0.00000000000E+00  0.00000000000E+00  0.45593999997E+02  0.45594000000E+02  0.51100000000E-03 0. -1.
         11   -1    0    0    0    0 -0.00000000000E+00 -0.00000000000E+00 -0.45593999997E+02  0.45594000000E+02  0.51100000000E-03 0.  1.
    9900012    2    1    2    0    0 -0.28310709911E+02  0.11965184348E+02  0.30642477131E+02  0.47787270319E+02  0.19999996692E+02 0.  0.
        -12    1    1    2    0    0  0.28310709911E+02 -0.11965184348E+02 -0.30642477131E+02  0.43400729681E+02  0.00000000000E+00 0.  1.
         11    1    3    3    0    0 -0.18890230278E+02  0.81524850895E+01  0.14519026673E+02  0.25181460420E+02  0.51100000000E-03 0. -1.
        -11    1    3    3    0    0 -0.72129642305E+01 -0.14063782426E+01  0.23551589592E+01  0.77169635697E+01  0.51100000000E-03 0.  1.
         12    1    3    3    0    0 -0.22075154022E+01  0.52190775015E+01  0.13768291499E+02  0.14888846329E+02  0.00000000000E+00 0. -1.
</event>
<event>
 7    1  0.5022032E-011  0.4778727E+02  0.7816164E-02  0.1312668E+00
        -11   -1    0    0    0    0  0.00000000000E+00  0.00000000000E+00  0.45593999997E+02  0.45594000000E+02  0.51100000000E-03 0. -1.
         11   -1    0    0    0    0 -0.00000000000E+00 -0.00000000000E+00 -0.45593999997E+02  0.45594000000E+02  0.51100000000E-03 0.  1.
    9900012    2    1    2    0    0 -0.10107288332E+01  0.42482489106E+02 -0.88227140616E+01  0.47787265711E+02  0.19999975683E+02 0.  0.
         12    1    1    2    0    0  0.10107288332E+01 -0.42482489106E+02  0.88227140616E+01  0.43400734289E+02  0.00000000000E+00 0. -1.
         11    1    3    3    0    0  0.48487451758E+01  0.84540884511E+01 -0.22259348079E+00  0.97484095850E+01  0.51100000000E-03 0. -1.
        -11    1    3    3    0    0  0.28334398906E+01  0.21616229445E+02 -0.64381203345E+01  0.22731897210E+02  0.51100000000E-03 0.  1.
         12    1    3    3    0    0 -0.86929138995E+01  0.12412171209E+02 -0.21620002463E+01  0.15306958916E+02  0.00000000000E+00 0. -1.
</event>
<event>
 7    1  0.5022032E-011  0.4778727E+02  0.7816164E-02  0.1312668E+00
        -11   -1    0    0    0    0  0.00000000000E+00  0.00000000000E+00  0.45593999997E+02  0.45594000000E+02  0.51100000000E-03 0.  1.
         11   -1    0    0    0    0 -0.00000000000E+00 -0.00000000000E+00 -0.45593999997E+02  0.45594000000E+02  0.51100000000E-03 0. -1.
    9900012    2    1    2    0    0  0.32247989768E+02  0.22619837565E+02  0.18221773856E+02  0.47787274914E+02  0.20000017641E+02 0.  0.
        -12    1    1    2    0    0 -0.32247989768E+02 -0.22619837565E+02 -0.18221773856E+02  0.43400725086E+02  0.00000000000E+00 0.  1.
         11    1    3    3    0    0  0.89020093087E+01  0.20562170682E+01  0.71176765806E+00  0.91640827049E+01  0.51100000000E-03 0. -1.
        -11    1    3    3    0    0  0.20799706217E+02  0.98458481586E+01  0.90275531637E+01  0.24719733434E+02  0.51100000000E-03 0.  1.
        -12    1    3    3    0    0  0.25462742425E+01  0.10717772338E+02  0.84824530346E+01  0.13903458775E+02  0.00000000000E+00 0.  1.
</event>
<event>
 7    1  0.5022032E-011  0.4778725E+02  0.7816164E-02  0.1312668E+00
        -11   -1    0    0    0    0  0.00000000000E+00  0.00000000000E+00  0.45593999997E+02  0.45594000000E+02  0.51100000000E-03 0. -1.
         11   -1    0    0    0    0 -0.00000000000E+00 -0.00000000000E+00 -0.45593999997E+02  0.45594000000E+02  0.51100000000E-03 0.  1.
    9900012    2    1    2    0    0  0.24113537106E+02  0.23054137048E+02 -0.27760927867E+02  0.47787250895E+02  0.19999908133E+02 0.  0.
         12    1    1    2    0    0 -0.24113537106E+02 -0.23054137048E+02  0.27760927867E+02  0.43400749105E+02  0.00000000000E+00 0. -1.
         11    1    3    3    0    0  0.87588071326E+01  0.99274258403E+01 -0.12517860291E+02  0.18219970163E+02  0.51100000000E-03 0. -1.
        -11    1    3    3    0    0  0.16561753188E+02  0.11244088427E+02 -0.72873221819E+01  0.21303198306E+02  0.51100000000E-03 0.  1.
         12    1    3    3    0    0 -0.12070232150E+01  0.18826227804E+01 -0.79557453945E+01  0.82640824268E+01  0.00000000000E+00 0. -1.
</event>
<event>
 7    1  0.5022032E-011  0.4778727E+02  0.7816164E-02  0.1312668E+00
        -11   -1    0    0    0    0  0.00000000000E+00  0.00000000000E+00  0.45593999997E+02  0.45594000000E+02  0.51100000000E-03 0. -1.
         11   -1    0    0    0    0 -0.00000000000E+00 -0.00000000000E+00 -0.45593999997E+02  0.45594000000E+02  0.51100000000E-03 0.  1.
    9900012    2    1    2    0    0 -0.92924292403E+01 -0.25826321070E+02  0.33619568659E+02  0.47787268462E+02  0.19999988227E+02 0.  0.
        -12    1    1    2    0    0  0.92924292403E+01  0.25826321070E+02 -0.33619568659E+02  0.43400731538E+02  0.00000000000E+00 0.  1.
         11    1    3    3    0    0 -0.33476710124E+01 -0.16160651005E+02  0.19946169925E+02  0.25888670052E+02  0.51100000000E-03 0. -1.
        -11    1    3    3    0    0 -0.76693094360E+01 -0.10957112824E+02  0.14373213733E+02  0.19633285561E+02  0.51100000000E-03 0.  1.
        -12    1    3    3    0    0  0.17245512080E+01  0.12914427589E+01 -0.69981499966E+00  0.22653128487E+01  0.00000000000E+00 0.  1.
</event>
<event>
 7    1  0.5022032E-011  0.4778727E+02  0.7816164E-02  0.1312668E+00
        -11   -1    0    0    0    0  0.00000000000E+00  0.00000000000E+00  0.45593999997E+02  0.45594000000E+02  0.51100000000E-03 0. -1.
         11   -1    0    0    0    0 -0.00000000000E+00 -0.00000000000E+00 -0.45593999997E+02  0.45594000000E+02  0.51100000000E-03 0.  1.
    9900012    2    1    2    0    0 -0.40836015276E+02 -0.27265683489E+01 -0.14443318262E+02  0.47787265433E+02  0.19999974415E+02 0.  0.
         12    1    1    2    0    0  0.40836015276E+02  0.27265683489E+01  0.14443318262E+02  0.43400734567E+02  0.00000000000E+00 0. -1.
         11    1    3    3    0    0 -0.24404990343E+00 -0.34184969617E+00 -0.57111026496E+01  0.57265273338E+01  0.51100000000E-03 0. -1.
        -11    1    3    3    0    0 -0.13303334305E+02 -0.15437260938E+01 -0.58259059338E+01  0.14604895552E+02  0.51100000000E-03 0.  1.
         12    1    3    3    0    0 -0.27288631067E+02 -0.84099255892E+00 -0.29063096783E+01  0.27455842547E+02  0.00000000000E+00 0. -1.
</event>
<event>
 7    1  0.5022032E-011  0.4778727E+02  0.7816164E-02  0.1312668E+00
        -11   -1    0    0    0    0  0.00000000000E+00  0.00000000000E+00  0.45593999997E+02  0.45594000000E+02  0.51100000000E-03 0. -1.
         11   -1    0    0    0    0 -0.00000000000E+00 -0.00000000000E+00 -0.45593999997E+02  0.45594000000E+02  0.51100000000E-03 0.  1.
    9900012    2    1    2    0    0 -0.21015474408E+01  0.18838810507E+00  0.43349409168E+02  0.47787271124E+02  0.20000000365E+02 0.  0.
        -12    1    1    2    0    0  0.21015474408E+01 -0.18838810507E+00 -0.43349409168E+02  0.43400728876E+02  0.00000000000E+00 0.  1.
         11    1    3    3    0    0 -0.85886516359E+00 -0.92515742938E+00 -0.56488931918E+00  0.13829916277E+01  0.51100000000E-03 0. -1.
        -11    1    3    3    0    0 -0.61753337113E+00  0.66882414689E+01  0.10110622661E+02  0.12138311755E+02  0.51100000000E-03 0.  1.
         12    1    3    3    0    0 -0.62514890604E+00 -0.55746959344E+01  0.33803675826E+02  0.34265967742E+02  0.00000000000E+00 0. -1.
</event>
<event>
 7    1  0.5022032E-011  0.4778728E+02  0.7816164E-02  0.1312668E+00
        -11   -1    0    0    0    0  0.00000000000E+00  0.00000000000E+00  0.45593999997E+02  0.45594000000E+02  0.51100000000E-03 0.  1.
         11   -1    0    0    0    0 -0.00000000000E+00 -0.00000000000E+00 -0.45593999997E+02  0.45594000000E+02  0.51100000000E-03 0. -1.
    9900012    2    1    2    0    0 -0.37646004911E+02 -0.43482421793E+01 -0.21154051185E+02  0.47787276764E+02  0.20000026079E+02 0.  0.
         12    1    1    2    0    0  0.37646004911E+02  0.43482421793E+01  0.21154051185E+02  0.43400723236E+02  0.00000000000E+00 0. -1.
         11    1    3    3    0    0 -0.20933049532E+02 -0.58542942603E+01 -0.13201272131E+02  0.25431061915E+02  0.51100000000E-03 0. -1.
        -11    1    3    3    0    0 -0.10450211983E+02 -0.37076762967E+01 -0.17285778873E+00  0.11089800453E+02  0.51100000000E-03 0.  1.
         12    1    3    3    0    0 -0.62627433964E+01  0.52137283777E+01 -0.77799212654E+01  0.11266414396E+02  0.00000000000E+00 0. -1.
</event>
<event>
 7    1  0.5022032E-011  0.4778727E+02  0.7816164E-02  0.1312668E+00
        -11   -1    0    0    0    0  0.00000000000E+00  0.00000000000E+00  0.45593999997E+02  0.45594000000E+02  0.51100000000E-03 0. -1.
         11   -1    0    0    0    0 -0.00000000000E+00 -0.00000000000E+00 -0.45593999997E+02  0.45594000000E+02  0.51100000000E-03 0.  1.
    9900012    2    1    2    0    0  0.20633080823E+02  0.35893846015E+01  0.38013357025E+02  0.47787273988E+02  0.20000013422E+02 0.  0.
        -12    1    1    2    0    0 -0.20633080823E+02 -0.35893846015E+01 -0.38013357025E+02  0.43400726012E+02  0.00000000000E+00 0.  1.
         11    1    3    3    0    0  0.98330912436E+00 -0.46311630980E+01  0.86139871368E+01  0.98293104096E+01  0.51100000000E-03 0. -1.
        -11    1    3    3    0    0 -0.12424119719E+01  0.73091413920E+00  0.38718043277E+01  0.41314273562E+01  0.51100000000E-03 0.  1.
         12    1    3    3    0    0  0.20892183670E+02  0.74896335602E+01  0.25527565560E+02  0.33826536222E+02  0.00000000000E+00 0. -1.
</event>
<event>
 7    1  0.5022032E-011  0.4778727E+02  0.7816164E-02  0.1312668E+00
        -11   -1    0    0    0    0  0.00000000000E+00  0.00000000000E+00  0.45593999997E+02  0.45594000000E+02  0.51100000000E-03 0. -1.
         11   -1    0    0    0    0 -0.00000000000E+00 -0.00000000000E+00 -0.45593999997E+02  0.45594000000E+02  0.51100000000E-03 0.  1.
    9900012    2    1    2    0    0 -0.13003915650E+02  0.24586961382E+02 -0.33316702069E+02  0.47787272714E+02  0.20000007611E+02 0.  0.
         12    1    1    2    0    0  0.13003915650E+02 -0.24586961382E+02  0.33316702069E+02  0.43400727286E+02  0.00000000000E+00 0. -1.
         11    1    3    3    0    0  0.78135220290E-01  0.18706188352E+01 -0.39007272937E+00  0.19124531196E+01  0.51100000000E-03 0. -1.
        -11    1    3    3    0    0 -0.90188577266E+01  0.24335312297E+02 -0.32333620274E+02  0.41460948127E+02  0.51100000000E-03 0.  1.
        -12    1    3    3    0    0 -0.40631931441E+01 -0.16189697506E+01 -0.59300906582E+00  0.44138714676E+01  0.00000000000E+00 0.  1.
</event>
<event>
 7    1  0.5022032E-011  0.4778728E+02  0.7816164E-02  0.1312668E+00
        -11   -1    0    0    0    0  0.00000000000E+00  0.00000000000E+00  0.45593999997E+02  0.45594000000E+02  0.51100000000E-03 0. -1.
         11   -1    0    0    0    0 -0.00000000000E+00 -0.00000000000E+00 -0.45593999997E+02  0.45594000000E+02  0.51100000000E-03 0.  1.
    9900012    2    1    2    0    0 -0.28225804083E+02 -0.25164229392E+02  0.21299961483E+02  0.47787276317E+02  0.20000024038E+02 0.  0.
        -12    1    1    2    0    0  0.28225804083E+02  0.25164229392E+02 -0.21299961483E+02  0.43400723683E+02  0.00000000000E+00 0.  1.
         11    1    3    3    0    0 -0.19446593692E+02 -0.14541893133E+02  0.12534595676E+02  0.27326777181E+02  0.51100000000E-03 0. -1.
        -11    1    3    3    0    0 -0.75738347624E+01 -0.42776856154E+01  0.10633105933E+02  0.13737703930E+02  0.51100000000E-03 0.  1.
        -12    1    3    3    0    0 -0.12053756292E+01 -0.63446506439E+01 -0.18677401248E+01  0.67227952055E+01  0.00000000000E+00 0.  1.
</event>
<event>
 7    1  0.5022032E-011  0.4778728E+02  0.7816164E-02  0.1312668E+00
        -11   -1    0    0    0    0  0.00000000000E+00  0.00000000000E+00  0.45593999997E+02  0.45594000000E+02  0.51100000000E-03 0. -1.
         11   -1    0    0    0    0 -0.00000000000E+00 -0.00000000000E+00 -0.45593999997E+02  0.45594000000E+02  0.51100000000E-03 0.  1.
    9900012    2    1    2    0    0  0.79308015480E+01  0.28430638821E+01  0.42575132503E+02  0.47787279578E+02  0.20000038909E+02 0.  0.
        -12    1    1    2    0    0 -0.79308015480E+01 -0.28430638821E+01 -0.42575132503E+02  0.43400720422E+02  0.00000000000E+00 0.  1.
         11    1    3    3    0    0  0.10885668701E+02 -0.30741098640E+01  0.22352280347E+02  0.25051394601E+02  0.51100000000E-03 0. -1.
        -11    1    3    3    0    0 -0.12446006215E+01 -0.13667445027E+01  0.93908530558E+01  0.95710575497E+01  0.51100000000E-03 0.  1.
        -12    1    3    3    0    0 -0.17102665314E+01  0.72839182488E+01  0.10831999101E+02  0.13164827427E+02  0.00000000000E+00 0.  1.
</event>
<event>
 7    1  0.5022032E-011  0.4778727E+02  0.7816164E-02  0.1312668E+00
        -11   -1    0    0    0    0  0.00000000000E+00  0.00000000000E+00  0.45593999997E+02  0.45594000000E+02  0.51100000000E-03 0. -1.
         11   -1    0    0    0    0 -0.00000000000E+00 -0.00000000000E+00 -0.45593999997E+02  0.45594000000E+02  0.51100000000E-03 0.  1.
    9900012    2    1    2    0    0 -0.26389893903E+01  0.32380043167E+02  0.28778323213E+02  0.47787270197E+02  0.19999996135E+02 0.  0.
        -12    1    1    2    0    0  0.26389893903E+01 -0.32380043167E+02 -0.28778323213E+02  0.43400729803E+02  0.00000000000E+00 0.  1.
         11    1    3    3    0    0  0.52042403649E+01  0.68924492644E+01  0.15043072509E+02  0.17346008342E+02  0.51100000000E-03 0. -1.
        -11    1    3    3    0    0  0.36087232321E+00  0.27793101783E+01  0.32268978984E+00  0.28211562988E+01  0.51100000000E-03 0.  1.
         12    1    3    3    0    0 -0.82041020785E+01  0.22708283725E+02  0.13412560914E+02  0.27620105556E+02  0.00000000000E+00 0. -1.
</event>
<event>
 7    1  0.5022032E-011  0.4778728E+02  0.7816164E-02  0.1312668E+00
        -11   -1    0    0    0    0  0.00000000000E+00  0.00000000000E+00  0.45593999997E+02  0.45594000000E+02  0.51100000000E-03 0. -1.
         11   -1    0    0    0    0 -0.00000000000E+00 -0.00000000000E+00 -0.45593999997E+02  0.45594000000E+02  0.51100000000E-03 0.  1.
    9900012    2    1    2    0    0  0.29202892653E+01 -0.13096200196E+01 -0.43282555431E+02  0.47787276519E+02  0.20000024962E+02 0.  0.
         12    1    1    2    0    0 -0.29202892653E+01  0.13096200196E+01  0.43282555431E+02  0.43400723481E+02  0.00000000000E+00 0. -1.
         11    1    3    3    0    0 -0.22398009025E+00  0.38527895976E+01 -0.12680401140E+01  0.40622753177E+01  0.51100000000E-03 0. -1.
        -11    1    3    3    0    0  0.44294766623E+01  0.96653885765E+00 -0.85304970576E+01  0.96604265525E+01  0.51100000000E-03 0.  1.
         12    1    3    3    0    0 -0.12852073068E+01 -0.61289484748E+01 -0.33484018259E+02  0.34064574649E+02  0.00000000000E+00 0. -1.
</event>
<event>
 7    1  0.5022032E-011  0.4778727E+02  0.7816164E-02  0.1312668E+00
        -11   -1    0    0    0    0  0.00000000000E+00  0.00000000000E+00  0.45593999997E+02  0.45594000000E+02  0.51100000000E-03 0. -1.
         11   -1    0    0    0    0 -0.00000000000E+00 -0.00000000000E+00 -0.45593999997E+02  0.45594000000E+02  0.51100000000E-03 0.  1.
    9900012    2    1    2    0    0 -0.14087881209E+02 -0.35119758299E+02 -0.21254587132E+02  0.47787270812E+02  0.19999998939E+02 0.  0.
         12    1    1    2    0    0  0.14087881209E+02  0.35119758299E+02  0.21254587132E+02  0.43400729188E+02  0.00000000000E+00 0. -1.
         11    1    3    3    0    0 -0.30626365186E+01 -0.10395409282E+02  0.63348083854E+00  0.10855670169E+02  0.51100000000E-03 0. -1.
        -11    1    3    3    0    0 -0.10640494211E+02 -0.99235157214E+01 -0.78673916975E+01  0.16540620717E+02  0.51100000000E-03 0.  1.
         12    1    3    3    0    0 -0.38475047888E+00 -0.14800833296E+02 -0.14020676273E+02  0.20390979926E+02  0.00000000000E+00 0. -1.
</event>
<event>
 7    1  0.5022032E-011  0.4778727E+02  0.7816164E-02  0.1312668E+00
        -11   -1    0    0    0    0  0.00000000000E+00  0.00000000000E+00  0.45593999997E+02  0.45594000000E+02  0.51100000000E-03 0. -1.
         11   -1    0    0    0    0 -0.00000000000E+00 -0.00000000000E+00 -0.45593999997E+02  0.45594000000E+02  0.51100000000E-03 0.  1.
    9900012    2    1    2    0    0 -0.40681889491E+01 -0.13771300550E+02 -0.40956373389E+02  0.47787269576E+02  0.19999993303E+02 0.  0.
         12    1    1    2    0    0  0.40681889491E+01  0.13771300550E+02  0.40956373389E+02  0.43400730424E+02  0.00000000000E+00 0. -1.
         11    1    3    3    0    0  0.37393987741E+01  0.10226461721E+00 -0.59012888554E+01  0.69870431271E+01  0.51100000000E-03 0. -1.
        -11    1    3    3    0    0  0.34498401307E+01 -0.66366424615E+00 -0.62955545428E+01  0.72094281619E+01  0.51100000000E-03 0.  1.
        -12    1    3    3    0    0 -0.11257427854E+02 -0.13209900921E+02 -0.28759529991E+02  0.33590798287E+02  0.00000000000E+00 0.  1.
</event>
<event>
 7    1  0.5022032E-011  0.4778727E+02  0.7816164E-02  0.1312668E+00
        -11   -1    0    0    0    0  0.00000000000E+00  0.00000000000E+00  0.45593999997E+02  0.45594000000E+02  0.51100000000E-03 0. -1.
         11   -1    0    0    0    0 -0.00000000000E+00 -0.00000000000E+00 -0.45593999997E+02  0.45594000000E+02  0.51100000000E-03 0.  1.
    9900012    2    1    2    0    0 -0.29147630450E+01 -0.15027363799E+02  0.40611645103E+02  0.47787271616E+02  0.20000002605E+02 0.  0.
        -12    1    1    2    0    0  0.29147630450E+01  0.15027363799E+02 -0.40611645103E+02  0.43400728384E+02  0.00000000000E+00 0.  1.
         11    1    3    3    0    0 -0.63402984763E+00  0.19991947980E+01  0.29642977235E+00  0.21181700969E+01  0.51100000000E-03 0. -1.
        -11    1    3    3    0    0  0.41598639685E+01 -0.68517935998E+01  0.86573727666E+01  0.11798374772E+02  0.51100000000E-03 0.  1.
         12    1    3    3    0    0 -0.64405971659E+01 -0.10174764997E+02  0.31657842564E+02  0.33870726747E+02  0.00000000000E+00 0. -1.
</event>
<event>
 7    1  0.5022032E-011  0.4778728E+02  0.7816164E-02  0.1312668E+00
        -11   -1    0    0    0    0  0.00000000000E+00  0.00000000000E+00  0.45593999997E+02  0.45594000000E+02  0.51100000000E-03 0.  1.
         11   -1    0    0    0    0 -0.00000000000E+00 -0.00000000000E+00 -0.45593999997E+02  0.45594000000E+02  0.51100000000E-03 0. -1.
    9900012    2    1    2    0    0  0.13214754480E+02 -0.28730506160E+02 -0.29724578053E+02  0.47787282718E+02  0.20000053222E+02 0.  0.
         12    1    1    2    0    0 -0.13214754480E+02  0.28730506160E+02  0.29724578053E+02  0.43400717282E+02  0.00000000000E+00 0. -1.
         11    1    3    3    0    0  0.87217545122E+01 -0.18780531760E+02 -0.20796554837E+02  0.29347471242E+02  0.51100000000E-03 0. -1.
        -11    1    3    3    0    0  0.17805249204E+01  0.95045021574E+00 -0.66878468593E+01  0.69857655615E+01  0.51100000000E-03 0.  1.
        -12    1    3    3    0    0  0.27124750478E+01 -0.10900424616E+02 -0.22401763571E+01  0.11454045914E+02  0.00000000000E+00 0.  1.
</event>
<event>
 7    1  0.5022032E-011  0.4778727E+02  0.7816164E-02  0.1312668E+00
        -11   -1    0    0    0    0  0.00000000000E+00  0.00000000000E+00  0.45593999997E+02  0.45594000000E+02  0.51100000000E-03 0. -1.
         11   -1    0    0    0    0 -0.00000000000E+00 -0.00000000000E+00 -0.45593999997E+02  0.45594000000E+02  0.51100000000E-03 0.  1.
    9900012    2    1    2    0    0  0.13022046444E+02 -0.25140429256E+02  0.32893897222E+02  0.47787270153E+02  0.19999995936E+02 0.  0.
        -12    1    1    2    0    0 -0.13022046444E+02  0.25140429256E+02 -0.32893897222E+02  0.43400729847E+02  0.00000000000E+00 0.  1.
         11    1    3    3    0    0  0.37131877481E+01 -0.12009148998E+02  0.11143010440E+02  0.16798038720E+02  0.51100000000E-03 0.  1.
        -11    1    3    3    0    0  0.47660027562E+01 -0.15815991481E+02  0.14234830542E+02  0.21805750838E+02  0.51100000000E-03 0. -1.
        -12    1    3    3    0    0  0.45428559395E+01  0.26847112227E+01  0.75160562396E+01  0.91834805947E+01  0.00000000000E+00 0.  1.
</event>
<event>
 7    1  0.5022032E-011  0.4778727E+02  0.7816164E-02  0.1312668E+00
        -11   -1    0    0    0    0  0.00000000000E+00  0.00000000000E+00  0.45593999997E+02  0.45594000000E+02  0.51100000000E-03 0.  1.
         11   -1    0    0    0    0 -0.00000000000E+00 -0.00000000000E+00 -0.45593999997E+02  0.45594000000E+02  0.51100000000E-03 0. -1.
    9900012    2    1    2    0    0 -0.14886901770E+02  0.35485819608E+02  0.20068886746E+02  0.47787268984E+02  0.19999990605E+02 0.  0.
        -12    1    1    2    0    0  0.14886901770E+02 -0.35485819608E+02 -0.20068886746E+02  0.43400731016E+02  0.00000000000E+00 0.  1.
         11    1    3    3    0    0 -0.95628537580E+01  0.12901443943E+02  0.12439924184E+01  0.16107232699E+02  0.51100000000E-03 0. -1.
        -11    1    3    3    0    0 -0.31242674052E+00  0.16043273511E+01 -0.13691447584E+01  0.21321431350E+01  0.51100000000E-03 0.  1.
        -12    1    3    3    0    0 -0.50116212710E+01  0.20980048313E+02  0.20194039086E+02  0.29547893150E+02  0.00000000000E+00 0.  1.
</event>
<event>
 7    1  0.7191999E-011  0.4778727E+02  0.7816164E-02  0.1312668E+00
        -11   -1    0    0    0    0  0.00000000000E+00  0.00000000000E+00  0.45593999997E+02  0.45594000000E+02  0.51100000000E-03 0. -1.
         11   -1    0    0    0    0 -0.00000000000E+00 -0.00000000000E+00 -0.45593999997E+02  0.45594000000E+02  0.51100000000E-03 0.  1.
    9900012    2    1    2    0    0 -0.50386001674E+01  0.23541440437E+02 -0.36111441638E+02  0.47787272740E+02  0.20000007731E+02 0.  0.
         12    1    1    2    0    0  0.50386001674E+01 -0.23541440437E+02  0.36111441638E+02  0.43400727260E+02  0.00000000000E+00 0. -1.
         11    1    3    3    0    0  0.12345862538E+01 -0.10822647125E+01 -0.32789037361E+01  0.36669756064E+01  0.51100000000E-03 0. -1.
        -11    1    3    3    0    0 -0.91675782203E+00  0.44098728149E+01  0.74315365965E+00  0.45650521104E+01  0.51100000000E-03 0.  1.
        -12    1    3    3    0    0 -0.53564285991E+01  0.20213832335E+02 -0.33575691562E+02  0.39555245023E+02  0.00000000000E+00 0.  1.
</event>
<event>
 7    1  0.5022032E-011  0.4778727E+02  0.7816164E-02  0.1312668E+00
        -11   -1    0    0    0    0  0.00000000000E+00  0.00000000000E+00  0.45593999997E+02  0.45594000000E+02  0.51100000000E-03 0. -1.
         11   -1    0    0    0    0 -0.00000000000E+00 -0.00000000000E+00 -0.45593999997E+02  0.45594000000E+02  0.51100000000E-03 0.  1.
    9900012    2    1    2    0    0 -0.60204864977E+01  0.39083448566E+02  0.17884661056E+02  0.47787270621E+02  0.19999998071E+02 0.  0.
        -12    1    1    2    0    0  0.60204864977E+01 -0.39083448566E+02 -0.17884661056E+02  0.43400729379E+02  0.00000000000E+00 0.  1.
         11    1    3    3    0    0 -0.74094813513E+01  0.93145364025E+01  0.57319357245E+01  0.13210453804E+02  0.51100000000E-03 0. -1.
        -11    1    3    3    0    0 -0.53981691964E+01  0.12615451437E+02  0.32894875788E+01  0.14110654642E+02  0.51100000000E-03 0.  1.
        -12    1    3    3    0    0  0.67871640500E+01  0.17153460727E+02  0.88632377526E+01  0.20466162176E+02  0.00000000000E+00 0.  1.
</event>
<event>
 7    1  0.5022032E-011  0.4778727E+02  0.7816164E-02  0.1312668E+00
        -11   -1    0    0    0    0  0.00000000000E+00  0.00000000000E+00  0.45593999997E+02  0.45594000000E+02  0.51100000000E-03 0.  1.
         11   -1    0    0    0    0 -0.00000000000E+00 -0.00000000000E+00 -0.45593999997E+02  0.45594000000E+02  0.51100000000E-03 0. -1.
    9900012    2    1    2    0    0  0.23744909000E+02 -0.16806498500E+02  0.32207825476E+02  0.47787272850E+02  0.20000008231E+02 0.  0.
        -12    1    1    2    0    0 -0.23744909000E+02  0.16806498500E+02 -0.32207825476E+02  0.43400727150E+02  0.00000000000E+00 0.  1.
         11    1    3    3    0    0  0.10988279730E+02 -0.18441830673E+01  0.67908539601E+01  0.13048333242E+02  0.51100000000E-03 0. -1.
        -11    1    3    3    0    0  0.12302551567E+02 -0.11881332665E+02  0.26415079830E+02  0.31468639685E+02  0.51100000000E-03 0.  1.
         12    1    3    3    0    0  0.45407770345E+00 -0.30809827679E+01 -0.99810831409E+00  0.32702999226E+01  0.00000000000E+00 0. -1.
</event>
<event>
 7    1  0.5022032E-011  0.4778727E+02  0.7816164E-02  0.1312668E+00
        -11   -1    0    0    0    0  0.00000000000E+00  0.00000000000E+00  0.45593999997E+02  0.45594000000E+02  0.51100000000E-03 0. -1.
         11   -1    0    0    0    0 -0.00000000000E+00 -0.00000000000E+00 -0.45593999997E+02  0.45594000000E+02  0.51100000000E-03 0.  1.
    9900012    2    1    2    0    0 -0.36787369684E+02  0.12989687242E+02 -0.19015277390E+02  0.47787270546E+02  0.19999997726E+02 0.  0.
         12    1    1    2    0    0  0.36787369684E+02 -0.12989687242E+02  0.19015277390E+02  0.43400729454E+02  0.00000000000E+00 0. -1.
         11    1    3    3    0    0 -0.17019624181E+02 -0.35040698744E+00 -0.90895639302E+00  0.17047480586E+02  0.51100000000E-03 0. -1.
        -11    1    3    3    0    0 -0.56272573359E+01  0.13804665216E+01 -0.72194431441E+01  0.92570012700E+01  0.51100000000E-03 0.  1.
        -12    1    3    3    0    0 -0.14140488167E+02  0.11959627708E+02 -0.10886877853E+02  0.21482788690E+02  0.00000000000E+00 0.  1.
</event>
<event>
 7    1  0.5022032E-011  0.4778728E+02  0.7816164E-02  0.1312668E+00
        -11   -1    0    0    0    0  0.00000000000E+00  0.00000000000E+00  0.45593999997E+02  0.45594000000E+02  0.51100000000E-03 0. -1.
         11   -1    0    0    0    0 -0.00000000000E+00 -0.00000000000E+00 -0.45593999997E+02  0.45594000000E+02  0.51100000000E-03 0.  1.
    9900012    2    1    2    0    0 -0.32265051079E+01  0.38451064132E+02 -0.19867768576E+02  0.47787275394E+02  0.20000019832E+02 0.  0.
         12    1    1    2    0    0  0.32265051079E+01 -0.38451064132E+02  0.19867768576E+02  0.43400724606E+02  0.00000000000E+00 0. -1.
         11    1    3    3    0    0  0.26844948114E-01  0.25836787491E+01 -0.42121076094E+01  0.49414539666E+01  0.51100000000E-03 0. -1.
        -11    1    3    3    0    0  0.36312771669E+01  0.10017436379E+02  0.19348178292E+01  0.10829530265E+02  0.51100000000E-03 0.  1.
        -12    1    3    3    0    0 -0.68846272230E+01  0.25849949004E+02 -0.17590478796E+02  0.32016291162E+02  0.00000000000E+00 0.  1.
</event>
<event>
 7    1  0.5022032E-011  0.4778727E+02  0.7816164E-02  0.1312668E+00
        -11   -1    0    0    0    0  0.00000000000E+00  0.00000000000E+00  0.45593999997E+02  0.45594000000E+02  0.51100000000E-03 0. -1.
         11   -1    0    0    0    0 -0.00000000000E+00 -0.00000000000E+00 -0.45593999997E+02  0.45594000000E+02  0.51100000000E-03 0.  1.
    9900012    2    1    2    0    0  0.26847632331E+02 -0.14303967136E+02  0.30955201167E+02  0.47787270549E+02  0.19999997740E+02 0.  0.
        -12    1    1    2    0    0 -0.26847632331E+02  0.14303967136E+02 -0.30955201167E+02  0.43400729451E+02  0.00000000000E+00 0.  1.
         11    1    3    3    0    0  0.10327211921E+01  0.24428671305E-01  0.38990111990E+01  0.40335342333E+01  0.51100000000E-03 0. -1.
        -11    1    3    3    0    0  0.53255704235E+00  0.12359427444E+01  0.87965170696E+01  0.88988698321E+01  0.51100000000E-03 0.  1.
         12    1    3    3    0    0  0.25282354096E+02 -0.15564338552E+02  0.18259672899E+02  0.34854866483E+02  0.00000000000E+00 0. -1.
</event>
<event>
 7    1  0.5022032E-011  0.4778727E+02  0.7816164E-02  0.1312668E+00
        -11   -1    0    0    0    0  0.00000000000E+00  0.00000000000E+00  0.45593999997E+02  0.45594000000E+02  0.51100000000E-03 0. -1.
         11   -1    0    0    0    0 -0.00000000000E+00 -0.00000000000E+00 -0.45593999997E+02  0.45594000000E+02  0.51100000000E-03 0.  1.
    9900012    2    1    2    0    0 -0.35605610123E+02 -0.19492065878E+02  0.15359780138E+02  0.47787274772E+02  0.20000016996E+02 0.  0.
        -12    1    1    2    0    0  0.35605610123E+02  0.19492065878E+02 -0.15359780138E+02  0.43400725228E+02  0.00000000000E+00 0.  1.
         11    1    3    3    0    0 -0.33287902393E+01 -0.34584751671E+01  0.70034345729E+01  0.84905824898E+01  0.51100000000E-03 0. -1.
        -11    1    3    3    0    0 -0.42719711139E+01 -0.58924889107E+01 -0.23473832848E+01  0.76473113778E+01  0.51100000000E-03 0.  1.
         12    1    3    3    0    0 -0.28004848770E+02 -0.10141101800E+02  0.10703728850E+02  0.31649380904E+02  0.00000000000E+00 0. -1.
</event>
<event>
 7    1  0.5022032E-011  0.4778727E+02  0.7816164E-02  0.1312668E+00
        -11   -1    0    0    0    0  0.00000000000E+00  0.00000000000E+00  0.45593999997E+02  0.45594000000E+02  0.51100000000E-03 0. -1.
         11   -1    0    0    0    0 -0.00000000000E+00 -0.00000000000E+00 -0.45593999997E+02  0.45594000000E+02  0.51100000000E-03 0.  1.
    9900012    2    1    2    0    0 -0.53680546818E+00  0.20085487195E+02 -0.38469578858E+02  0.47787268975E+02  0.19999990565E+02 0.  0.
         12    1    1    2    0    0  0.53680546818E+00 -0.20085487195E+02  0.38469578858E+02  0.43400731025E+02  0.00000000000E+00 0. -1.
         11    1    3    3    0    0 -0.22420294035E+00  0.87353928495E+01 -0.19282472538E+02  0.21170052023E+02  0.51100000000E-03 0. -1.
        -11    1    3    3    0    0 -0.66974776334E+01  0.97394954077E+01 -0.13181659552E+02  0.17705087581E+02  0.51100000000E-03 0.  1.
         12    1    3    3    0    0  0.63848751055E+01  0.16105989381E+01 -0.60054467677E+01  0.89121293714E+01  0.00000000000E+00 0. -1.
</event>
<event>
 7    1  0.5022032E-011  0.4778727E+02  0.7816164E-02  0.1312668E+00
        -11   -1    0    0    0    0  0.00000000000E+00  0.00000000000E+00  0.45593999997E+02  0.45594000000E+02  0.51100000000E-03 0. -1.
         11   -1    0    0    0    0 -0.00000000000E+00 -0.00000000000E+00 -0.45593999997E+02  0.45594000000E+02  0.51100000000E-03 0.  1.
    9900012    2    1    2    0    0 -0.33248578821E+02  0.23848638517E+02  0.14470589358E+02  0.47787268334E+02  0.19999987644E+02 0.  0.
        -12    1    1    2    0    0  0.33248578821E+02 -0.23848638517E+02 -0.14470589358E+02  0.43400731666E+02  0.00000000000E+00 0.  1.
         11    1    3    3    0    0 -0.12838367522E+02  0.82358248521E+01  0.66443417660E+00  0.15267415127E+02  0.51100000000E-03 0. -1.
        -11    1    3    3    0    0 -0.22424967508E+02  0.12439315671E+02  0.12598234281E+02  0.28571511149E+02  0.51100000000E-03 0.  1.
        -12    1    3    3    0    0  0.20147562094E+01  0.31734979947E+01  0.12079209001E+01  0.39483420579E+01  0.00000000000E+00 0.  1.
</event>
<event>
 7    1  0.5022032E-011  0.4778727E+02  0.7816164E-02  0.1312668E+00
        -11   -1    0    0    0    0  0.00000000000E+00  0.00000000000E+00  0.45593999997E+02  0.45594000000E+02  0.51100000000E-03 0. -1.
         11   -1    0    0    0    0 -0.00000000000E+00 -0.00000000000E+00 -0.45593999997E+02  0.45594000000E+02  0.51100000000E-03 0.  1.
    9900012    2    1    2    0    0 -0.16916936940E+02 -0.76827876875E+01 -0.39222634840E+02  0.47787273441E+02  0.20000010927E+02 0.  0.
         12    1    1    2    0    0  0.16916936940E+02  0.76827876875E+01  0.39222634840E+02  0.43400726559E+02  0.00000000000E+00 0. -1.
         11    1    3    3    0    0  0.64317907065E+00  0.48350216947E+01 -0.89460547357E+01  0.10189357669E+02  0.51100000000E-03 0. -1.
        -11    1    3    3    0    0 -0.89551772907E+00 -0.56192001513E+00 -0.46801722905E+01  0.47980953551E+01  0.51100000000E-03 0.  1.
         12    1    3    3    0    0 -0.16664598282E+02 -0.11955889367E+02 -0.25596407813E+02  0.32799820417E+02  0.00000000000E+00 0. -1.
</event>
<event>
 7    1  0.5022032E-011  0.4778727E+02  0.7816164E-02  0.1312668E+00
        -11   -1    0    0    0    0  0.00000000000E+00  0.00000000000E+00  0.45593999997E+02  0.45594000000E+02  0.51100000000E-03 0. -1.
         11   -1    0    0    0    0 -0.00000000000E+00 -0.00000000000E+00 -0.45593999997E+02  0.45594000000E+02  0.51100000000E-03 0.  1.
    9900012    2    1    2    0    0  0.25260080332E+02 -0.10277905197E+02 -0.33762641593E+02  0.47787274650E+02  0.20000016437E+02 0.  0.
         12    1    1    2    0    0 -0.25260080332E+02  0.10277905197E+02  0.33762641593E+02  0.43400725350E+02  0.00000000000E+00 0. -1.
         11    1    3    3    0    0 -0.44806666898E+00 -0.22492375244E+01 -0.48903212128E+00  0.23449916541E+01  0.51100000000E-03 0. -1.
        -11    1    3    3    0    0 -0.12727635138E+01 -0.33209925656E+01 -0.40715898136E+01  0.54061781745E+01  0.51100000000E-03 0.  1.
        -12    1    3    3    0    0  0.26980910515E+02 -0.47076751065E+01 -0.29202019658E+02  0.40036104821E+02  0.00000000000E+00 0.  1.
</event>
<event>
 7    1  0.5022032E-011  0.4778727E+02  0.7816164E-02  0.1312668E+00
        -11   -1    0    0    0    0  0.00000000000E+00  0.00000000000E+00  0.45593999997E+02  0.45594000000E+02  0.51100000000E-03 0. -1.
         11   -1    0    0    0    0 -0.00000000000E+00 -0.00000000000E+00 -0.45593999997E+02  0.45594000000E+02  0.51100000000E-03 0.  1.
    9900012    2    1    2    0    0  0.26486355623E+02 -0.93996036099E+01  0.33071792507E+02  0.47787273717E+02  0.20000012186E+02 0.  0.
        -12    1    1    2    0    0 -0.26486355623E+02  0.93996036099E+01 -0.33071792507E+02  0.43400726283E+02  0.00000000000E+00 0.  1.
         11    1    3    3    0    0  0.92113870019E+01 -0.51206463512E+01  0.16609893787E+02  0.19671279608E+02  0.51100000000E-03 0. -1.
        -11    1    3    3    0    0  0.19259921179E+02 -0.42076113852E+01  0.17028737154E+02  0.26050459626E+02  0.51100000000E-03 0.  1.
        -12    1    3    3    0    0 -0.19849525581E+01 -0.71345873468E-01 -0.56683843315E+00  0.20655344831E+01  0.00000000000E+00 0.  1.
</event>
<event>
 7    1  0.5022032E-011  0.4778727E+02  0.7816164E-02  0.1312668E+00
        -11   -1    0    0    0    0  0.00000000000E+00  0.00000000000E+00  0.45593999997E+02  0.45594000000E+02  0.51100000000E-03 0.  1.
         11   -1    0    0    0    0 -0.00000000000E+00 -0.00000000000E+00 -0.45593999997E+02  0.45594000000E+02  0.51100000000E-03 0. -1.
    9900012    2    1    2    0    0  0.23944409539E+02  0.35660953729E+02  0.62116858200E+01  0.47787269479E+02  0.19999992863E+02 0.  0.
         12    1    1    2    0    0 -0.23944409539E+02 -0.35660953729E+02 -0.62116858200E+01  0.43400730521E+02  0.00000000000E+00 0. -1.
         11    1    3    3    0    0  0.31692738264E+01  0.45007351832E+01  0.61169387871E+01  0.82290858643E+01  0.51100000000E-03 0. -1.
        -11    1    3    3    0    0  0.13492701173E+02  0.16457623535E+02  0.60152143030E+01  0.22115360289E+02  0.51100000000E-03 0.  1.
        -12    1    3    3    0    0  0.72824345400E+01  0.14702595011E+02 -0.59204672700E+01  0.17442823326E+02  0.00000000000E+00 0.  1.
</event>
<event>
 7    1  0.5022032E-011  0.4778727E+02  0.7816164E-02  0.1312668E+00
        -11   -1    0    0    0    0  0.00000000000E+00  0.00000000000E+00  0.45593999997E+02  0.45594000000E+02  0.51100000000E-03 0. -1.
         11   -1    0    0    0    0 -0.00000000000E+00 -0.00000000000E+00 -0.45593999997E+02  0.45594000000E+02  0.51100000000E-03 0.  1.
    9900012    2    1    2    0    0 -0.32025468289E+02  0.28261858590E+01 -0.29154845224E+02  0.47787274826E+02  0.20000017241E+02 0.  0.
         12    1    1    2    0    0  0.32025468289E+02 -0.28261858590E+01  0.29154845224E+02  0.43400725174E+02  0.00000000000E+00 0. -1.
         11    1    3    3    0    0 -0.17510166495E+02 -0.48713278209E+01 -0.73031670074E+01  0.19587547422E+02  0.51100000000E-03 0. -1.
        -11    1    3    3    0    0 -0.97309163167E+01  0.12774533443E+01 -0.11743147249E+02  0.15304382607E+02  0.51100000000E-03 0.  1.
        -12    1    3    3    0    0 -0.47843854772E+01  0.64200603355E+01 -0.10108530967E+02  0.12895344796E+02  0.00000000000E+00 0.  1.
</event>
<event>
 7    1  0.5022032E-011  0.4778727E+02  0.7816164E-02  0.1312668E+00
        -11   -1    0    0    0    0  0.00000000000E+00  0.00000000000E+00  0.45593999997E+02  0.45594000000E+02  0.51100000000E-03 0.  1.
         11   -1    0    0    0    0 -0.00000000000E+00 -0.00000000000E+00 -0.45593999997E+02  0.45594000000E+02  0.51100000000E-03 0. -1.
    9900012    2    1    2    0    0 -0.26053952238E+02  0.34653781310E+02  0.19824919945E+01  0.47787271195E+02  0.20000000688E+02 0.  0.
         12    1    1    2    0    0  0.26053952238E+02 -0.34653781310E+02 -0.19824919945E+01  0.43400728805E+02  0.00000000000E+00 0. -1.
         11    1    3    3    0    0 -0.54644205937E+01  0.25773636409E+01  0.50540246398E+01  0.78769195173E+01  0.51100000000E-03 0. -1.
        -11    1    3    3    0    0 -0.16649546109E+02  0.16413933306E+02 -0.40590708496E+01  0.23729741858E+02  0.51100000000E-03 0.  1.
        -12    1    3    3    0    0 -0.39399855345E+01  0.15662484364E+02  0.98753820430E+00  0.16180609820E+02  0.00000000000E+00 0.  1.
</event>
<event>
 7    1  0.5022032E-011  0.4778728E+02  0.7816164E-02  0.1312668E+00
        -11   -1    0    0    0    0  0.00000000000E+00  0.00000000000E+00  0.45593999997E+02  0.45594000000E+02  0.51100000000E-03 0.  1.
         11   -1    0    0    0    0 -0.00000000000E+00 -0.00000000000E+00 -0.45593999997E+02  0.45594000000E+02  0.51100000000E-03 0. -1.
    9900012    2    1    2    0    0 -0.20184251427E+02  0.28939846449E+02  0.25272595562E+02  0.47787276451E+02  0.20000024649E+02 0.  0.
        -12    1    1    2    0    0  0.20184251427E+02 -0.28939846449E+02 -0.25272595562E+02  0.43400723549E+02  0.00000000000E+00 0.  1.
         11    1    3    3    0    0 -0.12638189538E+02  0.27661484870E+02  0.15895254967E+02  0.34315313065E+02  0.51100000000E-03 0. -1.
        -11    1    3    3    0    0 -0.43134729968E+01  0.33582865347E+01  0.72456214823E+01  0.90765174307E+01  0.51100000000E-03 0.  1.
        -12    1    3    3    0    0 -0.32325888923E+01 -0.20799249557E+01  0.21317191125E+01  0.43954459550E+01  0.00000000000E+00 0.  1.
</event>
<event>
 7    1  0.5022032E-011  0.4778727E+02  0.7816164E-02  0.1312668E+00
        -11   -1    0    0    0    0  0.00000000000E+00  0.00000000000E+00  0.45593999997E+02  0.45594000000E+02  0.51100000000E-03 0.  1.
         11   -1    0    0    0    0 -0.00000000000E+00 -0.00000000000E+00 -0.45593999997E+02  0.45594000000E+02  0.51100000000E-03 0. -1.
    9900012    2    1    2    0    0  0.30987655301E+02 -0.14165225324E+02  0.26883736286E+02  0.47787266525E+02  0.19999979392E+02 0.  0.
        -12    1    1    2    0    0 -0.30987655301E+02  0.14165225324E+02 -0.26883736286E+02  0.43400733475E+02  0.00000000000E+00 0.  1.
         11    1    3    3    0    0  0.75001254801E+01  0.37321811547E+01  0.52630725407E+01  0.98934822595E+01  0.51100000000E-03 0.  1.
        -11    1    3    3    0    0  0.48658795332E+01  0.55876916496E+00  0.36374954409E+01  0.61008507566E+01  0.51100000000E-03 0. -1.
        -12    1    3    3    0    0  0.18621650287E+02 -0.18456175643E+02  0.17983168305E+02  0.31792933508E+02  0.00000000000E+00 0.  1.
</event>
<event>
 7    1  0.5022032E-011  0.4778729E+02  0.7816164E-02  0.1312668E+00
        -11   -1    0    0    0    0  0.00000000000E+00  0.00000000000E+00  0.45593999997E+02  0.45594000000E+02  0.51100000000E-03 0. -1.
         11   -1    0    0    0    0 -0.00000000000E+00 -0.00000000000E+00 -0.45593999997E+02  0.45594000000E+02  0.51100000000E-03 0.  1.
    9900012    2    1    2    0    0  0.14590837134E+02  0.21032277624E+02  0.35048146754E+02  0.47787287780E+02  0.20000076304E+02 0.  0.
        -12    1    1    2    0    0 -0.14590837134E+02 -0.21032277624E+02 -0.35048146754E+02  0.43400712220E+02  0.00000000000E+00 0.  1.
         11    1    3    3    0    0  0.58527527745E+01  0.16527813206E+00  0.32564711877E+01  0.66997490071E+01  0.51100000000E-03 0. -1.
        -11    1    3    3    0    0  0.35644893554E+01  0.46478750689E+01  0.18745377109E+02  0.19639182525E+02  0.51100000000E-03 0.  1.
        -12    1    3    3    0    0  0.51735950044E+01  0.16219124423E+02  0.13046298457E+02  0.21448356248E+02  0.00000000000E+00 0.  1.
</event>
<event>
 7    1  0.5022032E-011  0.4778727E+02  0.7816164E-02  0.1312668E+00
        -11   -1    0    0    0    0  0.00000000000E+00  0.00000000000E+00  0.45593999997E+02  0.45594000000E+02  0.51100000000E-03 0. -1.
         11   -1    0    0    0    0 -0.00000000000E+00 -0.00000000000E+00 -0.45593999997E+02  0.45594000000E+02  0.51100000000E-03 0.  1.
    9900012    2    1    2    0    0 -0.30716100213E+02  0.17589349652E+02 -0.25114920317E+02  0.47787271251E+02  0.20000000941E+02 0.  0.
         12    1    1    2    0    0  0.30716100213E+02 -0.17589349652E+02  0.25114920317E+02  0.43400728749E+02  0.00000000000E+00 0. -1.
         11    1    3    3    0    0 -0.62585395057E+01  0.53681319171E+01 -0.14692727314E+02  0.16848216321E+02  0.51100000000E-03 0. -1.
        -11    1    3    3    0    0 -0.10154110266E+02  0.37008235842E+01 -0.92902957878E+01  0.14251724337E+02  0.51100000000E-03 0.  1.
        -12    1    3    3    0    0 -0.14303450441E+02  0.85203941503E+01 -0.11318972152E+01  0.16687330593E+02  0.00000000000E+00 0.  1.
</event>
<event>
 7    1  0.5022032E-011  0.4778728E+02  0.7816164E-02  0.1312668E+00
        -11   -1    0    0    0    0  0.00000000000E+00  0.00000000000E+00  0.45593999997E+02  0.45594000000E+02  0.51100000000E-03 0. -1.
         11   -1    0    0    0    0 -0.00000000000E+00 -0.00000000000E+00 -0.45593999997E+02  0.45594000000E+02  0.51100000000E-03 0.  1.
    9900012    2    1    2    0    0 -0.22801238080E+01 -0.27707062462E+00  0.43339902835E+02  0.47787275231E+02  0.20000019090E+02 0.  0.
        -12    1    1    2    0    0  0.22801238080E+01  0.27707062462E+00 -0.43339902835E+02  0.43400724769E+02  0.00000000000E+00 0.  1.
         11    1    3    3    0    0 -0.33655349655E+01 -0.45413859104E+01  0.59355103518E+01  0.81964196445E+01  0.51100000000E-03 0. -1.
        -11    1    3    3    0    0 -0.43575768643E+01  0.51225404253E+01  0.13795649036E+02  0.15347600110E+02  0.51100000000E-03 0.  1.
        -12    1    3    3    0    0  0.54429880219E+01 -0.85822513954E+00  0.23608743447E+02  0.24243255477E+02  0.00000000000E+00 0.  1.
</event>
<event>
 7    1  0.5022032E-011  0.4778727E+02  0.7816164E-02  0.1312668E+00
        -11   -1    0    0    0    0  0.00000000000E+00  0.00000000000E+00  0.45593999997E+02  0.45594000000E+02  0.51100000000E-03 0. -1.
         11   -1    0    0    0    0 -0.00000000000E+00 -0.00000000000E+00 -0.45593999997E+02  0.45594000000E+02  0.51100000000E-03 0.  1.
    9900012    2    1    2    0    0 -0.13907400925E+02 -0.84671024175E+01  0.40230778558E+02  0.47787272273E+02  0.20000005600E+02 0.  0.
        -12    1    1    2    0    0  0.13907400925E+02  0.84671024175E+01 -0.40230778558E+02  0.43400727727E+02  0.00000000000E+00 0.  1.
         11    1    3    3    0    0 -0.15885015491E+00  0.29563271661E+01  0.14043830088E+01  0.32767965426E+01  0.51100000000E-03 0. -1.
        -11    1    3    3    0    0 -0.57057444680E+01 -0.11299870336E+02  0.16617630385E+02  0.20889907358E+02  0.51100000000E-03 0.  1.
         12    1    3    3    0    0 -0.80428063024E+01 -0.12355924783E+00  0.22208765164E+02  0.23620568372E+02  0.00000000000E+00 0. -1.
</event>
<event>
 7    1  0.5022032E-011  0.4778726E+02  0.7816164E-02  0.1312668E+00
        -11   -1    0    0    0    0  0.00000000000E+00  0.00000000000E+00  0.45593999997E+02  0.45594000000E+02  0.51100000000E-03 0. -1.
         11   -1    0    0    0    0 -0.00000000000E+00 -0.00000000000E+00 -0.45593999997E+02  0.45594000000E+02  0.51100000000E-03 0.  1.
    9900012    2    1    2    0    0  0.27452203748E+02 -0.23771333039E+02  0.23768134373E+02  0.47787262949E+02  0.19999963088E+02 0.  0.
        -12    1    1    2    0    0 -0.27452203748E+02  0.23771333039E+02 -0.23768134373E+02  0.43400737051E+02  0.00000000000E+00 0.  1.
         11    1    3    3    0    0  0.17556301211E+02 -0.11598138773E+02  0.12585893072E+02  0.24518263395E+02  0.51100000000E-03 0. -1.
        -11    1    3    3    0    0  0.12105429948E+02 -0.12784545798E+02  0.79793559479E+01  0.19330187974E+02  0.51100000000E-03 0.  1.
        -12    1    3    3    0    0 -0.22095274116E+01  0.61135153282E+00  0.32028853532E+01  0.39388115802E+01  0.00000000000E+00 0.  1.
</event>
<event>
 7    1  0.5022032E-011  0.4778728E+02  0.7816164E-02  0.1312668E+00
        -11   -1    0    0    0    0  0.00000000000E+00  0.00000000000E+00  0.45593999997E+02  0.45594000000E+02  0.51100000000E-03 0.  1.
         11   -1    0    0    0    0 -0.00000000000E+00 -0.00000000000E+00 -0.45593999997E+02  0.45594000000E+02  0.51100000000E-03 0. -1.
    9900012    2    1    2    0    0  0.25537088372E+02 -0.27118014633E+02 -0.22273139191E+02  0.47787281923E+02  0.20000049602E+02 0.  0.
         12    1    1    2    0    0 -0.25537088372E+02  0.27118014633E+02  0.22273139191E+02  0.43400718077E+02  0.00000000000E+00 0. -1.
         11    1    3    3    0    0  0.21170873551E+02 -0.21883900685E+02 -0.17006796239E+02  0.34876096609E+02  0.51100000000E-03 0.  1.
        -11    1    3    3    0    0  0.32018283857E+01 -0.37792479110E+01  0.20504303678E+01  0.53608473900E+01  0.51100000000E-03 0. -1.
         12    1    3    3    0    0  0.11643864351E+01 -0.14548660364E+01 -0.73167733201E+01  0.75503379243E+01  0.00000000000E+00 0. -1.
</event>
<event>
 7    1  0.5022032E-011  0.4778726E+02  0.7816164E-02  0.1312668E+00
        -11   -1    0    0    0    0  0.00000000000E+00  0.00000000000E+00  0.45593999997E+02  0.45594000000E+02  0.51100000000E-03 0. -1.
         11   -1    0    0    0    0 -0.00000000000E+00 -0.00000000000E+00 -0.45593999997E+02  0.45594000000E+02  0.51100000000E-03 0.  1.
    9900012    2    1    2    0    0 -0.27726805152E+02  0.16197106395E+01 -0.33350032605E+02  0.47787264278E+02  0.19999969148E+02 0.  0.
         12    1    1    2    0    0  0.27726805152E+02 -0.16197106395E+01  0.33350032605E+02  0.43400735722E+02  0.00000000000E+00 0. -1.
         11    1    3    3    0    0 -0.15504508416E+02  0.10906843164E+01 -0.17053072694E+02  0.23073505631E+02  0.51100000000E-03 0. -1.
        -11    1    3    3    0    0 -0.13109864620E+02 -0.35573708976E+01 -0.15210589588E+02  0.20393270310E+02  0.51100000000E-03 0.  1.
         12    1    3    3    0    0  0.88756788438E+00  0.40863972207E+01 -0.10863703228E+01  0.43204883373E+01  0.00000000000E+00 0. -1.
</event>
<event>
 7    1  0.5022032E-011  0.4778727E+02  0.7816164E-02  0.1312668E+00
        -11   -1    0    0    0    0  0.00000000000E+00  0.00000000000E+00  0.45593999997E+02  0.45594000000E+02  0.51100000000E-03 0. -1.
         11   -1    0    0    0    0 -0.00000000000E+00 -0.00000000000E+00 -0.45593999997E+02  0.45594000000E+02  0.51100000000E-03 0.  1.
    9900012    2    1    2    0    0  0.12062776877E+02  0.19930868548E+02 -0.36617933382E+02  0.47787272446E+02  0.20000006391E+02 0.  0.
         12    1    1    2    0    0 -0.12062776877E+02 -0.19930868548E+02  0.36617933382E+02  0.43400727554E+02  0.00000000000E+00 0. -1.
         11    1    3    3    0    0  0.88385493414E+00 -0.14838801803E+01 -0.11554765297E+00  0.17310261279E+01  0.51100000000E-03 0. -1.
        -11    1    3    3    0    0  0.12975870155E+02  0.96215158420E+01 -0.20756224235E+02  0.26301475589E+02  0.51100000000E-03 0.  1.
         12    1    3    3    0    0 -0.17969482125E+01  0.11793232886E+02 -0.15746161494E+02  0.19754770729E+02  0.00000000000E+00 0. -1.
</event>
<event>
 7    1  0.5022032E-011  0.4778727E+02  0.7816164E-02  0.1312668E+00
        -11   -1    0    0    0    0  0.00000000000E+00  0.00000000000E+00  0.45593999997E+02  0.45594000000E+02  0.51100000000E-03 0. -1.
         11   -1    0    0    0    0 -0.00000000000E+00 -0.00000000000E+00 -0.45593999997E+02  0.45594000000E+02  0.51100000000E-03 0.  1.
    9900012    2    1    2    0    0  0.50436450766E+01 -0.88684776274E+01 -0.42184535364E+02  0.47787271031E+02  0.19999999941E+02 0.  0.
         12    1    1    2    0    0 -0.50436450766E+01  0.88684776274E+01  0.42184535364E+02  0.43400728969E+02  0.00000000000E+00 0. -1.
         11    1    3    3    0    0 -0.10938413459E+01 -0.11628926215E+02 -0.33108272795E+02  0.35108206185E+02  0.51100000000E-03 0.  1.
        -11    1    3    3    0    0  0.12277783713E+01 -0.17803943255E+01 -0.20793683010E+01  0.30001694078E+01  0.51100000000E-03 0. -1.
        -12    1    3    3    0    0  0.49097080511E+01  0.45408429132E+01 -0.69968942689E+01  0.96788954390E+01  0.00000000000E+00 0.  1.
</event>
<event>
 7    1  0.5022032E-011  0.4778727E+02  0.7816164E-02  0.1312668E+00
        -11   -1    0    0    0    0  0.00000000000E+00  0.00000000000E+00  0.45593999997E+02  0.45594000000E+02  0.51100000000E-03 0.  1.
         11   -1    0    0    0    0 -0.00000000000E+00 -0.00000000000E+00 -0.45593999997E+02  0.45594000000E+02  0.51100000000E-03 0. -1.
    9900012    2    1    2    0    0 -0.36644477925E+02  0.21684545547E+02  0.84015467011E+01  0.47787271147E+02  0.20000000469E+02 0.  0.
        -12    1    1    2    0    0  0.36644477925E+02 -0.21684545547E+02 -0.84015467011E+01  0.43400728853E+02  0.00000000000E+00 0.  1.
         11    1    3    3    0    0 -0.18113065987E+02  0.82186332840E+01  0.11745203720E+02  0.23099326900E+02  0.51100000000E-03 0. -1.
        -11    1    3    3    0    0 -0.20798182121E+01 -0.10322567490E+01 -0.13088932582E+01  0.26654079638E+01  0.51100000000E-03 0.  1.
        -12    1    3    3    0    0 -0.16451593726E+02  0.14498169012E+02 -0.20347637611E+01  0.22022536284E+02  0.00000000000E+00 0.  1.
</event>
<event>
 7    1  0.5022032E-011  0.4778727E+02  0.7816164E-02  0.1312668E+00
        -11   -1    0    0    0    0  0.00000000000E+00  0.00000000000E+00  0.45593999997E+02  0.45594000000E+02  0.51100000000E-03 0. -1.
         11   -1    0    0    0    0 -0.00000000000E+00 -0.00000000000E+00 -0.45593999997E+02  0.45594000000E+02  0.51100000000E-03 0.  1.
    9900012    2    1    2    0    0 -0.30038577513E+02  0.16118685418E+02  0.26860662437E+02  0.47787270223E+02  0.19999996256E+02 0.  0.
        -12    1    1    2    0    0  0.30038577513E+02 -0.16118685418E+02 -0.26860662437E+02  0.43400729777E+02  0.00000000000E+00 0.  1.
         11    1    3    3    0    0 -0.86185904028E+00  0.24581048537E+01 -0.98747769461E+00  0.27857122852E+01  0.51100000000E-03 0. -1.
        -11    1    3    3    0    0 -0.10751793553E+02  0.27373263560E+01  0.17385252957E+01  0.11230159867E+02  0.51100000000E-03 0.  1.
         12    1    3    3    0    0 -0.18424924920E+02  0.10923254208E+02  0.26109614836E+02  0.33771398071E+02  0.00000000000E+00 0. -1.
</event>
<event>
 7    1  0.5022032E-011  0.4778727E+02  0.7816164E-02  0.1312668E+00
        -11   -1    0    0    0    0  0.00000000000E+00  0.00000000000E+00  0.45593999997E+02  0.45594000000E+02  0.51100000000E-03 0. -1.
         11   -1    0    0    0    0 -0.00000000000E+00 -0.00000000000E+00 -0.45593999997E+02  0.45594000000E+02  0.51100000000E-03 0.  1.
    9900012    2    1    2    0    0 -0.10667491493E+02 -0.28048004521E+02  0.31355021975E+02  0.47787270335E+02  0.19999996766E+02 0.  0.
        -12    1    1    2    0    0  0.10667491493E+02  0.28048004521E+02 -0.31355021975E+02  0.43400729665E+02  0.00000000000E+00 0.  1.
         11    1    3    3    0    0  0.61763650076E+00  0.87977787875E+00  0.23437683814E+01  0.25785140003E+01  0.51100000000E-03 0.  1.
        -11    1    3    3    0    0  0.22309388305E+01 -0.93869768004E+01  0.14341949690E+02  0.17285367879E+02  0.51100000000E-03 0. -1.
         12    1    3    3    0    0 -0.13516066824E+02 -0.19540805599E+02  0.14669303904E+02  0.27923388456E+02  0.00000000000E+00 0. -1.
</event>
<event>
 7    1  0.5022032E-011  0.4778727E+02  0.7816164E-02  0.1312668E+00
        -11   -1    0    0    0    0  0.00000000000E+00  0.00000000000E+00  0.45593999997E+02  0.45594000000E+02  0.51100000000E-03 0. -1.
         11   -1    0    0    0    0 -0.00000000000E+00 -0.00000000000E+00 -0.45593999997E+02  0.45594000000E+02  0.51100000000E-03 0.  1.
    9900012    2    1    2    0    0 -0.38479643754E+02 -0.12298049738E+02  0.15864996191E+02  0.47787272875E+02  0.20000008348E+02 0.  0.
        -12    1    1    2    0    0  0.38479643754E+02  0.12298049738E+02 -0.15864996191E+02  0.43400727125E+02  0.00000000000E+00 0.  1.
         11    1    3    3    0    0 -0.27880495127E+02 -0.13818796079E+01  0.88562339186E+01  0.29285909227E+02  0.51100000000E-03 0. -1.
        -11    1    3    3    0    0 -0.78692752988E+00  0.21310769234E+00  0.30331821378E+01  0.31408380996E+01  0.51100000000E-03 0.  1.
         12    1    3    3    0    0 -0.98122210969E+01 -0.11129277823E+02  0.39755801348E+01  0.15360525548E+02  0.00000000000E+00 0. -1.
</event>
<event>
 7    1  0.5022032E-011  0.4778734E+02  0.7816164E-02  0.1312667E+00
        -11   -1    0    0    0    0  0.00000000000E+00  0.00000000000E+00  0.45593999997E+02  0.45594000000E+02  0.51100000000E-03 0.  1.
         11   -1    0    0    0    0 -0.00000000000E+00 -0.00000000000E+00 -0.45593999997E+02  0.45594000000E+02  0.51100000000E-03 0. -1.
    9900012    2    1    2    0    0 -0.37182277065E+02  0.21466523584E+02  0.63469857057E+01  0.47787336525E+02  0.20000298549E+02 0.  0.
        -12    1    1    2    0    0  0.37182277065E+02 -0.21466523584E+02 -0.63469857057E+01  0.43400663475E+02  0.00000000000E+00 0.  1.
         11    1    3    3    0    0 -0.19524958142E+02  0.99204313288E+01 -0.24468403376E+00  0.21902027731E+02  0.51100000000E-03 0. -1.
        -11    1    3    3    0    0 -0.14811712291E+02  0.10414991172E+02 -0.54958622413E+00  0.18115212044E+02  0.51100000000E-03 0.  1.
        -12    1    3    3    0    0 -0.28456066314E+01  0.11311010835E+01  0.71412559636E+01  0.77700967497E+01  0.00000000000E+00 0.  1.
</event>
<event>
 7    1  0.5022032E-011  0.4778727E+02  0.7816164E-02  0.1312668E+00
        -11   -1    0    0    0    0  0.00000000000E+00  0.00000000000E+00  0.45593999997E+02  0.45594000000E+02  0.51100000000E-03 0. -1.
         11   -1    0    0    0    0 -0.00000000000E+00 -0.00000000000E+00 -0.45593999997E+02  0.45594000000E+02  0.51100000000E-03 0.  1.
    9900012    2    1    2    0    0 -0.18038595356E+01  0.39324587289E+02  0.18274188125E+02  0.47787273897E+02  0.20000013004E+02 0.  0.
        -12    1    1    2    0    0  0.18038595356E+01 -0.39324587289E+02 -0.18274188125E+02  0.43400726103E+02  0.00000000000E+00 0.  1.
         11    1    3    3    0    0 -0.16844178529E+01  0.12545982995E+02  0.12120927228E+02  0.17525861747E+02  0.51100000000E-03 0. -1.
        -11    1    3    3    0    0  0.41261152739E+01  0.49093075289E+01  0.46725671303E+01  0.79346714812E+01  0.51100000000E-03 0.  1.
         12    1    3    3    0    0 -0.42455569565E+01  0.21869296765E+02  0.14806937662E+01  0.22326740669E+02  0.00000000000E+00 0. -1.
</event>
<event>
 7    1  0.5022032E-011  0.4778727E+02  0.7816164E-02  0.1312668E+00
        -11   -1    0    0    0    0  0.00000000000E+00  0.00000000000E+00  0.45593999997E+02  0.45594000000E+02  0.51100000000E-03 0. -1.
         11   -1    0    0    0    0 -0.00000000000E+00 -0.00000000000E+00 -0.45593999997E+02  0.45594000000E+02  0.51100000000E-03 0.  1.
    9900012    2    1    2    0    0  0.53302193319E+01 -0.31266180679E+02  0.29624953319E+02  0.47787272454E+02  0.20000006427E+02 0.  0.
        -12    1    1    2    0    0 -0.53302193319E+01  0.31266180679E+02 -0.29624953319E+02  0.43400727546E+02  0.00000000000E+00 0.  1.
         11    1    3    3    0    0  0.15667923909E+01 -0.30891851588E+01  0.11081755606E+02  0.11610478497E+02  0.51100000000E-03 0. -1.
        -11    1    3    3    0    0  0.13288495240E+01 -0.82573786498E+01  0.12823288649E+02  0.15309698732E+02  0.51100000000E-03 0.  1.
        -12    1    3    3    0    0  0.24345774170E+01 -0.19919616870E+02  0.57199090637E+01  0.20867095225E+02  0.00000000000E+00 0.  1.
</event>
<event>
 7    1  0.5022032E-011  0.4778727E+02  0.7816164E-02  0.1312668E+00
        -11   -1    0    0    0    0  0.00000000000E+00  0.00000000000E+00  0.45593999997E+02  0.45594000000E+02  0.51100000000E-03 0. -1.
         11   -1    0    0    0    0 -0.00000000000E+00 -0.00000000000E+00 -0.45593999997E+02  0.45594000000E+02  0.51100000000E-03 0.  1.
    9900012    2    1    2    0    0 -0.40749622488E+02  0.14737466899E+02  0.24287435206E+01  0.47787268916E+02  0.19999990297E+02 0.  0.
         12    1    1    2    0    0  0.40749622488E+02 -0.14737466899E+02 -0.24287435206E+01  0.43400731084E+02  0.00000000000E+00 0. -1.
         11    1    3    3    0    0 -0.21684162982E+01  0.26068475553E+01  0.41389761412E+01  0.53505894234E+01  0.51100000000E-03 0. -1.
        -11    1    3    3    0    0 -0.46686478349E+01  0.63402344750E+01  0.94924659027E+00  0.79306944939E+01  0.51100000000E-03 0.  1.
         12    1    3    3    0    0 -0.33912558355E+02  0.57903848687E+01 -0.26594792109E+01  0.34505984999E+02  0.00000000000E+00 0. -1.
</event>
<event>
 7    1  0.5022032E-011  0.4778727E+02  0.7816164E-02  0.1312668E+00
        -11   -1    0    0    0    0  0.00000000000E+00  0.00000000000E+00  0.45593999997E+02  0.45594000000E+02  0.51100000000E-03 0. -1.
         11   -1    0    0    0    0 -0.00000000000E+00 -0.00000000000E+00 -0.45593999997E+02  0.45594000000E+02  0.51100000000E-03 0.  1.
    9900012    2    1    2    0    0  0.18884615912E+00  0.20718886194E+02 -0.38135490666E+02  0.47787267791E+02  0.19999985166E+02 0.  0.
         12    1    1    2    0    0 -0.18884615912E+00 -0.20718886194E+02  0.38135490666E+02  0.43400732209E+02  0.00000000000E+00 0. -1.
         11    1    3    3    0    0 -0.57723297967E+01  0.16582967933E+02 -0.22564186713E+02  0.28591207373E+02  0.51100000000E-03 0. -1.
        -11    1    3    3    0    0 -0.78641165492E-01  0.11368089268E+01 -0.10977722962E+02  0.11036707872E+02  0.51100000000E-03 0.  1.
         12    1    3    3    0    0  0.60398171213E+01  0.29991093336E+01 -0.45935809912E+01  0.81593525464E+01  0.00000000000E+00 0. -1.
</event>
<event>
 7    1  0.5022032E-011  0.4778727E+02  0.7816164E-02  0.1312668E+00
        -11   -1    0    0    0    0  0.00000000000E+00  0.00000000000E+00  0.45593999997E+02  0.45594000000E+02  0.51100000000E-03 0.  1.
         11   -1    0    0    0    0 -0.00000000000E+00 -0.00000000000E+00 -0.45593999997E+02  0.45594000000E+02  0.51100000000E-03 0. -1.
    9900012    2    1    2    0    0  0.38609639407E+02  0.68447639476E+01 -0.18602913875E+02  0.47787268977E+02  0.19999990574E+02 0.  0.
        -12    1    1    2    0    0 -0.38609639407E+02 -0.68447639476E+01  0.18602913875E+02  0.43400731023E+02  0.00000000000E+00 0.  1.
         11    1    3    3    0    0  0.84891110805E+01  0.45469992131E+01 -0.49057738410E+01  0.10807720667E+02  0.51100000000E-03 0. -1.
        -11    1    3    3    0    0  0.31626664276E+01  0.71517544182E+00  0.36509907377E+01  0.48829978981E+01  0.51100000000E-03 0.  1.
        -12    1    3    3    0    0  0.26957861899E+02  0.15825892927E+01 -0.17348130772E+02  0.32096550412E+02  0.00000000000E+00 0.  1.
</event>
<event>
 7    1  0.5022032E-011  0.4778727E+02  0.7816164E-02  0.1312668E+00
        -11   -1    0    0    0    0  0.00000000000E+00  0.00000000000E+00  0.45593999997E+02  0.45594000000E+02  0.51100000000E-03 0. -1.
         11   -1    0    0    0    0 -0.00000000000E+00 -0.00000000000E+00 -0.45593999997E+02  0.45594000000E+02  0.51100000000E-03 0.  1.
    9900012    2    1    2    0    0  0.85888780879E+01 -0.58343745583E+01  0.42140414345E+02  0.47787271037E+02  0.19999999968E+02 0.  0.
        -12    1    1    2    0    0 -0.85888780879E+01  0.58343745583E+01 -0.42140414345E+02  0.43400728963E+02  0.00000000000E+00 0.  1.
         11    1    3    3    0    0  0.82195256589E+01  0.25690126164E+01  0.21010777558E+02  0.22707117865E+02  0.51100000000E-03 0. -1.
        -11    1    3    3    0    0  0.37857146647E+01 -0.31156690646E+01  0.16641497544E+02  0.17348731078E+02  0.51100000000E-03 0.  1.
        -12    1    3    3    0    0 -0.34163622357E+01 -0.52877181101E+01  0.44881392430E+01  0.77314220944E+01  0.00000000000E+00 0.  1.
</event>
<event>
 7    1  0.5022032E-011  0.4778728E+02  0.7816164E-02  0.1312668E+00
        -11   -1    0    0    0    0  0.00000000000E+00  0.00000000000E+00  0.45593999997E+02  0.45594000000E+02  0.51100000000E-03 0. -1.
         11   -1    0    0    0    0 -0.00000000000E+00 -0.00000000000E+00 -0.45593999997E+02  0.45594000000E+02  0.51100000000E-03 0.  1.
    9900012    2    1    2    0    0  0.16280679668E+02  0.22831057034E+02  0.33125585463E+02  0.47787284476E+02  0.20000061239E+02 0.  0.
        -12    1    1    2    0    0 -0.16280679668E+02 -0.22831057034E+02 -0.33125585463E+02  0.43400715524E+02  0.00000000000E+00 0.  1.
         11    1    3    3    0    0  0.15148365436E+02  0.14118601478E+02  0.20760352976E+02  0.29322348798E+02  0.51100000000E-03 0. -1.
        -11    1    3    3    0    0  0.39797505707E+01  0.43807509383E+01  0.10393540868E+01  0.60091305999E+01  0.51100000000E-03 0.  1.
         12    1    3    3    0    0 -0.28474363391E+01  0.43317046175E+01  0.11325878401E+02  0.12455805078E+02  0.00000000000E+00 0. -1.
</event>
<event>
 7    1  0.5022032E-011  0.4778727E+02  0.7816164E-02  0.1312668E+00
        -11   -1    0    0    0    0  0.00000000000E+00  0.00000000000E+00  0.45593999997E+02  0.45594000000E+02  0.51100000000E-03 0. -1.
         11   -1    0    0    0    0 -0.00000000000E+00 -0.00000000000E+00 -0.45593999997E+02  0.45594000000E+02  0.51100000000E-03 0.  1.
    9900012    2    1    2    0    0  0.22034966526E+02 -0.30150881542E+02  0.22113522330E+02  0.47787271004E+02  0.19999999815E+02 0.  0.
        -12    1    1    2    0    0 -0.22034966526E+02  0.30150881542E+02 -0.22113522330E+02  0.43400728996E+02  0.00000000000E+00 0.  1.
         11    1    3    3    0    0  0.13577014264E+01 -0.69404133332E+01 -0.22529979897E+00  0.70755530285E+01  0.51100000000E-03 0.  1.
        -11    1    3    3    0    0  0.70564015541E+00 -0.93629467122E+01  0.37320135801E+01  0.10103990538E+02  0.51100000000E-03 0. -1.
         12    1    3    3    0    0  0.19971624944E+02 -0.13847521496E+02  0.18606808549E+02  0.30607727437E+02  0.00000000000E+00 0. -1.
</event>
<event>
 7    1  0.5022032E-011  0.4778727E+02  0.7816164E-02  0.1312668E+00
        -11   -1    0    0    0    0  0.00000000000E+00  0.00000000000E+00  0.45593999997E+02  0.45594000000E+02  0.51100000000E-03 0. -1.
         11   -1    0    0    0    0 -0.00000000000E+00 -0.00000000000E+00 -0.45593999997E+02  0.45594000000E+02  0.51100000000E-03 0.  1.
    9900012    2    1    2    0    0  0.11018064392E+02  0.20216733905E+02  0.36790069523E+02  0.47787270879E+02  0.19999999244E+02 0.  0.
        -12    1    1    2    0    0 -0.11018064392E+02 -0.20216733905E+02 -0.36790069523E+02  0.43400729121E+02  0.00000000000E+00 0.  1.
         11    1    3    3    0    0  0.93958165684E+01  0.71216901335E+01  0.21601041445E+02  0.24609039622E+02  0.51100000000E-03 0. -1.
        -11    1    3    3    0    0  0.14021731614E+01  0.41581170323E+00  0.89071714063E+01  0.90264440213E+01  0.51100000000E-03 0.  1.
        -12    1    3    3    0    0  0.22007466229E+00  0.12679232069E+02  0.62818566714E+01  0.14151787235E+02  0.00000000000E+00 0.  1.
</event>
<event>
 7    1  0.5022032E-011  0.4778727E+02  0.7816164E-02  0.1312668E+00
        -11   -1    0    0    0    0  0.00000000000E+00  0.00000000000E+00  0.45593999997E+02  0.45594000000E+02  0.51100000000E-03 0. -1.
         11   -1    0    0    0    0 -0.00000000000E+00 -0.00000000000E+00 -0.45593999997E+02  0.45594000000E+02  0.51100000000E-03 0.  1.
    9900012    2    1    2    0    0 -0.81355561083E+01  0.23721140879E+02  0.35422359440E+02  0.47787270213E+02  0.19999996208E+02 0.  0.
        -12    1    1    2    0    0  0.81355561083E+01 -0.23721140879E+02 -0.35422359440E+02  0.43400729787E+02  0.00000000000E+00 0.  1.
         11    1    3    3    0    0  0.16585460633E+01 -0.73624089083E-01  0.99917892218E+00  0.19376672393E+01  0.51100000000E-03 0. -1.
        -11    1    3    3    0    0 -0.47484471610E+01  0.67726228997E+01  0.14459561684E+01  0.83968423163E+01  0.51100000000E-03 0.  1.
         12    1    3    3    0    0 -0.50456550106E+01  0.17022142068E+02  0.32977224349E+02  0.37452760657E+02  0.00000000000E+00 0. -1.
</event>
<event>
 7    1  0.5022032E-011  0.4778727E+02  0.7816164E-02  0.1312668E+00
        -11   -1    0    0    0    0  0.00000000000E+00  0.00000000000E+00  0.45593999997E+02  0.45594000000E+02  0.51100000000E-03 0. -1.
         11   -1    0    0    0    0 -0.00000000000E+00 -0.00000000000E+00 -0.45593999997E+02  0.45594000000E+02  0.51100000000E-03 0.  1.
    9900012    2    1    2    0    0  0.11342019033E+02 -0.16089904458E+02 -0.38679407840E+02  0.47787274061E+02  0.20000013753E+02 0.  0.
         12    1    1    2    0    0 -0.11342019033E+02  0.16089904458E+02  0.38679407840E+02  0.43400725939E+02  0.00000000000E+00 0. -1.
         11    1    3    3    0    0 -0.49591759508E+00  0.33433352106E+00 -0.24618416830E+01  0.25334517753E+01  0.51100000000E-03 0. -1.
        -11    1    3    3    0    0 -0.19872922573E+00  0.35459382315E+00 -0.17126257831E+02  0.17131081041E+02  0.51100000000E-03 0.  1.
         12    1    3    3    0    0  0.12036665854E+02 -0.16778831802E+02 -0.19091308326E+02  0.28122741244E+02  0.00000000000E+00 0. -1.
</event>
<event>
 7    1  0.5022032E-011  0.4778727E+02  0.7816164E-02  0.1312668E+00
        -11   -1    0    0    0    0  0.00000000000E+00  0.00000000000E+00  0.45593999997E+02  0.45594000000E+02  0.51100000000E-03 0. -1.
         11   -1    0    0    0    0 -0.00000000000E+00 -0.00000000000E+00 -0.45593999997E+02  0.45594000000E+02  0.51100000000E-03 0.  1.
    9900012    2    1    2    0    0 -0.13700902505E+02  0.88364199271E+01  0.40222207321E+02  0.47787274103E+02  0.20000013945E+02 0.  0.
        -12    1    1    2    0    0  0.13700902505E+02 -0.88364199271E+01 -0.40222207321E+02  0.43400725897E+02  0.00000000000E+00 0.  1.
         11    1    3    3    0    0 -0.79589912974E+01  0.42604772302E+00  0.18807189043E+02  0.20426390261E+02  0.51100000000E-03 0. -1.
        -11    1    3    3    0    0 -0.80204843510E+01  0.99117949104E+01  0.21046343966E+02  0.24607324970E+02  0.51100000000E-03 0.  1.
         12    1    3    3    0    0  0.22785731435E+01 -0.15014227063E+01  0.36867431209E+00  0.27535588720E+01  0.00000000000E+00 0. -1.
</event>
<event>
 7    1  0.5022032E-011  0.4778727E+02  0.7816164E-02  0.1312668E+00
        -11   -1    0    0    0    0  0.00000000000E+00  0.00000000000E+00  0.45593999997E+02  0.45594000000E+02  0.51100000000E-03 0.  1.
         11   -1    0    0    0    0 -0.00000000000E+00 -0.00000000000E+00 -0.45593999997E+02  0.45594000000E+02  0.51100000000E-03 0. -1.
    9900012    2    1    2    0    0 -0.92299390898E+01 -0.40607792660E+02 -0.12224510611E+02  0.47787271204E+02  0.20000000727E+02 0.  0.
         12    1    1    2    0    0  0.92299390898E+01  0.40607792660E+02  0.12224510611E+02  0.43400728796E+02  0.00000000000E+00 0. -1.
         11    1    3    3    0    0 -0.31921626245E+01 -0.14868636312E+02 -0.69615476786E+01  0.16725112685E+02  0.51100000000E-03 0. -1.
        -11    1    3    3    0    0  0.30618327201E+01 -0.53612016267E+01 -0.61672131376E+01  0.87265010533E+01  0.51100000000E-03 0.  1.
         12    1    3    3    0    0 -0.90996091853E+01 -0.20377954722E+02  0.90425020466E+00  0.22335657465E+02  0.00000000000E+00 0. -1.
</event>
<event>
 7    1  0.5022032E-011  0.4778727E+02  0.7816164E-02  0.1312668E+00
        -11   -1    0    0    0    0  0.00000000000E+00  0.00000000000E+00  0.45593999997E+02  0.45594000000E+02  0.51100000000E-03 0.  1.
         11   -1    0    0    0    0 -0.00000000000E+00 -0.00000000000E+00 -0.45593999997E+02  0.45594000000E+02  0.51100000000E-03 0. -1.
    9900012    2    1    2    0    0 -0.35205503185E+02  0.12471023151E+02 -0.22105867992E+02  0.47787271058E+02  0.20000000063E+02 0.  0.
         12    1    1    2    0    0  0.35205503185E+02 -0.12471023151E+02  0.22105867992E+02  0.43400728942E+02  0.00000000000E+00 0. -1.
         11    1    3    3    0    0 -0.87857099453E+01  0.91094034088E+01 -0.42828619547E+01  0.13360869601E+02  0.51100000000E-03 0.  1.
        -11    1    3    3    0    0 -0.44395343909E+01 -0.20243104588E+01  0.10121933668E+01  0.49831550362E+01  0.51100000000E-03 0. -1.
         12    1    3    3    0    0 -0.21980258849E+02  0.53859302010E+01 -0.18835199405E+02  0.29443246421E+02  0.00000000000E+00 0. -1.
</event>
<event>
 7    1  0.5022032E-011  0.4778728E+02  0.7816164E-02  0.1312668E+00
        -11   -1    0    0    0    0  0.00000000000E+00  0.00000000000E+00  0.45593999997E+02  0.45594000000E+02  0.51100000000E-03 0. -1.
         11   -1    0    0    0    0 -0.00000000000E+00 -0.00000000000E+00 -0.45593999997E+02  0.45594000000E+02  0.51100000000E-03 0.  1.
    9900012    2    1    2    0    0  0.78463477563E+01  0.20792377307E+00 -0.42685061173E+02  0.47787275896E+02  0.20000022120E+02 0.  0.
         12    1    1    2    0    0 -0.78463477563E+01 -0.20792377307E+00  0.42685061173E+02  0.43400724104E+02  0.00000000000E+00 0. -1.
         11    1    3    3    0    0  0.15959302793E+01  0.20719523945E+01 -0.20371452254E+02  0.20538647652E+02  0.51100000000E-03 0. -1.
        -11    1    3    3    0    0 -0.11649844622E+01 -0.29244963778E+01 -0.18642789683E+02  0.18906704507E+02  0.51100000000E-03 0.  1.
         12    1    3    3    0    0  0.74154019392E+01  0.10604677563E+01 -0.36708192361E+01  0.83419237377E+01  0.00000000000E+00 0. -1.
</event>
<event>
 7    1  0.5022032E-011  0.4778727E+02  0.7816164E-02  0.1312668E+00
        -11   -1    0    0    0    0  0.00000000000E+00  0.00000000000E+00  0.45593999997E+02  0.45594000000E+02  0.51100000000E-03 0.  1.
         11   -1    0    0    0    0 -0.00000000000E+00 -0.00000000000E+00 -0.45593999997E+02  0.45594000000E+02  0.51100000000E-03 0. -1.
    9900012    2    1    2    0    0  0.37800808351E+02 -0.11321449518E+02  0.18070608959E+02  0.47787271443E+02  0.20000001815E+02 0.  0.
        -12    1    1    2    0    0 -0.37800808351E+02  0.11321449518E+02 -0.18070608959E+02  0.43400728557E+02  0.00000000000E+00 0.  1.
         11    1    3    3    0    0  0.44313171217E+00  0.23108186613E+01  0.80632757101E+00  0.24872500905E+01  0.51100000000E-03 0. -1.
        -11    1    3    3    0    0  0.36139868492E+02 -0.13771667866E+02  0.19067357499E+02  0.43119752465E+02  0.51100000000E-03 0.  1.
         12    1    3    3    0    0  0.12178081470E+01  0.13939968668E+00 -0.18030761112E+01  0.21802688867E+01  0.00000000000E+00 0. -1.
</event>
<event>
 7    1  0.8828829E-011  0.4778727E+02  0.7816164E-02  0.1312668E+00
        -11   -1    0    0    0    0  0.00000000000E+00  0.00000000000E+00  0.45593999997E+02  0.45594000000E+02  0.51100000000E-03 0. -1.
         11   -1    0    0    0    0 -0.00000000000E+00 -0.00000000000E+00 -0.45593999997E+02  0.45594000000E+02  0.51100000000E-03 0.  1.
    9900012    2    1    2    0    0  0.11292911451E+02 -0.19293544502E+02 -0.37200171745E+02  0.47787268597E+02  0.19999988840E+02 0.  0.
         12    1    1    2    0    0 -0.11292911451E+02  0.19293544502E+02  0.37200171745E+02  0.43400731403E+02  0.00000000000E+00 0. -1.
         11    1    3    3    0    0  0.29414305530E+01  0.22560839792E+01 -0.51987047756E+00  0.37432865498E+01  0.51100000000E-03 0. -1.
        -11    1    3    3    0    0  0.83239376838E+01 -0.14073537151E+02 -0.20517394384E+02  0.26235774413E+02  0.51100000000E-03 0.  1.
        -12    1    3    3    0    0  0.27543214041E-01 -0.74760913308E+01 -0.16162906883E+02  0.17808207634E+02  0.00000000000E+00 0.  1.
</event>
<event>
 7    1  0.5022032E-011  0.4778726E+02  0.7816164E-02  0.1312668E+00
        -11   -1    0    0    0    0  0.00000000000E+00  0.00000000000E+00  0.45593999997E+02  0.45594000000E+02  0.51100000000E-03 0. -1.
         11   -1    0    0    0    0 -0.00000000000E+00 -0.00000000000E+00 -0.45593999997E+02  0.45594000000E+02  0.51100000000E-03 0.  1.
    9900012    2    1    2    0    0  0.18325201528E+02 -0.32012194745E+02 -0.22869859569E+02  0.47787261525E+02  0.19999956598E+02 0.  0.
         12    1    1    2    0    0 -0.18325201528E+02  0.32012194745E+02  0.22869859569E+02  0.43400738475E+02  0.00000000000E+00 0. -1.
         11    1    3    3    0    0  0.50519586105E+01 -0.91183054301E+00 -0.61094459807E+01  0.79799154878E+01  0.51100000000E-03 0. -1.
        -11    1    3    3    0    0  0.99611714271E+01 -0.14291023274E+02 -0.14220936650E+02  0.22487625972E+02  0.51100000000E-03 0.  1.
        -12    1    3    3    0    0  0.33120714908E+01 -0.16809340928E+02 -0.25394769383E+01  0.17319720065E+02  0.00000000000E+00 0.  1.
</event>
<event>
 7    1  0.5022032E-011  0.4778727E+02  0.7816164E-02  0.1312668E+00
        -11   -1    0    0    0    0  0.00000000000E+00  0.00000000000E+00  0.45593999997E+02  0.45594000000E+02  0.51100000000E-03 0.  1.
         11   -1    0    0    0    0 -0.00000000000E+00 -0.00000000000E+00 -0.45593999997E+02  0.45594000000E+02  0.51100000000E-03 0. -1.
    9900012    2    1    2    0    0  0.20746942934E+02  0.38046903925E+02  0.23707840894E+01  0.47787272396E+02  0.20000006162E+02 0.  0.
        -12    1    1    2    0    0 -0.20746942934E+02 -0.38046903925E+02 -0.23707840894E+01  0.43400727604E+02  0.00000000000E+00 0.  1.
         11    1    3    3    0    0  0.13888903971E+02  0.35814764678E+02  0.17213298376E+01  0.38452074055E+02  0.51100000000E-03 0. -1.
        -11    1    3    3    0    0  0.44948765227E+01  0.23581475447E+01 -0.22840624400E+01  0.55661221949E+01  0.51100000000E-03 0.  1.
         12    1    3    3    0    0  0.23631624405E+01 -0.12600829826E+00  0.29335166918E+01  0.37690761458E+01  0.00000000000E+00 0. -1.
</event>
<event>
 7    1  0.5022032E-011  0.4778727E+02  0.7816164E-02  0.1312668E+00
        -11   -1    0    0    0    0  0.00000000000E+00  0.00000000000E+00  0.45593999997E+02  0.45594000000E+02  0.51100000000E-03 0. -1.
         11   -1    0    0    0    0 -0.00000000000E+00 -0.00000000000E+00 -0.45593999997E+02  0.45594000000E+02  0.51100000000E-03 0.  1.
    9900012    2    1    2    0    0 -0.88198839720E+01 -0.20506995462E+02  0.37219564540E+02  0.47787271887E+02  0.20000003842E+02 0.  0.
        -12    1    1    2    0    0  0.88198839720E+01  0.20506995462E+02 -0.37219564540E+02  0.43400728113E+02  0.00000000000E+00 0.  1.
         11    1    3    3    0    0 -0.78368432838E+01 -0.75250759017E+01  0.19777239551E+02  0.22565063361E+02  0.51100000000E-03 0. -1.
        -11    1    3    3    0    0 -0.22646333950E+01  0.20695513282E+01  0.23076726265E+01  0.38388748776E+01  0.51100000000E-03 0.  1.
         12    1    3    3    0    0  0.12815927067E+01 -0.15051470888E+02  0.15134652363E+02  0.21383333648E+02  0.00000000000E+00 0. -1.
</event>
<event>
 7    1  0.5022032E-011  0.4778727E+02  0.7816164E-02  0.1312668E+00
        -11   -1    0    0    0    0  0.00000000000E+00  0.00000000000E+00  0.45593999997E+02  0.45594000000E+02  0.51100000000E-03 0. -1.
         11   -1    0    0    0    0 -0.00000000000E+00 -0.00000000000E+00 -0.45593999997E+02  0.45594000000E+02  0.51100000000E-03 0.  1.
    9900012    2    1    2    0    0  0.22187682245E+02  0.70606872157E+01  0.36626176958E+02  0.47787269754E+02  0.19999994116E+02 0.  0.
        -12    1    1    2    0    0 -0.22187682245E+02 -0.70606872157E+01 -0.36626176958E+02  0.43400730246E+02  0.00000000000E+00 0.  1.
         11    1    3    3    0    0  0.13646619653E+02  0.23344503648E+01  0.23322819053E+02  0.27122569481E+02  0.51100000000E-03 0. -1.
        -11    1    3    3    0    0  0.96840666024E+01  0.67572390159E+01  0.65130714556E+01  0.13485604366E+02  0.51100000000E-03 0.  1.
        -12    1    3    3    0    0 -0.11430040103E+01 -0.20310021650E+01  0.67902864497E+01  0.71790959062E+01  0.00000000000E+00 0.  1.
</event>
<event>
 7    1  0.5022032E-011  0.4778722E+02  0.7816164E-02  0.1312668E+00
        -11   -1    0    0    0    0  0.00000000000E+00  0.00000000000E+00  0.45593999997E+02  0.45594000000E+02  0.51100000000E-03 0. -1.
         11   -1    0    0    0    0 -0.00000000000E+00 -0.00000000000E+00 -0.45593999997E+02  0.45594000000E+02  0.51100000000E-03 0.  1.
    9900012    2    1    2    0    0 -0.38303984569E+02 -0.43945267219E+01  0.19927882944E+02  0.47787221003E+02  0.19999771839E+02 0.  0.
        -12    1    1    2    0    0  0.38303984569E+02  0.43945267219E+01 -0.19927882944E+02  0.43400778997E+02  0.00000000000E+00 0.  1.
         11    1    3    3    0    0 -0.15797869985E+02  0.55729626060E+01  0.15098378103E+02  0.22551976185E+02  0.51100000000E-03 0. -1.
        -11    1    3    3    0    0 -0.53680387268E+01 -0.20256385423E+01 -0.52472404870E-02  0.57375150606E+01  0.51100000000E-03 0.  1.
         12    1    3    3    0    0 -0.17138075857E+02 -0.79418507856E+01  0.48347520816E+01  0.19497729757E+02  0.00000000000E+00 0. -1.
</event>
<event>
 7    1  0.5022032E-011  0.4778727E+02  0.7816164E-02  0.1312668E+00
        -11   -1    0    0    0    0  0.00000000000E+00  0.00000000000E+00  0.45593999997E+02  0.45594000000E+02  0.51100000000E-03 0. -1.
         11   -1    0    0    0    0 -0.00000000000E+00 -0.00000000000E+00 -0.45593999997E+02  0.45594000000E+02  0.51100000000E-03 0.  1.
    9900012    2    1    2    0    0  0.28932275048E+02 -0.32296087383E+02  0.18732976675E+01  0.47787273694E+02  0.20000012082E+02 0.  0.
        -12    1    1    2    0    0 -0.28932275048E+02  0.32296087383E+02 -0.18732976675E+01  0.43400726306E+02  0.00000000000E+00 0.  1.
         11    1    3    3    0    0  0.21025625516E+01  0.15695481330E+01 -0.77890148086E+00  0.27369578738E+01  0.51100000000E-03 0. -1.
        -11    1    3    3    0    0  0.14389442183E+01 -0.15423435858E+00 -0.21315412400E+01  0.25763961302E+01  0.51100000000E-03 0.  1.
         12    1    3    3    0    0  0.25390768278E+02 -0.33711401157E+02  0.47837403883E+01  0.42473919690E+02  0.00000000000E+00 0. -1.
</event>
<event>
 7    1  0.5022032E-011  0.4778727E+02  0.7816164E-02  0.1312668E+00
        -11   -1    0    0    0    0  0.00000000000E+00  0.00000000000E+00  0.45593999997E+02  0.45594000000E+02  0.51100000000E-03 0. -1.
         11   -1    0    0    0    0 -0.00000000000E+00 -0.00000000000E+00 -0.45593999997E+02  0.45594000000E+02  0.51100000000E-03 0.  1.
    9900012    2    1    2    0    0  0.14835427722E+02  0.30085681781E+02 -0.27538796041E+02  0.47787269000E+02  0.19999990679E+02 0.  0.
         12    1    1    2    0    0 -0.14835427722E+02 -0.30085681781E+02  0.27538796041E+02  0.43400731000E+02  0.00000000000E+00 0. -1.
         11    1    3    3    0    0 -0.98235406379E+00  0.46780670992E+00  0.59245363918E+00  0.12388963638E+01  0.51100000000E-03 0. -1.
        -11    1    3    3    0    0 -0.42943325499E+00  0.39319555158E+01 -0.10933636644E+02  0.11627084657E+02  0.51100000000E-03 0.  1.
         12    1    3    3    0    0  0.16247215041E+02  0.25685919555E+02 -0.17197613036E+02  0.34921287979E+02  0.00000000000E+00 0. -1.
</event>
<event>
 7    1  0.5022032E-011  0.4778728E+02  0.7816164E-02  0.1312668E+00
        -11   -1    0    0    0    0  0.00000000000E+00  0.00000000000E+00  0.45593999997E+02  0.45594000000E+02  0.51100000000E-03 0. -1.
         11   -1    0    0    0    0 -0.00000000000E+00 -0.00000000000E+00 -0.45593999997E+02  0.45594000000E+02  0.51100000000E-03 0.  1.
    9900012    2    1    2    0    0 -0.17814788058E+01 -0.42379789334E+02 -0.91870840265E+01  0.47787277384E+02  0.20000028903E+02 0.  0.
         12    1    1    2    0    0  0.17814788058E+01  0.42379789334E+02  0.91870840265E+01  0.43400722616E+02  0.00000000000E+00 0. -1.
         11    1    3    3    0    0 -0.31234870883E+01 -0.82231320135E+01 -0.42724839185E+01  0.97790690148E+01  0.51100000000E-03 0. -1.
        -11    1    3    3    0    0 -0.36292018926E+01 -0.17377077158E+02  0.42494443814E+01  0.18253539239E+02  0.51100000000E-03 0.  1.
        -12    1    3    3    0    0  0.49712101751E+01 -0.16779580162E+02 -0.91640444895E+01  0.19754669130E+02  0.00000000000E+00 0.  1.
</event>
<event>
 7    1  0.5022032E-011  0.4778727E+02  0.7816164E-02  0.1312668E+00
        -11   -1    0    0    0    0  0.00000000000E+00  0.00000000000E+00  0.45593999997E+02  0.45594000000E+02  0.51100000000E-03 0. -1.
         11   -1    0    0    0    0 -0.00000000000E+00 -0.00000000000E+00 -0.45593999997E+02  0.45594000000E+02  0.51100000000E-03 0.  1.
    9900012    2    1    2    0    0  0.21926538337E+01  0.13920781389E+02  0.41049088814E+02  0.47787267543E+02  0.19999984035E+02 0.  0.
        -12    1    1    2    0    0 -0.21926538337E+01 -0.13920781389E+02 -0.41049088814E+02  0.43400732457E+02  0.00000000000E+00 0.  1.
         11    1    3    3    0    0  0.64991346035E+01 -0.26739394211E+00  0.12688340181E+02  0.14258479124E+02  0.51100000000E-03 0. -1.
        -11    1    3    3    0    0  0.29327743573E+01  0.27614218809E+01  0.40749184679E+01  0.57298845552E+01  0.51100000000E-03 0.  1.
         12    1    3    3    0    0 -0.72392551270E+01  0.11426753450E+02  0.24285830165E+02  0.27798903864E+02  0.00000000000E+00 0. -1.
</event>
<event>
 7    1  0.5022032E-011  0.4778728E+02  0.7816164E-02  0.1312668E+00
        -11   -1    0    0    0    0  0.00000000000E+00  0.00000000000E+00  0.45593999997E+02  0.45594000000E+02  0.51100000000E-03 0. -1.
         11   -1    0    0    0    0 -0.00000000000E+00 -0.00000000000E+00 -0.45593999997E+02  0.45594000000E+02  0.51100000000E-03 0.  1.
    9900012    2    1    2    0    0  0.45659726207E+01 -0.17472943350E+02  0.39464802948E+02  0.47787279649E+02  0.20000039230E+02 0.  0.
        -12    1    1    2    0    0 -0.45659726207E+01  0.17472943350E+02 -0.39464802948E+02  0.43400720351E+02  0.00000000000E+00 0.  1.
         11    1    3    3    0    0  0.25388090993E+01 -0.27401671894E+01  0.11163025394E+02  0.11771457177E+02  0.51100000000E-03 0. -1.
        -11    1    3    3    0    0 -0.48698481820E+01  0.75091888987E+00  0.94969294400E+01  0.10699110689E+02  0.51100000000E-03 0.  1.
        -12    1    3    3    0    0  0.68970117034E+01 -0.15483695051E+02  0.18804848114E+02  0.25316711782E+02  0.00000000000E+00 0.  1.
</event>
<event>
 7    1  0.5022032E-011  0.4778727E+02  0.7816164E-02  0.1312668E+00
        -11   -1    0    0    0    0  0.00000000000E+00  0.00000000000E+00  0.45593999997E+02  0.45594000000E+02  0.51100000000E-03 0.  1.
         11   -1    0    0    0    0 -0.00000000000E+00 -0.00000000000E+00 -0.45593999997E+02  0.45594000000E+02  0.51100000000E-03 0. -1.
    9900012    2    1    2    0    0  0.34377372337E+02 -0.26485743304E+02  0.57012883749E+00  0.47787269891E+02  0.19999994740E+02 0.  0.
        -12    1    1    2    0    0 -0.34377372337E+02  0.26485743304E+02 -0.57012883749E+00  0.43400730109E+02  0.00000000000E+00 0.  1.
         11    1    3    3    0    0  0.37038879124E+00 -0.20184572567E+01  0.44149015690E+00  0.20991120441E+01  0.51100000000E-03 0. -1.
        -11    1    3    3    0    0  0.42109388700E+01 -0.10087164545E+00  0.53889087033E+01  0.68397747426E+01  0.51100000000E-03 0.  1.
         12    1    3    3    0    0  0.29796044675E+02 -0.24366414402E+02 -0.52602700227E+01  0.38848383104E+02  0.00000000000E+00 0. -1.
</event>
<event>
 7    1  0.5022032E-011  0.4778727E+02  0.7816164E-02  0.1312668E+00
        -11   -1    0    0    0    0  0.00000000000E+00  0.00000000000E+00  0.45593999997E+02  0.45594000000E+02  0.51100000000E-03 0. -1.
         11   -1    0    0    0    0 -0.00000000000E+00 -0.00000000000E+00 -0.45593999997E+02  0.45594000000E+02  0.51100000000E-03 0.  1.
    9900012    2    1    2    0    0  0.79334511478E+01  0.23112620385E+02 -0.35867677180E+02  0.47787272650E+02  0.20000007321E+02 0.  0.
         12    1    1    2    0    0 -0.79334511478E+01 -0.23112620385E+02  0.35867677180E+02  0.43400727350E+02  0.00000000000E+00 0. -1.
         11    1    3    3    0    0 -0.14244031830E+01  0.18872346608E+02 -0.30588781060E+02  0.35970375560E+02  0.51100000000E-03 0. -1.
        -11    1    3    3    0    0  0.26850848461E+01  0.16391758883E+01 -0.28769516464E+01  0.42630305254E+01  0.51100000000E-03 0.  1.
         12    1    3    3    0    0  0.66727694848E+01  0.26010978894E+01 -0.24019444738E+01  0.75538665650E+01  0.00000000000E+00 0. -1.
</event>
<event>
 7    1  0.5022032E-011  0.4778727E+02  0.7816164E-02  0.1312668E+00
        -11   -1    0    0    0    0  0.00000000000E+00  0.00000000000E+00  0.45593999997E+02  0.45594000000E+02  0.51100000000E-03 0. -1.
         11   -1    0    0    0    0 -0.00000000000E+00 -0.00000000000E+00 -0.45593999997E+02  0.45594000000E+02  0.51100000000E-03 0.  1.
    9900012    2    1    2    0    0  0.10308323850E+01  0.67935646512E+01 -0.42853334000E+02  0.47787269925E+02  0.19999994898E+02 0.  0.
         12    1    1    2    0    0 -0.10308323850E+01 -0.67935646512E+01  0.42853334000E+02  0.43400730075E+02  0.00000000000E+00 0. -1.
         11    1    3    3    0    0  0.78817299673E+01  0.13991435728E+01 -0.21034451485E+02  0.22506164035E+02  0.51100000000E-03 0. -1.
        -11    1    3    3    0    0  0.22372776522E+01  0.35459092310E+00 -0.53201281476E+01  0.57822927791E+01  0.51100000000E-03 0.  1.
        -12    1    3    3    0    0 -0.90881752344E+01  0.50398301554E+01 -0.16498754367E+02  0.19498813112E+02  0.00000000000E+00 0.  1.
</event>
<event>
 7    1  0.5022032E-011  0.4778727E+02  0.7816164E-02  0.1312668E+00
        -11   -1    0    0    0    0  0.00000000000E+00  0.00000000000E+00  0.45593999997E+02  0.45594000000E+02  0.51100000000E-03 0. -1.
         11   -1    0    0    0    0 -0.00000000000E+00 -0.00000000000E+00 -0.45593999997E+02  0.45594000000E+02  0.51100000000E-03 0.  1.
    9900012    2    1    2    0    0 -0.13621266531E+02  0.12141237357E+02  0.39378606281E+02  0.47787272137E+02  0.20000004980E+02 0.  0.
        -12    1    1    2    0    0  0.13621266531E+02 -0.12141237357E+02 -0.39378606281E+02  0.43400727863E+02  0.00000000000E+00 0.  1.
         11    1    3    3    0    0 -0.25675401833E+01  0.66336646202E+01  0.21017173256E+02  0.22188270343E+02  0.51100000000E-03 0. -1.
        -11    1    3    3    0    0  0.13323952790E-01  0.60056614673E+01  0.10208577229E+02  0.11844120756E+02  0.51100000000E-03 0.  1.
        -12    1    3    3    0    0 -0.11067050300E+02 -0.49808873028E+00  0.81528557960E+01  0.13754881038E+02  0.00000000000E+00 0.  1.
</event>
<event>
 7    1  0.5022032E-011  0.4778721E+02  0.7816164E-02  0.1312668E+00
        -11   -1    0    0    0    0  0.00000000000E+00  0.00000000000E+00  0.45593999997E+02  0.45594000000E+02  0.51100000000E-03 0. -1.
         11   -1    0    0    0    0 -0.00000000000E+00 -0.00000000000E+00 -0.45593999997E+02  0.45594000000E+02  0.51100000000E-03 0.  1.
    9900012    2    1    2    0    0  0.16672996914E+02 -0.13922706172E+02 -0.37573897204E+02  0.47787212860E+02  0.19999734714E+02 0.  0.
         12    1    1    2    0    0 -0.16672996914E+02  0.13922706172E+02  0.37573897204E+02  0.43400787140E+02  0.00000000000E+00 0. -1.
         11    1    3    3    0    0  0.10937676894E+02 -0.78423963748E+01 -0.17916227961E+02  0.22408194513E+02  0.51100000000E-03 0.  1.
        -11    1    3    3    0    0  0.77616302127E+01 -0.93372490577E+01 -0.13847387876E+02  0.18416766132E+02  0.51100000000E-03 0. -1.
         12    1    3    3    0    0 -0.20263101920E+01  0.32569392607E+01 -0.58102813670E+01  0.69622522150E+01  0.00000000000E+00 0. -1.
</event>
<event>
 7    1  0.5022032E-011  0.4778727E+02  0.7816164E-02  0.1312668E+00
        -11   -1    0    0    0    0  0.00000000000E+00  0.00000000000E+00  0.45593999997E+02  0.45594000000E+02  0.51100000000E-03 0. -1.
         11   -1    0    0    0    0 -0.00000000000E+00 -0.00000000000E+00 -0.45593999997E+02  0.45594000000E+02  0.51100000000E-03 0.  1.
    9900012    2    1    2    0    0 -0.18267837293E+02  0.31650119061E+01  0.39241459983E+02  0.47787270037E+02  0.19999995407E+02 0.  0.
        -12    1    1    2    0    0  0.18267837293E+02 -0.31650119061E+01 -0.39241459983E+02  0.43400729963E+02  0.00000000000E+00 0.  1.
         11    1    3    3    0    0 -0.14714428077E+02 -0.40630097139E+00  0.22553774122E+02  0.26932363460E+02  0.51100000000E-03 0. -1.
        -11    1    3    3    0    0 -0.17757417129E+01 -0.41348243427E+01  0.48257708796E+01  0.65983403837E+01  0.51100000000E-03 0.  1.
         12    1    3    3    0    0 -0.17776675029E+01  0.77061372202E+01  0.11861914981E+02  0.14256566193E+02  0.00000000000E+00 0. -1.
</event>
<event>
 7    1  0.5022032E-011  0.4778727E+02  0.7816164E-02  0.1312668E+00
        -11   -1    0    0    0    0  0.00000000000E+00  0.00000000000E+00  0.45593999997E+02  0.45594000000E+02  0.51100000000E-03 0. -1.
         11   -1    0    0    0    0 -0.00000000000E+00 -0.00000000000E+00 -0.45593999997E+02  0.45594000000E+02  0.51100000000E-03 0.  1.
    9900012    2    1    2    0    0  0.36414716654E+01  0.26997864068E+02 -0.33785766244E+02  0.47787274421E+02  0.20000015393E+02 0.  0.
         12    1    1    2    0    0 -0.36414716654E+01 -0.26997864068E+02  0.33785766244E+02  0.43400725579E+02  0.00000000000E+00 0. -1.
         11    1    3    3    0    0  0.22338839590E+01 -0.20924569526E+00 -0.23376502711E+01  0.32401590014E+01  0.51100000000E-03 0. -1.
        -11    1    3    3    0    0  0.85914155328E+01  0.16911684167E+02 -0.19837891278E+02  0.27447393553E+02  0.51100000000E-03 0.  1.
         12    1    3    3    0    0 -0.71838278264E+01  0.10295425596E+02 -0.11610224695E+02  0.17099721866E+02  0.00000000000E+00 0. -1.
</event>
<event>
 7    1  0.5022032E-011  0.4778730E+02  0.7816164E-02  0.1312668E+00
        -11   -1    0    0    0    0  0.00000000000E+00  0.00000000000E+00  0.45593999997E+02  0.45594000000E+02  0.51100000000E-03 0. -1.
         11   -1    0    0    0    0 -0.00000000000E+00 -0.00000000000E+00 -0.45593999997E+02  0.45594000000E+02  0.51100000000E-03 0.  1.
    9900012    2    1    2    0    0 -0.26452311824E+02  0.34392967842E+02 -0.10099496225E+01  0.47787296826E+02  0.20000117547E+02 0.  0.
         12    1    1    2    0    0  0.26452311824E+02 -0.34392967842E+02  0.10099496225E+01  0.43400703174E+02  0.00000000000E+00 0. -1.
         11    1    3    3    0    0 -0.70020023534E+01  0.31047756135E+01 -0.37135625726E+01  0.85122391772E+01  0.51100000000E-03 0.  1.
        -11    1    3    3    0    0 -0.60715917846E+01  0.15986858790E+02 -0.45469691883E+01  0.17695163459E+02  0.51100000000E-03 0. -1.
         12    1    3    3    0    0 -0.13378717686E+02  0.15301333438E+02  0.72505821385E+01  0.21579894190E+02  0.00000000000E+00 0. -1.
</event>
<event>
 7    1  0.5022032E-011  0.4778726E+02  0.7816164E-02  0.1312668E+00
        -11   -1    0    0    0    0  0.00000000000E+00  0.00000000000E+00  0.45593999997E+02  0.45594000000E+02  0.51100000000E-03 0. -1.
         11   -1    0    0    0    0 -0.00000000000E+00 -0.00000000000E+00 -0.45593999997E+02  0.45594000000E+02  0.51100000000E-03 0.  1.
    9900012    2    1    2    0    0  0.15590008820E+02 -0.30440679205E+01 -0.40389473007E+02  0.47787259749E+02  0.19999948500E+02 0.  0.
         12    1    1    2    0    0 -0.15590008820E+02  0.30440679205E+01  0.40389473007E+02  0.43400740251E+02  0.00000000000E+00 0. -1.
         11    1    3    3    0    0  0.11077966704E+01  0.67018173829E+01 -0.74480262066E+01  0.10080409929E+02  0.51100000000E-03 0. -1.
        -11    1    3    3    0    0  0.17633675360E+01 -0.28478397728E+01 -0.10355771561E+02  0.10884009432E+02  0.51100000000E-03 0.  1.
         12    1    3    3    0    0  0.12718844614E+02 -0.68980455305E+01 -0.22585675240E+02  0.26822840388E+02  0.00000000000E+00 0. -1.
</event>
<event>
 7    1  0.5022032E-011  0.4778725E+02  0.7816164E-02  0.1312668E+00
        -11   -1    0    0    0    0  0.00000000000E+00  0.00000000000E+00  0.45593999997E+02  0.45594000000E+02  0.51100000000E-03 0. -1.
         11   -1    0    0    0    0 -0.00000000000E+00 -0.00000000000E+00 -0.45593999997E+02  0.45594000000E+02  0.51100000000E-03 0.  1.
    9900012    2    1    2    0    0  0.42606985123E+01 -0.42024924848E+02 -0.99688206963E+01  0.47787248320E+02  0.19999896392E+02 0.  0.
         12    1    1    2    0    0 -0.42606985123E+01  0.42024924848E+02  0.99688206963E+01  0.43400751680E+02  0.00000000000E+00 0. -1.
         11    1    3    3    0    0 -0.38481115221E+01 -0.97553162427E+00  0.11250713866E+01  0.41261859050E+01  0.51100000000E-03 0. -1.
        -11    1    3    3    0    0  0.11342726235E+00 -0.74794451389E+01 -0.23515099773E+00  0.74840003729E+01  0.51100000000E-03 0.  1.
        -12    1    3    3    0    0  0.79953827720E+01 -0.33569948085E+02 -0.10858741085E+02  0.36177062043E+02  0.00000000000E+00 0.  1.
</event>
<event>
 7    1  0.5022032E-011  0.4778727E+02  0.7816164E-02  0.1312668E+00
        -11   -1    0    0    0    0  0.00000000000E+00  0.00000000000E+00  0.45593999997E+02  0.45594000000E+02  0.51100000000E-03 0. -1.
         11   -1    0    0    0    0 -0.00000000000E+00 -0.00000000000E+00 -0.45593999997E+02  0.45594000000E+02  0.51100000000E-03 0.  1.
    9900012    2    1    2    0    0  0.39334985028E+02  0.40934567362E+01 -0.17878076180E+02  0.47787273703E+02  0.20000012122E+02 0.  0.
         12    1    1    2    0    0 -0.39334985028E+02 -0.40934567362E+01  0.17878076180E+02  0.43400726297E+02  0.00000000000E+00 0. -1.
         11    1    3    3    0    0  0.55119953390E-01  0.14436891440E+01 -0.16623475847E+01  0.22024250968E+01  0.51100000000E-03 0. -1.
        -11    1    3    3    0    0  0.16919377316E+02  0.91396279642E+01 -0.88102427430E+01  0.21152269513E+02  0.51100000000E-03 0.  1.
        -12    1    3    3    0    0  0.22360487759E+02 -0.64898603720E+01 -0.74054858521E+01  0.24432579093E+02  0.00000000000E+00 0.  1.
</event>
<event>
 7    1  0.5022032E-011  0.4778727E+02  0.7816164E-02  0.1312668E+00
        -11   -1    0    0    0    0  0.00000000000E+00  0.00000000000E+00  0.45593999997E+02  0.45594000000E+02  0.51100000000E-03 0. -1.
         11   -1    0    0    0    0 -0.00000000000E+00 -0.00000000000E+00 -0.45593999997E+02  0.45594000000E+02  0.51100000000E-03 0.  1.
    9900012    2    1    2    0    0 -0.20629584591E+02 -0.81013446487E+01 -0.37315032258E+02  0.47787272150E+02  0.20000005040E+02 0.  0.
         12    1    1    2    0    0  0.20629584591E+02  0.81013446487E+01  0.37315032258E+02  0.43400727850E+02  0.00000000000E+00 0. -1.
         11    1    3    3    0    0  0.80362920278E+00 -0.63516101349E+01 -0.13342245804E+02  0.14798793686E+02  0.51100000000E-03 0. -1.
        -11    1    3    3    0    0 -0.20030995640E+01  0.19144904251E+01 -0.41522500232E+01  0.49918796026E+01  0.51100000000E-03 0.  1.
        -12    1    3    3    0    0 -0.19430114230E+02 -0.36642249389E+01 -0.19820536431E+02  0.27996598861E+02  0.00000000000E+00 0.  1.
</event>
<event>
 7    1  0.5022032E-011  0.4778727E+02  0.7816164E-02  0.1312668E+00
        -11   -1    0    0    0    0  0.00000000000E+00  0.00000000000E+00  0.45593999997E+02  0.45594000000E+02  0.51100000000E-03 0. -1.
         11   -1    0    0    0    0 -0.00000000000E+00 -0.00000000000E+00 -0.45593999997E+02  0.45594000000E+02  0.51100000000E-03 0.  1.
    9900012    2    1    2    0    0 -0.14201711431E+02  0.27479005431E+02  0.30444033428E+02  0.47787268227E+02  0.19999987155E+02 0.  0.
        -12    1    1    2    0    0  0.14201711431E+02 -0.27479005431E+02 -0.30444033428E+02  0.43400731773E+02  0.00000000000E+00 0.  1.
         11    1    3    3    0    0  0.19517769832E+00  0.13764773996E+01 -0.88854641257E+00  0.16499391971E+01  0.51100000000E-03 0. -1.
        -11    1    3    3    0    0 -0.10374984224E+02  0.86588153711E+01  0.52391337505E+01  0.14493581476E+02  0.51100000000E-03 0.  1.
         12    1    3    3    0    0 -0.40219049057E+01  0.17443712660E+02  0.26093446090E+02  0.31643747555E+02  0.00000000000E+00 0. -1.
</event>
<event>
 7    1  0.5022032E-011  0.4778728E+02  0.7816164E-02  0.1312668E+00
        -11   -1    0    0    0    0  0.00000000000E+00  0.00000000000E+00  0.45593999997E+02  0.45594000000E+02  0.51100000000E-03 0. -1.
         11   -1    0    0    0    0 -0.00000000000E+00 -0.00000000000E+00 -0.45593999997E+02  0.45594000000E+02  0.51100000000E-03 0.  1.
    9900012    2    1    2    0    0 -0.25439508878E+02  0.21617001458E+02 -0.27733718992E+02  0.47787279578E+02  0.20000038910E+02 0.  0.
         12    1    1    2    0    0  0.25439508878E+02 -0.21617001458E+02  0.27733718992E+02  0.43400720422E+02  0.00000000000E+00 0. -1.
         11    1    3    3    0    0 -0.22359636127E+02  0.23755040394E+02 -0.27032532449E+02  0.42367594724E+02  0.51100000000E-03 0. -1.
        -11    1    3    3    0    0 -0.20783359705E+01  0.77291154336E+00  0.15971284039E+00  0.22231466692E+01  0.51100000000E-03 0.  1.
         12    1    3    3    0    0 -0.10015367801E+01 -0.29109504798E+01 -0.86089938372E+00  0.31965381847E+01  0.00000000000E+00 0. -1.
</event>
<event>
 7    1  0.5022032E-011  0.4778727E+02  0.7816164E-02  0.1312668E+00
        -11   -1    0    0    0    0  0.00000000000E+00  0.00000000000E+00  0.45593999997E+02  0.45594000000E+02  0.51100000000E-03 0. -1.
         11   -1    0    0    0    0 -0.00000000000E+00 -0.00000000000E+00 -0.45593999997E+02  0.45594000000E+02  0.51100000000E-03 0.  1.
    9900012    2    1    2    0    0 -0.13174381866E+02  0.98218357403E+01  0.40169520388E+02  0.47787272321E+02  0.20000005820E+02 0.  0.
        -12    1    1    2    0    0  0.13174381866E+02 -0.98218357403E+01 -0.40169520388E+02  0.43400727679E+02  0.00000000000E+00 0.  1.
         11    1    3    3    0    0 -0.93991239165E+01  0.28176239255E+01  0.26496810357E+02  0.28255326831E+02  0.51100000000E-03 0. -1.
        -11    1    3    3    0    0 -0.78334721847E+01  0.38170851691E+01  0.95414153714E+01  0.12921765870E+02  0.51100000000E-03 0.  1.
        -12    1    3    3    0    0  0.40582142353E+01  0.31871266458E+01  0.41312946599E+01  0.66101796196E+01  0.00000000000E+00 0.  1.
</event>
<event>
 7    1  0.5022032E-011  0.4778727E+02  0.7816164E-02  0.1312668E+00
        -11   -1    0    0    0    0  0.00000000000E+00  0.00000000000E+00  0.45593999997E+02  0.45594000000E+02  0.51100000000E-03 0. -1.
         11   -1    0    0    0    0 -0.00000000000E+00 -0.00000000000E+00 -0.45593999997E+02  0.45594000000E+02  0.51100000000E-03 0.  1.
    9900012    2    1    2    0    0 -0.26642971091E+02  0.11519384071E+02 -0.32265756503E+02  0.47787272349E+02  0.20000005949E+02 0.  0.
         12    1    1    2    0    0  0.26642971091E+02 -0.11519384071E+02  0.32265756503E+02  0.43400727651E+02  0.00000000000E+00 0. -1.
         11    1    3    3    0    0 -0.96517471729E+01  0.33838651514E+01 -0.10214615143E+02  0.14454934439E+02  0.51100000000E-03 0. -1.
        -11    1    3    3    0    0 -0.17489478247E+02  0.79858427737E+01 -0.24321531629E+02  0.31003103638E+02  0.51100000000E-03 0.  1.
         12    1    3    3    0    0  0.49825432862E+00  0.14967614608E+00  0.22703902687E+01  0.23292342727E+01  0.00000000000E+00 0. -1.
</event>
<event>
 7    1  0.5022032E-011  0.4778727E+02  0.7816164E-02  0.1312668E+00
        -11   -1    0    0    0    0  0.00000000000E+00  0.00000000000E+00  0.45593999997E+02  0.45594000000E+02  0.51100000000E-03 0. -1.
         11   -1    0    0    0    0 -0.00000000000E+00 -0.00000000000E+00 -0.45593999997E+02  0.45594000000E+02  0.51100000000E-03 0.  1.
    9900012    2    1    2    0    0  0.19553303797E+02  0.16032443295E+02 -0.35273960866E+02  0.47787271405E+02  0.20000001646E+02 0.  0.
         12    1    1    2    0    0 -0.19553303797E+02 -0.16032443295E+02  0.35273960866E+02  0.43400728595E+02  0.00000000000E+00 0. -1.
         11    1    3    3    0    0  0.81702612174E+01  0.16366719232E+02 -0.23760799805E+02  0.29986634930E+02  0.51100000000E-03 0. -1.
        -11    1    3    3    0    0  0.82966470202E+01  0.31154229473E+01 -0.65959919083E+01  0.11047502950E+02  0.51100000000E-03 0.  1.
        -12    1    3    3    0    0  0.30863955597E+01 -0.34496988840E+01 -0.49171691518E+01  0.67531335252E+01  0.00000000000E+00 0.  1.
</event>
<event>
 7    1  0.5022032E-011  0.4778727E+02  0.7816164E-02  0.1312668E+00
        -11   -1    0    0    0    0  0.00000000000E+00  0.00000000000E+00  0.45593999997E+02  0.45594000000E+02  0.51100000000E-03 0. -1.
         11   -1    0    0    0    0 -0.00000000000E+00 -0.00000000000E+00 -0.45593999997E+02  0.45594000000E+02  0.51100000000E-03 0.  1.
    9900012    2    1    2    0    0  0.12033999737E+02  0.26067571281E+02  0.32546700803E+02  0.47787272411E+02  0.20000006229E+02 0.  0.
        -12    1    1    2    0    0 -0.12033999737E+02 -0.26067571281E+02 -0.32546700803E+02  0.43400727589E+02  0.00000000000E+00 0.  1.
         11    1    3    3    0    0  0.10152462586E+02  0.20392802125E+02  0.23401880309E+02  0.32658641695E+02  0.51100000000E-03 0. -1.
        -11    1    3    3    0    0  0.57244355661E+01  0.22418055522E+01  0.75460671005E+01  0.97333439080E+01  0.51100000000E-03 0.  1.
        -12    1    3    3    0    0 -0.38428984152E+01  0.34329636032E+01  0.15987533932E+01  0.53952868082E+01  0.00000000000E+00 0.  1.
</event>
<event>
 7    1  0.5022032E-011  0.4778727E+02  0.7816164E-02  0.1312668E+00
        -11   -1    0    0    0    0  0.00000000000E+00  0.00000000000E+00  0.45593999997E+02  0.45594000000E+02  0.51100000000E-03 0. -1.
         11   -1    0    0    0    0 -0.00000000000E+00 -0.00000000000E+00 -0.45593999997E+02  0.45594000000E+02  0.51100000000E-03 0.  1.
    9900012    2    1    2    0    0 -0.10020534566E+02 -0.27314988403E+02  0.32204096525E+02  0.47787268008E+02  0.19999986154E+02 0.  0.
        -12    1    1    2    0    0  0.10020534566E+02  0.27314988403E+02 -0.32204096525E+02  0.43400731992E+02  0.00000000000E+00 0.  1.
         11    1    3    3    0    0 -0.13494615616E+01 -0.12637995346E+02  0.15931593708E+02  0.20380276033E+02  0.51100000000E-03 0. -1.
        -11    1    3    3    0    0 -0.97115717029E+01 -0.15296024814E+02  0.17839360008E+02  0.25426870940E+02  0.51100000000E-03 0.  1.
        -12    1    3    3    0    0  0.10404986981E+01  0.61903175649E+00 -0.15668571903E+01  0.19801210344E+01  0.00000000000E+00 0.  1.
</event>
<event>
 7    1  0.5022032E-011  0.4778727E+02  0.7816164E-02  0.1312668E+00
        -11   -1    0    0    0    0  0.00000000000E+00  0.00000000000E+00  0.45593999997E+02  0.45594000000E+02  0.51100000000E-03 0. -1.
         11   -1    0    0    0    0 -0.00000000000E+00 -0.00000000000E+00 -0.45593999997E+02  0.45594000000E+02  0.51100000000E-03 0.  1.
    9900012    2    1    2    0    0  0.32336993761E+01  0.35914940776E+02 -0.24151261655E+02  0.47787271641E+02  0.20000002719E+02 0.  0.
         12    1    1    2    0    0 -0.32336993761E+01 -0.35914940776E+02  0.24151261655E+02  0.43400728359E+02  0.00000000000E+00 0. -1.
         11    1    3    3    0    0 -0.20302701045E+01  0.44272427689E+01 -0.10902906451E+01  0.49911130206E+01  0.51100000000E-03 0. -1.
        -11    1    3    3    0    0 -0.57313245220E+01  0.15385249666E+02 -0.12391971366E+02  0.20569757963E+02  0.51100000000E-03 0.  1.
         12    1    3    3    0    0  0.10995294003E+02  0.16102448342E+02 -0.10668999643E+02  0.22226400657E+02  0.00000000000E+00 0. -1.
</event>
<event>
 7    1  0.5022032E-011  0.4778724E+02  0.7816164E-02  0.1312668E+00
        -11   -1    0    0    0    0  0.00000000000E+00  0.00000000000E+00  0.45593999997E+02  0.45594000000E+02  0.51100000000E-03 0. -1.
         11   -1    0    0    0    0 -0.00000000000E+00 -0.00000000000E+00 -0.45593999997E+02  0.45594000000E+02  0.51100000000E-03 0.  1.
    9900012    2    1    2    0    0 -0.18890677377E+02 -0.32596639212E+02 -0.21545933591E+02  0.47787241550E+02  0.19999865523E+02 0.  0.
         12    1    1    2    0    0  0.18890677377E+02  0.32596639212E+02  0.21545933591E+02  0.43400758450E+02  0.00000000000E+00 0. -1.
         11    1    3    3    0    0 -0.41248714232E+01 -0.84397145931E+01 -0.14899845980E+02  0.17613879673E+02  0.51100000000E-03 0. -1.
        -11    1    3    3    0    0 -0.10589489935E+01  0.13342779653E+00 -0.14534751456E+01  0.18032654291E+01  0.51100000000E-03 0.  1.
        -12    1    3    3    0    0 -0.13706856961E+02 -0.24290352416E+02 -0.51926124657E+01  0.28370096448E+02  0.00000000000E+00 0.  1.
</event>
<event>
 7    1  0.5022032E-011  0.4778728E+02  0.7816164E-02  0.1312668E+00
        -11   -1    0    0    0    0  0.00000000000E+00  0.00000000000E+00  0.45593999997E+02  0.45594000000E+02  0.51100000000E-03 0.  1.
         11   -1    0    0    0    0 -0.00000000000E+00 -0.00000000000E+00 -0.45593999997E+02  0.45594000000E+02  0.51100000000E-03 0. -1.
    9900012    2    1    2    0    0  0.15342245437E+02  0.40092554405E+02 -0.63894779804E+01  0.47787276013E+02  0.20000022652E+02 0.  0.
         12    1    1    2    0    0 -0.15342245437E+02 -0.40092554405E+02  0.63894779804E+01  0.43400723987E+02  0.00000000000E+00 0. -1.
         11    1    3    3    0    0  0.27158266464E+01  0.19063690975E+01 -0.32572201101E+01  0.46496710223E+01  0.51100000000E-03 0. -1.
        -11    1    3    3    0    0  0.17433487717E+01 -0.17428065871E+00  0.23038543390E+01  0.28943710481E+01  0.51100000000E-03 0.  1.
        -12    1    3    3    0    0  0.10883070019E+02  0.38360465966E+02 -0.54361122094E+01  0.40243233942E+02  0.00000000000E+00 0.  1.
</event>
<event>
 7    1  0.5022032E-011  0.4778727E+02  0.7816164E-02  0.1312668E+00
        -11   -1    0    0    0    0  0.00000000000E+00  0.00000000000E+00  0.45593999997E+02  0.45594000000E+02  0.51100000000E-03 0. -1.
         11   -1    0    0    0    0 -0.00000000000E+00 -0.00000000000E+00 -0.45593999997E+02  0.45594000000E+02  0.51100000000E-03 0.  1.
    9900012    2    1    2    0    0 -0.40025082007E+01  0.12137493504E+02  0.41476312745E+02  0.47787270290E+02  0.19999996559E+02 0.  0.
        -12    1    1    2    0    0  0.40025082007E+01 -0.12137493504E+02 -0.41476312745E+02  0.43400729710E+02  0.00000000000E+00 0.  1.
         11    1    3    3    0    0 -0.96114193204E+00  0.40904495235E+01  0.38800069178E+00  0.42197293652E+01  0.51100000000E-03 0. -1.
        -11    1    3    3    0    0  0.31588921251E+01  0.27739961833E+01  0.48139007131E+01  0.63911888268E+01  0.51100000000E-03 0.  1.
         12    1    3    3    0    0 -0.62002583937E+01  0.52730477974E+01  0.36274411340E+02  0.37176352098E+02  0.00000000000E+00 0. -1.
</event>
<event>
 7    1  0.5022032E-011  0.4778727E+02  0.7816164E-02  0.1312668E+00
        -11   -1    0    0    0    0  0.00000000000E+00  0.00000000000E+00  0.45593999997E+02  0.45594000000E+02  0.51100000000E-03 0. -1.
         11   -1    0    0    0    0 -0.00000000000E+00 -0.00000000000E+00 -0.45593999997E+02  0.45594000000E+02  0.51100000000E-03 0.  1.
    9900012    2    1    2    0    0  0.21625729509E+02 -0.32296559938E+02  0.19310183382E+02  0.47787272553E+02  0.20000006879E+02 0.  0.
        -12    1    1    2    0    0 -0.21625729509E+02  0.32296559938E+02 -0.19310183382E+02  0.43400727447E+02  0.00000000000E+00 0.  1.
         11    1    3    3    0    0  0.86664284620E+01 -0.15060624496E+02  0.29167491647E+01  0.17619217305E+02  0.51100000000E-03 0. -1.
        -11    1    3    3    0    0  0.13691542523E+02 -0.13864414583E+02  0.79460783252E+01  0.21043300345E+02  0.51100000000E-03 0.  1.
        -12    1    3    3    0    0 -0.73224147556E+00 -0.33715208595E+01  0.84473558917E+01  0.91247549034E+01  0.00000000000E+00 0.  1.
</event>
<event>
 7    1  0.5022032E-011  0.4778727E+02  0.7816164E-02  0.1312668E+00
        -11   -1    0    0    0    0  0.00000000000E+00  0.00000000000E+00  0.45593999997E+02  0.45594000000E+02  0.51100000000E-03 0. -1.
         11   -1    0    0    0    0 -0.00000000000E+00 -0.00000000000E+00 -0.45593999997E+02  0.45594000000E+02  0.51100000000E-03 0.  1.
    9900012    2    1    2    0    0  0.41982441967E+02  0.84660125925E+01  0.70302482736E+01  0.47787271970E+02  0.20000004219E+02 0.  0.
        -12    1    1    2    0    0 -0.41982441967E+02 -0.84660125925E+01 -0.70302482736E+01  0.43400728030E+02  0.00000000000E+00 0.  1.
         11    1    3    3    0    0  0.11107115793E+02  0.48023031815E+01  0.13006305952E+01  0.12170529048E+02  0.51100000000E-03 0. -1.
        -11    1    3    3    0    0  0.16999334786E+02 -0.30469351310E+01 -0.35417780226E+01  0.17629673527E+02  0.51100000000E-03 0.  1.
        -12    1    3    3    0    0  0.13875991388E+02  0.67106445419E+01  0.92713957010E+01  0.17987069395E+02  0.00000000000E+00 0.  1.
</event>
<event>
 7    1  0.5022032E-011  0.4778727E+02  0.7816164E-02  0.1312668E+00
        -11   -1    0    0    0    0  0.00000000000E+00  0.00000000000E+00  0.45593999997E+02  0.45594000000E+02  0.51100000000E-03 0. -1.
         11   -1    0    0    0    0 -0.00000000000E+00 -0.00000000000E+00 -0.45593999997E+02  0.45594000000E+02  0.51100000000E-03 0.  1.
    9900012    2    1    2    0    0 -0.19639256681E+02 -0.61426670077E+01  0.38212439103E+02  0.47787271168E+02  0.20000000562E+02 0.  0.
        -12    1    1    2    0    0  0.19639256681E+02  0.61426670077E+01 -0.38212439103E+02  0.43400728832E+02  0.00000000000E+00 0.  1.
         11    1    3    3    0    0 -0.93812962146E+01 -0.29513423021E+01  0.10731973395E+02  0.14556592777E+02  0.51100000000E-03 0. -1.
        -11    1    3    3    0    0 -0.92452592118E+01 -0.78761540827E+01  0.12194506886E+02  0.17210886656E+02  0.51100000000E-03 0.  1.
        -12    1    3    3    0    0 -0.10127012546E+01  0.46848293772E+01  0.15285958822E+02  0.16019791735E+02  0.00000000000E+00 0.  1.
</event>
<event>
 7    1  0.5022032E-011  0.4778727E+02  0.7816164E-02  0.1312668E+00
        -11   -1    0    0    0    0  0.00000000000E+00  0.00000000000E+00  0.45593999997E+02  0.45594000000E+02  0.51100000000E-03 0. -1.
         11   -1    0    0    0    0 -0.00000000000E+00 -0.00000000000E+00 -0.45593999997E+02  0.45594000000E+02  0.51100000000E-03 0.  1.
    9900012    2    1    2    0    0  0.17648496843E+01  0.35574586675E+02  0.24798338208E+02  0.47787268562E+02  0.19999988680E+02 0.  0.
        -12    1    1    2    0    0 -0.17648496843E+01 -0.35574586675E+02 -0.24798338208E+02  0.43400731438E+02  0.00000000000E+00 0.  1.
         11    1    3    3    0    0  0.14713679334E+01  0.17814855188E+02  0.11753999448E+02  0.21393702163E+02  0.51100000000E-03 0. -1.
        -11    1    3    3    0    0  0.68802663396E+01  0.95132296586E+01  0.37347547636E+01  0.12320227143E+02  0.51100000000E-03 0.  1.
        -12    1    3    3    0    0 -0.65867845887E+01  0.82465018282E+01  0.93095839968E+01  0.14073339256E+02  0.00000000000E+00 0.  1.
</event>
<event>
 7    1  0.5022032E-011  0.4778727E+02  0.7816164E-02  0.1312668E+00
        -11   -1    0    0    0    0  0.00000000000E+00  0.00000000000E+00  0.45593999997E+02  0.45594000000E+02  0.51100000000E-03 0. -1.
         11   -1    0    0    0    0 -0.00000000000E+00 -0.00000000000E+00 -0.45593999997E+02  0.45594000000E+02  0.51100000000E-03 0.  1.
    9900012    2    1    2    0    0 -0.26025391596E+02  0.12772849391E+02  0.32297933816E+02  0.47787271687E+02  0.20000002930E+02 0.  0.
        -12    1    1    2    0    0  0.26025391596E+02 -0.12772849391E+02 -0.32297933816E+02  0.43400728313E+02  0.00000000000E+00 0.  1.
         11    1    3    3    0    0 -0.55075258744E+01  0.25316586555E+01  0.15322324886E+01  0.62521894937E+01  0.51100000000E-03 0. -1.
        -11    1    3    3    0    0 -0.90091449973E+01  0.12749846863E+02  0.13528934078E+02  0.20658057656E+02  0.51100000000E-03 0.  1.
         12    1    3    3    0    0 -0.11508720725E+02 -0.25086561274E+01  0.17236767250E+02  0.20877024537E+02  0.00000000000E+00 0. -1.
</event>
<event>
 7    1  0.5022032E-011  0.4778730E+02  0.7816164E-02  0.1312668E+00
        -11   -1    0    0    0    0  0.00000000000E+00  0.00000000000E+00  0.45593999997E+02  0.45594000000E+02  0.51100000000E-03 0. -1.
         11   -1    0    0    0    0 -0.00000000000E+00 -0.00000000000E+00 -0.45593999997E+02  0.45594000000E+02  0.51100000000E-03 0.  1.
    9900012    2    1    2    0    0 -0.23279963713E+02  0.89671675971E+00  0.36617751775E+02  0.47787302350E+02  0.20000142735E+02 0.  0.
        -12    1    1    2    0    0  0.23279963713E+02 -0.89671675971E+00 -0.36617751775E+02  0.43400697650E+02  0.00000000000E+00 0.  1.
         11    1    3    3    0    0 -0.13867746020E+01  0.35430181408E+01  0.78174390761E+01  0.86941632899E+01  0.51100000000E-03 0. -1.
        -11    1    3    3    0    0 -0.16829926891E+01 -0.45826843221E+01  0.15721981847E+01  0.51288660911E+01  0.51100000000E-03 0.  1.
        -12    1    3    3    0    0 -0.20210196422E+02  0.19363829410E+01  0.27228114514E+02  0.33964272969E+02  0.00000000000E+00 0.  1.
</event>
<event>
 7    1  0.5022032E-011  0.4778728E+02  0.7816164E-02  0.1312668E+00
        -11   -1    0    0    0    0  0.00000000000E+00  0.00000000000E+00  0.45593999997E+02  0.45594000000E+02  0.51100000000E-03 0. -1.
         11   -1    0    0    0    0 -0.00000000000E+00 -0.00000000000E+00 -0.45593999997E+02  0.45594000000E+02  0.51100000000E-03 0.  1.
    9900012    2    1    2    0    0 -0.59351676953E+01 -0.42644862182E+02  0.54600725376E+01  0.47787275602E+02  0.20000020781E+02 0.  0.
        -12    1    1    2    0    0  0.59351676953E+01  0.42644862182E+02 -0.54600725376E+01  0.43400724398E+02  0.00000000000E+00 0.  1.
         11    1    3    3    0    0  0.89723478092E-02 -0.24204624732E+02  0.43881603244E+01  0.24599184747E+02  0.51100000000E-03 0. -1.
        -11    1    3    3    0    0 -0.65474738896E+01 -0.14416635740E+02  0.58793370568E+01  0.16890097835E+02  0.51100000000E-03 0.  1.
        -12    1    3    3    0    0  0.60333384647E+00 -0.40236017098E+01 -0.48074248436E+01  0.62979930197E+01  0.00000000000E+00 0.  1.
</event>
<event>
 7    1  0.5022032E-011  0.4778727E+02  0.7816164E-02  0.1312668E+00
        -11   -1    0    0    0    0  0.00000000000E+00  0.00000000000E+00  0.45593999997E+02  0.45594000000E+02  0.51100000000E-03 0. -1.
         11   -1    0    0    0    0 -0.00000000000E+00 -0.00000000000E+00 -0.45593999997E+02  0.45594000000E+02  0.51100000000E-03 0.  1.
    9900012    2    1    2    0    0 -0.92786312259E+01  0.11829492843E+02  0.40713551767E+02  0.47787271944E+02  0.20000004101E+02 0.  0.
        -12    1    1    2    0    0  0.92786312259E+01 -0.11829492843E+02 -0.40713551767E+02  0.43400728056E+02  0.00000000000E+00 0.  1.
         11    1    3    3    0    0 -0.48761935489E+01 -0.21335250748E+01  0.17566547761E+02  0.18355184370E+02  0.51100000000E-03 0. -1.
        -11    1    3    3    0    0 -0.51891043633E+01  0.60383500899E+01  0.44758792689E+01  0.91335629079E+01  0.51100000000E-03 0.  1.
        -12    1    3    3    0    0  0.78666668638E+00  0.79246678280E+01  0.18671124737E+02  0.20298524666E+02  0.00000000000E+00 0.  1.
</event>
<event>
 7    1  0.5022032E-011  0.4778727E+02  0.7816164E-02  0.1312668E+00
        -11   -1    0    0    0    0  0.00000000000E+00  0.00000000000E+00  0.45593999997E+02  0.45594000000E+02  0.51100000000E-03 0. -1.
         11   -1    0    0    0    0 -0.00000000000E+00 -0.00000000000E+00 -0.45593999997E+02  0.45594000000E+02  0.51100000000E-03 0.  1.
    9900012    2    1    2    0    0 -0.29672120772E+02 -0.10338624725E+02 -0.29938291745E+02  0.47787271608E+02  0.20000002571E+02 0.  0.
         12    1    1    2    0    0  0.29672120772E+02  0.10338624725E+02  0.29938291745E+02  0.43400728392E+02  0.00000000000E+00 0. -1.
         11    1    3    3    0    0 -0.20767672843E+02 -0.87451173047E+01 -0.17371883299E+02  0.28452691289E+02  0.51100000000E-03 0. -1.
        -11    1    3    3    0    0 -0.10951052955E+02 -0.31484003485E+01 -0.12273877094E+02  0.16747717598E+02  0.51100000000E-03 0.  1.
        -12    1    3    3    0    0  0.20466050254E+01  0.15548929279E+01 -0.29253135247E+00  0.25868627214E+01  0.00000000000E+00 0.  1.
</event>
<event>
 7    1  0.5022032E-011  0.4778727E+02  0.7816164E-02  0.1312668E+00
        -11   -1    0    0    0    0  0.00000000000E+00  0.00000000000E+00  0.45593999997E+02  0.45594000000E+02  0.51100000000E-03 0. -1.
         11   -1    0    0    0    0 -0.00000000000E+00 -0.00000000000E+00 -0.45593999997E+02  0.45594000000E+02  0.51100000000E-03 0.  1.
    9900012    2    1    2    0    0 -0.11219993284E+02 -0.35412770808E+02  0.22442609720E+02  0.47787270552E+02  0.19999997753E+02 0.  0.
        -12    1    1    2    0    0  0.11219993284E+02  0.35412770808E+02 -0.22442609720E+02  0.43400729448E+02  0.00000000000E+00 0.  1.
         11    1    3    3    0    0 -0.46404053453E+01 -0.12903376246E+02  0.13396841407E+02  0.19170441838E+02  0.51100000000E-03 0. -1.
        -11    1    3    3    0    0 -0.96975540382E+01 -0.95016710260E+01  0.62753484332E+01  0.14956747803E+02  0.51100000000E-03 0.  1.
        -12    1    3    3    0    0  0.31179660991E+01 -0.13007723536E+02  0.27704198796E+01  0.13660080911E+02  0.00000000000E+00 0.  1.
</event>
<event>
 7    1  0.5022032E-011  0.4778727E+02  0.7816164E-02  0.1312668E+00
        -11   -1    0    0    0    0  0.00000000000E+00  0.00000000000E+00  0.45593999997E+02  0.45594000000E+02  0.51100000000E-03 0. -1.
         11   -1    0    0    0    0 -0.00000000000E+00 -0.00000000000E+00 -0.45593999997E+02  0.45594000000E+02  0.51100000000E-03 0.  1.
    9900012    2    1    2    0    0 -0.24641600074E+02 -0.29930372024E+02 -0.19508652087E+02  0.47787272703E+02  0.20000007560E+02 0.  0.
         12    1    1    2    0    0  0.24641600074E+02  0.29930372024E+02  0.19508652087E+02  0.43400727297E+02  0.00000000000E+00 0. -1.
         11    1    3    3    0    0 -0.14428779688E+02 -0.47910334401E+01 -0.27490535964E+01  0.15449950830E+02  0.51100000000E-03 0.  1.
        -11    1    3    3    0    0  0.94673427263E-01 -0.17859424386E+01  0.21350269396E-01  0.17885775206E+01  0.51100000000E-03 0. -1.
        -12    1    3    3    0    0 -0.10307493813E+02 -0.23353396145E+02 -0.16780948760E+02  0.30548744352E+02  0.00000000000E+00 0.  1.
</event>
<event>
 7    1  0.5022032E-011  0.4778728E+02  0.7816164E-02  0.1312668E+00
        -11   -1    0    0    0    0  0.00000000000E+00  0.00000000000E+00  0.45593999997E+02  0.45594000000E+02  0.51100000000E-03 0. -1.
         11   -1    0    0    0    0 -0.00000000000E+00 -0.00000000000E+00 -0.45593999997E+02  0.45594000000E+02  0.51100000000E-03 0.  1.
    9900012    2    1    2    0    0  0.27416233193E+00 -0.64499931817E+01 -0.42917885593E+02  0.47787280181E+02  0.20000041656E+02 0.  0.
         12    1    1    2    0    0 -0.27416233193E+00  0.64499931817E+01  0.42917885593E+02  0.43400719819E+02  0.00000000000E+00 0. -1.
         11    1    3    3    0    0  0.23536114564E+01  0.19611684345E+01 -0.30157727874E+01  0.42989015205E+01  0.51100000000E-03 0. -1.
        -11    1    3    3    0    0 -0.12447451908E+00  0.25040616909E+01 -0.23833158491E+02  0.23964666966E+02  0.51100000000E-03 0.  1.
         12    1    3    3    0    0 -0.19549746054E+01 -0.10915223307E+02 -0.16068954315E+02  0.19523711694E+02  0.00000000000E+00 0. -1.
</event>
<event>
 7    1  0.5022032E-011  0.4778727E+02  0.7816164E-02  0.1312668E+00
        -11   -1    0    0    0    0  0.00000000000E+00  0.00000000000E+00  0.45593999997E+02  0.45594000000E+02  0.51100000000E-03 0. -1.
         11   -1    0    0    0    0 -0.00000000000E+00 -0.00000000000E+00 -0.45593999997E+02  0.45594000000E+02  0.51100000000E-03 0.  1.
    9900012    2    1    2    0    0 -0.12996765306E+02 -0.75089400781E+01 -0.40722514598E+02  0.47787270920E+02  0.19999999432E+02 0.  0.
         12    1    1    2    0    0  0.12996765306E+02  0.75089400781E+01  0.40722514598E+02  0.43400729080E+02  0.00000000000E+00 0. -1.
         11    1    3    3    0    0  0.20663279414E+01 -0.36512704369E+01 -0.11643671195E+02  0.12376452081E+02  0.51100000000E-03 0. -1.
        -11    1    3    3    0    0 -0.80855910130E+01 -0.85397879118E+01 -0.18107196193E+02  0.21591093391E+02  0.51100000000E-03 0.  1.
         12    1    3    3    0    0 -0.69775022343E+01  0.46821182706E+01 -0.10971647210E+02  0.13819725447E+02  0.00000000000E+00 0. -1.
</event>
<event>
 7    1  0.5022032E-011  0.4778727E+02  0.7816164E-02  0.1312668E+00
        -11   -1    0    0    0    0  0.00000000000E+00  0.00000000000E+00  0.45593999997E+02  0.45594000000E+02  0.51100000000E-03 0. -1.
         11   -1    0    0    0    0 -0.00000000000E+00 -0.00000000000E+00 -0.45593999997E+02  0.45594000000E+02  0.51100000000E-03 0.  1.
    9900012    2    1    2    0    0  0.64307454530E+01 -0.13023539050E+02  0.40898118095E+02  0.47787272815E+02  0.20000008074E+02 0.  0.
        -12    1    1    2    0    0 -0.64307454530E+01  0.13023539050E+02 -0.40898118095E+02  0.43400727185E+02  0.00000000000E+00 0.  1.
         11    1    3    3    0    0  0.32692099188E+01 -0.87335676699E+01  0.18019796446E+02  0.20289800442E+02  0.51100000000E-03 0. -1.
        -11    1    3    3    0    0 -0.34510405771E+01 -0.68849570635E+01  0.85645401587E+01  0.11517971315E+02  0.51100000000E-03 0.  1.
         12    1    3    3    0    0  0.66125761113E+01  0.25949856836E+01  0.14313781490E+02  0.15979501058E+02  0.00000000000E+00 0. -1.
</event>
<event>
 7    1  0.5022032E-011  0.4778727E+02  0.7816164E-02  0.1312668E+00
        -11   -1    0    0    0    0  0.00000000000E+00  0.00000000000E+00  0.45593999997E+02  0.45594000000E+02  0.51100000000E-03 0. -1.
         11   -1    0    0    0    0 -0.00000000000E+00 -0.00000000000E+00 -0.45593999997E+02  0.45594000000E+02  0.51100000000E-03 0.  1.
    9900012    2    1    2    0    0  0.13191400603E+02 -0.30462349337E+02 -0.27958100804E+02  0.47787272154E+02  0.20000005060E+02 0.  0.
         12    1    1    2    0    0 -0.13191400603E+02  0.30462349337E+02  0.27958100804E+02  0.43400727846E+02  0.00000000000E+00 0. -1.
         11    1    3    3    0    0  0.42845768054E+00 -0.74236338513E+01 -0.89722370220E+01  0.11653109155E+02  0.51100000000E-03 0. -1.
        -11    1    3    3    0    0  0.44895502333E+01 -0.49564640502E+00 -0.91120778301E+01  0.10170137133E+02  0.51100000000E-03 0.  1.
         12    1    3    3    0    0  0.82733926889E+01 -0.22543069081E+02 -0.98737859514E+01  0.25964025866E+02  0.00000000000E+00 0. -1.
</event>
<event>
 7    1  0.5022032E-011  0.4778728E+02  0.7816164E-02  0.1312668E+00
        -11   -1    0    0    0    0  0.00000000000E+00  0.00000000000E+00  0.45593999997E+02  0.45594000000E+02  0.51100000000E-03 0.  1.
         11   -1    0    0    0    0 -0.00000000000E+00 -0.00000000000E+00 -0.45593999997E+02  0.45594000000E+02  0.51100000000E-03 0. -1.
    9900012    2    1    2    0    0  0.23250653786E+02  0.36615594743E+02 -0.15258602260E+01  0.47787275015E+02  0.20000018102E+02 0.  0.
        -12    1    1    2    0    0 -0.23250653786E+02 -0.36615594743E+02  0.15258602260E+01  0.43400724985E+02  0.00000000000E+00 0.  1.
         11    1    3    3    0    0  0.27775844426E+01  0.18697476604E+01  0.41829461664E+00  0.33743002677E+01  0.51100000000E-03 0. -1.
        -11    1    3    3    0    0  0.59976742852E+01  0.46596270396E+01  0.64749559902E+01  0.99804446952E+01  0.51100000000E-03 0.  1.
         12    1    3    3    0    0  0.14475395058E+02  0.30086220043E+02 -0.84191108328E+01  0.34432530052E+02  0.00000000000E+00 0. -1.
</event>
<event>
 7    1  0.5022032E-011  0.4778726E+02  0.7816164E-02  0.1312668E+00
        -11   -1    0    0    0    0  0.00000000000E+00  0.00000000000E+00  0.45593999997E+02  0.45594000000E+02  0.51100000000E-03 0. -1.
         11   -1    0    0    0    0 -0.00000000000E+00 -0.00000000000E+00 -0.45593999997E+02  0.45594000000E+02  0.51100000000E-03 0.  1.
    9900012    2    1    2    0    0 -0.20169293863E+02 -0.25013159973E+02  0.29174746209E+02  0.47787258034E+02  0.19999940681E+02 0.  0.
        -12    1    1    2    0    0  0.20169293863E+02  0.25013159973E+02 -0.29174746209E+02  0.43400741966E+02  0.00000000000E+00 0.  1.
         11    1    3    3    0    0 -0.71254029440E+01 -0.21211264999E+02  0.13929329233E+02  0.26357453274E+02  0.51100000000E-03 0. -1.
        -11    1    3    3    0    0 -0.31866524812E+01 -0.92993152412E+00  0.34893071113E+00  0.33378555358E+01  0.51100000000E-03 0.  1.
         12    1    3    3    0    0 -0.98572384381E+01 -0.28719634507E+01  0.14896486265E+02  0.18091949224E+02  0.00000000000E+00 0. -1.
</event>
<event>
 7    1  0.5022032E-011  0.4778726E+02  0.7816164E-02  0.1312668E+00
        -11   -1    0    0    0    0  0.00000000000E+00  0.00000000000E+00  0.45593999997E+02  0.45594000000E+02  0.51100000000E-03 0. -1.
         11   -1    0    0    0    0 -0.00000000000E+00 -0.00000000000E+00 -0.45593999997E+02  0.45594000000E+02  0.51100000000E-03 0.  1.
    9900012    2    1    2    0    0 -0.12926113015E+02  0.24546888991E+02 -0.33376491522E+02  0.47787258726E+02  0.19999943835E+02 0.  0.
         12    1    1    2    0    0  0.12926113015E+02 -0.24546888991E+02  0.33376491522E+02  0.43400741274E+02  0.00000000000E+00 0. -1.
         11    1    3    3    0    0 -0.90258348878E+01  0.14464441592E+02 -0.12255547725E+02  0.20997243064E+02  0.51100000000E-03 0.  1.
        -11    1    3    3    0    0  0.90748391514E+00 -0.26853615639E+01 -0.38307187708E+01  0.47654066297E+01  0.51100000000E-03 0. -1.
         12    1    3    3    0    0 -0.48077620423E+01  0.12767808963E+02 -0.17290225026E+02  0.22024609032E+02  0.00000000000E+00 0. -1.
</event>
<event>
 7    1  0.5022032E-011  0.4778727E+02  0.7816164E-02  0.1312668E+00
        -11   -1    0    0    0    0  0.00000000000E+00  0.00000000000E+00  0.45593999997E+02  0.45594000000E+02  0.51100000000E-03 0. -1.
         11   -1    0    0    0    0 -0.00000000000E+00 -0.00000000000E+00 -0.45593999997E+02  0.45594000000E+02  0.51100000000E-03 0.  1.
    9900012    2    1    2    0    0  0.16700152348E+02  0.26389271451E+02 -0.30138588056E+02  0.47787271594E+02  0.20000002504E+02 0.  0.
         12    1    1    2    0    0 -0.16700152348E+02 -0.26389271451E+02  0.30138588056E+02  0.43400728406E+02  0.00000000000E+00 0. -1.
         11    1    3    3    0    0  0.84396897053E+00 -0.31455700797E+00 -0.43411739260E+01  0.44336239186E+01  0.51100000000E-03 0. -1.
        -11    1    3    3    0    0  0.18272171904E+02  0.17475806274E+02 -0.18068777210E+02  0.31076627570E+02  0.51100000000E-03 0.  1.
        -12    1    3    3    0    0 -0.24159885263E+01  0.92280221851E+01 -0.77286369204E+01  0.12277020105E+02  0.00000000000E+00 0.  1.
</event>
<event>
 7    1  0.5022032E-011  0.4778728E+02  0.7816164E-02  0.1312668E+00
        -11   -1    0    0    0    0  0.00000000000E+00  0.00000000000E+00  0.45593999997E+02  0.45594000000E+02  0.51100000000E-03 0. -1.
         11   -1    0    0    0    0 -0.00000000000E+00 -0.00000000000E+00 -0.45593999997E+02  0.45594000000E+02  0.51100000000E-03 0.  1.
    9900012    2    1    2    0    0  0.62542069226E+01 -0.34663533418E+02  0.25356397386E+02  0.47787279480E+02  0.20000038462E+02 0.  0.
        -12    1    1    2    0    0 -0.62542069226E+01  0.34663533418E+02 -0.25356397386E+02  0.43400720520E+02  0.00000000000E+00 0.  1.
         11    1    3    3    0    0  0.72909583334E+01 -0.69602195606E+01  0.72872509391E+01  0.12438117071E+02  0.51100000000E-03 0. -1.
        -11    1    3    3    0    0  0.34324233726E+01 -0.23578465518E+02  0.11706747235E+02  0.26547570463E+02  0.51100000000E-03 0.  1.
        -12    1    3    3    0    0 -0.44691747835E+01 -0.41248483387E+01  0.63623992117E+01  0.88015919464E+01  0.00000000000E+00 0.  1.
</event>
<event>
 7    1  0.5022032E-011  0.4778728E+02  0.7816164E-02  0.1312668E+00
        -11   -1    0    0    0    0  0.00000000000E+00  0.00000000000E+00  0.45593999997E+02  0.45594000000E+02  0.51100000000E-03 0. -1.
         11   -1    0    0    0    0 -0.00000000000E+00 -0.00000000000E+00 -0.45593999997E+02  0.45594000000E+02  0.51100000000E-03 0.  1.
    9900012    2    1    2    0    0  0.33134636821E+02  0.21882482643E+02  0.17517868122E+02  0.47787275266E+02  0.20000019248E+02 0.  0.
        -12    1    1    2    0    0 -0.33134636821E+02 -0.21882482643E+02 -0.17517868122E+02  0.43400724734E+02  0.00000000000E+00 0.  1.
         11    1    3    3    0    0  0.13343792998E+02  0.13727916149E+02  0.25408444515E+01  0.19312389395E+02  0.51100000000E-03 0. -1.
        -11    1    3    3    0    0 -0.34263681721E+00  0.30197363992E+01  0.33795225957E+00  0.30578456305E+01  0.51100000000E-03 0.  1.
        -12    1    3    3    0    0  0.20133480641E+02  0.51348300951E+01  0.14639071411E+02  0.25417040240E+02  0.00000000000E+00 0.  1.
</event>
<event>
 7    1  0.5022032E-011  0.4778727E+02  0.7816164E-02  0.1312668E+00
        -11   -1    0    0    0    0  0.00000000000E+00  0.00000000000E+00  0.45593999997E+02  0.45594000000E+02  0.51100000000E-03 0. -1.
         11   -1    0    0    0    0 -0.00000000000E+00 -0.00000000000E+00 -0.45593999997E+02  0.45594000000E+02  0.51100000000E-03 0.  1.
    9900012    2    1    2    0    0  0.16596965287E+02  0.35223155882E+02 -0.19170112191E+02  0.47787272259E+02  0.20000005539E+02 0.  0.
         12    1    1    2    0    0 -0.16596965287E+02 -0.35223155882E+02  0.19170112191E+02  0.43400727741E+02  0.00000000000E+00 0. -1.
         11    1    3    3    0    0  0.13483339813E+02  0.26892874651E+02 -0.20321393837E+02  0.36304079761E+02  0.51100000000E-03 0. -1.
        -11    1    3    3    0    0 -0.26133189028E+00  0.48204343146E+01 -0.24626600978E+01  0.54193704760E+01  0.51100000000E-03 0.  1.
        -12    1    3    3    0    0  0.33749573647E+01  0.35098469164E+01  0.36139417445E+01  0.60638220227E+01  0.00000000000E+00 0.  1.
</event>
<event>
 7    1  0.5022032E-011  0.4778727E+02  0.7816164E-02  0.1312668E+00
        -11   -1    0    0    0    0  0.00000000000E+00  0.00000000000E+00  0.45593999997E+02  0.45594000000E+02  0.51100000000E-03 0. -1.
         11   -1    0    0    0    0 -0.00000000000E+00 -0.00000000000E+00 -0.45593999997E+02  0.45594000000E+02  0.51100000000E-03 0.  1.
    9900012    2    1    2    0    0  0.11429817149E+02 -0.62041217217E+00  0.41864036629E+02  0.47787271962E+02  0.20000004184E+02 0.  0.
        -12    1    1    2    0    0 -0.11429817149E+02  0.62041217217E+00 -0.41864036629E+02  0.43400728038E+02  0.00000000000E+00 0.  1.
         11    1    3    3    0    0  0.63707377102E+01 -0.22388325820E+01  0.74378563843E+01  0.10045913505E+02  0.51100000000E-03 0.  1.
        -11    1    3    3    0    0 -0.21947732236E+00 -0.57919355552E+01  0.87015298010E+01  0.10455204872E+02  0.51100000000E-03 0. -1.
         12    1    3    3    0    0  0.52785567610E+01  0.74103559650E+01  0.25724650444E+02  0.27286153585E+02  0.00000000000E+00 0. -1.
</event>
<event>
 7    1  0.5022032E-011  0.4778727E+02  0.7816164E-02  0.1312668E+00
        -11   -1    0    0    0    0  0.00000000000E+00  0.00000000000E+00  0.45593999997E+02  0.45594000000E+02  0.51100000000E-03 0. -1.
         11   -1    0    0    0    0 -0.00000000000E+00 -0.00000000000E+00 -0.45593999997E+02  0.45594000000E+02  0.51100000000E-03 0.  1.
    9900012    2    1    2    0    0 -0.12149625685E+02  0.20559343676E+02  0.36239800370E+02  0.47787272500E+02  0.20000006638E+02 0.  0.
        -12    1    1    2    0    0  0.12149625685E+02 -0.20559343676E+02 -0.36239800370E+02  0.43400727500E+02  0.00000000000E+00 0.  1.
         11    1    3    3    0    0  0.23173779217E-02  0.11408143167E+02  0.15342092093E+02  0.19118721870E+02  0.51100000000E-03 0. -1.
        -11    1    3    3    0    0 -0.69511680391E+01  0.11336333233E+02  0.17843699819E+02  0.22253737030E+02  0.51100000000E-03 0.  1.
        -12    1    3    3    0    0 -0.52007750242E+01 -0.21851327242E+01  0.30540084570E+01  0.64148136006E+01  0.00000000000E+00 0.  1.
</event>
<event>
 7    1  0.5022032E-011  0.4778727E+02  0.7816164E-02  0.1312668E+00
        -11   -1    0    0    0    0  0.00000000000E+00  0.00000000000E+00  0.45593999997E+02  0.45594000000E+02  0.51100000000E-03 0. -1.
         11   -1    0    0    0    0 -0.00000000000E+00 -0.00000000000E+00 -0.45593999997E+02  0.45594000000E+02  0.51100000000E-03 0.  1.
    9900012    2    1    2    0    0 -0.38674209174E+01 -0.11621586736E+01 -0.43212447414E+02  0.47787272255E+02  0.20000005518E+02 0.  0.
         12    1    1    2    0    0  0.38674209174E+01  0.11621586736E+01  0.43212447414E+02  0.43400727745E+02  0.00000000000E+00 0. -1.
         11    1    3    3    0    0  0.30419233114E+01  0.51832905318E+01 -0.25519838382E+02  0.26217969972E+02  0.51100000000E-03 0. -1.
        -11    1    3    3    0    0 -0.30104447113E+01  0.14201374275E+01 -0.29066328859E+01  0.44190590251E+01  0.51100000000E-03 0.  1.
        -12    1    3    3    0    0 -0.38988995174E+01 -0.77655866329E+01 -0.14785976146E+02  0.17150243257E+02  0.00000000000E+00 0.  1.
</event>
<event>
 7    1  0.5022032E-011  0.4778727E+02  0.7816164E-02  0.1312668E+00
        -11   -1    0    0    0    0  0.00000000000E+00  0.00000000000E+00  0.45593999997E+02  0.45594000000E+02  0.51100000000E-03 0. -1.
         11   -1    0    0    0    0 -0.00000000000E+00 -0.00000000000E+00 -0.45593999997E+02  0.45594000000E+02  0.51100000000E-03 0.  1.
    9900012    2    1    2    0    0 -0.28636260909E+02  0.26238126826E+02  0.19368748439E+02  0.47787272422E+02  0.20000006281E+02 0.  0.
        -12    1    1    2    0    0  0.28636260909E+02 -0.26238126826E+02 -0.19368748439E+02  0.43400727578E+02  0.00000000000E+00 0.  1.
         11    1    3    3    0    0 -0.41198478820E+01  0.95891127821E+01  0.67252379515E+01  0.12415838928E+02  0.51100000000E-03 0. -1.
        -11    1    3    3    0    0 -0.13694147033E+02  0.16979803322E+02  0.58329008218E+01  0.22580215147E+02  0.51100000000E-03 0.  1.
        -12    1    3    3    0    0 -0.10822265994E+02 -0.33078927797E+00  0.68106096657E+01  0.12791218348E+02  0.00000000000E+00 0.  1.
</event>
<event>
 7    1  0.5022032E-011  0.4778727E+02  0.7816164E-02  0.1312668E+00
        -11   -1    0    0    0    0  0.00000000000E+00  0.00000000000E+00  0.45593999997E+02  0.45594000000E+02  0.51100000000E-03 0. -1.
         11   -1    0    0    0    0 -0.00000000000E+00 -0.00000000000E+00 -0.45593999997E+02  0.45594000000E+02  0.51100000000E-03 0.  1.
    9900012    2    1    2    0    0  0.21554080918E+02 -0.16523329284E+01  0.37633961848E+02  0.47787266220E+02  0.19999978003E+02 0.  0.
        -12    1    1    2    0    0 -0.21554080918E+02  0.16523329284E+01 -0.37633961848E+02  0.43400733780E+02  0.00000000000E+00 0.  1.
         11    1    3    3    0    0  0.20703449706E+02 -0.38784614997E+01  0.17334924745E+02  0.27279569452E+02  0.51100000000E-03 0.  1.
        -11    1    3    3    0    0  0.45708600885E+00  0.49166233303E+00  0.17623057252E+01  0.18858370024E+01  0.51100000000E-03 0. -1.
        -12    1    3    3    0    0  0.39354520289E+00  0.17344662383E+01  0.18536731377E+02  0.18621859765E+02  0.00000000000E+00 0.  1.
</event>
<event>
 7    1  0.5022032E-011  0.4778724E+02  0.7816164E-02  0.1312668E+00
        -11   -1    0    0    0    0  0.00000000000E+00  0.00000000000E+00  0.45593999997E+02  0.45594000000E+02  0.51100000000E-03 0. -1.
         11   -1    0    0    0    0 -0.00000000000E+00 -0.00000000000E+00 -0.45593999997E+02  0.45594000000E+02  0.51100000000E-03 0.  1.
    9900012    2    1    2    0    0  0.52600589504E+01  0.14653349469E+02 -0.40512184950E+02  0.47787239635E+02  0.19999856793E+02 0.  0.
         12    1    1    2    0    0 -0.52600589504E+01 -0.14653349469E+02  0.40512184950E+02  0.43400760365E+02  0.00000000000E+00 0. -1.
         11    1    3    3    0    0  0.38543718046E+01  0.44701352459E+01 -0.83773316163E+01  0.10247827887E+02  0.51100000000E-03 0. -1.
        -11    1    3    3    0    0  0.61538625134E+00  0.99177987369E+01 -0.34039529940E+02  0.35460273981E+02  0.51100000000E-03 0.  1.
         12    1    3    3    0    0  0.79030089442E+00  0.26541548607E+00  0.19046766061E+01  0.20791377679E+01  0.00000000000E+00 0. -1.
</event>
<event>
 7    1  0.5022032E-011  0.4778727E+02  0.7816164E-02  0.1312668E+00
        -11   -1    0    0    0    0  0.00000000000E+00  0.00000000000E+00  0.45593999997E+02  0.45594000000E+02  0.51100000000E-03 0. -1.
         11   -1    0    0    0    0 -0.00000000000E+00 -0.00000000000E+00 -0.45593999997E+02  0.45594000000E+02  0.51100000000E-03 0.  1.
    9900012    2    1    2    0    0  0.18449488806E+02  0.27761155036E+02  0.27794925029E+02  0.47787271624E+02  0.20000002645E+02 0.  0.
        -12    1    1    2    0    0 -0.18449488806E+02 -0.27761155036E+02 -0.27794925029E+02  0.43400728376E+02  0.00000000000E+00 0.  1.
         11    1    3    3    0    0  0.12528954424E+02  0.92345468047E+01  0.11229509985E+02  0.19192536268E+02  0.51100000000E-03 0. -1.
        -11    1    3    3    0    0  0.71982012964E+01  0.15162535584E+02  0.66627158024E+01  0.18058470848E+02  0.51100000000E-03 0.  1.
         12    1    3    3    0    0 -0.12776669140E+01  0.33640726476E+01  0.99026992416E+01  0.10536264508E+02  0.00000000000E+00 0. -1.
</event>
<event>
 7    1  0.5022032E-011  0.4778727E+02  0.7816164E-02  0.1312668E+00
        -11   -1    0    0    0    0  0.00000000000E+00  0.00000000000E+00  0.45593999997E+02  0.45594000000E+02  0.51100000000E-03 0.  1.
         11   -1    0    0    0    0 -0.00000000000E+00 -0.00000000000E+00 -0.45593999997E+02  0.45594000000E+02  0.51100000000E-03 0. -1.
    9900012    2    1    2    0    0 -0.11891367885E+02 -0.28133526627E+02 -0.30833800356E+02  0.47787271952E+02  0.20000004140E+02 0.  0.
         12    1    1    2    0    0  0.11891367885E+02  0.28133526627E+02  0.30833800356E+02  0.43400728048E+02  0.00000000000E+00 0. -1.
         11    1    3    3    0    0 -0.34092138611E+01 -0.22094261431E+00  0.77966072512E+00  0.35042011781E+01  0.51100000000E-03 0. -1.
        -11    1    3    3    0    0 -0.41814380992E+01 -0.10531479278E+02 -0.54356952590E+01  0.12567548034E+02  0.51100000000E-03 0.  1.
         12    1    3    3    0    0 -0.43007159245E+01 -0.17381104735E+02 -0.26177765822E+02  0.31715522741E+02  0.00000000000E+00 0. -1.
</event>
<event>
 7    1  0.5022032E-011  0.4778727E+02  0.7816164E-02  0.1312668E+00
        -11   -1    0    0    0    0  0.00000000000E+00  0.00000000000E+00  0.45593999997E+02  0.45594000000E+02  0.51100000000E-03 0. -1.
         11   -1    0    0    0    0 -0.00000000000E+00 -0.00000000000E+00 -0.45593999997E+02  0.45594000000E+02  0.51100000000E-03 0.  1.
    9900012    2    1    2    0    0 -0.20807751840E+02  0.22567907524E+02 -0.30681434053E+02  0.47787269797E+02  0.19999994310E+02 0.  0.
         12    1    1    2    0    0  0.20807751840E+02 -0.22567907524E+02  0.30681434053E+02  0.43400730203E+02  0.00000000000E+00 0. -1.
         11    1    3    3    0    0 -0.82741827495E+01  0.11235513616E+02 -0.14183742586E+02  0.19896668575E+02  0.51100000000E-03 0.  1.
        -11    1    3    3    0    0 -0.10656264017E+02  0.67022082200E+00 -0.41156274659E+01  0.11443056779E+02  0.51100000000E-03 0. -1.
         12    1    3    3    0    0 -0.18773050737E+01  0.10662173086E+02 -0.12382064001E+02  0.16447544443E+02  0.00000000000E+00 0. -1.
</event>
<event>
 7    1  0.5022032E-011  0.4778727E+02  0.7816164E-02  0.1312668E+00
        -11   -1    0    0    0    0  0.00000000000E+00  0.00000000000E+00  0.45593999997E+02  0.45594000000E+02  0.51100000000E-03 0. -1.
         11   -1    0    0    0    0 -0.00000000000E+00 -0.00000000000E+00 -0.45593999997E+02  0.45594000000E+02  0.51100000000E-03 0.  1.
    9900012    2    1    2    0    0  0.42856868838E+02 -0.55932414004E+01  0.39531956987E+01  0.47787270603E+02  0.19999997986E+02 0.  0.
        -12    1    1    2    0    0 -0.42856868838E+02  0.55932414004E+01 -0.39531956987E+01  0.43400729397E+02  0.00000000000E+00 0.  1.
         11    1    3    3    0    0  0.32441826428E+01 -0.10090846103E+00  0.19681061001E+01  0.37958326386E+01  0.51100000000E-03 0. -1.
        -11    1    3    3    0    0 -0.19105704714E+01  0.51385042023E+00 -0.13028504078E+00  0.19827496648E+01  0.51100000000E-03 0.  1.
         12    1    3    3    0    0  0.41523256667E+02 -0.60061833596E+01  0.21153746394E+01  0.42008688299E+02  0.00000000000E+00 0. -1.
</event>
<event>
 7    1  0.5022032E-011  0.4778727E+02  0.7816164E-02  0.1312668E+00
        -11   -1    0    0    0    0  0.00000000000E+00  0.00000000000E+00  0.45593999997E+02  0.45594000000E+02  0.51100000000E-03 0. -1.
         11   -1    0    0    0    0 -0.00000000000E+00 -0.00000000000E+00 -0.45593999997E+02  0.45594000000E+02  0.51100000000E-03 0.  1.
    9900012    2    1    2    0    0  0.18012937633E+02 -0.13887551188E+02 -0.36963400189E+02  0.47787274733E+02  0.20000016818E+02 0.  0.
         12    1    1    2    0    0 -0.18012937633E+02  0.13887551188E+02  0.36963400189E+02  0.43400725267E+02  0.00000000000E+00 0. -1.
         11    1    3    3    0    0  0.82154218693E+01 -0.43062873903E+01 -0.23560159080E+02  0.25320315237E+02  0.51100000000E-03 0.  1.
        -11    1    3    3    0    0  0.87884871326E+01 -0.56487689390E+01 -0.14850190707E+02  0.18156934238E+02  0.51100000000E-03 0. -1.
         12    1    3    3    0    0  0.10090286313E+01 -0.39324948584E+01  0.14469495978E+01  0.43100252585E+01  0.00000000000E+00 0. -1.
</event>
<event>
 7    1  0.5022032E-011  0.4778727E+02  0.7816164E-02  0.1312668E+00
        -11   -1    0    0    0    0  0.00000000000E+00  0.00000000000E+00  0.45593999997E+02  0.45594000000E+02  0.51100000000E-03 0. -1.
         11   -1    0    0    0    0 -0.00000000000E+00 -0.00000000000E+00 -0.45593999997E+02  0.45594000000E+02  0.51100000000E-03 0.  1.
    9900012    2    1    2    0    0  0.14822654583E+02  0.40791077542E+02 -0.15368336489E-01  0.47787270373E+02  0.19999996940E+02 0.  0.
        -12    1    1    2    0    0 -0.14822654583E+02 -0.40791077542E+02  0.15368336489E-01  0.43400729627E+02  0.00000000000E+00 0.  1.
         11    1    3    3    0    0  0.12248045843E+02  0.25845529439E+02  0.70279623095E+01  0.29451625990E+02  0.51100000000E-03 0. -1.
        -11    1    3    3    0    0  0.31447125091E+00 -0.51390515492E+00  0.67885006846E+00  0.90764990634E+00  0.51100000000E-03 0.  1.
         12    1    3    3    0    0  0.22601374883E+01  0.15459453259E+02 -0.77221807144E+01  0.17427994477E+02  0.00000000000E+00 0. -1.
</event>
<event>
 7    1  0.5022032E-011  0.4778726E+02  0.7816164E-02  0.1312668E+00
        -11   -1    0    0    0    0  0.00000000000E+00  0.00000000000E+00  0.45593999997E+02  0.45594000000E+02  0.51100000000E-03 0. -1.
         11   -1    0    0    0    0 -0.00000000000E+00 -0.00000000000E+00 -0.45593999997E+02  0.45594000000E+02  0.51100000000E-03 0.  1.
    9900012    2    1    2    0    0 -0.59223230562E+01 -0.25777397989E+02 -0.34410401162E+02  0.47787264227E+02  0.19999968918E+02 0.  0.
         12    1    1    2    0    0  0.59223230562E+01  0.25777397989E+02  0.34410401162E+02  0.43400735773E+02  0.00000000000E+00 0. -1.
         11    1    3    3    0    0  0.12430142674E+01 -0.19480561927E+02 -0.22693900637E+02  0.29934102690E+02  0.51100000000E-03 0.  1.
        -11    1    3    3    0    0  0.10518657366E+01 -0.27789316211E+01  0.17536885080E+00  0.29765142327E+01  0.51100000000E-03 0. -1.
         12    1    3    3    0    0 -0.82172030602E+01 -0.35179044414E+01 -0.11891869375E+02  0.14876647305E+02  0.00000000000E+00 0. -1.
</event>
<event>
 7    1  0.5022032E-011  0.4778727E+02  0.7816164E-02  0.1312668E+00
        -11   -1    0    0    0    0  0.00000000000E+00  0.00000000000E+00  0.45593999997E+02  0.45594000000E+02  0.51100000000E-03 0. -1.
         11   -1    0    0    0    0 -0.00000000000E+00 -0.00000000000E+00 -0.45593999997E+02  0.45594000000E+02  0.51100000000E-03 0.  1.
    9900012    2    1    2    0    0  0.50465099685E+01 -0.39695876955E+02 -0.16804563633E+02  0.47787271101E+02  0.20000000256E+02 0.  0.
         12    1    1    2    0    0 -0.50465099685E+01  0.39695876955E+02  0.16804563633E+02  0.43400728899E+02  0.00000000000E+00 0. -1.
         11    1    3    3    0    0 -0.23163967395E+01 -0.10305015582E+02 -0.39937523695E+01  0.11291992661E+02  0.51100000000E-03 0. -1.
        -11    1    3    3    0    0 -0.53149691376E+00 -0.25254463197E+02 -0.93887144122E+01  0.26948438896E+02  0.51100000000E-03 0.  1.
         12    1    3    3    0    0  0.78944036218E+01 -0.41363981757E+01 -0.34220968511E+01  0.95468395436E+01  0.00000000000E+00 0. -1.
</event>
<event>
 7    1  0.5022032E-011  0.4778728E+02  0.7816164E-02  0.1312668E+00
        -11   -1    0    0    0    0  0.00000000000E+00  0.00000000000E+00  0.45593999997E+02  0.45594000000E+02  0.51100000000E-03 0. -1.
         11   -1    0    0    0    0 -0.00000000000E+00 -0.00000000000E+00 -0.45593999997E+02  0.45594000000E+02  0.51100000000E-03 0.  1.
    9900012    2    1    2    0    0  0.22138298240E+02  0.60380089918E+00  0.37324976805E+02  0.47787277449E+02  0.20000029199E+02 0.  0.
        -12    1    1    2    0    0 -0.22138298240E+02 -0.60380089918E+00 -0.37324976805E+02  0.43400722551E+02  0.00000000000E+00 0.  1.
         11    1    3    3    0    0  0.51258285153E+01 -0.35178368572E+01  0.34100721722E+01  0.70906901359E+01  0.51100000000E-03 0. -1.
        -11    1    3    3    0    0  0.81398922348E+01 -0.14039606937E+01  0.43439945536E+01  0.93326973682E+01  0.51100000000E-03 0.  1.
        -12    1    3    3    0    0  0.88725774900E+01  0.55255984501E+01  0.29570910079E+02  0.31363889945E+02  0.00000000000E+00 0.  1.
</event>
<event>
 7    1  0.5022032E-011  0.4778727E+02  0.7816164E-02  0.1312668E+00
        -11   -1    0    0    0    0  0.00000000000E+00  0.00000000000E+00  0.45593999997E+02  0.45594000000E+02  0.51100000000E-03 0. -1.
         11   -1    0    0    0    0 -0.00000000000E+00 -0.00000000000E+00 -0.45593999997E+02  0.45594000000E+02  0.51100000000E-03 0.  1.
    9900012    2    1    2    0    0  0.12052422848E+02 -0.63994743459E+01  0.41199626635E+02  0.47787269553E+02  0.19999993201E+02 0.  0.
        -12    1    1    2    0    0 -0.12052422848E+02  0.63994743459E+01 -0.41199626635E+02  0.43400730447E+02  0.00000000000E+00 0.  1.
         11    1    3    3    0    0  0.38352441217E+01 -0.90982360325E+01  0.84177824582E+01  0.12974824012E+02  0.51100000000E-03 0. -1.
        -11    1    3    3    0    0  0.76858125015E+01  0.25114123718E+01  0.15159317355E+02  0.17180914086E+02  0.51100000000E-03 0.  1.
        -12    1    3    3    0    0  0.53136622515E+00  0.18734931479E+00  0.17622526822E+02  0.17631531454E+02  0.00000000000E+00 0.  1.
</event>
<event>
 7    1  0.5022032E-011  0.4778727E+02  0.7816164E-02  0.1312668E+00
        -11   -1    0    0    0    0  0.00000000000E+00  0.00000000000E+00  0.45593999997E+02  0.45594000000E+02  0.51100000000E-03 0. -1.
         11   -1    0    0    0    0 -0.00000000000E+00 -0.00000000000E+00 -0.45593999997E+02  0.45594000000E+02  0.51100000000E-03 0.  1.
    9900012    2    1    2    0    0 -0.38217465060E+02 -0.35869667272E+01  0.20252957135E+02  0.47787271451E+02  0.20000001852E+02 0.  0.
        -12    1    1    2    0    0  0.38217465060E+02  0.35869667272E+01 -0.20252957135E+02  0.43400728549E+02  0.00000000000E+00 0.  1.
         11    1    3    3    0    0 -0.22597282598E+01 -0.18868669600E+01 -0.70077470446E+00  0.30261731907E+01  0.51100000000E-03 0.  1.
        -11    1    3    3    0    0 -0.52778632813E+01 -0.36906037444E+01  0.10443958626E+02  0.12269990581E+02  0.51100000000E-03 0. -1.
         12    1    3    3    0    0 -0.30679873519E+02  0.19905039772E+01  0.10509773214E+02  0.32491107679E+02  0.00000000000E+00 0. -1.
</event>
<event>
 7    1  0.5022032E-011  0.4778727E+02  0.7816164E-02  0.1312668E+00
        -11   -1    0    0    0    0  0.00000000000E+00  0.00000000000E+00  0.45593999997E+02  0.45594000000E+02  0.51100000000E-03 0. -1.
         11   -1    0    0    0    0 -0.00000000000E+00 -0.00000000000E+00 -0.45593999997E+02  0.45594000000E+02  0.51100000000E-03 0.  1.
    9900012    2    1    2    0    0 -0.14065888630E+02  0.83670695073E+01  0.40196594607E+02  0.47787270823E+02  0.19999998989E+02 0.  0.
        -12    1    1    2    0    0  0.14065888630E+02 -0.83670695073E+01 -0.40196594607E+02  0.43400729177E+02  0.00000000000E+00 0.  1.
         11    1    3    3    0    0 -0.34952840049E+00 -0.16669771443E+01  0.43895684157E+00  0.17588821087E+01  0.51100000000E-03 0. -1.
        -11    1    3    3    0    0 -0.37167611670E+01  0.46229914577E+01  0.15021293477E+01  0.61190486539E+01  0.51100000000E-03 0.  1.
         12    1    3    3    0    0 -0.99995990628E+01  0.54110551939E+01  0.38255508418E+02  0.39909340060E+02  0.00000000000E+00 0. -1.
</event>
<event>
 7    1  0.5022032E-011  0.4778727E+02  0.7816164E-02  0.1312668E+00
        -11   -1    0    0    0    0  0.00000000000E+00  0.00000000000E+00  0.45593999997E+02  0.45594000000E+02  0.51100000000E-03 0. -1.
         11   -1    0    0    0    0 -0.00000000000E+00 -0.00000000000E+00 -0.45593999997E+02  0.45594000000E+02  0.51100000000E-03 0.  1.
    9900012    2    1    2    0    0  0.38234473478E+02 -0.65257083030E+01  0.19472122135E+02  0.47787269920E+02  0.19999994875E+02 0.  0.
        -12    1    1    2    0    0 -0.38234473478E+02  0.65257083030E+01 -0.19472122135E+02  0.43400730080E+02  0.00000000000E+00 0.  1.
         11    1    3    3    0    0  0.66727830978E+01 -0.14697784689E+01 -0.55640970827E+00  0.68553537504E+01  0.51100000000E-03 0. -1.
        -11    1    3    3    0    0  0.32686316982E+02 -0.30921048001E+01  0.20377774084E+02  0.38642076896E+02  0.51100000000E-03 0.  1.
        -12    1    3    3    0    0 -0.11246266019E+01 -0.19638250340E+01 -0.34924224057E+00  0.22898392740E+01  0.00000000000E+00 0.  1.
</event>
<event>
 7    1  0.5022032E-011  0.4778727E+02  0.7816164E-02  0.1312668E+00
        -11   -1    0    0    0    0  0.00000000000E+00  0.00000000000E+00  0.45593999997E+02  0.45594000000E+02  0.51100000000E-03 0. -1.
         11   -1    0    0    0    0 -0.00000000000E+00 -0.00000000000E+00 -0.45593999997E+02  0.45594000000E+02  0.51100000000E-03 0.  1.
    9900012    2    1    2    0    0 -0.31380532404E+02  0.80355787264E+00  0.29970647446E+02  0.47787271578E+02  0.20000002432E+02 0.  0.
        -12    1    1    2    0    0  0.31380532404E+02 -0.80355787264E+00 -0.29970647446E+02  0.43400728422E+02  0.00000000000E+00 0.  1.
         11    1    3    3    0    0 -0.29409031462E+02  0.46877291228E+01  0.25386817797E+02  0.39132549802E+02  0.51100000000E-03 0. -1.
        -11    1    3    3    0    0 -0.39075931574E+01 -0.17911681581E+01  0.36945612308E+01  0.56680993819E+01  0.51100000000E-03 0.  1.
        -12    1    3    3    0    0  0.19360922149E+01 -0.20930030920E+01  0.88926841814E+00  0.29866223945E+01  0.00000000000E+00 0.  1.
</event>
<event>
 7    1  0.5359276E-011  0.4778728E+02  0.7816164E-02  0.1312668E+00
        -11   -1    0    0    0    0  0.00000000000E+00  0.00000000000E+00  0.45593999997E+02  0.45594000000E+02  0.51100000000E-03 0. -1.
         11   -1    0    0    0    0 -0.00000000000E+00 -0.00000000000E+00 -0.45593999997E+02  0.45594000000E+02  0.51100000000E-03 0.  1.
    9900012    2    1    2    0    0 -0.22715834393E+01 -0.72403830342E+01 -0.42732183914E+02  0.47787276736E+02  0.20000025948E+02 0.  0.
         12    1    1    2    0    0  0.22715834393E+01  0.72403830342E+01  0.42732183914E+02  0.43400723264E+02  0.00000000000E+00 0. -1.
         11    1    3    3    0    0  0.60892829157E+01 -0.31189906001E+01 -0.10434124924E+02  0.12477116333E+02  0.51100000000E-03 0. -1.
        -11    1    3    3    0    0  0.10894295912E+01  0.24066003924E+01 -0.42850577634E+01  0.50339152337E+01  0.51100000000E-03 0.  1.
        -12    1    3    3    0    0 -0.94502959461E+01 -0.65279928264E+01 -0.28013001227E+02  0.30276245169E+02  0.00000000000E+00 0.  1.
</event>
<event>
 7    1  0.5022032E-011  0.4778727E+02  0.7816164E-02  0.1312668E+00
        -11   -1    0    0    0    0  0.00000000000E+00  0.00000000000E+00  0.45593999997E+02  0.45594000000E+02  0.51100000000E-03 0. -1.
         11   -1    0    0    0    0 -0.00000000000E+00 -0.00000000000E+00 -0.45593999997E+02  0.45594000000E+02  0.51100000000E-03 0.  1.
    9900012    2    1    2    0    0 -0.82033451868E+01 -0.18025014467E+02 -0.38619002280E+02  0.47787270100E+02  0.19999995692E+02 0.  0.
         12    1    1    2    0    0  0.82033451868E+01  0.18025014467E+02  0.38619002280E+02  0.43400729900E+02  0.00000000000E+00 0. -1.
         11    1    3    3    0    0 -0.54046095195E+01 -0.42370394054E+01 -0.59886862622E+01  0.91118971893E+01  0.51100000000E-03 0. -1.
        -11    1    3    3    0    0 -0.77315979108E+01 -0.28373300505E+01 -0.92115756508E+01  0.12356422391E+02  0.51100000000E-03 0.  1.
        -12    1    3    3    0    0  0.49328622435E+01 -0.10950645012E+02 -0.23418740367E+02  0.26318950519E+02  0.00000000000E+00 0.  1.
</event>
<event>
 7    1  0.5022032E-011  0.4778727E+02  0.7816164E-02  0.1312668E+00
        -11   -1    0    0    0    0  0.00000000000E+00  0.00000000000E+00  0.45593999997E+02  0.45594000000E+02  0.51100000000E-03 0. -1.
         11   -1    0    0    0    0 -0.00000000000E+00 -0.00000000000E+00 -0.45593999997E+02  0.45594000000E+02  0.51100000000E-03 0.  1.
    9900012    2    1    2    0    0 -0.17499189312E+01  0.29816438733E+02 -0.31488739604E+02  0.47787274697E+02  0.20000016653E+02 0.  0.
         12    1    1    2    0    0  0.17499189312E+01 -0.29816438733E+02  0.31488739604E+02  0.43400725303E+02  0.00000000000E+00 0. -1.
         11    1    3    3    0    0  0.33467807236E+01  0.56804374035E+01  0.12222490215E+00  0.65941830043E+01  0.51100000000E-03 0. -1.
        -11    1    3    3    0    0 -0.34645237095E+01  0.11183366826E+02 -0.78939307930E+01  0.14120366912E+02  0.51100000000E-03 0.  1.
        -12    1    3    3    0    0 -0.16321759452E+01  0.12952634503E+02 -0.23717033713E+02  0.27072724781E+02  0.00000000000E+00 0.  1.
</event>
<event>
 7    1  0.5022032E-011  0.4778727E+02  0.7816164E-02  0.1312668E+00
        -11   -1    0    0    0    0  0.00000000000E+00  0.00000000000E+00  0.45593999997E+02  0.45594000000E+02  0.51100000000E-03 0. -1.
         11   -1    0    0    0    0 -0.00000000000E+00 -0.00000000000E+00 -0.45593999997E+02  0.45594000000E+02  0.51100000000E-03 0.  1.
    9900012    2    1    2    0    0  0.80289435692E+01 -0.18417118832E+02 -0.38470365233E+02  0.47787271872E+02  0.20000003774E+02 0.  0.
         12    1    1    2    0    0 -0.80289435692E+01  0.18417118832E+02  0.38470365233E+02  0.43400728128E+02  0.00000000000E+00 0. -1.
         11    1    3    3    0    0  0.10184503862E+02 -0.14504853172E+02 -0.22969402296E+02  0.29012209956E+02  0.51100000000E-03 0.  1.
        -11    1    3    3    0    0  0.33161597149E+01 -0.28186868285E+01 -0.36653362268E+01  0.56900439900E+01  0.51100000000E-03 0. -1.
         12    1    3    3    0    0 -0.54717200079E+01 -0.10935788309E+01 -0.11835626710E+02  0.13085017926E+02  0.00000000000E+00 0. -1.
</event>
<event>
 7    1  0.5022032E-011  0.4778732E+02  0.7816164E-02  0.1312668E+00
        -11   -1    0    0    0    0  0.00000000000E+00  0.00000000000E+00  0.45593999997E+02  0.45594000000E+02  0.51100000000E-03 0.  1.
         11   -1    0    0    0    0 -0.00000000000E+00 -0.00000000000E+00 -0.45593999997E+02  0.45594000000E+02  0.51100000000E-03 0. -1.
    9900012    2    1    2    0    0 -0.35915100588E+02  0.24123025126E+02 -0.34357329904E+01  0.47787319675E+02  0.20000221725E+02 0.  0.
         12    1    1    2    0    0  0.35915100588E+02 -0.24123025126E+02  0.34357329904E+01  0.43400680325E+02  0.00000000000E+00 0. -1.
         11    1    3    3    0    0 -0.46658372762E+01  0.11181461795E+02 -0.10598048518E+01  0.12162167239E+02  0.51100000000E-03 0. -1.
        -11    1    3    3    0    0 -0.94412576767E+01  0.57345413387E+01  0.40658457020E+01  0.11770871353E+02  0.51100000000E-03 0.  1.
         12    1    3    3    0    0 -0.21808005635E+02  0.72070219928E+01 -0.64417738406E+01  0.23854281083E+02  0.00000000000E+00 0. -1.
</event>
<event>
 7    1  0.5022032E-011  0.4778727E+02  0.7816164E-02  0.1312668E+00
        -11   -1    0    0    0    0  0.00000000000E+00  0.00000000000E+00  0.45593999997E+02  0.45594000000E+02  0.51100000000E-03 0. -1.
         11   -1    0    0    0    0 -0.00000000000E+00 -0.00000000000E+00 -0.45593999997E+02  0.45594000000E+02  0.51100000000E-03 0.  1.
    9900012    2    1    2    0    0 -0.49681882732E+01  0.42871788395E+02  0.45770959440E+01  0.47787274865E+02  0.20000017421E+02 0.  0.
        -12    1    1    2    0    0  0.49681882732E+01 -0.42871788395E+02 -0.45770959440E+01  0.43400725135E+02  0.00000000000E+00 0.  1.
         11    1    3    3    0    0 -0.41709907861E+01  0.37713902449E+02  0.33160184360E+01  0.38088470442E+02  0.51100000000E-03 0. -1.
        -11    1    3    3    0    0  0.20176448195E+00  0.51602413565E+01 -0.25496621513E+01  0.57593035265E+01  0.51100000000E-03 0.  1.
        -12    1    3    3    0    0 -0.99896196903E+00 -0.23554107233E-02  0.38107396592E+01  0.39395008966E+01  0.00000000000E+00 0.  1.
</event>
<event>
 7    1  0.5022032E-011  0.4778727E+02  0.7816164E-02  0.1312668E+00
        -11   -1    0    0    0    0  0.00000000000E+00  0.00000000000E+00  0.45593999997E+02  0.45594000000E+02  0.51100000000E-03 0. -1.
         11   -1    0    0    0    0 -0.00000000000E+00 -0.00000000000E+00 -0.45593999997E+02  0.45594000000E+02  0.51100000000E-03 0.  1.
    9900012    2    1    2    0    0  0.12418398989E+02 -0.19246767857E+02 -0.36864193464E+02  0.47787268830E+02  0.19999989903E+02 0.  0.
         12    1    1    2    0    0 -0.12418398989E+02  0.19246767857E+02  0.36864193464E+02  0.43400731170E+02  0.00000000000E+00 0. -1.
         11    1    3    3    0    0 -0.10515912555E+01 -0.63133285127E+01 -0.14391726739E+02  0.15750738391E+02  0.51100000000E-03 0. -1.
        -11    1    3    3    0    0  0.10643347507E+02 -0.11187973123E+02 -0.23872487281E+02  0.28431448046E+02  0.51100000000E-03 0.  1.
        -12    1    3    3    0    0  0.28266427379E+01 -0.17454662211E+01  0.14000205567E+01  0.36050823924E+01  0.00000000000E+00 0.  1.
</event>
<event>
 7    1  0.5022032E-011  0.4778728E+02  0.7816164E-02  0.1312668E+00
        -11   -1    0    0    0    0  0.00000000000E+00  0.00000000000E+00  0.45593999997E+02  0.45594000000E+02  0.51100000000E-03 0. -1.
         11   -1    0    0    0    0 -0.00000000000E+00 -0.00000000000E+00 -0.45593999997E+02  0.45594000000E+02  0.51100000000E-03 0.  1.
    9900012    2    1    2    0    0 -0.30962907299E+01 -0.36269122063E+01 -0.43137934773E+02  0.47787275065E+02  0.20000018329E+02 0.  0.
         12    1    1    2    0    0  0.30962907299E+01  0.36269122063E+01  0.43137934773E+02  0.43400724935E+02  0.00000000000E+00 0. -1.
         11    1    3    3    0    0 -0.82874859344E+00 -0.47426841847E+01 -0.33642839205E+01  0.58735239904E+01  0.51100000000E-03 0. -1.
        -11    1    3    3    0    0 -0.71768079662E+01 -0.19396121236E+01 -0.21786057159E+02  0.23019577637E+02  0.51100000000E-03 0.  1.
         12    1    3    3    0    0  0.49092658297E+01  0.30553841020E+01 -0.17987593694E+02  0.18894173437E+02  0.00000000000E+00 0. -1.
</event>
<event>
 7    1  0.5022032E-011  0.4778724E+02  0.7816164E-02  0.1312668E+00
        -11   -1    0    0    0    0  0.00000000000E+00  0.00000000000E+00  0.45593999997E+02  0.45594000000E+02  0.51100000000E-03 0. -1.
         11   -1    0    0    0    0 -0.00000000000E+00 -0.00000000000E+00 -0.45593999997E+02  0.45594000000E+02  0.51100000000E-03 0.  1.
    9900012    2    1    2    0    0 -0.12100991394E+02  0.22077162831E+01 -0.41621118933E+02  0.47787244878E+02  0.19999880698E+02 0.  0.
         12    1    1    2    0    0  0.12100991394E+02 -0.22077162831E+01  0.41621118933E+02  0.43400755122E+02  0.00000000000E+00 0. -1.
         11    1    3    3    0    0  0.93094195340E+00  0.99135535411E+00 -0.89093324284E+01  0.90125270008E+01  0.51100000000E-03 0. -1.
        -11    1    3    3    0    0 -0.91849893229E+01  0.70914305735E+01 -0.11128839400E+02  0.16078043509E+02  0.51100000000E-03 0.  1.
        -12    1    3    3    0    0 -0.38469440249E+01 -0.58750696445E+01 -0.21582947105E+02  0.22696674368E+02  0.00000000000E+00 0.  1.
</event>
<event>
 7    1  0.5022032E-011  0.4778727E+02  0.7816164E-02  0.1312668E+00
        -11   -1    0    0    0    0  0.00000000000E+00  0.00000000000E+00  0.45593999997E+02  0.45594000000E+02  0.51100000000E-03 0. -1.
         11   -1    0    0    0    0 -0.00000000000E+00 -0.00000000000E+00 -0.45593999997E+02  0.45594000000E+02  0.51100000000E-03 0.  1.
    9900012    2    1    2    0    0  0.35377165424E+02 -0.19176140708E+02  0.16258992986E+02  0.47787273522E+02  0.20000011296E+02 0.  0.
        -12    1    1    2    0    0 -0.35377165424E+02  0.19176140708E+02 -0.16258992986E+02  0.43400726478E+02  0.00000000000E+00 0.  1.
         11    1    3    3    0    0  0.30782146892E+02 -0.17317398141E+02  0.19768234129E+02  0.40474880191E+02  0.51100000000E-03 0. -1.
        -11    1    3    3    0    0 -0.66164597479E+00 -0.48978303018E+00  0.39132598384E-01  0.82413253424E+00  0.51100000000E-03 0.  1.
         12    1    3    3    0    0  0.52566645068E+01 -0.13689595376E+01 -0.35483737416E+01  0.64882607965E+01  0.00000000000E+00 0. -1.
</event>
<event>
 7    1  0.5022032E-011  0.4778727E+02  0.7816164E-02  0.1312668E+00
        -11   -1    0    0    0    0  0.00000000000E+00  0.00000000000E+00  0.45593999997E+02  0.45594000000E+02  0.51100000000E-03 0. -1.
         11   -1    0    0    0    0 -0.00000000000E+00 -0.00000000000E+00 -0.45593999997E+02  0.45594000000E+02  0.51100000000E-03 0.  1.
    9900012    2    1    2    0    0  0.21650823573E+02  0.22082608562E+02  0.30450347863E+02  0.47787269046E+02  0.19999990890E+02 0.  0.
        -12    1    1    2    0    0 -0.21650823573E+02 -0.22082608562E+02 -0.30450347863E+02  0.43400730954E+02  0.00000000000E+00 0.  1.
         11    1    3    3    0    0  0.79366527481E+01  0.18064293528E+02  0.18525610002E+02  0.27064873614E+02  0.51100000000E-03 0. -1.
        -11    1    3    3    0    0 -0.26307598707E+00  0.81230202938E+00  0.44880791844E+01  0.45685773047E+01  0.51100000000E-03 0.  1.
        -12    1    3    3    0    0  0.13977246812E+02  0.32060130052E+01  0.74366586765E+01  0.16153818128E+02  0.00000000000E+00 0.  1.
</event>
<event>
 7    1  0.5022032E-011  0.4778728E+02  0.7816164E-02  0.1312668E+00
        -11   -1    0    0    0    0  0.00000000000E+00  0.00000000000E+00  0.45593999997E+02  0.45594000000E+02  0.51100000000E-03 0. -1.
         11   -1    0    0    0    0 -0.00000000000E+00 -0.00000000000E+00 -0.45593999997E+02  0.45594000000E+02  0.51100000000E-03 0.  1.
    9900012    2    1    2    0    0  0.16500218213E+02 -0.26623976029E+02 -0.30042123913E+02  0.47787279847E+02  0.20000040132E+02 0.  0.
         12    1    1    2    0    0 -0.16500218213E+02  0.26623976029E+02  0.30042123913E+02  0.43400720153E+02  0.00000000000E+00 0. -1.
         11    1    3    3    0    0  0.93464208815E+01 -0.16223328152E+02 -0.11128675755E+02  0.21780711282E+02  0.51100000000E-03 0.  1.
        -11    1    3    3    0    0  0.92526096723E+01 -0.72788747363E+01 -0.74262369446E+01  0.13919116301E+02  0.51100000000E-03 0. -1.
        -12    1    3    3    0    0 -0.20988123413E+01 -0.31217731411E+01 -0.11487211213E+02  0.12087452264E+02  0.00000000000E+00 0.  1.
</event>
<event>
 7    1  0.6059479E-011  0.4778726E+02  0.7816164E-02  0.1312668E+00
        -11   -1    0    0    0    0  0.00000000000E+00  0.00000000000E+00  0.45593999997E+02  0.45594000000E+02  0.51100000000E-03 0. -1.
         11   -1    0    0    0    0 -0.00000000000E+00 -0.00000000000E+00 -0.45593999997E+02  0.45594000000E+02  0.51100000000E-03 0.  1.
    9900012    2    1    2    0    0 -0.34164460143E+01  0.39811533385E+02 -0.16940894915E+02  0.47787260209E+02  0.19999950598E+02 0.  0.
         12    1    1    2    0    0  0.34164460143E+01 -0.39811533385E+02  0.16940894915E+02  0.43400739791E+02  0.00000000000E+00 0. -1.
         11    1    3    3    0    0  0.15081741352E+01  0.19865541775E+01  0.20272467167E+01  0.32141431570E+01  0.51100000000E-03 0.  1.
        -11    1    3    3    0    0  0.21493559773E+01  0.54988185352E+00 -0.15372939655E+00  0.22239006630E+01  0.51100000000E-03 0. -1.
        -12    1    3    3    0    0 -0.70739761268E+01  0.37275097354E+02 -0.18814412236E+02  0.42349216389E+02  0.00000000000E+00 0.  1.
</event>
<event>
 7    1  0.5022032E-011  0.4778727E+02  0.7816164E-02  0.1312668E+00
        -11   -1    0    0    0    0  0.00000000000E+00  0.00000000000E+00  0.45593999997E+02  0.45594000000E+02  0.51100000000E-03 0. -1.
         11   -1    0    0    0    0 -0.00000000000E+00 -0.00000000000E+00 -0.45593999997E+02  0.45594000000E+02  0.51100000000E-03 0.  1.
    9900012    2    1    2    0    0 -0.12054681310E+02 -0.28076874734E+00 -0.41692074249E+02  0.47787271576E+02  0.20000002422E+02 0.  0.
         12    1    1    2    0    0  0.12054681310E+02  0.28076874734E+00  0.41692074249E+02  0.43400728424E+02  0.00000000000E+00 0. -1.
         11    1    3    3    0    0 -0.11286780429E+02  0.51279620896E+01 -0.18381736297E+02  0.22171505073E+02  0.51100000000E-03 0. -1.
        -11    1    3    3    0    0 -0.22063553877E+01 -0.52411757836E+00 -0.60585743349E+00  0.23472892501E+01  0.51100000000E-03 0.  1.
        -12    1    3    3    0    0  0.14384545065E+01 -0.48846132585E+01 -0.22704480518E+02  0.23268477253E+02  0.00000000000E+00 0.  1.
</event>
<event>
 7    1  0.5022032E-011  0.4778727E+02  0.7816164E-02  0.1312668E+00
        -11   -1    0    0    0    0  0.00000000000E+00  0.00000000000E+00  0.45593999997E+02  0.45594000000E+02  0.51100000000E-03 0. -1.
         11   -1    0    0    0    0 -0.00000000000E+00 -0.00000000000E+00 -0.45593999997E+02  0.45594000000E+02  0.51100000000E-03 0.  1.
    9900012    2    1    2    0    0  0.20461222443E+01 -0.93483003983E+01 -0.42332563974E+02  0.47787270638E+02  0.19999998147E+02 0.  0.
         12    1    1    2    0    0 -0.20461222443E+01  0.93483003983E+01  0.42332563974E+02  0.43400729362E+02  0.00000000000E+00 0. -1.
         11    1    3    3    0    0  0.44391101087E+01 -0.77044288635E+01 -0.75283738890E+01  0.11650765483E+02  0.51100000000E-03 0. -1.
        -11    1    3    3    0    0  0.33739435686E+01 -0.11237786879E+01 -0.87180918199E+01  0.94154924983E+01  0.51100000000E-03 0.  1.
        -12    1    3    3    0    0 -0.57669314330E+01 -0.52009284693E+00 -0.26086098265E+02  0.26721012657E+02  0.00000000000E+00 0.  1.
</event>
<event>
 7    1  0.5022032E-011  0.4778727E+02  0.7816164E-02  0.1312668E+00
        -11   -1    0    0    0    0  0.00000000000E+00  0.00000000000E+00  0.45593999997E+02  0.45594000000E+02  0.51100000000E-03 0. -1.
         11   -1    0    0    0    0 -0.00000000000E+00 -0.00000000000E+00 -0.45593999997E+02  0.45594000000E+02  0.51100000000E-03 0.  1.
    9900012    2    1    2    0    0 -0.53499616704E+01 -0.25595905005E+02  0.34638862836E+02  0.47787271187E+02  0.20000000652E+02 0.  0.
        -12    1    1    2    0    0  0.53499616704E+01  0.25595905005E+02 -0.34638862836E+02  0.43400728813E+02  0.00000000000E+00 0.  1.
         11    1    3    3    0    0  0.20358901595E+01 -0.21188437818E+01  0.18988701382E+01  0.34985791082E+01  0.51100000000E-03 0. -1.
        -11    1    3    3    0    0  0.32207810554E+01  0.80598636644E+00  0.33429946843E+01  0.47115452190E+01  0.51100000000E-03 0.  1.
         12    1    3    3    0    0 -0.10606632885E+02 -0.24283047590E+02  0.29396998013E+02  0.39577146860E+02  0.00000000000E+00 0. -1.
</event>
<event>
 7    1  0.5022032E-011  0.4778727E+02  0.7816164E-02  0.1312668E+00
        -11   -1    0    0    0    0  0.00000000000E+00  0.00000000000E+00  0.45593999997E+02  0.45594000000E+02  0.51100000000E-03 0. -1.
         11   -1    0    0    0    0 -0.00000000000E+00 -0.00000000000E+00 -0.45593999997E+02  0.45594000000E+02  0.51100000000E-03 0.  1.
    9900012    2    1    2    0    0 -0.28195256875E+02  0.26419358436E+02  0.19765325925E+02  0.47787272825E+02  0.20000008117E+02 0.  0.
        -12    1    1    2    0    0  0.28195256875E+02 -0.26419358436E+02 -0.19765325925E+02  0.43400727175E+02  0.00000000000E+00 0.  1.
         11    1    3    3    0    0 -0.33216436421E+01  0.19679829811E+01  0.96292505398E+00  0.39791328729E+01  0.51100000000E-03 0. -1.
        -11    1    3    3    0    0 -0.22066369665E+02  0.11468236807E+02  0.17608617006E+02  0.30471437754E+02  0.51100000000E-03 0.  1.
        -12    1    3    3    0    0 -0.28072435679E+01  0.12983138648E+02  0.11937838654E+01  0.13336702198E+02  0.00000000000E+00 0.  1.
</event>
<event>
 7    1  0.5022032E-011  0.4778728E+02  0.7816164E-02  0.1312668E+00
        -11   -1    0    0    0    0  0.00000000000E+00  0.00000000000E+00  0.45593999997E+02  0.45594000000E+02  0.51100000000E-03 0. -1.
         11   -1    0    0    0    0 -0.00000000000E+00 -0.00000000000E+00 -0.45593999997E+02  0.45594000000E+02  0.51100000000E-03 0.  1.
    9900012    2    1    2    0    0  0.15898928662E+01 -0.66755381726E+00 -0.43366449543E+02  0.47787281880E+02  0.20000049402E+02 0.  0.
         12    1    1    2    0    0 -0.15898928662E+01  0.66755381726E+00  0.43366449543E+02  0.43400718120E+02  0.00000000000E+00 0. -1.
         11    1    3    3    0    0  0.52874831291E+01 -0.42312493417E+01 -0.13727956012E+02  0.15307440196E+02  0.51100000000E-03 0. -1.
        -11    1    3    3    0    0  0.30162412789E+01  0.44955740401E+01 -0.19840228892E+02  0.20565567829E+02  0.51100000000E-03 0.  1.
         12    1    3    3    0    0 -0.67138315418E+01 -0.93187851568E+00 -0.97982646387E+01  0.11914273854E+02  0.00000000000E+00 0. -1.
</event>
<event>
 7    1  0.5022032E-011  0.4778725E+02  0.7816164E-02  0.1312668E+00
        -11   -1    0    0    0    0  0.00000000000E+00  0.00000000000E+00  0.45593999997E+02  0.45594000000E+02  0.51100000000E-03 0. -1.
         11   -1    0    0    0    0 -0.00000000000E+00 -0.00000000000E+00 -0.45593999997E+02  0.45594000000E+02  0.51100000000E-03 0.  1.
    9900012    2    1    2    0    0 -0.16864746848E+02 -0.33479756858E+02  0.21870324752E+02  0.47787252193E+02  0.19999914047E+02 0.  0.
        -12    1    1    2    0    0  0.16864746848E+02  0.33479756858E+02 -0.21870324752E+02  0.43400747807E+02  0.00000000000E+00 0.  1.
         11    1    3    3    0    0  0.10581079568E+01 -0.23749608471E+01  0.64534643589E+01  0.69575307377E+01  0.51100000000E-03 0.  1.
        -11    1    3    3    0    0  0.15615181755E+01 -0.40625870157E+01  0.75684958177E+00  0.44176661059E+01  0.51100000000E-03 0. -1.
        -12    1    3    3    0    0 -0.19484372980E+02 -0.27042208995E+02  0.14660010811E+02  0.36412055349E+02  0.00000000000E+00 0.  1.
</event>
<event>
 7    1  0.5022032E-011  0.4778725E+02  0.7816164E-02  0.1312668E+00
        -11   -1    0    0    0    0  0.00000000000E+00  0.00000000000E+00  0.45593999997E+02  0.45594000000E+02  0.51100000000E-03 0. -1.
         11   -1    0    0    0    0 -0.00000000000E+00 -0.00000000000E+00 -0.45593999997E+02  0.45594000000E+02  0.51100000000E-03 0.  1.
    9900012    2    1    2    0    0  0.19302777110E+02  0.95615888537E+01  0.37677628331E+02  0.47787252746E+02  0.19999916571E+02 0.  0.
        -12    1    1    2    0    0 -0.19302777110E+02 -0.95615888537E+01 -0.37677628331E+02  0.43400747254E+02  0.00000000000E+00 0.  1.
         11    1    3    3    0    0  0.47964243139E+01 -0.81413602432E+00  0.80008041241E+00  0.49303785446E+01  0.51100000000E-03 0. -1.
        -11    1    3    3    0    0  0.60670073000E+01  0.82079353774E+01  0.88605433147E+01  0.13516212814E+02  0.51100000000E-03 0.  1.
         12    1    3    3    0    0  0.84393454959E+01  0.21677895007E+01  0.28017004604E+02  0.29340661388E+02  0.00000000000E+00 0. -1.
</event>
<event>
 7    1  0.5022032E-011  0.4778728E+02  0.7816164E-02  0.1312668E+00
        -11   -1    0    0    0    0  0.00000000000E+00  0.00000000000E+00  0.45593999997E+02  0.45594000000E+02  0.51100000000E-03 0. -1.
         11   -1    0    0    0    0 -0.00000000000E+00 -0.00000000000E+00 -0.45593999997E+02  0.45594000000E+02  0.51100000000E-03 0.  1.
    9900012    2    1    2    0    0 -0.20749575930E+02  0.32425477302E+02 -0.20041609277E+02  0.47787279015E+02  0.20000036343E+02 0.  0.
         12    1    1    2    0    0  0.20749575930E+02 -0.32425477302E+02  0.20041609277E+02  0.43400720985E+02  0.00000000000E+00 0. -1.
         11    1    3    3    0    0  0.85360787062E+00  0.12078827130E+00 -0.19665812730E+00  0.88425724958E+00  0.51100000000E-03 0. -1.
        -11    1    3    3    0    0 -0.71684869280E+01  0.16855883069E+02 -0.17998044551E+02  0.25679517261E+02  0.51100000000E-03 0.  1.
        -12    1    3    3    0    0 -0.14434696873E+02  0.15448805962E+02 -0.18469065992E+01  0.21223504505E+02  0.00000000000E+00 0.  1.
</event>
<event>
 7    1  0.5022032E-011  0.4778727E+02  0.7816164E-02  0.1312668E+00
        -11   -1    0    0    0    0  0.00000000000E+00  0.00000000000E+00  0.45593999997E+02  0.45594000000E+02  0.51100000000E-03 0. -1.
         11   -1    0    0    0    0 -0.00000000000E+00 -0.00000000000E+00 -0.45593999997E+02  0.45594000000E+02  0.51100000000E-03 0.  1.
    9900012    2    1    2    0    0 -0.20246255374E+02 -0.65073844918E+01 -0.37833399539E+02  0.47787273851E+02  0.20000012795E+02 0.  0.
         12    1    1    2    0    0  0.20246255374E+02  0.65073844918E+01  0.37833399539E+02  0.43400726149E+02  0.00000000000E+00 0. -1.
         11    1    3    3    0    0 -0.35528217096E+01 -0.19934943144E+01 -0.26137627650E+01  0.48402807495E+01  0.51100000000E-03 0. -1.
        -11    1    3    3    0    0  0.10377537337E+01 -0.25065016322E+01 -0.17814349205E+02  0.18019725888E+02  0.51100000000E-03 0.  1.
        -12    1    3    3    0    0 -0.17731187398E+02 -0.20073885452E+01 -0.17405287569E+02  0.24927267213E+02  0.00000000000E+00 0.  1.
</event>
<event>
 7    1  0.5022032E-011  0.4778727E+02  0.7816164E-02  0.1312668E+00
        -11   -1    0    0    0    0  0.00000000000E+00  0.00000000000E+00  0.45593999997E+02  0.45594000000E+02  0.51100000000E-03 0. -1.
         11   -1    0    0    0    0 -0.00000000000E+00 -0.00000000000E+00 -0.45593999997E+02  0.45594000000E+02  0.51100000000E-03 0.  1.
    9900012    2    1    2    0    0 -0.12191353025E+02  0.50327989035E+01 -0.41348093577E+02  0.47787274247E+02  0.20000014604E+02 0.  0.
         12    1    1    2    0    0  0.12191353025E+02 -0.50327989035E+01  0.41348093577E+02  0.43400725753E+02  0.00000000000E+00 0. -1.
         11    1    3    3    0    0 -0.46743145751E+01  0.22659677487E+01  0.19326852403E+00  0.51981900281E+01  0.51100000000E-03 0. -1.
        -11    1    3    3    0    0 -0.41819786384E+01  0.61927857545E+00 -0.10884743215E+02  0.11676903973E+02  0.51100000000E-03 0.  1.
         12    1    3    3    0    0 -0.33350598120E+01  0.21475525793E+01 -0.30656618886E+02  0.30912180246E+02  0.00000000000E+00 0. -1.
</event>
<event>
 7    1  0.5022032E-011  0.4778726E+02  0.7816164E-02  0.1312668E+00
        -11   -1    0    0    0    0  0.00000000000E+00  0.00000000000E+00  0.45593999997E+02  0.45594000000E+02  0.51100000000E-03 0. -1.
         11   -1    0    0    0    0 -0.00000000000E+00 -0.00000000000E+00 -0.45593999997E+02  0.45594000000E+02  0.51100000000E-03 0.  1.
    9900012    2    1    2    0    0  0.20076038146E+02  0.30845741014E+02  0.23002540588E+02  0.47787263602E+02  0.19999966067E+02 0.  0.
        -12    1    1    2    0    0 -0.20076038146E+02 -0.30845741014E+02 -0.23002540588E+02  0.43400736398E+02  0.00000000000E+00 0.  1.
         11    1    3    3    0    0  0.10715697368E+02  0.20578960608E+02  0.17138499303E+02  0.28845241348E+02  0.51100000000E-03 0. -1.
        -11    1    3    3    0    0 -0.99373781523E+00  0.71189131878E+01  0.22198788116E+01  0.75229184509E+01  0.51100000000E-03 0.  1.
        -12    1    3    3    0    0  0.10354078593E+02  0.31478672188E+01  0.36441624738E+01  0.11419103803E+02  0.00000000000E+00 0.  1.
</event>
<event>
 7    1  0.5022032E-011  0.4778727E+02  0.7816164E-02  0.1312668E+00
        -11   -1    0    0    0    0  0.00000000000E+00  0.00000000000E+00  0.45593999997E+02  0.45594000000E+02  0.51100000000E-03 0.  1.
         11   -1    0    0    0    0 -0.00000000000E+00 -0.00000000000E+00 -0.45593999997E+02  0.45594000000E+02  0.51100000000E-03 0. -1.
    9900012    2    1    2    0    0 -0.25486457925E+02 -0.34249251747E+02 -0.78136126491E+01  0.47787270450E+02  0.19999997291E+02 0.  0.
         12    1    1    2    0    0  0.25486457925E+02  0.34249251747E+02  0.78136126491E+01  0.43400729550E+02  0.00000000000E+00 0. -1.
         11    1    3    3    0    0 -0.17141032101E+02 -0.23128310425E+02 -0.36039627354E+01  0.29012450298E+02  0.51100000000E-03 0.  1.
        -11    1    3    3    0    0 -0.40808475593E+01 -0.64119451974E+01  0.38438511341E+01  0.85171327228E+01  0.51100000000E-03 0. -1.
         12    1    3    3    0    0 -0.42645782643E+01 -0.47089961247E+01 -0.80535010477E+01  0.10257687429E+02  0.00000000000E+00 0. -1.
</event>
<event>
 7    1  0.5022032E-011  0.4778727E+02  0.7816164E-02  0.1312668E+00
        -11   -1    0    0    0    0  0.00000000000E+00  0.00000000000E+00  0.45593999997E+02  0.45594000000E+02  0.51100000000E-03 0. -1.
         11   -1    0    0    0    0 -0.00000000000E+00 -0.00000000000E+00 -0.45593999997E+02  0.45594000000E+02  0.51100000000E-03 0.  1.
    9900012    2    1    2    0    0 -0.21528782592E+02  0.19476413618E+02 -0.32261495697E+02  0.47787271067E+02  0.20000000102E+02 0.  0.
         12    1    1    2    0    0  0.21528782592E+02 -0.19476413618E+02  0.32261495697E+02  0.43400728933E+02  0.00000000000E+00 0. -1.
         11    1    3    3    0    0 -0.12463353680E+02  0.14550962120E+01 -0.10955162739E+02  0.16657373167E+02  0.51100000000E-03 0. -1.
        -11    1    3    3    0    0 -0.93057593830E+01  0.71359917235E+01 -0.12360079244E+02  0.17037931058E+02  0.51100000000E-03 0.  1.
        -12    1    3    3    0    0  0.24033047021E+00  0.10885325682E+02 -0.89462537144E+01  0.14091966842E+02  0.00000000000E+00 0.  1.
</event>
<event>
 7    1  0.5022032E-011  0.4778727E+02  0.7816164E-02  0.1312668E+00
        -11   -1    0    0    0    0  0.00000000000E+00  0.00000000000E+00  0.45593999997E+02  0.45594000000E+02  0.51100000000E-03 0. -1.
         11   -1    0    0    0    0 -0.00000000000E+00 -0.00000000000E+00 -0.45593999997E+02  0.45594000000E+02  0.51100000000E-03 0.  1.
    9900012    2    1    2    0    0 -0.36085682240E+02 -0.70065831941E+01  0.23072816855E+02  0.47787267881E+02  0.19999985578E+02 0.  0.
        -12    1    1    2    0    0  0.36085682240E+02  0.70065831941E+01 -0.23072816855E+02  0.43400732119E+02  0.00000000000E+00 0.  1.
         11    1    3    3    0    0 -0.35221324069E+01 -0.83637883426E+00  0.56947511544E+00  0.36645938949E+01  0.51100000000E-03 0.  1.
        -11    1    3    3    0    0 -0.10331317948E+02  0.21817416082E+01 -0.11282177588E+01  0.10619275049E+02  0.51100000000E-03 0. -1.
         12    1    3    3    0    0 -0.22232231886E+02 -0.83519459681E+01  0.23631559498E+02  0.33503398938E+02  0.00000000000E+00 0. -1.
</event>
<event>
 7    1  0.5022032E-011  0.4778727E+02  0.7816164E-02  0.1312668E+00
        -11   -1    0    0    0    0  0.00000000000E+00  0.00000000000E+00  0.45593999997E+02  0.45594000000E+02  0.51100000000E-03 0. -1.
         11   -1    0    0    0    0 -0.00000000000E+00 -0.00000000000E+00 -0.45593999997E+02  0.45594000000E+02  0.51100000000E-03 0.  1.
    9900012    2    1    2    0    0  0.84566009654E+01  0.18945672353E+02  0.38120474054E+02  0.47787272553E+02  0.20000006877E+02 0.  0.
        -12    1    1    2    0    0 -0.84566009654E+01 -0.18945672353E+02 -0.38120474054E+02  0.43400727447E+02  0.00000000000E+00 0.  1.
         11    1    3    3    0    0  0.55940068120E+01  0.22465077543E+02  0.30194642489E+02  0.38048509255E+02  0.51100000000E-03 0. -1.
        -11    1    3    3    0    0  0.16063131528E+01  0.45774291950E-01  0.11370956101E+01  0.19685842421E+01  0.51100000000E-03 0.  1.
         12    1    3    3    0    0  0.12562810005E+01 -0.35651794815E+01  0.67887359555E+01  0.77701790560E+01  0.00000000000E+00 0. -1.
</event>
<event>
 7    1  0.5022032E-011  0.4778727E+02  0.7816164E-02  0.1312668E+00
        -11   -1    0    0    0    0  0.00000000000E+00  0.00000000000E+00  0.45593999997E+02  0.45594000000E+02  0.51100000000E-03 0. -1.
         11   -1    0    0    0    0 -0.00000000000E+00 -0.00000000000E+00 -0.45593999997E+02  0.45594000000E+02  0.51100000000E-03 0.  1.
    9900012    2    1    2    0    0  0.25084652660E+02  0.17149474395E+02 -0.30988372742E+02  0.47787268252E+02  0.19999987267E+02 0.  0.
         12    1    1    2    0    0 -0.25084652660E+02 -0.17149474395E+02  0.30988372742E+02  0.43400731748E+02  0.00000000000E+00 0. -1.
         11    1    3    3    0    0  0.59816742305E+01 -0.23185213675E+01 -0.65427414289E+00  0.64485690542E+01  0.51100000000E-03 0. -1.
        -11    1    3    3    0    0  0.10387269183E+01  0.39620961343E+01 -0.29184600794E+01  0.50293706251E+01  0.51100000000E-03 0.  1.
         12    1    3    3    0    0  0.18064251511E+02  0.15505899628E+02 -0.27415638519E+02  0.36309328572E+02  0.00000000000E+00 0. -1.
</event>
<event>
 7    1  0.5022032E-011  0.4778727E+02  0.7816164E-02  0.1312668E+00
        -11   -1    0    0    0    0  0.00000000000E+00  0.00000000000E+00  0.45593999997E+02  0.45594000000E+02  0.51100000000E-03 0. -1.
         11   -1    0    0    0    0 -0.00000000000E+00 -0.00000000000E+00 -0.45593999997E+02  0.45594000000E+02  0.51100000000E-03 0.  1.
    9900012    2    1    2    0    0 -0.12488626834E+01  0.25635651116E+02 -0.34998241263E+02  0.47787272383E+02  0.20000006104E+02 0.  0.
         12    1    1    2    0    0  0.12488626834E+01 -0.25635651116E+02  0.34998241263E+02  0.43400727617E+02  0.00000000000E+00 0. -1.
         11    1    3    3    0    0 -0.14042515826E+01 -0.64048075577E-01 -0.12597384292E+01  0.18875820073E+01  0.51100000000E-03 0. -1.
        -11    1    3    3    0    0 -0.59419083972E+01  0.23993673120E+02 -0.25565977227E+02  0.35561521579E+02  0.51100000000E-03 0.  1.
        -12    1    3    3    0    0  0.60972972964E+01  0.17060260718E+01 -0.81725256069E+01  0.10338168797E+02  0.00000000000E+00 0.  1.
</event>
<event>
 7    1  0.5022032E-011  0.4778727E+02  0.7816164E-02  0.1312668E+00
        -11   -1    0    0    0    0  0.00000000000E+00  0.00000000000E+00  0.45593999997E+02  0.45594000000E+02  0.51100000000E-03 0. -1.
         11   -1    0    0    0    0 -0.00000000000E+00 -0.00000000000E+00 -0.45593999997E+02  0.45594000000E+02  0.51100000000E-03 0.  1.
    9900012    2    1    2    0    0 -0.76830069583E+01  0.75279743303E+01  0.42046690420E+02  0.47787272256E+02  0.20000005524E+02 0.  0.
        -12    1    1    2    0    0  0.76830069583E+01 -0.75279743303E+01 -0.42046690420E+02  0.43400727744E+02  0.00000000000E+00 0.  1.
         11    1    3    3    0    0  0.24043197890E+01 -0.25436371913E+00  0.25342207529E+01  0.35025318892E+01  0.51100000000E-03 0. -1.
        -11    1    3    3    0    0 -0.68491525286E+01  0.23770108764E+01  0.41262180214E+01  0.83418670864E+01  0.51100000000E-03 0.  1.
         12    1    3    3    0    0 -0.32381742187E+01  0.54053271731E+01  0.35386251646E+02  0.35942873280E+02  0.00000000000E+00 0. -1.
</event>
<event>
 7    1  0.5022032E-011  0.4778727E+02  0.7816164E-02  0.1312668E+00
        -11   -1    0    0    0    0  0.00000000000E+00  0.00000000000E+00  0.45593999997E+02  0.45594000000E+02  0.51100000000E-03 0. -1.
         11   -1    0    0    0    0 -0.00000000000E+00 -0.00000000000E+00 -0.45593999997E+02  0.45594000000E+02  0.51100000000E-03 0.  1.
    9900012    2    1    2    0    0 -0.36157845811E+01 -0.11437711251E+02 -0.41710051978E+02  0.47787267600E+02  0.19999984297E+02 0.  0.
         12    1    1    2    0    0  0.36157845811E+01  0.11437711251E+02  0.41710051978E+02  0.43400732400E+02  0.00000000000E+00 0. -1.
         11    1    3    3    0    0  0.72831158152E+00  0.33621454860E+00 -0.81448364741E+01  0.81842433635E+01  0.51100000000E-03 0. -1.
        -11    1    3    3    0    0 -0.11737344547E+00 -0.15331791852E+02 -0.26719700966E+02  0.30806168828E+02  0.51100000000E-03 0.  1.
         12    1    3    3    0    0 -0.42267227172E+01  0.35578660529E+01 -0.68455145386E+01  0.87968554084E+01  0.00000000000E+00 0. -1.
</event>
<event>
 7    1  0.5022032E-011  0.4778727E+02  0.7816164E-02  0.1312668E+00
        -11   -1    0    0    0    0  0.00000000000E+00  0.00000000000E+00  0.45593999997E+02  0.45594000000E+02  0.51100000000E-03 0. -1.
         11   -1    0    0    0    0 -0.00000000000E+00 -0.00000000000E+00 -0.45593999997E+02  0.45594000000E+02  0.51100000000E-03 0.  1.
    9900012    2    1    2    0    0  0.90096112871E+01  0.11626098140E+02 -0.40832386516E+02  0.47787273715E+02  0.20000012176E+02 0.  0.
         12    1    1    2    0    0 -0.90096112871E+01 -0.11626098140E+02  0.40832386516E+02  0.43400726285E+02  0.00000000000E+00 0. -1.
         11    1    3    3    0    0  0.12367807676E+01 -0.85589671054E+00 -0.72136123948E+00  0.16680971630E+01  0.51100000000E-03 0. -1.
        -11    1    3    3    0    0  0.10941944419E+02  0.14025099089E+02 -0.38131320610E+02  0.42076444287E+02  0.51100000000E-03 0.  1.
         12    1    3    3    0    0 -0.31691138996E+01 -0.15431042386E+01 -0.19797046664E+01  0.40427322649E+01  0.00000000000E+00 0. -1.
</event>
<event>
 7    1  0.5022032E-011  0.4778727E+02  0.7816164E-02  0.1312668E+00
        -11   -1    0    0    0    0  0.00000000000E+00  0.00000000000E+00  0.45593999997E+02  0.45594000000E+02  0.51100000000E-03 0. -1.
         11   -1    0    0    0    0 -0.00000000000E+00 -0.00000000000E+00 -0.45593999997E+02  0.45594000000E+02  0.51100000000E-03 0.  1.
    9900012    2    1    2    0    0 -0.60194785126E+01  0.13378231803E+01  0.42960440324E+02  0.47787270452E+02  0.19999997300E+02 0.  0.
        -12    1    1    2    0    0  0.60194785126E+01 -0.13378231803E+01 -0.42960440324E+02  0.43400729548E+02  0.00000000000E+00 0.  1.
         11    1    3    3    0    0  0.34581377064E+01  0.31957224962E+01  0.18330147274E+02  0.18925265071E+02  0.51100000000E-03 0. -1.
        -11    1    3    3    0    0 -0.68575125604E+00 -0.53351140356E+01  0.11349281023E+02  0.12559453673E+02  0.51100000000E-03 0.  1.
        -12    1    3    3    0    0 -0.87918649629E+01  0.34772147196E+01  0.13281012027E+02  0.16302551708E+02  0.00000000000E+00 0.  1.
</event>
<event>
 7    1  0.5022032E-011  0.4778729E+02  0.7816164E-02  0.1312668E+00
        -11   -1    0    0    0    0  0.00000000000E+00  0.00000000000E+00  0.45593999997E+02  0.45594000000E+02  0.51100000000E-03 0. -1.
         11   -1    0    0    0    0 -0.00000000000E+00 -0.00000000000E+00 -0.45593999997E+02  0.45594000000E+02  0.51100000000E-03 0.  1.
    9900012    2    1    2    0    0 -0.24128828909E+02  0.10690279125E+02  0.34454880627E+02  0.47787294346E+02  0.20000106240E+02 0.  0.
        -12    1    1    2    0    0  0.24128828909E+02 -0.10690279125E+02 -0.34454880627E+02  0.43400705654E+02  0.00000000000E+00 0.  1.
         11    1    3    3    0    0  0.92056263347E+00 -0.20991953623E+01  0.23903645373E+01  0.33117819393E+01  0.51100000000E-03 0. -1.
        -11    1    3    3    0    0 -0.29544218335E+01  0.18136292407E+01 -0.62352723410E+00  0.35223068955E+01  0.51100000000E-03 0.  1.
         12    1    3    3    0    0 -0.22094969709E+02  0.10975845247E+02  0.32688043324E+02  0.40953205511E+02  0.00000000000E+00 0. -1.
</event>
<event>
 7    1  0.5022032E-011  0.4778727E+02  0.7816164E-02  0.1312668E+00
        -11   -1    0    0    0    0  0.00000000000E+00  0.00000000000E+00  0.45593999997E+02  0.45594000000E+02  0.51100000000E-03 0. -1.
         11   -1    0    0    0    0 -0.00000000000E+00 -0.00000000000E+00 -0.45593999997E+02  0.45594000000E+02  0.51100000000E-03 0.  1.
    9900012    2    1    2    0    0 -0.25585477903E+02  0.27964846219E+02 -0.21141759392E+02  0.47787270815E+02  0.19999998954E+02 0.  0.
         12    1    1    2    0    0  0.25585477903E+02 -0.27964846219E+02  0.21141759392E+02  0.43400729185E+02  0.00000000000E+00 0. -1.
         11    1    3    3    0    0  0.29285007073E+01  0.25392209479E+01 -0.30073174486E+00  0.38876984526E+01  0.51100000000E-03 0. -1.
        -11    1    3    3    0    0 -0.29995991270E-01 -0.16607629514E+00 -0.52608679932E+00  0.55249314642E+00  0.51100000000E-03 0.  1.
        -12    1    3    3    0    0 -0.28483982619E+02  0.25591701566E+02 -0.20314940848E+02  0.43347079216E+02  0.00000000000E+00 0.  1.
</event>
<event>
 7    1  0.5022032E-011  0.4778727E+02  0.7816164E-02  0.1312668E+00
        -11   -1    0    0    0    0  0.00000000000E+00  0.00000000000E+00  0.45593999997E+02  0.45594000000E+02  0.51100000000E-03 0. -1.
         11   -1    0    0    0    0 -0.00000000000E+00 -0.00000000000E+00 -0.45593999997E+02  0.45594000000E+02  0.51100000000E-03 0.  1.
    9900012    2    1    2    0    0  0.24465545422E+02 -0.27720468443E+01 -0.35740401977E+02  0.47787268555E+02  0.19999988651E+02 0.  0.
         12    1    1    2    0    0 -0.24465545422E+02  0.27720468443E+01  0.35740401977E+02  0.43400731445E+02  0.00000000000E+00 0. -1.
         11    1    3    3    0    0  0.57434952308E+01  0.55715646993E+01 -0.10505559985E+02  0.13205940387E+02  0.51100000000E-03 0. -1.
        -11    1    3    3    0    0  0.27110205501E+01 -0.98670708165E+00 -0.12531163022E+02  0.12858976251E+02  0.51100000000E-03 0.  1.
         12    1    3    3    0    0  0.16011029641E+02 -0.73569044619E+01 -0.12703678970E+02  0.21722351917E+02  0.00000000000E+00 0. -1.
</event>
<event>
 7    1  0.5022032E-011  0.4778728E+02  0.7816164E-02  0.1312668E+00
        -11   -1    0    0    0    0  0.00000000000E+00  0.00000000000E+00  0.45593999997E+02  0.45594000000E+02  0.51100000000E-03 0. -1.
         11   -1    0    0    0    0 -0.00000000000E+00 -0.00000000000E+00 -0.45593999997E+02  0.45594000000E+02  0.51100000000E-03 0.  1.
    9900012    2    1    2    0    0  0.35504115169E+02 -0.11031067857E+02 -0.22391860828E+02  0.47787284761E+02  0.20000062537E+02 0.  0.
         12    1    1    2    0    0 -0.35504115169E+02  0.11031067857E+02  0.22391860828E+02  0.43400715239E+02  0.00000000000E+00 0. -1.
         11    1    3    3    0    0  0.12416589739E+02  0.57729926469E+00 -0.68225145780E+01  0.14179269396E+02  0.51100000000E-03 0. -1.
        -11    1    3    3    0    0  0.78717989497E+01 -0.12227502041E+02 -0.70985905418E+01  0.16182305547E+02  0.51100000000E-03 0.  1.
        -12    1    3    3    0    0  0.15215726480E+02  0.61913492019E+00 -0.84707557079E+01  0.17425709817E+02  0.00000000000E+00 0.  1.
</event>
<event>
 7    1  0.5022032E-011  0.4778727E+02  0.7816164E-02  0.1312668E+00
        -11   -1    0    0    0    0  0.00000000000E+00  0.00000000000E+00  0.45593999997E+02  0.45594000000E+02  0.51100000000E-03 0.  1.
         11   -1    0    0    0    0 -0.00000000000E+00 -0.00000000000E+00 -0.45593999997E+02  0.45594000000E+02  0.51100000000E-03 0. -1.
    9900012    2    1    2    0    0  0.41769068643E+02  0.11369744045E+02  0.31140645865E+01  0.47787267596E+02  0.19999984279E+02 0.  0.
         12    1    1    2    0    0 -0.41769068643E+02 -0.11369744045E+02 -0.31140645865E+01  0.43400732404E+02  0.00000000000E+00 0. -1.
         11    1    3    3    0    0  0.36061334473E+01  0.77951414358E+00 -0.65329616312E+00  0.37468168994E+01  0.51100000000E-03 0. -1.
        -11    1    3    3    0    0  0.40326387066E+02  0.10306585773E+02  0.41357887138E+01  0.41827597979E+02  0.51100000000E-03 0.  1.
         12    1    3    3    0    0 -0.21634518708E+01  0.28364412793E+00 -0.36842796417E+00  0.22128527184E+01  0.00000000000E+00 0. -1.
</event>
<event>
 7    1  0.5022032E-011  0.4778727E+02  0.7816164E-02  0.1312668E+00
        -11   -1    0    0    0    0  0.00000000000E+00  0.00000000000E+00  0.45593999997E+02  0.45594000000E+02  0.51100000000E-03 0. -1.
         11   -1    0    0    0    0 -0.00000000000E+00 -0.00000000000E+00 -0.45593999997E+02  0.45594000000E+02  0.51100000000E-03 0.  1.
    9900012    2    1    2    0    0 -0.14079220444E+02  0.40235428693E+02 -0.81553123239E+01  0.47787270865E+02  0.19999999181E+02 0.  0.
         12    1    1    2    0    0  0.14079220444E+02 -0.40235428693E+02  0.81553123239E+01  0.43400729135E+02  0.00000000000E+00 0. -1.
         11    1    3    3    0    0 -0.50504500558E+01  0.24435508267E+02  0.24177493801E+00  0.24953147405E+02  0.51100000000E-03 0.  1.
        -11    1    3    3    0    0 -0.83356906087E+01  0.85453834723E+01 -0.30129898449E+00  0.11941444551E+02  0.51100000000E-03 0. -1.
         12    1    3    3    0    0 -0.69307977916E+00  0.72545369532E+01 -0.80957882775E+01  0.10892678909E+02  0.00000000000E+00 0. -1.
</event>
<event>
 7    1  0.5022032E-011  0.4778726E+02  0.7816164E-02  0.1312668E+00
        -11   -1    0    0    0    0  0.00000000000E+00  0.00000000000E+00  0.45593999997E+02  0.45594000000E+02  0.51100000000E-03 0. -1.
         11   -1    0    0    0    0 -0.00000000000E+00 -0.00000000000E+00 -0.45593999997E+02  0.45594000000E+02  0.51100000000E-03 0.  1.
    9900012    2    1    2    0    0  0.17246893455E+02  0.10524898855E+02 -0.38410874742E+02  0.47787261202E+02  0.19999955125E+02 0.  0.
         12    1    1    2    0    0 -0.17246893455E+02 -0.10524898855E+02  0.38410874742E+02  0.43400738798E+02  0.00000000000E+00 0. -1.
         11    1    3    3    0    0  0.77552114612E+01  0.12421265528E+01 -0.44740132879E+01  0.90389699824E+01  0.51100000000E-03 0. -1.
        -11    1    3    3    0    0 -0.77622427874E+00  0.46886468353E+01 -0.25219702782E+01  0.53801735681E+01  0.51100000000E-03 0.  1.
        -12    1    3    3    0    0  0.10267906273E+02  0.45941254673E+01 -0.31414891176E+02  0.33368117652E+02  0.00000000000E+00 0.  1.
</event>
<event>
 7    1  0.5022032E-011  0.4778727E+02  0.7816164E-02  0.1312668E+00
        -11   -1    0    0    0    0  0.00000000000E+00  0.00000000000E+00  0.45593999997E+02  0.45594000000E+02  0.51100000000E-03 0. -1.
         11   -1    0    0    0    0 -0.00000000000E+00 -0.00000000000E+00 -0.45593999997E+02  0.45594000000E+02  0.51100000000E-03 0.  1.
    9900012    2    1    2    0    0 -0.22757792117E+02  0.18332336487E+02 -0.32087874216E+02  0.47787270342E+02  0.19999996798E+02 0.  0.
         12    1    1    2    0    0  0.22757792117E+02 -0.18332336487E+02  0.32087874216E+02  0.43400729658E+02  0.00000000000E+00 0. -1.
         11    1    3    3    0    0  0.20955680527E+01  0.60914057600E+01 -0.68121467558E+01  0.93756052220E+01  0.51100000000E-03 0. -1.
        -11    1    3    3    0    0 -0.36921905011E+01 -0.10769292547E+01 -0.43578647023E+01  0.58123172953E+01  0.51100000000E-03 0.  1.
         12    1    3    3    0    0 -0.21161169669E+02  0.13317859981E+02 -0.20917862758E+02  0.32599347825E+02  0.00000000000E+00 0. -1.
</event>
<event>
 7    1  0.5022032E-011  0.4778726E+02  0.7816164E-02  0.1312668E+00
        -11   -1    0    0    0    0  0.00000000000E+00  0.00000000000E+00  0.45593999997E+02  0.45594000000E+02  0.51100000000E-03 0. -1.
         11   -1    0    0    0    0 -0.00000000000E+00 -0.00000000000E+00 -0.45593999997E+02  0.45594000000E+02  0.51100000000E-03 0.  1.
    9900012    2    1    2    0    0 -0.21770526512E+02 -0.32465960624E+02 -0.18858155118E+02  0.47787257630E+02  0.19999938836E+02 0.  0.
         12    1    1    2    0    0  0.21770526512E+02  0.32465960624E+02  0.18858155118E+02  0.43400742370E+02  0.00000000000E+00 0. -1.
         11    1    3    3    0    0 -0.69380502138E+01 -0.38483843098E+01  0.50913422629E+00  0.79502088329E+01  0.51100000000E-03 0. -1.
        -11    1    3    3    0    0 -0.10655340986E+02 -0.91450854592E+01 -0.37649817680E+01  0.14537674077E+02  0.51100000000E-03 0.  1.
         12    1    3    3    0    0 -0.41771353120E+01 -0.19472490855E+02 -0.15602307577E+02  0.25299374720E+02  0.00000000000E+00 0. -1.
</event>
<event>
 7    1  0.5022032E-011  0.4778727E+02  0.7816164E-02  0.1312668E+00
        -11   -1    0    0    0    0  0.00000000000E+00  0.00000000000E+00  0.45593999997E+02  0.45594000000E+02  0.51100000000E-03 0. -1.
         11   -1    0    0    0    0 -0.00000000000E+00 -0.00000000000E+00 -0.45593999997E+02  0.45594000000E+02  0.51100000000E-03 0.  1.
    9900012    2    1    2    0    0  0.36497201735E+01 -0.30672571709E+02 -0.30487639506E+02  0.47787271029E+02  0.19999999928E+02 0.  0.
         12    1    1    2    0    0 -0.36497201735E+01  0.30672571709E+02  0.30487639506E+02  0.43400728971E+02  0.00000000000E+00 0. -1.
         11    1    3    3    0    0 -0.51808025613E+00  0.92447493363E+00  0.12365168182E+00  0.10669353562E+01  0.51100000000E-03 0.  1.
        -11    1    3    3    0    0  0.19749277816E+01  0.30705142849E+00  0.54630938108E+00  0.20719735817E+01  0.51100000000E-03 0. -1.
        -12    1    3    3    0    0  0.21928726480E+01 -0.31904098071E+02 -0.31157600569E+02  0.44648362091E+02  0.00000000000E+00 0.  1.
</event>
<event>
 7    1  0.5022032E-011  0.4778727E+02  0.7816164E-02  0.1312668E+00
        -11   -1    0    0    0    0  0.00000000000E+00  0.00000000000E+00  0.45593999997E+02  0.45594000000E+02  0.51100000000E-03 0. -1.
         11   -1    0    0    0    0 -0.00000000000E+00 -0.00000000000E+00 -0.45593999997E+02  0.45594000000E+02  0.51100000000E-03 0.  1.
    9900012    2    1    2    0    0 -0.41040994600E+02 -0.59261093955E+01 -0.12811771855E+02  0.47787268343E+02  0.19999987682E+02 0.  0.
         12    1    1    2    0    0  0.41040994600E+02  0.59261093955E+01  0.12811771855E+02  0.43400731657E+02  0.00000000000E+00 0. -1.
         11    1    3    3    0    0 -0.46171510941E+01  0.32544851436E+01 -0.21204883608E+01  0.60337574467E+01  0.51100000000E-03 0. -1.
        -11    1    3    3    0    0 -0.11433066477E+02  0.73082223704E+00  0.26228753642E+01  0.11752811819E+02  0.51100000000E-03 0.  1.
        -12    1    3    3    0    0 -0.24990777029E+02 -0.99114167762E+01 -0.13314158858E+02  0.30000699077E+02  0.00000000000E+00 0.  1.
</event>
<event>
 7    1  0.5022032E-011  0.4778727E+02  0.7816164E-02  0.1312668E+00
        -11   -1    0    0    0    0  0.00000000000E+00  0.00000000000E+00  0.45593999997E+02  0.45594000000E+02  0.51100000000E-03 0. -1.
         11   -1    0    0    0    0 -0.00000000000E+00 -0.00000000000E+00 -0.45593999997E+02  0.45594000000E+02  0.51100000000E-03 0.  1.
    9900012    2    1    2    0    0 -0.12322768044E+02  0.28208089770E+02 -0.30595361520E+02  0.47787273194E+02  0.20000009802E+02 0.  0.
         12    1    1    2    0    0  0.12322768044E+02 -0.28208089770E+02  0.30595361520E+02  0.43400726806E+02  0.00000000000E+00 0. -1.
         11    1    3    3    0    0 -0.74047078913E+01  0.14948857941E+02 -0.86566353426E+01  0.18794557415E+02  0.51100000000E-03 0. -1.
        -11    1    3    3    0    0 -0.69415320378E+01  0.29255188955E+01 -0.49779106156E+01  0.90290155719E+01  0.51100000000E-03 0.  1.
        -12    1    3    3    0    0  0.20234718850E+01  0.10333712933E+02 -0.16960815561E+02  0.19963700207E+02  0.00000000000E+00 0.  1.
</event>
<event>
 7    1  0.5022032E-011  0.4778727E+02  0.7816164E-02  0.1312668E+00
        -11   -1    0    0    0    0  0.00000000000E+00  0.00000000000E+00  0.45593999997E+02  0.45594000000E+02  0.51100000000E-03 0. -1.
         11   -1    0    0    0    0 -0.00000000000E+00 -0.00000000000E+00 -0.45593999997E+02  0.45594000000E+02  0.51100000000E-03 0.  1.
    9900012    2    1    2    0    0  0.85475421026E+01  0.24042757609E+02  0.35107103802E+02  0.47787269513E+02  0.19999993017E+02 0.  0.
        -12    1    1    2    0    0 -0.85475421026E+01 -0.24042757609E+02 -0.35107103802E+02  0.43400730487E+02  0.00000000000E+00 0.  1.
         11    1    3    3    0    0  0.21516280869E+01  0.13323163913E+02  0.18856053303E+02  0.23188077680E+02  0.51100000000E-03 0. -1.
        -11    1    3    3    0    0  0.22060435781E+01  0.23579822448E+01  0.14783611320E+02  0.15132146988E+02  0.51100000000E-03 0.  1.
        -12    1    3    3    0    0  0.41898704376E+01  0.83616114518E+01  0.14674391792E+01  0.94670448451E+01  0.00000000000E+00 0.  1.
</event>
<event>
 7    1  0.5022032E-011  0.4778727E+02  0.7816164E-02  0.1312668E+00
        -11   -1    0    0    0    0  0.00000000000E+00  0.00000000000E+00  0.45593999997E+02  0.45594000000E+02  0.51100000000E-03 0. -1.
         11   -1    0    0    0    0 -0.00000000000E+00 -0.00000000000E+00 -0.45593999997E+02  0.45594000000E+02  0.51100000000E-03 0.  1.
    9900012    2    1    2    0    0  0.14085753008E+02 -0.24766420971E+02 -0.32738953317E+02  0.47787272935E+02  0.20000008618E+02 0.  0.
         12    1    1    2    0    0 -0.14085753008E+02  0.24766420971E+02  0.32738953317E+02  0.43400727065E+02  0.00000000000E+00 0. -1.
         11    1    3    3    0    0  0.13185806184E+02 -0.80265236112E+01 -0.16478627363E+02  0.22579542201E+02  0.51100000000E-03 0. -1.
        -11    1    3    3    0    0  0.43172031532E+01 -0.11865044235E+02 -0.13966885179E+02  0.18827941991E+02  0.51100000000E-03 0.  1.
        -12    1    3    3    0    0 -0.34172563288E+01 -0.48748531251E+01 -0.22934407751E+01  0.63797887423E+01  0.00000000000E+00 0.  1.
</event>
<event>
 7    1  0.5022032E-011  0.4778727E+02  0.7816164E-02  0.1312668E+00
        -11   -1    0    0    0    0  0.00000000000E+00  0.00000000000E+00  0.45593999997E+02  0.45594000000E+02  0.51100000000E-03 0. -1.
         11   -1    0    0    0    0 -0.00000000000E+00 -0.00000000000E+00 -0.45593999997E+02  0.45594000000E+02  0.51100000000E-03 0.  1.
    9900012    2    1    2    0    0 -0.11338938909E+02 -0.11474867935E+02 -0.40291183418E+02  0.47787267392E+02  0.19999983345E+02 0.  0.
         12    1    1    2    0    0  0.11338938909E+02  0.11474867935E+02  0.40291183418E+02  0.43400732608E+02  0.00000000000E+00 0. -1.
         11    1    3    3    0    0 -0.12590357425E+01 -0.39553797463E+01 -0.99236777604E+01  0.10756838778E+02  0.51100000000E-03 0. -1.
        -11    1    3    3    0    0 -0.65991406809E+01 -0.11158028845E+02 -0.10945378959E+02  0.16966189503E+02  0.51100000000E-03 0.  1.
         12    1    3    3    0    0 -0.34807624856E+01  0.36385406563E+01 -0.19422126699E+02  0.20064239111E+02  0.00000000000E+00 0. -1.
</event>
<event>
 7    1  0.5022032E-011  0.4778727E+02  0.7816164E-02  0.1312668E+00
        -11   -1    0    0    0    0  0.00000000000E+00  0.00000000000E+00  0.45593999997E+02  0.45594000000E+02  0.51100000000E-03 0. -1.
         11   -1    0    0    0    0 -0.00000000000E+00 -0.00000000000E+00 -0.45593999997E+02  0.45594000000E+02  0.51100000000E-03 0.  1.
    9900012    2    1    2    0    0 -0.19387632943E+02  0.10744308872E+02  0.37313577792E+02  0.47787267611E+02  0.19999984348E+02 0.  0.
        -12    1    1    2    0    0  0.19387632943E+02 -0.10744308872E+02 -0.37313577792E+02  0.43400732389E+02  0.00000000000E+00 0.  1.
         11    1    3    3    0    0 -0.10580092979E+01  0.42309562163E+01  0.70329682842E+01  0.82754466542E+01  0.51100000000E-03 0. -1.
        -11    1    3    3    0    0 -0.15742533184E+02  0.75661468377E+01  0.12414761344E+02  0.21428957709E+02  0.51100000000E-03 0.  1.
        -12    1    3    3    0    0 -0.25870904606E+01 -0.10527941823E+01  0.17865848163E+02  0.18082863248E+02  0.00000000000E+00 0.  1.
</event>
<event>
 7    1  0.5022032E-011  0.4778727E+02  0.7816164E-02  0.1312668E+00
        -11   -1    0    0    0    0  0.00000000000E+00  0.00000000000E+00  0.45593999997E+02  0.45594000000E+02  0.51100000000E-03 0. -1.
         11   -1    0    0    0    0 -0.00000000000E+00 -0.00000000000E+00 -0.45593999997E+02  0.45594000000E+02  0.51100000000E-03 0.  1.
    9900012    2    1    2    0    0  0.22252776541E+02  0.10017564015E+02 -0.35889913698E+02  0.47787267773E+02  0.19999985084E+02 0.  0.
         12    1    1    2    0    0 -0.22252776541E+02 -0.10017564015E+02  0.35889913698E+02  0.43400732227E+02  0.00000000000E+00 0. -1.
         11    1    3    3    0    0  0.25337788878E+01  0.36315597610E+01 -0.22106941339E+01  0.49492858641E+01  0.51100000000E-03 0. -1.
        -11    1    3    3    0    0  0.21811503147E+02  0.54704803775E+01 -0.33747202530E+02  0.40552946921E+02  0.51100000000E-03 0.  1.
         12    1    3    3    0    0 -0.20925054943E+01  0.91552387628E+00  0.67982965816E-01  0.22850349878E+01  0.00000000000E+00 0. -1.
</event>
<event>
 7    1  0.5022032E-011  0.4778728E+02  0.7816164E-02  0.1312668E+00
        -11   -1    0    0    0    0  0.00000000000E+00  0.00000000000E+00  0.45593999997E+02  0.45594000000E+02  0.51100000000E-03 0. -1.
         11   -1    0    0    0    0 -0.00000000000E+00 -0.00000000000E+00 -0.45593999997E+02  0.45594000000E+02  0.51100000000E-03 0.  1.
    9900012    2    1    2    0    0 -0.43645380363E+01 -0.27904572896E+02 -0.32953123073E+02  0.47787277644E+02  0.20000030089E+02 0.  0.
         12    1    1    2    0    0  0.43645380363E+01  0.27904572896E+02  0.32953123073E+02  0.43400722356E+02  0.00000000000E+00 0. -1.
         11    1    3    3    0    0  0.14513773353E+00 -0.50984740778E+01 -0.21248756876E+01  0.55254501927E+01  0.51100000000E-03 0. -1.
        -11    1    3    3    0    0  0.40283770334E-02 -0.19512912761E+02 -0.31047501235E+02  0.36670166537E+02  0.51100000000E-03 0.  1.
        -12    1    3    3    0    0 -0.45137041468E+01 -0.32931860572E+01  0.21925384914E+00  0.55916609145E+01  0.00000000000E+00 0.  1.
</event>
<event>
 7    1  0.5022032E-011  0.4778726E+02  0.7816164E-02  0.1312668E+00
        -11   -1    0    0    0    0  0.00000000000E+00  0.00000000000E+00  0.45593999997E+02  0.45594000000E+02  0.51100000000E-03 0. -1.
         11   -1    0    0    0    0 -0.00000000000E+00 -0.00000000000E+00 -0.45593999997E+02  0.45594000000E+02  0.51100000000E-03 0.  1.
    9900012    2    1    2    0    0 -0.17785192660E+02  0.23209853743E+02  0.32072012703E+02  0.47787258215E+02  0.19999941503E+02 0.  0.
        -12    1    1    2    0    0  0.17785192660E+02 -0.23209853743E+02 -0.32072012703E+02  0.43400741785E+02  0.00000000000E+00 0.  1.
         11    1    3    3    0    0 -0.29742023500E+01 -0.74121816096E+00  0.41265572342E+00  0.30928254054E+01  0.51100000000E-03 0.  1.
        -11    1    3    3    0    0  0.15219987994E+01  0.51880317283E+01  0.11382399911E+02  0.12601237303E+02  0.51100000000E-03 0. -1.
         12    1    3    3    0    0 -0.16332989109E+02  0.18763040176E+02  0.20276957068E+02  0.32093195506E+02  0.00000000000E+00 0. -1.
</event>
<event>
 7    1  0.5022032E-011  0.4778727E+02  0.7816164E-02  0.1312668E+00
        -11   -1    0    0    0    0  0.00000000000E+00  0.00000000000E+00  0.45593999997E+02  0.45594000000E+02  0.51100000000E-03 0. -1.
         11   -1    0    0    0    0 -0.00000000000E+00 -0.00000000000E+00 -0.45593999997E+02  0.45594000000E+02  0.51100000000E-03 0.  1.
    9900012    2    1    2    0    0  0.25259746102E+02  0.28871890406E+02  0.20297350500E+02  0.47787271134E+02  0.20000000410E+02 0.  0.
        -12    1    1    2    0    0 -0.25259746102E+02 -0.28871890406E+02 -0.20297350500E+02  0.43400728866E+02  0.00000000000E+00 0.  1.
         11    1    3    3    0    0  0.68713139187E+01  0.95827154374E+01  0.98417172275E+01  0.15359127201E+02  0.51100000000E-03 0. -1.
        -11    1    3    3    0    0  0.15206046075E+02  0.21032713482E+02  0.59214638763E+01  0.26620717653E+02  0.51100000000E-03 0.  1.
        -12    1    3    3    0    0  0.31823861076E+01 -0.17435385137E+01  0.45341693966E+01  0.58074262805E+01  0.00000000000E+00 0.  1.
</event>
<event>
 7    1  0.5022032E-011  0.4778727E+02  0.7816164E-02  0.1312668E+00
        -11   -1    0    0    0    0  0.00000000000E+00  0.00000000000E+00  0.45593999997E+02  0.45594000000E+02  0.51100000000E-03 0. -1.
         11   -1    0    0    0    0 -0.00000000000E+00 -0.00000000000E+00 -0.45593999997E+02  0.45594000000E+02  0.51100000000E-03 0.  1.
    9900012    2    1    2    0    0 -0.19821961538E+02 -0.19126272336E+02  0.33539510023E+02  0.47787272065E+02  0.20000004654E+02 0.  0.
        -12    1    1    2    0    0  0.19821961538E+02  0.19126272336E+02 -0.33539510023E+02  0.43400727935E+02  0.00000000000E+00 0.  1.
         11    1    3    3    0    0 -0.26110747333E+01 -0.16372335351E+01  0.13525851609E+02  0.13872523451E+02  0.51100000000E-03 0. -1.
        -11    1    3    3    0    0 -0.39708938059E+01  0.81992530635E+00  0.54809019315E+00  0.40915373940E+01  0.51100000000E-03 0.  1.
         12    1    3    3    0    0 -0.13239992999E+02 -0.18308964107E+02  0.19465568221E+02  0.29823211220E+02  0.00000000000E+00 0. -1.
</event>
<event>
 7    1  0.5022032E-011  0.4778727E+02  0.7816164E-02  0.1312668E+00
        -11   -1    0    0    0    0  0.00000000000E+00  0.00000000000E+00  0.45593999997E+02  0.45594000000E+02  0.51100000000E-03 0. -1.
         11   -1    0    0    0    0 -0.00000000000E+00 -0.00000000000E+00 -0.45593999997E+02  0.45594000000E+02  0.51100000000E-03 0.  1.
    9900012    2    1    2    0    0  0.11678378656E+01 -0.19490288484E+02  0.38760657966E+02  0.47787265025E+02  0.19999972554E+02 0.  0.
        -12    1    1    2    0    0 -0.11678378656E+01  0.19490288484E+02 -0.38760657966E+02  0.43400734975E+02  0.00000000000E+00 0.  1.
         11    1    3    3    0    0  0.44458391819E+01  0.58845201524E+00  0.37653690737E+01  0.58557464364E+01  0.51100000000E-03 0.  1.
        -11    1    3    3    0    0  0.11519001408E+01 -0.39627358411E+00  0.87179648963E+01  0.88026597618E+01  0.51100000000E-03 0. -1.
        -12    1    3    3    0    0 -0.44299014571E+01 -0.19682466915E+02  0.26277323996E+02  0.33128858827E+02  0.00000000000E+00 0.  1.
</event>
<event>
 7    1  0.5022032E-011  0.4778727E+02  0.7816164E-02  0.1312668E+00
        -11   -1    0    0    0    0  0.00000000000E+00  0.00000000000E+00  0.45593999997E+02  0.45594000000E+02  0.51100000000E-03 0. -1.
         11   -1    0    0    0    0 -0.00000000000E+00 -0.00000000000E+00 -0.45593999997E+02  0.45594000000E+02  0.51100000000E-03 0.  1.
    9900012    2    1    2    0    0  0.80765071127E+00 -0.40967566577E+01 -0.43199396461E+02  0.47787267640E+02  0.19999984479E+02 0.  0.
         12    1    1    2    0    0 -0.80765071127E+00  0.40967566577E+01  0.43199396461E+02  0.43400732360E+02  0.00000000000E+00 0. -1.
         11    1    3    3    0    0  0.53076320292E+00 -0.70424148033E+01 -0.87163079804E+01  0.11218348404E+02  0.51100000000E-03 0. -1.
        -11    1    3    3    0    0  0.26673766160E+01  0.22693250067E+01 -0.20851178498E+01  0.40758374240E+01  0.51100000000E-03 0.  1.
        -12    1    3    3    0    0 -0.23904891076E+01  0.67633313892E+00 -0.32397970631E+02  0.32493081812E+02  0.00000000000E+00 0.  1.
</event>
<event>
 7    1  0.5022032E-011  0.4778725E+02  0.7816164E-02  0.1312668E+00
        -11   -1    0    0    0    0  0.00000000000E+00  0.00000000000E+00  0.45593999997E+02  0.45594000000E+02  0.51100000000E-03 0. -1.
         11   -1    0    0    0    0 -0.00000000000E+00 -0.00000000000E+00 -0.45593999997E+02  0.45594000000E+02  0.51100000000E-03 0.  1.
    9900012    2    1    2    0    0  0.32503410953E+02 -0.64373369357E+01  0.28030588370E+02  0.47787252140E+02  0.19999913808E+02 0.  0.
        -12    1    1    2    0    0 -0.32503410953E+02  0.64373369357E+01 -0.28030588370E+02  0.43400747860E+02  0.00000000000E+00 0.  1.
         11    1    3    3    0    0  0.19694064943E+02 -0.36423810610E+01  0.19337906477E+02  0.27840218407E+02  0.51100000000E-03 0. -1.
        -11    1    3    3    0    0  0.11394486151E+02 -0.27540107738E+01  0.60688278635E+00  0.11738279131E+02  0.51100000000E-03 0.  1.
         12    1    3    3    0    0  0.14148598592E+01 -0.40945100865E-01  0.80857991064E+01  0.82087546018E+01  0.00000000000E+00 0. -1.
</event>
<event>
 7    1  0.5022032E-011  0.4778727E+02  0.7816164E-02  0.1312668E+00
        -11   -1    0    0    0    0  0.00000000000E+00  0.00000000000E+00  0.45593999997E+02  0.45594000000E+02  0.51100000000E-03 0.  1.
         11   -1    0    0    0    0 -0.00000000000E+00 -0.00000000000E+00 -0.45593999997E+02  0.45594000000E+02  0.51100000000E-03 0. -1.
    9900012    2    1    2    0    0 -0.26052910044E+02  0.33584924985E+02  0.87705115445E+01  0.47787272117E+02  0.20000004891E+02 0.  0.
         12    1    1    2    0    0  0.26052910044E+02 -0.33584924985E+02 -0.87705115445E+01  0.43400727883E+02  0.00000000000E+00 0. -1.
         11    1    3    3    0    0 -0.10155581795E+02  0.13473889466E+02  0.11679317408E+02  0.20520428707E+02  0.51100000000E-03 0. -1.
        -11    1    3    3    0    0 -0.16897918888E+00 -0.65471788881E+00  0.69404472878E+00  0.96897256250E+00  0.51100000000E-03 0.  1.
        -12    1    3    3    0    0 -0.15728349060E+02  0.20765753408E+02 -0.36028505919E+01  0.26297870848E+02  0.00000000000E+00 0.  1.
</event>
<event>
 7    1  0.5022032E-011  0.4778727E+02  0.7816164E-02  0.1312668E+00
        -11   -1    0    0    0    0  0.00000000000E+00  0.00000000000E+00  0.45593999997E+02  0.45594000000E+02  0.51100000000E-03 0. -1.
         11   -1    0    0    0    0 -0.00000000000E+00 -0.00000000000E+00 -0.45593999997E+02  0.45594000000E+02  0.51100000000E-03 0.  1.
    9900012    2    1    2    0    0 -0.34209611982E+02  0.25116927657E+01  0.26589791747E+02  0.47787272153E+02  0.20000005052E+02 0.  0.
        -12    1    1    2    0    0  0.34209611982E+02 -0.25116927657E+01 -0.26589791747E+02  0.43400727847E+02  0.00000000000E+00 0.  1.
         11    1    3    3    0    0 -0.17053943661E+02  0.10045565654E+01  0.70930034265E+01  0.18497481617E+02  0.51100000000E-03 0. -1.
        -11    1    3    3    0    0 -0.88942699036E+01  0.12717409285E+01  0.10120616707E+01  0.90415502649E+01  0.51100000000E-03 0.  1.
         12    1    3    3    0    0 -0.82613984178E+01  0.23539527184E+00  0.18484726650E+02  0.20248240271E+02  0.00000000000E+00 0. -1.
</event>
<event>
 7    1  0.5022032E-011  0.4778727E+02  0.7816164E-02  0.1312668E+00
        -11   -1    0    0    0    0  0.00000000000E+00  0.00000000000E+00  0.45593999997E+02  0.45594000000E+02  0.51100000000E-03 0. -1.
         11   -1    0    0    0    0 -0.00000000000E+00 -0.00000000000E+00 -0.45593999997E+02  0.45594000000E+02  0.51100000000E-03 0.  1.
    9900012    2    1    2    0    0 -0.89155452121E+01  0.37084721820E+01  0.42312929922E+02  0.47787265549E+02  0.19999974943E+02 0.  0.
        -12    1    1    2    0    0  0.89155452121E+01 -0.37084721820E+01 -0.42312929922E+02  0.43400734451E+02  0.00000000000E+00 0.  1.
         11    1    3    3    0    0 -0.85489738905E+00 -0.42630578922E+01  0.19541803715E+01  0.47668997602E+01  0.51100000000E-03 0. -1.
        -11    1    3    3    0    0  0.36736834968E+00  0.47156075165E+01  0.69166652439E+01  0.83792703806E+01  0.51100000000E-03 0.  1.
        -12    1    3    3    0    0 -0.84280161727E+01  0.32559225577E+01  0.33442084306E+02  0.34641095408E+02  0.00000000000E+00 0.  1.
</event>
<event>
 7    1  0.5022032E-011  0.4778727E+02  0.7816164E-02  0.1312668E+00
        -11   -1    0    0    0    0  0.00000000000E+00  0.00000000000E+00  0.45593999997E+02  0.45594000000E+02  0.51100000000E-03 0. -1.
         11   -1    0    0    0    0 -0.00000000000E+00 -0.00000000000E+00 -0.45593999997E+02  0.45594000000E+02  0.51100000000E-03 0.  1.
    9900012    2    1    2    0    0 -0.32516913268E+02  0.24208407791E+02  0.15499252735E+02  0.47787268536E+02  0.19999988564E+02 0.  0.
        -12    1    1    2    0    0  0.32516913268E+02 -0.24208407791E+02 -0.15499252735E+02  0.43400731464E+02  0.00000000000E+00 0.  1.
         11    1    3    3    0    0 -0.23120318005E+01  0.83260309484E+01  0.55415556490E+01  0.10265335926E+02  0.51100000000E-03 0. -1.
        -11    1    3    3    0    0 -0.53293751548E+01  0.84094410697E+01  0.82780577633E+00  0.99903053662E+01  0.51100000000E-03 0.  1.
         12    1    3    3    0    0 -0.24875506313E+02  0.74729357730E+01  0.91298913096E+01  0.27531627244E+02  0.00000000000E+00 0. -1.
</event>
<event>
 7    1  0.5022032E-011  0.4778727E+02  0.7816164E-02  0.1312668E+00
        -11   -1    0    0    0    0  0.00000000000E+00  0.00000000000E+00  0.45593999997E+02  0.45594000000E+02  0.51100000000E-03 0. -1.
         11   -1    0    0    0    0 -0.00000000000E+00 -0.00000000000E+00 -0.45593999997E+02  0.45594000000E+02  0.51100000000E-03 0.  1.
    9900012    2    1    2    0    0 -0.38205142882E+02 -0.72532154649E+01  0.19271246417E+02  0.47787274019E+02  0.20000013562E+02 0.  0.
        -12    1    1    2    0    0  0.38205142882E+02  0.72532154649E+01 -0.19271246417E+02  0.43400725981E+02  0.00000000000E+00 0.  1.
         11    1    3    3    0    0 -0.30262594844E+01  0.35883932323E+01  0.44909371577E+01  0.64964089520E+01  0.51100000000E-03 0.  1.
        -11    1    3    3    0    0 -0.12846411838E+02 -0.52317779831E+01 -0.10668620386E+00  0.13871307804E+02  0.51100000000E-03 0. -1.
        -12    1    3    3    0    0 -0.22332471559E+02 -0.56098307141E+01  0.14886995463E+02  0.27419557263E+02  0.00000000000E+00 0.  1.
</event>
<event>
 7    1  0.5022032E-011  0.4778725E+02  0.7816164E-02  0.1312668E+00
        -11   -1    0    0    0    0  0.00000000000E+00  0.00000000000E+00  0.45593999997E+02  0.45594000000E+02  0.51100000000E-03 0. -1.
         11   -1    0    0    0    0 -0.00000000000E+00 -0.00000000000E+00 -0.45593999997E+02  0.45594000000E+02  0.51100000000E-03 0.  1.
    9900012    2    1    2    0    0  0.85286598035E+01  0.57130454113E+01 -0.42169283382E+02  0.47787246702E+02  0.19999889013E+02 0.  0.
         12    1    1    2    0    0 -0.85286598035E+01 -0.57130454113E+01  0.42169283382E+02  0.43400753298E+02  0.00000000000E+00 0. -1.
         11    1    3    3    0    0  0.41325510969E+01  0.30275762735E+01 -0.29522522539E+02  0.29963703609E+02  0.51100000000E-03 0. -1.
        -11    1    3    3    0    0  0.31346646021E+01  0.45516897869E+01 -0.14098946080E+02  0.15143456769E+02  0.51100000000E-03 0.  1.
         12    1    3    3    0    0  0.12614441045E+01 -0.18662206490E+01  0.14521852374E+01  0.26800863239E+01  0.00000000000E+00 0. -1.
</event>
<event>
 7    1  0.5022032E-011  0.4778727E+02  0.7816164E-02  0.1312668E+00
        -11   -1    0    0    0    0  0.00000000000E+00  0.00000000000E+00  0.45593999997E+02  0.45594000000E+02  0.51100000000E-03 0. -1.
         11   -1    0    0    0    0 -0.00000000000E+00 -0.00000000000E+00 -0.45593999997E+02  0.45594000000E+02  0.51100000000E-03 0.  1.
    9900012    2    1    2    0    0 -0.81048463111E+01 -0.17714143836E+02  0.38783294299E+02  0.47787270257E+02  0.19999996410E+02 0.  0.
        -12    1    1    2    0    0  0.81048463111E+01  0.17714143836E+02 -0.38783294299E+02  0.43400729743E+02  0.00000000000E+00 0.  1.
         11    1    3    3    0    0 -0.23391056550E+01 -0.72644582066E+01  0.32882676614E+02  0.33756691038E+02  0.51100000000E-03 0. -1.
        -11    1    3    3    0    0 -0.23736366556E+01 -0.28064973360E+01  0.40440114076E+01  0.54648519463E+01  0.51100000000E-03 0.  1.
        -12    1    3    3    0    0 -0.33921040005E+01 -0.76431882932E+01  0.18566062771E+01  0.85657272723E+01  0.00000000000E+00 0.  1.
</event>
<event>
 7    1  0.5022032E-011  0.4778726E+02  0.7816164E-02  0.1312668E+00
        -11   -1    0    0    0    0  0.00000000000E+00  0.00000000000E+00  0.45593999997E+02  0.45594000000E+02  0.51100000000E-03 0. -1.
         11   -1    0    0    0    0 -0.00000000000E+00 -0.00000000000E+00 -0.45593999997E+02  0.45594000000E+02  0.51100000000E-03 0.  1.
    9900012    2    1    2    0    0 -0.91762635622E+01 -0.23829159237E+02 -0.35094033620E+02  0.47787264538E+02  0.19999970337E+02 0.  0.
         12    1    1    2    0    0  0.91762635622E+01  0.23829159237E+02  0.35094033620E+02  0.43400735462E+02  0.00000000000E+00 0. -1.
         11    1    3    3    0    0  0.39770134339E+00 -0.86739851139E+01 -0.15436766996E+02  0.17711294692E+02  0.51100000000E-03 0. -1.
        -11    1    3    3    0    0 -0.72779014077E+01 -0.29607114634E+01 -0.14788680927E+02  0.16746305416E+02  0.51100000000E-03 0.  1.
        -12    1    3    3    0    0 -0.22960634979E+01 -0.12194462660E+02 -0.48685856969E+01  0.13329664431E+02  0.00000000000E+00 0.  1.
</event>
<event>
 7    1  0.5022032E-011  0.4778727E+02  0.7816164E-02  0.1312668E+00
        -11   -1    0    0    0    0  0.00000000000E+00  0.00000000000E+00  0.45593999997E+02  0.45594000000E+02  0.51100000000E-03 0. -1.
         11   -1    0    0    0    0 -0.00000000000E+00 -0.00000000000E+00 -0.45593999997E+02  0.45594000000E+02  0.51100000000E-03 0.  1.
    9900012    2    1    2    0    0 -0.18125444600E+02 -0.11486985666E+02  0.37724537110E+02  0.47787270953E+02  0.19999999584E+02 0.  0.
        -12    1    1    2    0    0  0.18125444600E+02  0.11486985666E+02 -0.37724537110E+02  0.43400729047E+02  0.00000000000E+00 0.  1.
         11    1    3    3    0    0 -0.95651311380E+01 -0.92114973841E+01  0.17258933958E+02  0.21776460212E+02  0.51100000000E-03 0. -1.
        -11    1    3    3    0    0 -0.11142748428E+02 -0.10160600935E+01  0.20242446869E+02  0.23128983466E+02  0.51100000000E-03 0.  1.
         12    1    3    3    0    0  0.25824349663E+01 -0.12594281888E+01  0.22315628270E+00  0.28818272752E+01  0.00000000000E+00 0. -1.
</event>
<event>
 7    1  0.5022032E-011  0.4778727E+02  0.7816164E-02  0.1312668E+00
        -11   -1    0    0    0    0  0.00000000000E+00  0.00000000000E+00  0.45593999997E+02  0.45594000000E+02  0.51100000000E-03 0.  1.
         11   -1    0    0    0    0 -0.00000000000E+00 -0.00000000000E+00 -0.45593999997E+02  0.45594000000E+02  0.51100000000E-03 0. -1.
    9900012    2    1    2    0    0 -0.36568079984E+02 -0.15005094584E+02  0.17923334842E+02  0.47787271100E+02  0.20000000254E+02 0.  0.
         12    1    1    2    0    0  0.36568079984E+02  0.15005094584E+02 -0.17923334842E+02  0.43400728900E+02  0.00000000000E+00 0. -1.
         11    1    3    3    0    0 -0.17481156375E+02 -0.12537974975E+02  0.10425190507E+02  0.23905569268E+02  0.51100000000E-03 0.  1.
        -11    1    3    3    0    0 -0.12730839470E+02  0.25505000811E+01  0.20763331083E+00  0.12985470193E+02  0.51100000000E-03 0. -1.
         12    1    3    3    0    0 -0.63560841394E+01 -0.50176196902E+01  0.72905110245E+01  0.10896231639E+02  0.00000000000E+00 0. -1.
</event>
<event>
 7    1  0.5022032E-011  0.4778727E+02  0.7816164E-02  0.1312668E+00
        -11   -1    0    0    0    0  0.00000000000E+00  0.00000000000E+00  0.45593999997E+02  0.45594000000E+02  0.51100000000E-03 0.  1.
         11   -1    0    0    0    0 -0.00000000000E+00 -0.00000000000E+00 -0.45593999997E+02  0.45594000000E+02  0.51100000000E-03 0. -1.
    9900012    2    1    2    0    0  0.36937747597E+02  0.10994147518E+02  0.19958826345E+02  0.47787271593E+02  0.20000002503E+02 0.  0.
        -12    1    1    2    0    0 -0.36937747597E+02 -0.10994147518E+02 -0.19958826345E+02  0.43400728407E+02  0.00000000000E+00 0.  1.
         11    1    3    3    0    0  0.11334965102E+02 -0.35710744613E+00 -0.18787211661E+01  0.11495153460E+02  0.51100000000E-03 0. -1.
        -11    1    3    3    0    0  0.22402504618E+01  0.35684735311E+01  0.45731017343E+01  0.62181979067E+01  0.51100000000E-03 0.  1.
         12    1    3    3    0    0  0.23362532034E+02  0.77827814327E+01  0.17264445776E+02  0.30073920227E+02  0.00000000000E+00 0. -1.
</event>
<event>
 7    1  0.5022032E-011  0.4778727E+02  0.7816164E-02  0.1312668E+00
        -11   -1    0    0    0    0  0.00000000000E+00  0.00000000000E+00  0.45593999997E+02  0.45594000000E+02  0.51100000000E-03 0. -1.
         11   -1    0    0    0    0 -0.00000000000E+00 -0.00000000000E+00 -0.45593999997E+02  0.45594000000E+02  0.51100000000E-03 0.  1.
    9900012    2    1    2    0    0  0.21905206659E+02  0.33028543704E+02  0.17688987610E+02  0.47787273501E+02  0.20000011199E+02 0.  0.
        -12    1    1    2    0    0 -0.21905206659E+02 -0.33028543704E+02 -0.17688987610E+02  0.43400726499E+02  0.00000000000E+00 0.  1.
         11    1    3    3    0    0  0.45532515039E+01  0.63850819425E+01  0.67299397439E+01  0.10334092117E+02  0.51100000000E-03 0. -1.
        -11    1    3    3    0    0 -0.31635346763E+01  0.21541713156E+01  0.63646872334E+00  0.38798838130E+01  0.51100000000E-03 0.  1.
        -12    1    3    3    0    0  0.20515489832E+02  0.24489290446E+02  0.10322579142E+02  0.33573297570E+02  0.00000000000E+00 0.  1.
</event>
<event>
 7    1  0.5022032E-011  0.4778727E+02  0.7816164E-02  0.1312668E+00
        -11   -1    0    0    0    0  0.00000000000E+00  0.00000000000E+00  0.45593999997E+02  0.45594000000E+02  0.51100000000E-03 0. -1.
         11   -1    0    0    0    0 -0.00000000000E+00 -0.00000000000E+00 -0.45593999997E+02  0.45594000000E+02  0.51100000000E-03 0.  1.
    9900012    2    1    2    0    0 -0.18864028231E+02 -0.18605765573E+02  0.34374367379E+02  0.47787271822E+02  0.20000003544E+02 0.  0.
        -12    1    1    2    0    0  0.18864028231E+02  0.18605765573E+02 -0.34374367379E+02  0.43400728178E+02  0.00000000000E+00 0.  1.
         11    1    3    3    0    0 -0.72417244795E+01 -0.13668685997E+02  0.20336938575E+02  0.25551254787E+02  0.51100000000E-03 0. -1.
        -11    1    3    3    0    0 -0.10649623395E+02 -0.84512420303E+01  0.11242893941E+02  0.17642013341E+02  0.51100000000E-03 0.  1.
        -12    1    3    3    0    0 -0.97268035599E+00  0.35141624543E+01  0.27945348637E+01  0.45940036933E+01  0.00000000000E+00 0.  1.
</event>
<event>
 7    1  0.5022032E-011  0.4778728E+02  0.7816164E-02  0.1312668E+00
        -11   -1    0    0    0    0  0.00000000000E+00  0.00000000000E+00  0.45593999997E+02  0.45594000000E+02  0.51100000000E-03 0.  1.
         11   -1    0    0    0    0 -0.00000000000E+00 -0.00000000000E+00 -0.45593999997E+02  0.45594000000E+02  0.51100000000E-03 0. -1.
    9900012    2    1    2    0    0  0.32840665884E+02 -0.28262269099E+02  0.25214042205E+01  0.47787278007E+02  0.20000031743E+02 0.  0.
        -12    1    1    2    0    0 -0.32840665884E+02  0.28262269099E+02 -0.25214042205E+01  0.43400721993E+02  0.00000000000E+00 0.  1.
         11    1    3    3    0    0  0.12497360628E+02 -0.66023857525E+01  0.34171452508E+01  0.14541403035E+02  0.51100000000E-03 0. -1.
        -11    1    3    3    0    0  0.10195399870E+02 -0.79851240748E+01  0.67219992188E+01  0.14590875874E+02  0.51100000000E-03 0.  1.
         12    1    3    3    0    0  0.10147905386E+02 -0.13674759271E+02 -0.76177402491E+01  0.18654999098E+02  0.00000000000E+00 0. -1.
</event>
<event>
 7    1  0.5022032E-011  0.4778727E+02  0.7816164E-02  0.1312668E+00
        -11   -1    0    0    0    0  0.00000000000E+00  0.00000000000E+00  0.45593999997E+02  0.45594000000E+02  0.51100000000E-03 0. -1.
         11   -1    0    0    0    0 -0.00000000000E+00 -0.00000000000E+00 -0.45593999997E+02  0.45594000000E+02  0.51100000000E-03 0.  1.
    9900012    2    1    2    0    0  0.13277571545E+02 -0.10719151233E+02  0.39905252811E+02  0.47787270614E+02  0.19999998038E+02 0.  0.
        -12    1    1    2    0    0 -0.13277571545E+02  0.10719151233E+02 -0.39905252811E+02  0.43400729386E+02  0.00000000000E+00 0.  1.
         11    1    3    3    0    0  0.22714809580E+01 -0.11075003377E+01  0.15881607849E+01  0.29847006015E+01  0.51100000000E-03 0. -1.
        -11    1    3    3    0    0  0.85805462405E+01 -0.52350245439E+01  0.52137482729E+01  0.11323180961E+02  0.51100000000E-03 0.  1.
         12    1    3    3    0    0  0.24255443464E+01 -0.43766263514E+01  0.33103343754E+02  0.33479389052E+02  0.00000000000E+00 0. -1.
</event>
<event>
 7    1  0.5022032E-011  0.4778728E+02  0.7816164E-02  0.1312668E+00
        -11   -1    0    0    0    0  0.00000000000E+00  0.00000000000E+00  0.45593999997E+02  0.45594000000E+02  0.51100000000E-03 0. -1.
         11   -1    0    0    0    0 -0.00000000000E+00 -0.00000000000E+00 -0.45593999997E+02  0.45594000000E+02  0.51100000000E-03 0.  1.
    9900012    2    1    2    0    0  0.52141218045E+01  0.74744385370E+01 -0.42433107555E+02  0.47787275186E+02  0.20000018881E+02 0.  0.
         12    1    1    2    0    0 -0.52141218045E+01 -0.74744385370E+01  0.42433107555E+02  0.43400724814E+02  0.00000000000E+00 0. -1.
         11    1    3    3    0    0 -0.23248492160E+01  0.42002943754E+01 -0.12056021094E+02  0.12976711509E+02  0.51100000000E-03 0.  1.
        -11    1    3    3    0    0  0.43233715594E+01  0.60129491904E+01 -0.29604294211E+02  0.30516574768E+02  0.51100000000E-03 0. -1.
         12    1    3    3    0    0  0.32155994611E+01 -0.27388050288E+01 -0.77279225018E+00  0.42939889080E+01  0.00000000000E+00 0. -1.
</event>
<event>
 7    1  0.6434237E-011  0.4778727E+02  0.7816164E-02  0.1312668E+00
        -11   -1    0    0    0    0  0.00000000000E+00  0.00000000000E+00  0.45593999997E+02  0.45594000000E+02  0.51100000000E-03 0. -1.
         11   -1    0    0    0    0 -0.00000000000E+00 -0.00000000000E+00 -0.45593999997E+02  0.45594000000E+02  0.51100000000E-03 0.  1.
    9900012    2    1    2    0    0 -0.36157688963E+02 -0.80224232543E+01 -0.22624893031E+02  0.47787268086E+02  0.19999986512E+02 0.  0.
         12    1    1    2    0    0  0.36157688963E+02  0.80224232543E+01  0.22624893031E+02  0.43400731914E+02  0.00000000000E+00 0. -1.
         11    1    3    3    0    0 -0.86940266371E+00 -0.22003163796E+01 -0.40579298666E+01  0.46972383616E+01  0.51100000000E-03 0. -1.
        -11    1    3    3    0    0 -0.19065611647E+02 -0.10558878052E+02 -0.12558816016E+02  0.25153753461E+02  0.51100000000E-03 0.  1.
        -12    1    3    3    0    0 -0.16222674652E+02  0.47367711772E+01 -0.60081471485E+01  0.17936276264E+02  0.00000000000E+00 0.  1.
</event>
<event>
 7    1  0.5022032E-011  0.4778729E+02  0.7816164E-02  0.1312668E+00
        -11   -1    0    0    0    0  0.00000000000E+00  0.00000000000E+00  0.45593999997E+02  0.45594000000E+02  0.51100000000E-03 0. -1.
         11   -1    0    0    0    0 -0.00000000000E+00 -0.00000000000E+00 -0.45593999997E+02  0.45594000000E+02  0.51100000000E-03 0.  1.
    9900012    2    1    2    0    0 -0.31294039729E+02  0.53750126907E+01 -0.29587401104E+02  0.47787285857E+02  0.20000067537E+02 0.  0.
         12    1    1    2    0    0  0.31294039729E+02 -0.53750126907E+01  0.29587401104E+02  0.43400714143E+02  0.00000000000E+00 0. -1.
         11    1    3    3    0    0 -0.11030311013E+02  0.39689541232E+01 -0.20682099738E+01  0.11903690631E+02  0.51100000000E-03 0. -1.
        -11    1    3    3    0    0 -0.97438450030E+01  0.60769280369E+01 -0.12753839091E+02  0.17161934088E+02  0.51100000000E-03 0.  1.
         12    1    3    3    0    0 -0.10519883713E+02 -0.46708694693E+01 -0.14765352039E+02  0.18721661138E+02  0.00000000000E+00 0. -1.
</event>
<event>
 7    1  0.5022032E-011  0.4778727E+02  0.7816164E-02  0.1312668E+00
        -11   -1    0    0    0    0  0.00000000000E+00  0.00000000000E+00  0.45593999997E+02  0.45594000000E+02  0.51100000000E-03 0. -1.
         11   -1    0    0    0    0 -0.00000000000E+00 -0.00000000000E+00 -0.45593999997E+02  0.45594000000E+02  0.51100000000E-03 0.  1.
    9900012    2    1    2    0    0  0.24960114121E+02 -0.23804564710E+02 -0.26343092265E+02  0.47787272955E+02  0.20000008711E+02 0.  0.
         12    1    1    2    0    0 -0.24960114121E+02  0.23804564710E+02  0.26343092265E+02  0.43400727045E+02  0.00000000000E+00 0. -1.
         11    1    3    3    0    0  0.31328568770E+01  0.13122892159E+01 -0.18342533123E+01  0.38602306502E+01  0.51100000000E-03 0. -1.
        -11    1    3    3    0    0  0.10528982448E+02 -0.20135911824E+01 -0.66148033307E+01  0.12596413942E+02  0.51100000000E-03 0.  1.
        -12    1    3    3    0    0  0.11298274796E+02 -0.23103262744E+02 -0.17894035622E+02  0.31330628363E+02  0.00000000000E+00 0.  1.
</event>
<event>
 7    1  0.5022032E-011  0.4778727E+02  0.7816164E-02  0.1312668E+00
        -11   -1    0    0    0    0  0.00000000000E+00  0.00000000000E+00  0.45593999997E+02  0.45594000000E+02  0.51100000000E-03 0. -1.
         11   -1    0    0    0    0 -0.00000000000E+00 -0.00000000000E+00 -0.45593999997E+02  0.45594000000E+02  0.51100000000E-03 0.  1.
    9900012    2    1    2    0    0  0.20097793373E+02  0.18641940764E+02 -0.33647883588E+02  0.47787270469E+02  0.19999997374E+02 0.  0.
         12    1    1    2    0    0 -0.20097793373E+02 -0.18641940764E+02  0.33647883588E+02  0.43400729531E+02  0.00000000000E+00 0. -1.
         11    1    3    3    0    0  0.37879835464E+01  0.55884893848E+01 -0.43303009044E+01  0.80206944297E+01  0.51100000000E-03 0.  1.
        -11    1    3    3    0    0  0.16697853255E+01  0.49864343939E+01  0.80217344911E+00  0.53194166505E+01  0.51100000000E-03 0. -1.
         12    1    3    3    0    0  0.14640024501E+02  0.80670169857E+01 -0.30119756132E+02  0.34447159388E+02  0.00000000000E+00 0. -1.
</event>
<event>
 7    1  0.5022032E-011  0.4778727E+02  0.7816164E-02  0.1312668E+00
        -11   -1    0    0    0    0  0.00000000000E+00  0.00000000000E+00  0.45593999997E+02  0.45594000000E+02  0.51100000000E-03 0. -1.
         11   -1    0    0    0    0 -0.00000000000E+00 -0.00000000000E+00 -0.45593999997E+02  0.45594000000E+02  0.51100000000E-03 0.  1.
    9900012    2    1    2    0    0  0.10906021467E+02 -0.13265231384E+02 -0.39858697106E+02  0.47787269558E+02  0.19999993222E+02 0.  0.
         12    1    1    2    0    0 -0.10906021467E+02  0.13265231384E+02  0.39858697106E+02  0.43400730442E+02  0.00000000000E+00 0. -1.
         11    1    3    3    0    0 -0.17056578814E+01  0.27564321707E+00 -0.14324470767E+02  0.14428295499E+02  0.51100000000E-03 0. -1.
        -11    1    3    3    0    0  0.68469701123E+01 -0.30007590871E+01 -0.17151502806E+02  0.18709879839E+02  0.51100000000E-03 0.  1.
         12    1    3    3    0    0  0.57647092360E+01 -0.10540115514E+02 -0.83827235325E+01  0.14649094219E+02  0.00000000000E+00 0. -1.
</event>
<event>
 7    1  0.5022032E-011  0.4778727E+02  0.7816164E-02  0.1312668E+00
        -11   -1    0    0    0    0  0.00000000000E+00  0.00000000000E+00  0.45593999997E+02  0.45594000000E+02  0.51100000000E-03 0. -1.
         11   -1    0    0    0    0 -0.00000000000E+00 -0.00000000000E+00 -0.45593999997E+02  0.45594000000E+02  0.51100000000E-03 0.  1.
    9900012    2    1    2    0    0 -0.91018018594E+01 -0.24361319414E+02 -0.34746317093E+02  0.47787271525E+02  0.20000002189E+02 0.  0.
         12    1    1    2    0    0  0.91018018594E+01  0.24361319414E+02  0.34746317093E+02  0.43400728475E+02  0.00000000000E+00 0. -1.
         11    1    3    3    0    0  0.13410714938E+01 -0.78345851132E+01 -0.13671373864E+02  0.15814096883E+02  0.51100000000E-03 0.  1.
        -11    1    3    3    0    0 -0.85830701029E+01 -0.61087613081E+01 -0.28751969036E+01  0.10920293705E+02  0.51100000000E-03 0. -1.
         12    1    3    3    0    0 -0.18598032504E+01 -0.10417972993E+02 -0.18199746326E+02  0.21052880936E+02  0.00000000000E+00 0. -1.
</event>
<event>
 7    1  0.5022032E-011  0.4778727E+02  0.7816164E-02  0.1312668E+00
        -11   -1    0    0    0    0  0.00000000000E+00  0.00000000000E+00  0.45593999997E+02  0.45594000000E+02  0.51100000000E-03 0. -1.
         11   -1    0    0    0    0 -0.00000000000E+00 -0.00000000000E+00 -0.45593999997E+02  0.45594000000E+02  0.51100000000E-03 0.  1.
    9900012    2    1    2    0    0 -0.85761661668E+01 -0.59652977806E+01 -0.42124671477E+02  0.47787270158E+02  0.19999995959E+02 0.  0.
         12    1    1    2    0    0  0.85761661668E+01  0.59652977806E+01  0.42124671477E+02  0.43400729842E+02  0.00000000000E+00 0. -1.
         11    1    3    3    0    0  0.11901616625E+01 -0.43957053622E+01 -0.37316232765E+01  0.58875905898E+01  0.51100000000E-03 0. -1.
        -11    1    3    3    0    0  0.26601767905E+01  0.84155938588E+00 -0.15416995092E+02  0.15667434400E+02  0.51100000000E-03 0.  1.
        -12    1    3    3    0    0 -0.12426504620E+02 -0.24111518042E+01 -0.22976053109E+02  0.26232245168E+02  0.00000000000E+00 0.  1.
</event>
<event>
 7    1  0.5022032E-011  0.4778728E+02  0.7816164E-02  0.1312668E+00
        -11   -1    0    0    0    0  0.00000000000E+00  0.00000000000E+00  0.45593999997E+02  0.45594000000E+02  0.51100000000E-03 0. -1.
         11   -1    0    0    0    0 -0.00000000000E+00 -0.00000000000E+00 -0.45593999997E+02  0.45594000000E+02  0.51100000000E-03 0.  1.
    9900012    2    1    2    0    0  0.27502913471E+01  0.35459418347E+01 -0.43168101981E+02  0.47787276105E+02  0.20000023073E+02 0.  0.
         12    1    1    2    0    0 -0.27502913471E+01 -0.35459418347E+01  0.43168101981E+02  0.43400723895E+02  0.00000000000E+00 0. -1.
         11    1    3    3    0    0  0.15437533994E+01  0.75196513545E-01  0.16295817794E+01  0.22459666317E+01  0.51100000000E-03 0. -1.
        -11    1    3    3    0    0 -0.18511772614E+01  0.29194490082E+01 -0.95401966977E+01  0.10147186460E+02  0.51100000000E-03 0.  1.
         12    1    3    3    0    0  0.30577152091E+01  0.55129631297E+00 -0.35257487062E+02  0.35394123013E+02  0.00000000000E+00 0. -1.
</event>
<event>
 7    1  0.5852239E-011  0.4778727E+02  0.7816164E-02  0.1312668E+00
        -11   -1    0    0    0    0  0.00000000000E+00  0.00000000000E+00  0.45593999997E+02  0.45594000000E+02  0.51100000000E-03 0. -1.
         11   -1    0    0    0    0 -0.00000000000E+00 -0.00000000000E+00 -0.45593999997E+02  0.45594000000E+02  0.51100000000E-03 0.  1.
    9900012    2    1    2    0    0  0.23534799356E+01  0.22141054082E+02 -0.37253969812E+02  0.47787269471E+02  0.19999992826E+02 0.  0.
         12    1    1    2    0    0 -0.23534799356E+01 -0.22141054082E+02  0.37253969812E+02  0.43400730529E+02  0.00000000000E+00 0. -1.
         11    1    3    3    0    0  0.70630738698E+01  0.50011336930E+01 -0.15766189572E+02  0.17985301904E+02  0.51100000000E-03 0. -1.
        -11    1    3    3    0    0  0.12755644015E+01  0.48188928036E+00  0.60597621488E+00  0.14921425049E+01  0.51100000000E-03 0.  1.
        -12    1    3    3    0    0 -0.59851583357E+01  0.16658031109E+02 -0.22093756455E+02  0.28309825062E+02  0.00000000000E+00 0.  1.
</event>
<event>
 7    1  0.5022032E-011  0.4778727E+02  0.7816164E-02  0.1312668E+00
        -11   -1    0    0    0    0  0.00000000000E+00  0.00000000000E+00  0.45593999997E+02  0.45594000000E+02  0.51100000000E-03 0. -1.
         11   -1    0    0    0    0 -0.00000000000E+00 -0.00000000000E+00 -0.45593999997E+02  0.45594000000E+02  0.51100000000E-03 0.  1.
    9900012    2    1    2    0    0 -0.83204601627E+01 -0.21375299165E+02  0.36844128733E+02  0.47787270815E+02  0.19999998952E+02 0.  0.
        -12    1    1    2    0    0  0.83204601627E+01  0.21375299165E+02 -0.36844128733E+02  0.43400729185E+02  0.00000000000E+00 0.  1.
         11    1    3    3    0    0 -0.45673082091E+01 -0.70432136414E+01  0.20230784096E+02  0.21903236932E+02  0.51100000000E-03 0. -1.
        -11    1    3    3    0    0 -0.46436476816E+01 -0.16586512297E+02  0.15661223378E+02  0.23279814689E+02  0.51100000000E-03 0.  1.
         12    1    3    3    0    0  0.89049572807E+00  0.22544267735E+01  0.95212125834E+00  0.26042191938E+01  0.00000000000E+00 0. -1.
</event>
<event>
 7    1  0.5022032E-011  0.4778727E+02  0.7816164E-02  0.1312668E+00
        -11   -1    0    0    0    0  0.00000000000E+00  0.00000000000E+00  0.45593999997E+02  0.45594000000E+02  0.51100000000E-03 0. -1.
         11   -1    0    0    0    0 -0.00000000000E+00 -0.00000000000E+00 -0.45593999997E+02  0.45594000000E+02  0.51100000000E-03 0.  1.
    9900012    2    1    2    0    0  0.18475449151E+01 -0.12148088201E+02 -0.41624918431E+02  0.47787270703E+02  0.19999998441E+02 0.  0.
         12    1    1    2    0    0 -0.18475449151E+01  0.12148088201E+02  0.41624918431E+02  0.43400729297E+02  0.00000000000E+00 0. -1.
         11    1    3    3    0    0  0.16643137923E+01 -0.15355075527E+00 -0.15891709260E+01  0.23062919865E+01  0.51100000000E-03 0. -1.
        -11    1    3    3    0    0  0.43928309261E+01 -0.31550777562E+01 -0.32960811924E+02  0.33401595802E+02  0.51100000000E-03 0.  1.
         12    1    3    3    0    0 -0.42095998033E+01 -0.88394596892E+01 -0.70749355813E+01  0.12079382914E+02  0.00000000000E+00 0. -1.
</event>
<event>
 7    1  0.5022032E-011  0.4778727E+02  0.7816164E-02  0.1312668E+00
        -11   -1    0    0    0    0  0.00000000000E+00  0.00000000000E+00  0.45593999997E+02  0.45594000000E+02  0.51100000000E-03 0. -1.
         11   -1    0    0    0    0 -0.00000000000E+00 -0.00000000000E+00 -0.45593999997E+02  0.45594000000E+02  0.51100000000E-03 0.  1.
    9900012    2    1    2    0    0  0.42426622374E+02 -0.46843379096E+01 -0.78525093949E+01  0.47787271763E+02  0.20000003277E+02 0.  0.
         12    1    1    2    0    0 -0.42426622374E+02  0.46843379096E+01  0.78525093949E+01  0.43400728237E+02  0.00000000000E+00 0. -1.
         11    1    3    3    0    0  0.88407365321E+01 -0.53822609164E+01 -0.35935677294E+01  0.10956326222E+02  0.51100000000E-03 0. -1.
        -11    1    3    3    0    0  0.13855878692E+02 -0.68384507741E+01 -0.22650362885E+01  0.15616663311E+02  0.51100000000E-03 0.  1.
        -12    1    3    3    0    0  0.19730007150E+02  0.75363737809E+01 -0.19939053769E+01  0.21214282230E+02  0.00000000000E+00 0.  1.
</event>
<event>
 7    1  0.5022032E-011  0.4778727E+02  0.7816164E-02  0.1312668E+00
        -11   -1    0    0    0    0  0.00000000000E+00  0.00000000000E+00  0.45593999997E+02  0.45594000000E+02  0.51100000000E-03 0. -1.
         11   -1    0    0    0    0 -0.00000000000E+00 -0.00000000000E+00 -0.45593999997E+02  0.45594000000E+02  0.51100000000E-03 0.  1.
    9900012    2    1    2    0    0  0.27956756582E+02 -0.20507969749E+02  0.26104907697E+02  0.47787271116E+02  0.20000000326E+02 0.  0.
        -12    1    1    2    0    0 -0.27956756582E+02  0.20507969749E+02 -0.26104907697E+02  0.43400728884E+02  0.00000000000E+00 0.  1.
         11    1    3    3    0    0  0.13572015273E+02 -0.11343611994E+02  0.14610774353E+02  0.22942359493E+02  0.51100000000E-03 0. -1.
        -11    1    3    3    0    0  0.22396674229E+01 -0.54257450705E+01  0.10586687835E+02  0.12105072462E+02  0.51100000000E-03 0.  1.
        -12    1    3    3    0    0  0.12145073885E+02 -0.37386126841E+01  0.90744550872E+00  0.12739839161E+02  0.00000000000E+00 0.  1.
</event>
<event>
 7    1  0.5454633E-011  0.4778727E+02  0.7816164E-02  0.1312668E+00
        -11   -1    0    0    0    0  0.00000000000E+00  0.00000000000E+00  0.45593999997E+02  0.45594000000E+02  0.51100000000E-03 0. -1.
         11   -1    0    0    0    0 -0.00000000000E+00 -0.00000000000E+00 -0.45593999997E+02  0.45594000000E+02  0.51100000000E-03 0.  1.
    9900012    2    1    2    0    0  0.17020011805E+02  0.29483160511E+02 -0.26919984321E+02  0.47787272916E+02  0.20000008534E+02 0.  0.
         12    1    1    2    0    0 -0.17020011805E+02 -0.29483160511E+02  0.26919984321E+02  0.43400727084E+02  0.00000000000E+00 0. -1.
         11    1    3    3    0    0  0.73675369624E+01  0.41771964463E+01 -0.10400131744E+02  0.13412393955E+02  0.51100000000E-03 0.  1.
        -11    1    3    3    0    0  0.46775564383E+01  0.18327170889E+01  0.36153525983E+00  0.50367741826E+01  0.51100000000E-03 0. -1.
        -12    1    3    3    0    0  0.49749184041E+01  0.23473246976E+02 -0.16881387836E+02  0.29338104779E+02  0.00000000000E+00 0.  1.
</event>
<event>
 7    1  0.5022032E-011  0.4778726E+02  0.7816164E-02  0.1312668E+00
        -11   -1    0    0    0    0  0.00000000000E+00  0.00000000000E+00  0.45593999997E+02  0.45594000000E+02  0.51100000000E-03 0. -1.
         11   -1    0    0    0    0 -0.00000000000E+00 -0.00000000000E+00 -0.45593999997E+02  0.45594000000E+02  0.51100000000E-03 0.  1.
    9900012    2    1    2    0    0 -0.11057628043E+02 -0.23075914286E+02 -0.35055026689E+02  0.47787264359E+02  0.19999969516E+02 0.  0.
         12    1    1    2    0    0  0.11057628043E+02  0.23075914286E+02  0.35055026689E+02  0.43400735641E+02  0.00000000000E+00 0. -1.
         11    1    3    3    0    0 -0.77861504445E+01 -0.10386848398E+02 -0.76043876407E+01  0.15044516278E+02  0.51100000000E-03 0. -1.
        -11    1    3    3    0    0  0.29784411494E+01 -0.18660216787E+01 -0.12791797233E+01  0.37402472661E+01  0.51100000000E-03 0.  1.
         12    1    3    3    0    0 -0.62499187482E+01 -0.10823044209E+02 -0.26171459324E+02  0.29002500814E+02  0.00000000000E+00 0. -1.
</event>
<event>
 7    1  0.5022032E-011  0.4778726E+02  0.7816164E-02  0.1312668E+00
        -11   -1    0    0    0    0  0.00000000000E+00  0.00000000000E+00  0.45593999997E+02  0.45594000000E+02  0.51100000000E-03 0. -1.
         11   -1    0    0    0    0 -0.00000000000E+00 -0.00000000000E+00 -0.45593999997E+02  0.45594000000E+02  0.51100000000E-03 0.  1.
    9900012    2    1    2    0    0 -0.77739030484E+01 -0.32428855874E+02  0.27776965567E+02  0.47787261780E+02  0.19999957760E+02 0.  0.
        -12    1    1    2    0    0  0.77739030484E+01  0.32428855874E+02 -0.27776965567E+02  0.43400738220E+02  0.00000000000E+00 0.  1.
         11    1    3    3    0    0 -0.62863657626E+01 -0.18116981623E+02  0.13933921525E+02  0.23704379067E+02  0.51100000000E-03 0. -1.
        -11    1    3    3    0    0 -0.62645674018E+01 -0.10044728633E+02  0.43110819451E+01  0.12598682702E+02  0.51100000000E-03 0.  1.
        -12    1    3    3    0    0  0.47770301161E+01 -0.42671456181E+01  0.95319620971E+01  0.11484200010E+02  0.00000000000E+00 0.  1.
</event>
<event>
 7    1  0.5022032E-011  0.4778728E+02  0.7816164E-02  0.1312668E+00
        -11   -1    0    0    0    0  0.00000000000E+00  0.00000000000E+00  0.45593999997E+02  0.45594000000E+02  0.51100000000E-03 0. -1.
         11   -1    0    0    0    0 -0.00000000000E+00 -0.00000000000E+00 -0.45593999997E+02  0.45594000000E+02  0.51100000000E-03 0.  1.
    9900012    2    1    2    0    0  0.29176034569E+02 -0.14083841235E+02  0.28879524877E+02  0.47787279565E+02  0.20000038850E+02 0.  0.
        -12    1    1    2    0    0 -0.29176034569E+02  0.14083841235E+02 -0.28879524877E+02  0.43400720435E+02  0.00000000000E+00 0.  1.
         11    1    3    3    0    0  0.19351593994E+02 -0.50318238436E+01  0.16103053242E+02  0.25673172092E+02  0.51100000000E-03 0. -1.
        -11    1    3    3    0    0  0.50233931092E+01  0.18485383595E+00 -0.71059660812E+00  0.50767703386E+01  0.51100000000E-03 0.  1.
         12    1    3    3    0    0  0.48010474664E+01 -0.92368712270E+01  0.13487068243E+02  0.17037337135E+02  0.00000000000E+00 0. -1.
</event>
<event>
 7    1  0.5022032E-011  0.4778727E+02  0.7816164E-02  0.1312668E+00
        -11   -1    0    0    0    0  0.00000000000E+00  0.00000000000E+00  0.45593999997E+02  0.45594000000E+02  0.51100000000E-03 0.  1.
         11   -1    0    0    0    0 -0.00000000000E+00 -0.00000000000E+00 -0.45593999997E+02  0.45594000000E+02  0.51100000000E-03 0. -1.
    9900012    2    1    2    0    0 -0.41804776472E+02 -0.11088021228E+02 -0.36110694428E+01  0.47787269901E+02  0.19999994787E+02 0.  0.
        -12    1    1    2    0    0  0.41804776472E+02  0.11088021228E+02  0.36110694428E+01  0.43400730099E+02  0.00000000000E+00 0.  1.
         11    1    3    3    0    0 -0.36284169058E+02 -0.82131291295E+01 -0.63943139197E+01  0.37747631252E+02  0.51100000000E-03 0. -1.
        -11    1    3    3    0    0 -0.53942519375E+01 -0.78539395556E+00 -0.11618522482E+01  0.55735714348E+01  0.51100000000E-03 0.  1.
        -12    1    3    3    0    0 -0.12635547572E+00 -0.20894981429E+01  0.39450967251E+01  0.44660672147E+01  0.00000000000E+00 0.  1.
</event>
<event>
 7    1  0.5022032E-011  0.4778727E+02  0.7816164E-02  0.1312668E+00
        -11   -1    0    0    0    0  0.00000000000E+00  0.00000000000E+00  0.45593999997E+02  0.45594000000E+02  0.51100000000E-03 0. -1.
         11   -1    0    0    0    0 -0.00000000000E+00 -0.00000000000E+00 -0.45593999997E+02  0.45594000000E+02  0.51100000000E-03 0.  1.
    9900012    2    1    2    0    0 -0.84229768861E+01  0.14227071365E+02  0.40128132337E+02  0.47787273001E+02  0.20000008919E+02 0.  0.
        -12    1    1    2    0    0  0.84229768861E+01 -0.14227071365E+02 -0.40128132337E+02  0.43400726999E+02  0.00000000000E+00 0.  1.
         11    1    3    3    0    0 -0.76535551350E+01  0.89081023370E+01  0.22761561921E+02  0.25612885328E+02  0.51100000000E-03 0. -1.
        -11    1    3    3    0    0  0.85464960810E+00  0.90061578957E+01  0.14956233547E+02  0.17479422993E+02  0.51100000000E-03 0.  1.
        -12    1    3    3    0    0 -0.16240713592E+01 -0.36871888680E+01  0.24103368692E+01  0.46949646805E+01  0.00000000000E+00 0.  1.
</event>
<event>
 7    1  0.5022032E-011  0.4778727E+02  0.7816164E-02  0.1312668E+00
        -11   -1    0    0    0    0  0.00000000000E+00  0.00000000000E+00  0.45593999997E+02  0.45594000000E+02  0.51100000000E-03 0. -1.
         11   -1    0    0    0    0 -0.00000000000E+00 -0.00000000000E+00 -0.45593999997E+02  0.45594000000E+02  0.51100000000E-03 0.  1.
    9900012    2    1    2    0    0 -0.92042791469E+01  0.30039269025E+02 -0.29942387608E+02  0.47787274040E+02  0.20000013658E+02 0.  0.
         12    1    1    2    0    0  0.92042791469E+01 -0.30039269025E+02  0.29942387608E+02  0.43400725960E+02  0.00000000000E+00 0. -1.
         11    1    3    3    0    0  0.26152031029E+01  0.10945368689E+02 -0.11778605699E+02  0.16290363271E+02  0.51100000000E-03 0.  1.
        -11    1    3    3    0    0 -0.85985915028E+01  0.36899409074E+01 -0.35097166530E+01  0.99934754204E+01  0.51100000000E-03 0. -1.
         12    1    3    3    0    0 -0.32208907469E+01  0.15403959428E+02 -0.14654065256E+02  0.21503435349E+02  0.00000000000E+00 0. -1.
</event>
<event>
 7    1  0.5022032E-011  0.4778725E+02  0.7816164E-02  0.1312668E+00
        -11   -1    0    0    0    0  0.00000000000E+00  0.00000000000E+00  0.45593999997E+02  0.45594000000E+02  0.51100000000E-03 0. -1.
         11   -1    0    0    0    0 -0.00000000000E+00 -0.00000000000E+00 -0.45593999997E+02  0.45594000000E+02  0.51100000000E-03 0.  1.
    9900012    2    1    2    0    0  0.15314395163E+02 -0.93771399980E+01 -0.39511566314E+02  0.47787247399E+02  0.19999892189E+02 0.  0.
         12    1    1    2    0    0 -0.15314395163E+02  0.93771399980E+01  0.39511566314E+02  0.43400752601E+02  0.00000000000E+00 0. -1.
         11    1    3    3    0    0  0.44569459732E+01 -0.42344083956E+01 -0.69180336480E+01  0.92549322896E+01  0.51100000000E-03 0.  1.
        -11    1    3    3    0    0 -0.45098505734E+01 -0.15244152635E+01 -0.72207836760E+01  0.86488329413E+01  0.51100000000E-03 0. -1.
         12    1    3    3    0    0  0.15367299763E+02 -0.36183163389E+01 -0.25372748990E+02  0.29883482168E+02  0.00000000000E+00 0. -1.
</event>
<event>
 7    1  0.5022032E-011  0.4778727E+02  0.7816164E-02  0.1312668E+00
        -11   -1    0    0    0    0  0.00000000000E+00  0.00000000000E+00  0.45593999997E+02  0.45594000000E+02  0.51100000000E-03 0. -1.
         11   -1    0    0    0    0 -0.00000000000E+00 -0.00000000000E+00 -0.45593999997E+02  0.45594000000E+02  0.51100000000E-03 0.  1.
    9900012    2    1    2    0    0 -0.73034702687E+01 -0.31756964893E+02  0.28666668856E+02  0.47787269586E+02  0.19999993349E+02 0.  0.
        -12    1    1    2    0    0  0.73034702687E+01  0.31756964893E+02 -0.28666668856E+02  0.43400730414E+02  0.00000000000E+00 0.  1.
         11    1    3    3    0    0 -0.28299551863E+01 -0.36986313488E+01 -0.21383162073E+01  0.51245406306E+01  0.51100000000E-03 0. -1.
        -11    1    3    3    0    0  0.11305497384E+01 -0.22473974825E+01  0.56657687427E+01  0.61991833222E+01  0.51100000000E-03 0.  1.
         12    1    3    3    0    0 -0.56040648207E+01 -0.25810936062E+02  0.25139216321E+02  0.36463545633E+02  0.00000000000E+00 0. -1.
</event>
<event>
 7    1  0.5022032E-011  0.4778727E+02  0.7816164E-02  0.1312668E+00
        -11   -1    0    0    0    0  0.00000000000E+00  0.00000000000E+00  0.45593999997E+02  0.45594000000E+02  0.51100000000E-03 0. -1.
         11   -1    0    0    0    0 -0.00000000000E+00 -0.00000000000E+00 -0.45593999997E+02  0.45594000000E+02  0.51100000000E-03 0.  1.
    9900012    2    1    2    0    0  0.11424997841E+02 -0.70767048473E+01  0.41267576145E+02  0.47787272263E+02  0.20000005558E+02 0.  0.
        -12    1    1    2    0    0 -0.11424997841E+02  0.70767048473E+01 -0.41267576145E+02  0.43400727737E+02  0.00000000000E+00 0.  1.
         11    1    3    3    0    0  0.26050398392E+01 -0.98577957246E+01  0.26151353492E+02  0.28068766607E+02  0.51100000000E-03 0. -1.
        -11    1    3    3    0    0  0.15478354079E+01  0.36837207962E+01  0.10035041836E+02  0.10801280399E+02  0.51100000000E-03 0.  1.
        -12    1    3    3    0    0  0.72721225938E+01 -0.90262991892E+00  0.50811808170E+01  0.89172252570E+01  0.00000000000E+00 0.  1.
</event>
<event>
 7    1  0.5022032E-011  0.4778726E+02  0.7816164E-02  0.1312668E+00
        -11   -1    0    0    0    0  0.00000000000E+00  0.00000000000E+00  0.45593999997E+02  0.45594000000E+02  0.51100000000E-03 0. -1.
         11   -1    0    0    0    0 -0.00000000000E+00 -0.00000000000E+00 -0.45593999997E+02  0.45594000000E+02  0.51100000000E-03 0.  1.
    9900012    2    1    2    0    0 -0.24293221503E+01 -0.77121717483E+01  0.42640879594E+02  0.47787264848E+02  0.19999971747E+02 0.  0.
        -12    1    1    2    0    0  0.24293221503E+01  0.77121717483E+01 -0.42640879594E+02  0.43400735152E+02  0.00000000000E+00 0.  1.
         11    1    3    3    0    0 -0.38448164563E+01 -0.12386828946E+02  0.27874345080E+02  0.30744028019E+02  0.51100000000E-03 0. -1.
        -11    1    3    3    0    0  0.81236374938E+00 -0.33580899382E+00  0.10198214051E+02  0.10236028166E+02  0.51100000000E-03 0.  1.
        -12    1    3    3    0    0  0.60313055656E+00  0.50104661911E+01  0.45683204636E+01  0.68072086628E+01  0.00000000000E+00 0.  1.
</event>
<event>
 7    1  0.5022032E-011  0.4778727E+02  0.7816164E-02  0.1312668E+00
        -11   -1    0    0    0    0  0.00000000000E+00  0.00000000000E+00  0.45593999997E+02  0.45594000000E+02  0.51100000000E-03 0. -1.
         11   -1    0    0    0    0 -0.00000000000E+00 -0.00000000000E+00 -0.45593999997E+02  0.45594000000E+02  0.51100000000E-03 0.  1.
    9900012    2    1    2    0    0 -0.52978351331E+01 -0.19084353621E+02  0.38617916593E+02  0.47787273138E+02  0.20000009544E+02 0.  0.
        -12    1    1    2    0    0  0.52978351331E+01  0.19084353621E+02 -0.38617916593E+02  0.43400726862E+02  0.00000000000E+00 0.  1.
         11    1    3    3    0    0 -0.11788805719E+01 -0.13282739185E+02  0.21322672420E+02  0.25149100959E+02  0.51100000000E-03 0. -1.
        -11    1    3    3    0    0  0.45931081713E+01 -0.21966400956E+01  0.72737331218E+01  0.88785733185E+01  0.51100000000E-03 0.  1.
         12    1    3    3    0    0 -0.87120627325E+01 -0.36049743404E+01  0.10021511051E+02  0.13759598860E+02  0.00000000000E+00 0. -1.
</event>
<event>
 7    1  0.5022032E-011  0.4778725E+02  0.7816164E-02  0.1312668E+00
        -11   -1    0    0    0    0  0.00000000000E+00  0.00000000000E+00  0.45593999997E+02  0.45594000000E+02  0.51100000000E-03 0. -1.
         11   -1    0    0    0    0 -0.00000000000E+00 -0.00000000000E+00 -0.45593999997E+02  0.45594000000E+02  0.51100000000E-03 0.  1.
    9900012    2    1    2    0    0 -0.20955466451E+02 -0.36539183418E+02 -0.10458586361E+02  0.47787245079E+02  0.19999881613E+02 0.  0.
         12    1    1    2    0    0  0.20955466451E+02  0.36539183418E+02  0.10458586361E+02  0.43400754921E+02  0.00000000000E+00 0. -1.
         11    1    3    3    0    0 -0.22056938637E+01 -0.82246310167E+01  0.17152268552E+01  0.86862905896E+01  0.51100000000E-03 0. -1.
        -11    1    3    3    0    0 -0.15270990627E+02 -0.27747990614E+02 -0.63640672226E+01  0.32305657241E+02  0.51100000000E-03 0.  1.
         12    1    3    3    0    0 -0.34787819599E+01 -0.56656178705E+00 -0.58097459940E+01  0.67952972487E+01  0.00000000000E+00 0. -1.
</event>
<event>
 7    1  0.5022032E-011  0.4778727E+02  0.7816164E-02  0.1312668E+00
        -11   -1    0    0    0    0  0.00000000000E+00  0.00000000000E+00  0.45593999997E+02  0.45594000000E+02  0.51100000000E-03 0. -1.
         11   -1    0    0    0    0 -0.00000000000E+00 -0.00000000000E+00 -0.45593999997E+02  0.45594000000E+02  0.51100000000E-03 0.  1.
    9900012    2    1    2    0    0  0.20859791592E+02 -0.10514597854E+02 -0.36577799753E+02  0.47787272955E+02  0.20000008711E+02 0.  0.
         12    1    1    2    0    0 -0.20859791592E+02  0.10514597854E+02  0.36577799753E+02  0.43400727045E+02  0.00000000000E+00 0. -1.
         11    1    3    3    0    0  0.46682864833E+01 -0.83106495444E+01 -0.20426966919E+02  0.22541534383E+02  0.51100000000E-03 0. -1.
        -11    1    3    3    0    0  0.70765924720E+01 -0.62388103193E+01 -0.76969024388E+01  0.12175517345E+02  0.51100000000E-03 0.  1.
        -12    1    3    3    0    0  0.91149126364E+01  0.40348620095E+01 -0.84539303944E+01  0.13070221227E+02  0.00000000000E+00 0.  1.
</event>
<event>
 7    1  0.5022032E-011  0.4778727E+02  0.7816164E-02  0.1312668E+00
        -11   -1    0    0    0    0  0.00000000000E+00  0.00000000000E+00  0.45593999997E+02  0.45594000000E+02  0.51100000000E-03 0. -1.
         11   -1    0    0    0    0 -0.00000000000E+00 -0.00000000000E+00 -0.45593999997E+02  0.45594000000E+02  0.51100000000E-03 0.  1.
    9900012    2    1    2    0    0  0.31967316784E+02  0.15006550102E+02  0.25229294770E+02  0.47787271862E+02  0.20000003728E+02 0.  0.
        -12    1    1    2    0    0 -0.31967316784E+02 -0.15006550102E+02 -0.25229294770E+02  0.43400728138E+02  0.00000000000E+00 0.  1.
         11    1    3    3    0    0  0.11848345576E+02  0.75285185913E+01  0.63026457087E+01  0.15387827275E+02  0.51100000000E-03 0. -1.
        -11    1    3    3    0    0  0.74373012116E+01 -0.44715831423E+01  0.81903109305E+01  0.11932715471E+02  0.51100000000E-03 0.  1.
        -12    1    3    3    0    0  0.12681669997E+02  0.11949614653E+02  0.10736338130E+02  0.20466729116E+02  0.00000000000E+00 0.  1.
</event>
<event>
 7    1  0.5022032E-011  0.4778727E+02  0.7816164E-02  0.1312668E+00
        -11   -1    0    0    0    0  0.00000000000E+00  0.00000000000E+00  0.45593999997E+02  0.45594000000E+02  0.51100000000E-03 0.  1.
         11   -1    0    0    0    0 -0.00000000000E+00 -0.00000000000E+00 -0.45593999997E+02  0.45594000000E+02  0.51100000000E-03 0. -1.
    9900012    2    1    2    0    0  0.42210247467E+02  0.55348496280E+01  0.84429719386E+01  0.47787270435E+02  0.19999997220E+02 0.  0.
        -12    1    1    2    0    0 -0.42210247467E+02 -0.55348496280E+01 -0.84429719386E+01  0.43400729565E+02  0.00000000000E+00 0.  1.
         11    1    3    3    0    0  0.14493785220E+02  0.29685121112E+01  0.69444547169E+01  0.16343418422E+02  0.51100000000E-03 0. -1.
        -11    1    3    3    0    0  0.23410012497E+02  0.73880260364E+01 -0.85739417072E+00  0.24563117449E+02  0.51100000000E-03 0.  1.
        -12    1    3    3    0    0  0.43064497507E+01 -0.48216885196E+01  0.23559113924E+01  0.68807345628E+01  0.00000000000E+00 0.  1.
</event>
<event>
 7    1  0.5022032E-011  0.4778725E+02  0.7816164E-02  0.1312668E+00
        -11   -1    0    0    0    0  0.00000000000E+00  0.00000000000E+00  0.45593999997E+02  0.45594000000E+02  0.51100000000E-03 0. -1.
         11   -1    0    0    0    0 -0.00000000000E+00 -0.00000000000E+00 -0.45593999997E+02  0.45594000000E+02  0.51100000000E-03 0.  1.
    9900012    2    1    2    0    0  0.35205641945E+02 -0.23820001199E+02 -0.87632982189E+01  0.47787250265E+02  0.19999905258E+02 0.  0.
         12    1    1    2    0    0 -0.35205641945E+02  0.23820001199E+02  0.87632982189E+01  0.43400749735E+02  0.00000000000E+00 0. -1.
         11    1    3    3    0    0  0.20861687155E+02 -0.18239007546E+02 -0.13040071409E+02  0.30625395505E+02  0.51100000000E-03 0. -1.
        -11    1    3    3    0    0  0.22581629968E+01 -0.32772183269E+01 -0.39918589481E+00  0.39998512125E+01  0.51100000000E-03 0.  1.
        -12    1    3    3    0    0  0.12085791793E+02 -0.23037753262E+01  0.46759590852E+01  0.13162003547E+02  0.00000000000E+00 0.  1.
</event>
<event>
 7    1  0.5022032E-011  0.4778726E+02  0.7816164E-02  0.1312668E+00
        -11   -1    0    0    0    0  0.00000000000E+00  0.00000000000E+00  0.45593999997E+02  0.45594000000E+02  0.51100000000E-03 0. -1.
         11   -1    0    0    0    0 -0.00000000000E+00 -0.00000000000E+00 -0.45593999997E+02  0.45594000000E+02  0.51100000000E-03 0.  1.
    9900012    2    1    2    0    0  0.17099560729E+02  0.32653396466E+00  0.39888874964E+02  0.47787263284E+02  0.19999964618E+02 0.  0.
        -12    1    1    2    0    0 -0.17099560729E+02 -0.32653396466E+00 -0.39888874964E+02  0.43400736716E+02  0.00000000000E+00 0.  1.
         11    1    3    3    0    0  0.12255811638E+02  0.70172091433E+01  0.27344608348E+02  0.30776188020E+02  0.51100000000E-03 0. -1.
        -11    1    3    3    0    0  0.51566993812E+00  0.17415489797E+01  0.33251382737E+01  0.37888590808E+01  0.51100000000E-03 0.  1.
        -12    1    3    3    0    0  0.43280791530E+01 -0.84322241583E+01  0.92191283427E+01  0.13222216184E+02  0.00000000000E+00 0.  1.
</event>
<event>
 7    1  0.5022032E-011  0.4778727E+02  0.7816164E-02  0.1312668E+00
        -11   -1    0    0    0    0  0.00000000000E+00  0.00000000000E+00  0.45593999997E+02  0.45594000000E+02  0.51100000000E-03 0. -1.
         11   -1    0    0    0    0 -0.00000000000E+00 -0.00000000000E+00 -0.45593999997E+02  0.45594000000E+02  0.51100000000E-03 0.  1.
    9900012    2    1    2    0    0  0.23063636919E+02 -0.22900702314E+02 -0.28761950352E+02  0.47787270715E+02  0.19999998497E+02 0.  0.
         12    1    1    2    0    0 -0.23063636919E+02  0.22900702314E+02  0.28761950352E+02  0.43400729285E+02  0.00000000000E+00 0. -1.
         11    1    3    3    0    0  0.78685403439E+01 -0.60839546270E+01 -0.12246760172E+02  0.15776931451E+02  0.51100000000E-03 0. -1.
        -11    1    3    3    0    0  0.16340491033E+01 -0.53306512466E+01 -0.12648575726E+02  0.13822895042E+02  0.51100000000E-03 0.  1.
         12    1    3    3    0    0  0.13561047472E+02 -0.11486096440E+02 -0.38666144546E+01  0.18187444222E+02  0.00000000000E+00 0. -1.
</event>
